Generated by trjconv : CNT in water t= 454.00000
33518
    1C        C    1   2.845   2.774   4.746
    1C        C    2   2.901   2.722   4.865
    1C        C    3   2.843   2.774   4.981
    1C        C    4   2.852   2.776   4.257
    1C        C    5   2.905   2.728   4.379
    1C        C    6   2.855   2.780   4.501
    1C        C    7   3.014   2.644   4.626
    1C        C    8   2.901   2.729   4.624
    1C        C    9   3.080   2.607   4.745
    1C        C   10   3.011   2.634   4.866
    1C        C   11   3.185   2.500   4.980
    1C        C   12   3.064   2.570   4.979
    1C        C   13   2.852   2.777   3.771
    1C        C   14   2.904   2.726   3.892
    1C        C   15   2.854   2.777   4.014
    1C        C   16   3.026   2.651   4.137
    1C        C   17   2.910   2.733   4.136
    1C        C   18   3.083   2.610   4.260
    1C        C   19   3.019   2.644   4.381
    1C        C   20   3.208   2.555   4.505
    1C        C   21   3.078   2.609   4.504
    1C        C   22   3.277   2.532   4.626
    1C        C   23   3.208   2.546   4.748
    1C        C   24   3.415   2.481   4.868
    1C        C   25   3.274   2.505   4.867
    1C        C   26   3.494   2.476   4.984
    1C        C   27   2.853   2.774   3.282
    1C        C   28   2.909   2.733   3.405
    1C        C   29   2.856   2.777   3.528
    1C        C   30   3.021   2.645   3.649
    1C        C   31   2.908   2.730   3.651
    1C        C   32   3.082   2.610   3.771
    1C        C   33   3.018   2.643   3.893
    1C        C   34   3.209   2.548   4.019
    1C        C   35   3.082   2.610   4.014
    1C        C   36   3.277   2.526   4.140
    1C        C   37   3.210   2.549   4.262
    1C        C   38   3.417   2.503   4.383
    1C        C   39   3.278   2.529   4.385
    1C        C   40   3.487   2.497   4.505
    1C        C   41   3.416   2.504   4.627
    1C        C   42   3.631   2.487   4.746
    1C        C   43   3.488   2.483   4.747
    1C        C   44   3.706   2.488   4.866
    1C        C   45   3.633   2.475   4.984
    1C        C   46   2.847   2.762   2.796
    1C        C   47   2.899   2.714   2.918
    1C        C   48   2.853   2.770   3.039
    1C        C   49   3.021   2.641   3.164
    1C        C   50   2.908   2.726   3.161
    1C        C   51   3.080   2.603   3.287
    1C        C   52   3.018   2.642   3.408
    1C        C   53   3.212   2.551   3.529
    1C        C   54   3.081   2.603   3.528
    1C        C   55   3.279   2.528   3.652
    1C        C   56   3.212   2.552   3.773
    1C        C   57   3.415   2.501   3.897
    1C        C   58   3.276   2.526   3.896
    1C        C   59   3.486   2.493   4.018
    1C        C   60   3.416   2.498   4.141
    1C        C   61   3.630   2.489   4.262
    1C        C   62   3.489   2.495   4.262
    1C        C   63   3.701   2.503   4.384
    1C        C   64   3.628   2.503   4.505
    1C        C   65   3.837   2.543   4.624
    1C        C   66   3.700   2.509   4.626
    1C        C   67   3.909   2.560   4.744
    1C        C   68   3.843   2.523   4.863
    1C        C   69   4.052   2.587   4.977
    1C        C   70   3.927   2.523   4.975
    1C        C   71   2.827   2.738   2.309
    1C        C   72   2.885   2.698   2.431
    1C        C   73   2.835   2.749   2.553
    1C        C   74   3.009   2.625   2.675
    1C        C   75   2.892   2.705   2.675
    1C        C   76   3.073   2.593   2.797
    1C        C   77   3.016   2.633   2.920
    1C        C   78   3.205   2.538   3.039
    1C        C   79   3.080   2.602   3.042
    1C        C   80   3.275   2.523   3.160
    1C        C   81   3.210   2.548   3.283
    1C        C   82   3.414   2.493   3.405
    1C        C   83   3.276   2.526   3.406
    1C        C   84   3.485   2.489   3.527
    1C        C   85   3.417   2.497   3.650
    1C        C   86   3.625   2.494   3.771
    1C        C   87   3.484   2.488   3.774
    1C        C   88   3.694   2.504   3.894
    1C        C   89   3.627   2.494   4.018
    1C        C   90   3.832   2.552   4.137
    1C        C   91   3.698   2.508   4.139
    1C        C   92   3.900   2.576   4.258
    1C        C   93   3.835   2.545   4.381
    1C        C   94   4.024   2.644   4.500
    1C        C   95   3.900   2.577   4.502
    1C        C   96   4.089   2.676   4.621
    1C        C   97   4.035   2.627   4.742
    1C        C   98   4.192   2.771   4.864
    1C        C   99   4.097   2.664   4.865
    1C        C  100   4.211   2.846   4.981
    1C        C  101   2.823   2.729   2.073
    1C        C  102   2.990   2.589   2.194
    1C        C  103   2.877   2.677   2.191
    1C        C  104   3.064   2.576   2.314
    1C        C  105   3.004   2.623   2.433
    1C        C  106   3.203   2.538   2.553
    1C        C  107   3.072   2.591   2.553
    1C        C  108   3.272   2.519   2.675
    1C        C  109   3.203   2.538   2.796
    1C        C  110   3.412   2.491   2.918
    1C        C  111   3.273   2.515   2.917
    1C        C  112   3.485   2.483   3.039
    1C        C  113   3.414   2.498   3.161
    1C        C  114   3.625   2.491   3.281
    1C        C  115   3.484   2.485   3.283
    1C        C  116   3.695   2.504   3.403
    1C        C  117   3.626   2.494   3.526
    1C        C  118   3.830   2.547   3.648
    1C        C  119   3.696   2.501   3.649
    1C        C  120   3.892   2.579   3.770
    1C        C  121   3.827   2.552   3.893
    1C        C  122   4.020   2.645   4.014
    1C        C  123   3.895   2.581   4.014
    1C        C  124   4.084   2.681   4.134
    1C        C  125   4.025   2.640   4.256
    1C        C  126   4.189   2.776   4.378
    1C        C  127   4.085   2.680   4.377
    1C        C  128   4.237   2.829   4.500
    1C        C  129   4.193   2.771   4.621
    1C        C  130   4.328   2.936   4.742
    1C        C  131   4.247   2.819   4.743
    1C        C  132   4.361   3.002   4.862
    1C        C  133   4.285   2.964   4.973
    1C        C  134   3.175   2.472   2.083
    1C        C  135   3.040   2.511   2.085
    1C        C  136   3.261   2.481   2.193
    1C        C  137   3.194   2.518   2.312
    1C        C  138   3.404   2.472   2.432
    1C        C  139   3.266   2.502   2.433
    1C        C  140   3.479   2.476   2.551
    1C        C  141   3.409   2.484   2.673
    1C        C  142   3.622   2.497   2.794
    1C        C  143   3.481   2.486   2.795
    1C        C  144   3.695   2.503   2.915
    1C        C  145   3.626   2.490   3.037
    1C        C  146   3.833   2.537   3.157
    1C        C  147   3.697   2.502   3.159
    1C        C  148   3.899   2.562   3.280
    1C        C  149   3.831   2.541   3.402
    1C        C  150   4.024   2.630   3.525
    1C        C  151   3.896   2.569   3.525
    1C        C  152   4.083   2.671   3.647
    1C        C  153   4.018   2.643   3.769
    1C        C  154   4.188   2.771   3.888
    1C        C  155   4.080   2.681   3.890
    1C        C  156   4.243   2.819   4.009
    1C        C  157   4.194   2.770   4.133
    1C        C  158   4.334   2.928   4.254
    1C        C  159   4.245   2.818   4.255
    1C        C  160   4.373   2.989   4.376
    1C        C  161   4.329   2.936   4.499
    1C        C  162   4.444   3.116   4.617
    1C        C  163   4.372   2.994   4.621
    1C        C  164   4.472   3.185   4.737
    1C        C  165   4.438   3.120   4.858
    1C        C  166   4.516   3.321   4.976
    1C        C  167   4.482   3.187   4.973
    1C        C  168   3.474   2.430   2.076
    1C        C  169   3.400   2.461   2.191
    1C        C  170   3.618   2.463   2.309
    1C        C  171   3.476   2.462   2.310
    1C        C  172   3.690   2.486   2.429
    1C        C  173   3.621   2.482   2.551
    1C        C  174   3.828   2.538   2.669
    1C        C  175   3.693   2.497   2.672
    1C        C  176   3.897   2.563   2.789
    1C        C  177   3.831   2.540   2.912
    1C        C  178   4.023   2.627   3.034
    1C        C  179   3.899   2.560   3.034
    1C        C  180   4.082   2.665   3.156
    1C        C  181   4.023   2.629   3.279
    1C        C  182   4.189   2.760   3.399
    1C        C  183   4.082   2.668   3.402
    1C        C  184   4.241   2.810   3.521
    1C        C  185   4.192   2.760   3.644
    1C        C  186   4.334   2.921   3.764
    1C        C  187   4.242   2.815   3.764
    1C        C  188   4.374   2.982   3.886
    1C        C  189   4.333   2.928   4.010
    1C        C  190   4.451   3.105   4.131
    1C        C  191   4.376   2.984   4.132
    1C        C  192   4.478   3.173   4.252
    1C        C  193   4.444   3.111   4.374
    1C        C  194   4.508   3.317   4.493
    1C        C  195   4.469   3.181   4.495
    1C        C  196   4.525   3.388   4.614
    1C        C  197   4.518   3.320   4.737
    1C        C  198   4.558   3.534   4.853
    1C        C  199   4.543   3.392   4.857
    1C        C  200   4.583   3.617   4.967
    1C        C  201   3.613   2.411   2.079
    1C        C  202   3.827   2.508   2.184
    1C        C  203   3.693   2.456   2.189
    1C        C  204   3.897   2.543   2.303
    1C        C  205   3.826   2.526   2.424
    1C        C  206   4.017   2.623   2.542
    1C        C  207   3.893   2.556   2.545
    1C        C  208   4.078   2.664   2.663
    1C        C  209   4.023   2.627   2.788
    1C        C  210   4.192   2.753   2.910
    1C        C  211   4.082   2.664   2.911
    1C        C  212   4.242   2.804   3.031
    1C        C  213   4.194   2.752   3.154
    1C        C  214   4.332   2.913   3.271
    1C        C  215   4.243   2.803   3.276
    1C        C  216   4.372   2.972   3.393
    1C        C  217   4.333   2.918   3.517
    1C        C  218   4.437   3.102   3.641
    1C        C  219   4.372   2.976   3.640
    1C        C  220   4.468   3.169   3.762
    1C        C  221   4.444   3.104   3.885
    1C        C  222   4.505   3.307   4.004
    1C        C  223   4.472   3.170   4.007
    1C        C  224   4.523   3.377   4.126
    1C        C  225   4.511   3.310   4.250
    1C        C  226   4.523   3.525   4.369
    1C        C  227   4.523   3.383   4.370
    1C        C  228   4.520   3.598   4.490
    1C        C  229   4.530   3.529   4.613
    1C        C  230   4.505   3.742   4.729
    1C        C  231   4.543   3.605   4.731
    1C        C  232   4.497   3.819   4.848
    1C        C  233   4.549   3.753   4.960
    1C        C  234   4.015   2.612   2.065
    1C        C  235   3.894   2.543   2.067
    1C        C  236   4.086   2.646   2.181
    1C        C  237   4.023   2.609   2.301
    1C        C  238   4.196   2.741   2.423
    1C        C  239   4.082   2.656   2.421
    1C        C  240   4.253   2.790   2.543
    1C        C  241   4.195   2.744   2.663
    1C        C  242   4.332   2.905   2.786
    1C        C  243   4.243   2.796   2.785
    1C        C  244   4.380   2.962   2.905
    1C        C  245   4.334   2.912   3.029
    1C        C  246   4.443   3.095   3.148
    1C        C  247   4.377   2.971   3.150
    1C        C  248   4.458   3.162   3.272
    1C        C  249   4.431   3.101   3.396
    1C        C  250   4.502   3.301   3.514
    1C        C  251   4.461   3.166   3.518
    1C        C  252   4.518   3.372   3.635
    1C        C  253   4.501   3.306   3.759
    1C        C  254   4.526   3.517   3.881
    1C        C  255   4.516   3.376   3.881
    1C        C  256   4.521   3.589   4.003
    1C        C  257   4.522   3.518   4.125
    1C        C  258   4.496   3.732   4.242
    1C        C  259   4.519   3.592   4.245
    1C        C  260   4.473   3.802   4.363
    1C        C  261   4.487   3.735   4.487
    1C        C  262   4.425   3.940   4.603
    1C        C  263   4.474   3.807   4.608
    1C        C  264   4.400   4.007   4.725
    1C        C  265   4.430   3.943   4.847
    1C        C  266   4.319   4.130   4.962
    1C        C  267   4.394   4.014   4.963
    1C        C  268   4.264   2.773   2.064
    1C        C  269   4.196   2.733   2.180
    1C        C  270   4.342   2.892   2.298
    1C        C  271   4.250   2.784   2.300
    1C        C  272   4.384   2.953   2.419
    1C        C  273   4.345   2.897   2.543
    1C        C  274   4.445   3.086   2.661
    1C        C  275   4.374   2.963   2.664
    1C        C  276   4.472   3.153   2.782
    1C        C  277   4.448   3.087   2.905
    1C        C  278   4.505   3.294   3.027
    1C        C  279   4.477   3.155   3.025
    1C        C  280   4.517   3.364   3.149
    1C        C  281   4.503   3.296   3.271
    1C        C  282   4.520   3.511   3.391
    1C        C  283   4.516   3.370   3.391
    1C        C  284   4.520   3.581   3.513
    1C        C  285   4.527   3.513   3.637
    1C        C  286   4.491   3.723   3.755
    1C        C  287   4.519   3.585   3.758
    1C        C  288   4.474   3.793   3.877
    1C        C  289   4.495   3.728   4.001
    1C        C  290   4.427   3.932   4.118
    1C        C  291   4.483   3.802   4.120
    1C        C  292   4.400   4.000   4.239
    1C        C  293   4.429   3.936   4.361
    1C        C  294   4.324   4.125   4.481
    1C        C  295   4.395   4.003   4.481
    1C        C  296   4.286   4.187   4.602
    1C        C  297   4.328   4.129   4.724
    1C        C  298   4.202   4.312   4.838
    1C        C  299   4.281   4.193   4.842
    1C        C  300   4.171   4.398   4.948
    1C        C  301   4.353   2.881   2.061
    1C        C  302   4.475   3.065   2.180
    1C        C  303   4.393   2.948   2.177
    1C        C  304   4.489   3.140   2.299
    1C        C  305   4.453   3.076   2.420
    1C        C  306   4.514   3.284   2.536
    1C        C  307   4.480   3.146   2.539
    1C        C  308   4.515   3.356   2.657
    1C        C  309   4.501   3.292   2.781
    1C        C  310   4.533   3.501   2.901
    1C        C  311   4.519   3.361   2.903
    1C        C  312   4.528   3.574   3.022
    1C        C  313   4.522   3.506   3.145
    1C        C  314   4.488   3.717   3.264
    1C        C  315   4.512   3.578   3.266
    1C        C  316   4.476   3.787   3.386
    1C        C  317   4.493   3.720   3.509
    1C        C  318   4.424   3.921   3.630
    1C        C  319   4.475   3.789   3.631
    1C        C  320   4.396   3.989   3.750
    1C        C  321   4.426   3.926   3.873
    1C        C  322   4.320   4.112   3.991
    1C        C  323   4.391   3.990   3.994
    1C        C  324   4.279   4.170   4.113
    1C        C  325   4.323   4.118   4.237
    1C        C  326   4.184   4.281   4.354
    1C        C  327   4.280   4.178   4.357
    1C        C  328   4.135   4.336   4.475
    1C        C  329   4.189   4.289   4.597
    1C        C  330   4.026   4.435   4.713
    1C        C  331   4.138   4.347   4.716
    1C        C  332   3.972   4.490   4.832
    1C        C  333   4.055   4.477   4.944
    1C        C  334   4.560   3.264   2.065
    1C        C  335   4.539   3.125   2.067
    1C        C  336   4.545   3.349   2.175
    1C        C  337   4.524   3.278   2.296
    1C        C  338   4.528   3.496   2.413
    1C        C  339   4.528   3.355   2.414
    1C        C  340   4.523   3.568   2.534
    1C        C  341   4.527   3.497   2.656
    1C        C  342   4.496   3.707   2.775
    1C        C  343   4.528   3.570   2.778
    1C        C  344   4.476   3.778   2.895
    1C        C  345   4.497   3.712   3.018
    1C        C  346   4.425   3.914   3.141
    1C        C  347   4.473   3.781   3.139
    1C        C  348   4.391   3.979   3.262
    1C        C  349   4.426   3.919   3.384
    1C        C  350   4.324   4.105   3.504
    1C        C  351   4.399   3.985   3.506
    1C        C  352   4.280   4.164   3.624
    1C        C  353   4.321   4.108   3.747
    1C        C  354   4.172   4.261   3.867
    1C        C  355   4.276   4.166   3.868
    1C        C  356   4.121   4.313   3.988
    1C        C  357   4.178   4.269   4.110
    1C        C  358   4.012   4.404   4.232
    1C        C  359   4.128   4.322   4.231
    1C        C  360   3.952   4.446   4.352
    1C        C  361   4.018   4.415   4.473
    1C        C  362   3.828   4.516   4.592
    1C        C  363   3.958   4.460   4.592
    1C        C  364   3.765   4.551   4.714
    1C        C  365   3.841   4.541   4.833
    1C        C  366   3.631   4.603   4.947
    1C        C  367   3.766   4.570   4.948
    1C        C  368   4.516   3.566   2.055
    1C        C  369   4.527   3.489   2.172
    1C        C  370   4.503   3.705   2.288
    1C        C  371   4.521   3.565   2.290
    1C        C  372   4.484   3.776   2.408
    1C        C  373   4.500   3.707   2.531
    1C        C  374   4.423   3.906   2.650
    1C        C  375   4.474   3.774   2.652
    1C        C  376   4.395   3.974   2.771
    1C        C  377   4.429   3.911   2.893
    1C        C  378   4.317   4.090   3.015
    1C        C  379   4.398   3.974   3.016
    1C        C  380   4.273   4.153   3.134
    1C        C  381   4.316   4.099   3.257
    1C        C  382   4.179   4.257   3.377
    1C        C  383   4.277   4.156   3.380
    1C        C  384   4.123   4.306   3.498
    1C        C  385   4.178   4.262   3.620
    1C        C  386   4.008   4.390   3.744
    1C        C  387   4.120   4.304   3.742
    1C        C  388   3.947   4.431   3.864
    1C        C  389   4.006   4.395   3.987
    1C        C  390   3.818   4.489   4.107
    1C        C  391   3.949   4.435   4.109
    1C        C  392   3.751   4.516   4.229
    1C        C  393   3.822   4.503   4.350
    1C        C  394   3.617   4.558   4.474
    1C        C  395   3.756   4.533   4.472
    1C        C  396   3.548   4.567   4.596
    1C        C  397   3.625   4.570   4.715
    1C        C  398   3.413   4.552   4.839
    1C        C  399   3.551   4.582   4.834
    1C        C  400   3.343   4.513   4.954
    1C        C  401   4.506   3.704   2.049
    1C        C  402   4.456   3.915   2.167
    1C        C  403   4.489   3.777   2.167
    1C        C  404   4.417   3.979   2.287
    1C        C  405   4.436   3.909   2.408
    1C        C  406   4.326   4.094   2.527
    1C        C  407   4.398   3.972   2.528
    1C        C  408   4.278   4.149   2.648
    1C        C  409   4.316   4.091   2.771
    1C        C  410   4.173   4.247   2.891
    1C        C  411   4.273   4.147   2.893
    1C        C  412   4.120   4.296   3.012
    1C        C  413   4.177   4.255   3.135
    1C        C  414   4.008   4.386   3.253
    1C        C  415   4.123   4.304   3.256
    1C        C  416   3.948   4.421   3.376
    1C        C  417   4.005   4.384   3.500
    1C        C  418   3.815   4.480   3.619
    1C        C  419   3.942   4.417   3.622
    1C        C  420   3.750   4.509   3.741
    1C        C  421   3.818   4.489   3.863
    1C        C  422   3.613   4.543   3.986
    1C        C  423   3.751   4.512   3.985
    1C        C  424   3.543   4.546   4.108
    1C        C  425   3.613   4.543   4.231
    1C        C  426   3.402   4.557   4.358
    1C        C  427   3.544   4.559   4.353
    1C        C  428   3.333   4.547   4.480
    1C        C  429   3.407   4.562   4.600
    1C        C  430   3.196   4.525   4.721
    1C        C  431   3.336   4.548   4.721
    1C        C  432   3.126   4.495   4.842
    1C        C  433   3.206   4.487   4.956
    1C        C  434   4.387   4.122   2.056
    1C        C  435   4.446   3.995   2.053
    1C        C  436   4.301   4.161   2.163
    1C        C  437   4.334   4.095   2.285
    1C        C  438   4.181   4.247   2.405
    1C        C  439   4.285   4.151   2.404
    1C        C  440   4.123   4.291   2.526
    1C        C  441   4.176   4.246   2.649
    1C        C  442   4.005   4.377   2.764
    1C        C  443   4.119   4.295   2.769
    1C        C  444   3.943   4.413   2.887
    1C        C  445   4.003   4.375   3.009
    1C        C  446   3.814   4.473   3.131
    1C        C  447   3.942   4.412   3.131
    1C        C  448   3.749   4.493   3.255
    1C        C  449   3.816   4.472   3.377
    1C        C  450   3.610   4.534   3.496
    1C        C  451   3.748   4.505   3.497
    1C        C  452   3.541   4.542   3.619
    1C        C  453   3.612   4.540   3.741
    1C        C  454   3.401   4.542   3.864
    1C        C  455   3.542   4.550   3.864
    1C        C  456   3.333   4.534   3.988
    1C        C  457   3.402   4.544   4.111
    1C        C  458   3.198   4.501   4.237
    1C        C  459   3.335   4.539   4.235
    1C        C  460   3.130   4.481   4.359
    1C        C  461   3.196   4.512   4.480
    1C        C  462   3.000   4.434   4.601
    1C        C  463   3.126   4.498   4.601
    1C        C  464   2.935   4.400   4.721
    1C        C  465   2.993   4.442   4.844
    1C        C  466   2.800   4.341   4.958
    1C        C  467   2.908   4.430   4.959
    1C        C  468   4.126   4.291   2.044
    1C        C  469   4.190   4.252   2.162
    1C        C  470   4.007   4.368   2.279
    1C        C  471   4.128   4.294   2.283
    1C        C  472   3.943   4.404   2.400
    1C        C  473   4.008   4.374   2.522
    1C        C  474   3.815   4.468   2.645
    1C        C  475   3.946   4.415   2.642
    1C        C  476   3.745   4.490   2.766
    1C        C  477   3.814   4.469   2.888
    1C        C  478   3.608   4.523   3.007
    1C        C  479   3.747   4.497   3.009
    1C        C  480   3.540   4.536   3.130
    1C        C  481   3.612   4.527   3.251
    1C        C  482   3.400   4.537   3.376
    1C        C  483   3.541   4.539   3.373
    1C        C  484   3.330   4.530   3.498
    1C        C  485   3.400   4.538   3.621
    1C        C  486   3.192   4.499   3.743
    1C        C  487   3.329   4.533   3.743
    1C        C  488   3.130   4.476   3.868
    1C        C  489   3.195   4.503   3.991
    1C        C  490   3.008   4.411   4.113
    1C        C  491   3.131   4.481   4.115
    1C        C  492   2.946   4.378   4.236
    1C        C  493   3.004   4.417   4.359
    1C        C  494   2.828   4.302   4.483
    1C        C  495   2.939   4.389   4.481
    1C        C  496   2.774   4.255   4.605
    1C        C  497   2.821   4.315   4.724
    1C        C  498   2.666   4.166   4.842
    1C        C  499   2.757   4.273   4.843
    1C        C  500   2.599   4.116   4.954
    1C        C  501   4.003   4.356   2.042
    1C        C  502   3.815   4.463   2.157
    1C        C  503   3.943   4.405   2.159
    1C        C  504   3.744   4.480   2.277
    1C        C  505   3.811   4.454   2.399
    1C        C  506   3.609   4.512   2.520
    1C        C  507   3.747   4.482   2.522
    1C        C  508   3.536   4.515   2.641
    1C        C  509   3.606   4.510   2.764
    1C        C  510   3.395   4.524   2.886
    1C        C  511   3.536   4.524   2.886
    1C        C  512   3.326   4.515   3.009
    1C        C  513   3.399   4.528   3.129
    1C        C  514   3.194   4.487   3.255
    1C        C  515   3.330   4.526   3.253
    1C        C  516   3.127   4.467   3.378
    1C        C  517   3.192   4.499   3.499
    1C        C  518   3.001   4.410   3.625
    1C        C  519   3.124   4.479   3.621
    1C        C  520   2.941   4.375   3.748
    1C        C  521   3.004   4.413   3.869
    1C        C  522   2.840   4.280   3.997
    1C        C  523   2.947   4.372   3.992
    1C        C  524   2.789   4.233   4.120
    1C        C  525   2.836   4.289   4.241
    1C        C  526   2.697   4.131   4.364
    1C        C  527   2.781   4.245   4.363
    1C        C  528   2.656   4.073   4.486
    1C        C  529   2.697   4.137   4.605
    1C        C  530   2.583   3.959   4.732
    1C        C  531   2.645   4.087   4.727
    1C        C  532   2.534   3.901   4.852
    1C        C  533   2.523   3.998   4.957
    1C        C  534   3.617   4.562   2.041
    1C        C  535   3.748   4.512   2.043
    1C        C  536   3.535   4.538   2.155
    1C        C  537   3.605   4.508   2.276
    1C        C  538   3.395   4.516   2.398
    1C        C  539   3.537   4.518   2.399
    1C        C  540   3.323   4.510   2.519
    1C        C  541   3.395   4.508   2.641
    1C        C  542   3.187   4.481   2.765
    1C        C  543   3.325   4.511   2.763
    1C        C  544   3.122   4.459   2.888
    1C        C  545   3.188   4.485   3.010
    1C        C  546   3.002   4.394   3.134
    1C        C  547   3.124   4.464   3.135
    1C        C  548   2.945   4.360   3.259
    1C        C  549   3.001   4.404   3.381
    1C        C  550   2.830   4.280   3.506
    1C        C  551   2.943   4.366   3.504
    1C        C  552   2.779   4.233   3.629
    1C        C  553   2.833   4.284   3.749
    1C        C  554   2.703   4.122   3.875
    1C        C  555   2.790   4.233   3.874
    1C        C  556   2.661   4.065   3.997
    1C        C  557   2.700   4.124   4.119
    1C        C  558   2.587   3.947   4.246
    1C        C  559   2.658   4.070   4.243
    1C        C  560   2.562   3.881   4.368
    1C        C  561   2.591   3.948   4.489
    1C        C  562   2.524   3.751   4.616
    1C        C  563   2.560   3.887   4.613
    1C        C  564   2.508   3.683   4.739
    1C        C  565   2.518   3.759   4.858
    1C        C  566   2.529   3.545   4.979
    1C        C  567   2.523   3.684   4.977
    1C        C  568   3.329   4.479   2.039
    1C        C  569   3.395   4.511   2.158
    1C        C  570   3.183   4.473   2.277
    1C        C  571   3.320   4.510   2.279
    1C        C  572   3.116   4.453   2.400
    1C        C  573   3.186   4.475   2.521
    1C        C  574   2.990   4.399   2.647
    1C        C  575   3.119   4.458   2.643
    1C        C  576   2.934   4.357   2.770
    1C        C  577   2.998   4.391   2.891
    1C        C  578   2.826   4.270   3.017
    1C        C  579   2.939   4.355   3.014
    1C        C  580   2.774   4.225   3.141
    1C        C  581   2.835   4.271   3.260
    1C        C  582   2.698   4.116   3.386
    1C        C  583   2.781   4.230   3.383
    1C        C  584   2.660   4.058   3.509
    1C        C  585   2.698   4.117   3.631
    1C        C  586   2.590   3.938   3.756
    1C        C  587   2.658   4.063   3.755
    1C        C  588   2.567   3.875   3.880
    1C        C  589   2.593   3.941   4.002
    1C        C  590   2.534   3.740   4.129
    1C        C  591   2.568   3.877   4.125
    1C        C  592   2.518   3.672   4.252
    1C        C  593   2.530   3.743   4.374
    1C        C  594   2.506   3.535   4.498
    1C        C  595   2.512   3.676   4.497
    1C        C  596   2.515   3.465   4.621
    1C        C  597   2.511   3.541   4.740
    1C        C  598   2.538   3.329   4.862
    1C        C  599   2.527   3.469   4.861
    1C        C  600   2.540   3.252   4.979
    1C        C  601   3.198   4.437   2.040
    1C        C  602   2.983   4.392   2.155
    1C        C  603   3.118   4.440   2.155
    1C        C  604   2.928   4.354   2.281
    1C        C  605   2.988   4.393   2.403
    1C        C  606   2.822   4.267   2.528
    1C        C  607   2.930   4.358   2.527
    1C        C  608   2.771   4.217   2.650
    1C        C  609   2.824   4.268   2.771
    1C        C  610   2.689   4.109   2.897
    1C        C  611   2.778   4.218   2.895
    1C        C  612   2.647   4.055   3.020
    1C        C  613   2.683   4.117   3.142
    1C        C  614   2.586   3.932   3.268
    1C        C  615   2.651   4.057   3.266
    1C        C  616   2.560   3.868   3.391
    1C        C  617   2.589   3.935   3.512
    1C        C  618   2.525   3.735   3.639
    1C        C  619   2.563   3.871   3.635
    1C        C  620   2.513   3.667   3.762
    1C        C  621   2.527   3.739   3.883
    1C        C  622   2.508   3.532   4.009
    1C        C  623   2.514   3.673   4.007
    1C        C  624   2.510   3.461   4.131
    1C        C  625   2.505   3.532   4.253
    1C        C  626   2.529   3.324   4.379
    1C        C  627   2.504   3.463   4.377
    1C        C  628   2.561   3.257   4.499
    1C        C  629   2.535   3.326   4.620
    1C        C  630   2.600   3.122   4.742
    1C        C  631   2.551   3.256   4.742
    1C        C  632   2.616   3.051   4.864
    1C        C  633   2.558   3.113   4.979
    1C        C  634   2.784   4.298   2.050
    1C        C  635   2.891   4.389   2.046
    1C        C  636   2.747   4.230   2.167
    1C        C  637   2.812   4.272   2.286
    1C        C  638   2.679   4.108   2.410
    1C        C  639   2.763   4.221   2.408
    1C        C  640   2.640   4.046   2.531
    1C        C  641   2.683   4.107   2.652
    1C        C  642   2.583   3.924   2.778
    1C        C  643   2.647   4.050   2.775
    1C        C  644   2.559   3.859   2.901
    1C        C  645   2.584   3.929   3.022
    1C        C  646   2.521   3.729   3.150
    1C        C  647   2.560   3.865   3.146
    1C        C  648   2.505   3.661   3.273
    1C        C  649   2.521   3.732   3.394
    1C        C  650   2.503   3.523   3.520
    1C        C  651   2.510   3.664   3.517
    1C        C  652   2.508   3.454   3.643
    1C        C  653   2.503   3.526   3.764
    1C        C  654   2.533   3.319   3.891
    1C        C  655   2.508   3.458   3.888
    1C        C  656   2.552   3.253   4.015
    1C        C  657   2.535   3.322   4.137
    1C        C  658   2.606   3.123   4.256
    1C        C  659   2.549   3.252   4.259
    1C        C  660   2.637   3.059   4.378
    1C        C  661   2.610   3.125   4.500
    1C        C  662   2.716   2.941   4.622
    1C        C  663   2.636   3.058   4.622
    1C        C  664   2.755   2.884   4.745
    1C        C  665   2.694   2.932   4.865
    1C        C  666   2.740   2.867   4.980
    1C        C  667   2.685   4.021   2.057
    1C        C  668   2.686   4.103   2.171
    1C        C  669   2.585   3.913   2.292
    1C        C  670   2.643   4.042   2.290
    1C        C  671   2.551   3.850   2.414
    1C        C  672   2.577   3.920   2.534
    1C        C  673   2.512   3.721   2.660
    1C        C  674   2.553   3.857   2.657
    1C        C  675   2.501   3.652   2.782
    1C        C  676   2.518   3.724   2.903
    1C        C  677   2.500   3.519   3.031
    1C        C  678   2.509   3.660   3.028
    1C        C  679   2.507   3.447   3.153
    1C        C  680   2.500   3.520   3.273
    1C        C  681   2.531   3.314   3.400
    1C        C  682   2.504   3.452   3.397
    1C        C  683   2.553   3.248   3.522
    1C        C  684   2.538   3.316   3.645
    1C        C  685   2.609   3.120   3.770
    1C        C  686   2.556   3.251   3.770
    1C        C  687   2.641   3.059   3.893
    1C        C  688   2.605   3.122   4.014
    1C        C  689   2.717   2.940   4.137
    1C        C  690   2.639   3.058   4.135
    1C        C  691   2.762   2.885   4.259
    1C        C  692   2.714   2.940   4.380
    1C        C  693   2.757   2.882   4.501
    1C        C  694   2.625   3.894   2.054
    1C        C  695   2.526   3.706   2.177
    1C        C  696   2.581   3.836   2.174
    1C        C  697   2.502   3.639   2.299
    1C        C  698   2.519   3.712   2.419
    1C        C  699   2.483   3.505   2.542
    1C        C  700   2.497   3.645   2.541
    1C        C  701   2.494   3.437   2.666
    1C        C  702   2.496   3.511   2.786
    1C        C  703   2.524   3.305   2.910
    1C        C  704   2.500   3.444   2.911
    1C        C  705   2.544   3.239   3.033
    1C        C  706   2.533   3.308   3.155
    1C        C  707   2.601   3.110   3.278
    1C        C  708   2.553   3.243   3.279
    1C        C  709   2.634   3.050   3.402
    1C        C  710   2.606   3.116   3.523
    1C        C  711   2.718   2.941   3.649
    1C        C  712   2.638   3.057   3.647
    1C        C  713   2.763   2.887   3.771
    1C        C  714   2.722   2.943   3.894
    1C        C  715   2.765   2.887   4.016
    1C        C  716   2.455   3.498   2.060
    1C        C  717   2.486   3.635   2.063
    1C        C  718   2.467   3.424   2.182
    1C        C  719   2.477   3.499   2.302
    1C        C  720   2.506   3.290   2.423
    1C        C  721   2.477   3.428   2.424
    1C        C  722   2.532   3.226   2.546
    1C        C  723   2.518   3.298   2.667
    1C        C  724   2.595   3.101   2.792
    1C        C  725   2.540   3.232   2.790
    1C        C  726   2.628   3.040   2.915
    1C        C  727   2.598   3.108   3.035
    1C        C  728   2.713   2.930   3.159
    1C        C  729   2.632   3.045   3.157
    1C        C  730   2.756   2.876   3.282
    1C        C  731   2.717   2.935   3.404
    1C        C  732   2.766   2.886   3.527
    1C        C  733   2.497   3.200   2.070
    1C        C  734   2.488   3.283   2.183
    1C        C  735   2.582   3.087   2.306
    1C        C  736   2.523   3.216   2.304
    1C        C  737   2.618   3.027   2.429
    1C        C  738   2.590   3.098   2.547
    1C        C  739   2.700   2.917   2.672
    1C        C  740   2.625   3.036   2.670
    1C        C  741   2.750   2.864   2.793
    1C        C  742   2.708   2.924   2.914
    1C        C  743   2.759   2.876   3.036
    1C        C  744   2.547   3.070   2.076
    1C        C  745   2.686   2.896   2.187
    1C        C  746   2.611   3.015   2.188
    1C        C  747   2.735   2.847   2.310
    1C        C  748   2.692   2.906   2.431
    1C        C  749   2.739   2.852   2.552
    1C        C  750   2.739   2.840   2.070
    1C        C  751   3.667   2.316   1.978
    1C        O  752   3.731   2.217   2.021
    1C        O  753   3.622   2.298   1.847
    1C        C  754   4.645   3.044   2.004
    1C        O  755   4.631   2.997   1.888
    1C        O  756   4.777   3.071   2.044
    1C        C  757   4.463   4.228   1.987
    1C        O  758   4.544   4.301   2.051
    1C        O  759   4.498   4.212   1.852
    1C        C  760   3.591   4.672   1.946
    1C        O  761   3.551   4.783   1.991
    1C        O  762   3.565   4.654   1.809
    1C        C  763   2.892   4.475   1.926
    1C        O  764   2.934   4.449   1.810
    1C        O  765   2.801   4.581   1.909
    1C        C  766   2.343   3.461   1.970
    1C        O  767   2.348   3.488   1.847
    1C        O  768   2.213   3.465   2.022
    1C        C  769   4.674   3.580   5.077
    1C        O  770   4.631   3.559   5.194
    1C        O  771   4.814   3.580   5.071
    1C        C  772   4.277   4.452   5.036
    1C        O  773   4.271   4.457   5.162
    1C        O  774   4.397   4.513   4.996
    1C        C  775   4.144   2.549   5.086
    1C        O  776   4.183   2.429   5.089
    1C        O  777   4.117   2.599   5.214
    1C        C  778   2.887   4.538   5.057
    1C        O  779   2.876   4.659   5.023
    1C        O  780   2.952   4.528   5.181
    1C        C  781   2.460   3.041   5.065
    1C        O  782   2.386   2.950   5.020
    1C        O  783   2.443   3.056   5.202
    1C        C  784   2.392   4.019   5.021
    1C        O  785   2.285   4.028   4.955
    1C        O  786   2.389   4.031   5.161
    1C        C  787   2.952   2.433   1.995
    1C        O  788   2.968   2.443   1.870
    1C        O  789   2.906   2.307   2.032
    1C        C  790   3.197   2.398   5.086
    1C        O  791   3.220   2.280   5.048
    1C        O  792   3.235   2.423   5.218
    1C        H  793   4.257   3.039   5.044
    1C        H  794   4.142   2.834   5.061
    1C        H  795   4.503   3.126   5.059
    1C        H  796   4.482   3.379   5.059
    1C        H  797   4.595   3.814   5.036
    1C        H  798   4.406   3.965   5.057
    1C        H  799   4.294   4.176   5.055
    1C        H  800   4.047   4.552   5.019
    1C        H  801   3.812   4.577   5.045
    1C        H  802   3.581   4.635   5.035
    1C        H  803   3.399   4.468   5.034
    1C        H  804   3.167   4.443   5.045
    1C        H  805   3.926   2.433   5.032
    1C        H  806   3.677   2.414   5.060
    1C        H  807   3.010   2.574   5.072
    1C        H  808   3.449   2.436   5.073
    1C        H  809   2.880   2.751   5.080
    1C        H  810   2.722   2.912   5.075
    1C        H  811   2.478   3.288   5.059
    1C        H  812   2.505   3.502   5.074
    1C        H  813   2.543   3.738   5.067
    1C        H  814   2.648   4.139   5.047
    1C        H  815   2.752   4.323   5.052
    1C        H  816   2.748   2.897   1.979
    1C        H  817   2.859   2.695   1.978
    1C        H  818   3.212   2.429   1.993
    1C        H  819   3.430   2.448   1.980
    1C        H  820   3.844   2.542   1.972
    1C        H  821   4.045   2.654   1.971
    1C        H  822   4.260   2.706   1.981
    1C        H  823   4.397   2.901   1.965
    1C        H  824   4.599   3.307   1.975
    1C        H  825   4.484   3.512   1.968
    1C        H  826   4.556   3.749   1.966
    1C        H  827   3.794   4.502   1.947
    1C        H  828   3.962   4.381   1.946
    1C        H  829   4.174   4.275   1.949
    1C        H  830   4.465   3.952   1.957
    1C        H  831   2.610   3.847   1.960
    1C        H  832   2.701   4.061   1.959
    1C        H  833   2.711   4.309   1.972
    1C        H  834   3.364   4.528   1.950
    1C        H  835   3.158   4.380   1.959
    1C        H  836   2.535   3.001   1.995
    1C        H  837   2.423   3.211   1.993
    1C        H  838   2.436   3.695   1.989
    2V3OU   H29  839   2.804   3.545   5.156
    2V3OU   C27  840   2.781   3.505   5.258
    2V3OU   H27  841   2.724   3.573   5.326
    2V3OU   H28  842   2.726   3.409   5.241
    2V3OU   O11  843   2.912   3.477   5.310
    2V3OU   C15  844   2.920   3.400   5.424
    2V3OU   C13  845   3.051   3.377   5.472
    2V3OU   C14  846   3.074   3.269   5.558
    2V3OU   C16  847   2.969   3.188   5.596
    2V3OU    H6  848   2.991   3.095   5.651
    2V3OU   C12  849   3.212   3.226   5.591
    2V3OU    O2  850   3.228   3.114   5.643
    2V3OU   C10  851   3.327   3.307   5.547
    2V3OU    C8  852   3.457   3.267   5.575
    2V3OU   O10  853   3.488   3.150   5.637
    2V3OU   H26  854   3.406   3.116   5.674
    2V3OU    C6  855   3.567   3.349   5.534
    2V3OU    C5  856   3.538   3.468   5.467
    2V3OU    C4  857   3.705   3.292   5.534
    2V3OU    H4  858   3.731   3.232   5.626
    2V3OU    H5  859   3.713   3.227   5.442
    2V3OU    C2  860   3.815   3.399   5.535
    2V3OU    O6  861   3.809   3.474   5.656
    2V3OU   H21  862   3.764   3.557   5.634
    2V3OU    C3  863   3.783   3.495   5.420
    2V3OU    H2  864   3.860   3.576   5.413
    2V3OU    H3  865   3.778   3.436   5.324
    2V3OU   C25  866   3.949   3.326   5.523
    2V3OU    O7  867   3.997   3.296   5.414
    2V3OU   C26  868   4.025   3.290   5.649
    2V3OU   H22  869   4.067   3.387   5.685
    2V3OU   H23  870   4.116   3.229   5.625
    2V3OU    O8  871   3.962   3.208   5.745
    2V3OU   H24  872   3.927   3.268   5.814
    2V3OU    C1  873   3.649   3.564   5.436
    2V3OU    H1  874   3.627   3.619   5.340
    2V3OU    O3  875   3.662   3.658   5.543
    2V3OU   C19  876   3.619   3.794   5.530
    2V3OU    H9  877   3.524   3.801   5.468
    2V3OU    O4  878   3.710   3.849   5.437
    2V3OU   C20  879   3.842   3.872   5.486
    2V3OU   H10  880   3.892   3.773   5.509
    2V3OU   C24  881   3.609   3.856   5.669
    2V3OU   H16  882   3.540   3.795   5.734
    2V3OU   H17  883   3.559   3.956   5.659
    2V3OU   C23  884   3.751   3.875   5.723
    2V3OU   H15  885   3.793   3.772   5.749
    2V3OU    N1  886   3.735   3.957   5.842
    2V3OU   H19  887   3.812   3.927   5.899
    2V3OU   H20  888   3.651   3.920   5.882
    2V3OU   C21  889   3.846   3.945   5.621
    2V3OU   H11  890   3.951   3.923   5.656
    2V3OU    O5  891   3.833   4.086   5.612
    2V3OU   H18  892   3.779   4.110   5.689
    2V3OU   C22  893   3.914   3.952   5.379
    2V3OU   H12  894   3.865   4.052   5.369
    2V3OU   H13  895   3.911   3.896   5.282
    2V3OU   H14  896   4.022   3.960   5.407
    2V3OU   C11  897   3.161   3.472   5.452
    2V3OU    O1  898   3.137   3.592   5.428
    2V3OU    C9  899   3.300   3.429   5.480
    2V3OU    C7  900   3.405   3.506   5.432
    2V3OU    O9  901   3.388   3.617   5.352
    2V3OU   H25  902   3.291   3.631   5.350
    2V3OU   C17  903   2.818   3.316   5.474
    2V3OU    H7  904   2.716   3.337   5.444
    2V3OU   C18  905   2.836   3.209   5.561
    2V3OU    H8  906   2.754   3.153   5.609
    3SOL     OW  907   3.864   3.723   4.228
    3SOL    HW1  908   3.787   3.695   4.171
    3SOL    HW2  909   3.949   3.688   4.188
    4SOL     OW  910   6.885   0.382   0.064
    4SOL    HW1  911   6.823   0.303   0.059
    4SOL    HW2  912   6.947   0.371   0.142
    5SOL     OW  913   5.221   2.224   1.068
    5SOL    HW1  914   5.307   2.203   1.114
    5SOL    HW2  915   5.167   2.285   1.126
    6SOL     OW  916   5.889   0.497   2.478
    6SOL    HW1  917   5.818   0.467   2.414
    6SOL    HW2  918   5.944   0.418   2.506
    7SOL     OW  919   1.172   4.288   4.519
    7SOL    HW1  920   1.084   4.319   4.484
    7SOL    HW2  921   1.238   4.285   4.444
    8SOL     OW  922   1.787   3.788   4.922
    8SOL    HW1  923   1.783   3.688   4.921
    8SOL    HW2  924   1.863   3.820   4.867
    9SOL     OW  925   0.038   0.809   6.391
    9SOL    HW1  926   0.021   0.720   6.434
    9SOL    HW2  927   0.045   0.797   6.292
   10SOL     OW  928   4.978   4.470   2.638
   10SOL    HW1  929   5.012   4.377   2.652
   10SOL    HW2  930   5.049   4.536   2.666
   11SOL     OW  931   2.458   2.024   0.565
   11SOL    HW1  932   2.530   2.007   0.498
   11SOL    HW2  933   2.405   1.940   0.579
   12SOL     OW  934   3.385   5.003   3.451
   12SOL    HW1  935   3.447   4.937   3.494
   12SOL    HW2  936   3.426   5.094   3.456
   13SOL     OW  937   5.329   6.273   1.314
   13SOL    HW1  938   5.341   6.180   1.277
   13SOL    HW2  939   5.309   6.267   1.412
   14SOL     OW  940   4.610   5.452   4.942
   14SOL    HW1  941   4.668   5.410   4.873
   14SOL    HW2  942   4.631   5.550   4.949
   15SOL     OW  943   7.013   6.467   6.139
   15SOL    HW1  944   0.001   6.432   6.231
   15SOL    HW2  945   0.059   6.430   6.079
   16SOL     OW  946   1.079   3.978   4.747
   16SOL    HW1  947   1.052   3.928   4.830
   16SOL    HW2  948   1.165   4.025   4.764
   17SOL     OW  949   6.552   2.002   4.955
   17SOL    HW1  950   6.566   1.928   5.021
   17SOL    HW2  951   6.456   2.007   4.929
   18SOL     OW  952   2.294   1.047   5.712
   18SOL    HW1  953   2.266   1.049   5.808
   18SOL    HW2  954   2.345   1.130   5.690
   19SOL     OW  955   2.473   0.636   3.350
   19SOL    HW1  956   2.482   0.537   3.340
   19SOL    HW2  957   2.558   0.680   3.322
   20SOL     OW  958   6.688   1.803   5.645
   20SOL    HW1  959   6.648   1.720   5.606
   20SOL    HW2  960   6.621   1.847   5.705
   21SOL     OW  961   2.778   5.006   3.250
   21SOL    HW1  962   2.808   5.101   3.238
   21SOL    HW2  963   2.805   4.974   3.341
   22SOL     OW  964   1.686   0.320   6.451
   22SOL    HW1  965   1.632   0.400   6.474
   22SOL    HW2  966   1.632   0.237   6.465
   23SOL     OW  967   6.184   4.557   1.466
   23SOL    HW1  968   6.156   4.561   1.562
   23SOL    HW2  969   6.284   4.564   1.461
   24SOL     OW  970   4.709   0.996   0.955
   24SOL    HW1  971   4.807   1.009   0.969
   24SOL    HW2  972   4.690   0.992   0.857
   25SOL     OW  973   1.391   1.130   4.666
   25SOL    HW1  974   1.317   1.114   4.600
   25SOL    HW2  975   1.386   1.061   4.738
   26SOL     OW  976   1.160   2.863   6.950
   26SOL    HW1  977   1.226   2.900   6.884
   26SOL    HW2  978   1.190   2.772   6.979
   27SOL     OW  979   6.125   1.215   1.321
   27SOL    HW1  980   6.198   1.153   1.295
   27SOL    HW2  981   6.083   1.254   1.239
   28SOL     OW  982   2.389   0.968   5.199
   28SOL    HW1  983   2.312   0.932   5.251
   28SOL    HW2  984   2.450   1.020   5.259
   29SOL     OW  985   0.673   0.136   1.145
   29SOL    HW1  986   0.718   0.062   1.095
   29SOL    HW2  987   0.739   0.180   1.205
   30SOL     OW  988   4.721   0.441   4.981
   30SOL    HW1  989   4.783   0.456   5.058
   30SOL    HW2  990   4.682   0.528   4.952
   31SOL     OW  991   1.430   3.758   5.800
   31SOL    HW1  992   1.450   3.692   5.727
   31SOL    HW2  993   1.412   3.709   5.885
   32SOL     OW  994   2.989   0.273   0.921
   32SOL    HW1  995   2.964   0.270   1.018
   32SOL    HW2  996   3.080   0.234   0.909
   33SOL     OW  997   1.487   5.371   6.401
   33SOL    HW1  998   1.454   5.426   6.478
   33SOL    HW2  999   1.422   5.297   6.383
   34SOL     OW 1000   2.202   5.240   5.509
   34SOL    HW1 1001   2.224   5.171   5.578
   34SOL    HW2 1002   2.205   5.331   5.550
   35SOL     OW 1003   2.476   3.562   0.022
   35SOL    HW1 1004   2.512   3.469   0.015
   35SOL    HW2 1005   2.409   3.577   6.974
   36SOL     OW 1006   4.362   1.353   4.521
   36SOL    HW1 1007   4.451   1.364   4.477
   36SOL    HW2 1008   4.337   1.256   4.522
   37SOL     OW 1009   3.004   0.381   4.339
   37SOL    HW1 1010   3.037   0.341   4.253
   37SOL    HW2 1011   2.925   0.329   4.371
   38SOL     OW 1012   7.008   4.198   2.884
   38SOL    HW1 1013   0.010   4.127   2.948
   38SOL    HW2 1014   0.058   4.215   2.819
   39SOL     OW 1015   6.795   5.265   6.818
   39SOL    HW1 1016   6.888   5.300   6.812
   39SOL    HW2 1017   6.755   5.290   6.907
   40SOL     OW 1018   3.737   1.022   6.812
   40SOL    HW1 1019   3.773   0.969   6.889
   40SOL    HW2 1020   3.813   1.053   6.755
   41SOL     OW 1021   5.611   3.729   1.809
   41SOL    HW1 1022   5.511   3.732   1.807
   41SOL    HW2 1023   5.643   3.753   1.901
   42SOL     OW 1024   2.823   5.610   6.423
   42SOL    HW1 1025   2.731   5.588   6.390
   42SOL    HW2 1026   2.871   5.526   6.448
   43SOL     OW 1027   3.799   6.946   4.807
   43SOL    HW1 1028   3.881   6.901   4.842
   43SOL    HW2 1029   3.824   7.008   4.733
   44SOL     OW 1030   0.057   0.737   5.683
   44SOL    HW1 1031   0.025   0.790   5.761
   44SOL    HW2 1032   0.008   0.765   5.601
   45SOL     OW 1033   2.705   5.470   0.090
   45SOL    HW1 1034   2.784   5.514   0.133
   45SOL    HW2 1035   2.658   5.412   0.156
   46SOL     OW 1036   0.418   2.938   4.118
   46SOL    HW1 1037   0.409   2.856   4.061
   46SOL    HW2 1038   0.357   3.010   4.084
   47SOL     OW 1039   6.215   2.717   0.980
   47SOL    HW1 1040   6.246   2.777   0.907
   47SOL    HW2 1041   6.287   2.651   1.003
   48SOL     OW 1042   6.317   3.467   0.950
   48SOL    HW1 1043   6.343   3.529   0.875
   48SOL    HW2 1044   6.288   3.380   0.913
   49SOL     OW 1045   4.060   4.192   0.204
   49SOL    HW1 1046   4.142   4.246   0.182
   49SOL    HW2 1047   4.087   4.098   0.221
   50SOL     OW 1048   6.564   2.855   0.038
   50SOL    HW1 1049   6.471   2.880   0.014
   50SOL    HW2 1050   6.568   2.827   0.134
   51SOL     OW 1051   2.361   5.810   2.996
   51SOL    HW1 1052   2.392   5.831   3.088
   51SOL    HW2 1053   2.387   5.716   2.972
   52SOL     OW 1054   5.983   2.400   1.228
   52SOL    HW1 1055   5.917   2.465   1.190
   52SOL    HW2 1056   6.063   2.449   1.262
   53SOL     OW 1057   4.293   0.008   2.132
   53SOL    HW1 1058   4.353   0.025   2.054
   53SOL    HW2 1059   4.347   0.005   2.216
   54SOL     OW 1060   5.673   0.119   6.777
   54SOL    HW1 1061   5.633   0.158   6.860
   54SOL    HW2 1062   5.600   0.086   6.717
   55SOL     OW 1063   0.939   3.339   6.575
   55SOL    HW1 1064   0.992   3.282   6.637
   55SOL    HW2 1065   0.913   3.424   6.622
   56SOL     OW 1066   0.919   2.965   6.866
   56SOL    HW1 1067   0.878   3.028   6.932
   56SOL    HW2 1068   1.005   2.930   6.903
   57SOL     OW 1069   4.436   6.547   0.099
   57SOL    HW1 1070   4.494   6.528   0.019
   57SOL    HW2 1071   4.439   6.644   0.120
   58SOL     OW 1072   0.423   0.404   6.845
   58SOL    HW1 1073   0.345   0.459   6.875
   58SOL    HW2 1074   0.409   0.375   6.751
   59SOL     OW 1075   4.914   3.261   5.839
   59SOL    HW1 1076   4.995   3.242   5.783
   59SOL    HW2 1077   4.942   3.285   5.931
   60SOL     OW 1078   5.077   1.068   2.925
   60SOL    HW1 1079   5.106   1.034   3.014
   60SOL    HW2 1080   5.157   1.091   2.870
   61SOL     OW 1081   6.766   5.774   4.524
   61SOL    HW1 1082   6.675   5.811   4.507
   61SOL    HW2 1083   6.823   5.788   4.444
   62SOL     OW 1084   6.160   2.578   2.236
   62SOL    HW1 1085   6.096   2.646   2.198
   62SOL    HW2 1086   6.110   2.517   2.297
   63SOL     OW 1087   4.301   6.666   5.292
   63SOL    HW1 1088   4.327   6.647   5.198
   63SOL    HW2 1089   4.218   6.615   5.315
   64SOL     OW 1090   0.831   4.032   5.841
   64SOL    HW1 1091   0.873   4.121   5.860
   64SOL    HW2 1092   0.811   3.986   5.928
   65SOL     OW 1093   0.594   6.861   5.223
   65SOL    HW1 1094   0.546   6.780   5.190
   65SOL    HW2 1095   0.641   6.839   5.308
   66SOL     OW 1096   4.194   0.524   2.375
   66SOL    HW1 1097   4.095   0.541   2.384
   66SOL    HW2 1098   4.213   0.429   2.397
   67SOL     OW 1099   0.311   2.715   1.495
   67SOL    HW1 1100   0.343   2.637   1.441
   67SOL    HW2 1101   0.305   2.687   1.591
   68SOL     OW 1102   7.020   1.945   5.303
   68SOL    HW1 1103   6.994   1.987   5.217
   68SOL    HW2 1104   6.952   1.966   5.373
   69SOL     OW 1105   0.552   6.159   6.358
   69SOL    HW1 1106   0.542   6.099   6.438
   69SOL    HW2 1107   0.643   6.201   6.360
   70SOL     OW 1108   5.161   3.394   4.376
   70SOL    HW1 1109   5.148   3.460   4.301
   70SOL    HW2 1110   5.107   3.421   4.455
   71SOL     OW 1111   5.196   1.684   5.067
   71SOL    HW1 1112   5.238   1.647   5.150
   71SOL    HW2 1113   5.120   1.626   5.039
   72SOL     OW 1114   6.973   0.714   3.766
   72SOL    HW1 1115   0.007   0.637   3.744
   72SOL    HW2 1116   7.002   0.794   3.714
   73SOL     OW 1117   2.867   1.005   1.258
   73SOL    HW1 1118   2.832   0.951   1.335
   73SOL    HW2 1119   2.883   0.945   1.180
   74SOL     OW 1120   2.640   2.099   0.765
   74SOL    HW1 1121   2.608   2.034   0.833
   74SOL    HW2 1122   2.578   2.098   0.686
   75SOL     OW 1123   3.587   3.665   0.598
   75SOL    HW1 1124   3.559   3.718   0.678
   75SOL    HW2 1125   3.581   3.568   0.620
   76SOL     OW 1126   3.307   4.809   5.425
   76SOL    HW1 1127   3.302   4.903   5.458
   76SOL    HW2 1128   3.215   4.774   5.408
   77SOL     OW 1129   0.510   4.659   4.509
   77SOL    HW1 1130   0.449   4.733   4.540
   77SOL    HW2 1131   0.560   4.689   4.428
   78SOL     OW 1132   4.682   1.867   0.916
   78SOL    HW1 1133   4.736   1.790   0.949
   78SOL    HW2 1134   4.725   1.953   0.944
   79SOL     OW 1135   1.004   4.578   3.065
   79SOL    HW1 1136   1.046   4.596   2.976
   79SOL    HW2 1137   0.981   4.665   3.109
   80SOL     OW 1138   3.869   0.833   4.993
   80SOL    HW1 1139   3.835   0.921   5.026
   80SOL    HW2 1140   3.919   0.846   4.908
   81SOL     OW 1141   4.242   5.998   1.337
   81SOL    HW1 1142   4.278   6.090   1.349
   81SOL    HW2 1143   4.160   5.986   1.392
   82SOL     OW 1144   2.637   6.223   1.997
   82SOL    HW1 1145   2.618   6.145   2.058
   82SOL    HW2 1146   2.648   6.306   2.052
   83SOL     OW 1147   5.362   0.889   4.630
   83SOL    HW1 1148   5.314   0.828   4.694
   83SOL    HW2 1149   5.295   0.948   4.586
   84SOL     OW 1150   5.073   2.580   2.185
   84SOL    HW1 1151   5.149   2.544   2.131
   84SOL    HW2 1152   5.059   2.522   2.266
   85SOL     OW 1153   2.274   6.856   4.422
   85SOL    HW1 1154   2.228   6.839   4.335
   85SOL    HW2 1155   2.212   6.835   4.498
   86SOL     OW 1156   6.119   0.504   0.012
   86SOL    HW1 1157   6.171   0.538   0.090
   86SOL    HW2 1158   6.181   0.468   6.968
   87SOL     OW 1159   2.600   4.310   6.587
   87SOL    HW1 1160   2.613   4.303   6.488
   87SOL    HW2 1161   2.583   4.406   6.612
   88SOL     OW 1162   3.744   3.974   0.539
   88SOL    HW1 1163   3.807   4.011   0.471
   88SOL    HW2 1164   3.724   3.878   0.518
   89SOL     OW 1165   2.968   3.768   4.336
   89SOL    HW1 1166   3.058   3.762   4.293
   89SOL    HW2 1167   2.963   3.851   4.392
   90SOL     OW 1168   4.968   3.741   2.393
   90SOL    HW1 1169   5.005   3.709   2.306
   90SOL    HW2 1170   4.877   3.778   2.378
   91SOL     OW 1171   4.351   5.409   5.289
   91SOL    HW1 1172   4.344   5.335   5.355
   91SOL    HW2 1173   4.365   5.371   5.197
   92SOL     OW 1174   5.650   3.489   6.095
   92SOL    HW1 1175   5.694   3.400   6.083
   92SOL    HW2 1176   5.692   3.556   6.033
   93SOL     OW 1177   2.916   3.261   2.147
   93SOL    HW1 1178   2.844   3.319   2.184
   93SOL    HW2 1179   2.965   3.216   2.222
   94SOL     OW 1180   3.155   1.600   5.105
   94SOL    HW1 1181   3.065   1.559   5.120
   94SOL    HW2 1182   3.225   1.542   5.146
   95SOL     OW 1183   0.889   0.527   4.005
   95SOL    HW1 1184   0.946   0.599   4.045
   95SOL    HW2 1185   0.835   0.483   4.076
   96SOL     OW 1186   5.996   4.737   0.416
   96SOL    HW1 1187   6.050   4.789   0.482
   96SOL    HW2 1188   6.021   4.764   0.324
   97SOL     OW 1189   2.099   4.937   5.848
   97SOL    HW1 1190   2.156   4.967   5.772
   97SOL    HW2 1191   2.098   4.837   5.852
   98SOL     OW 1192   1.717   2.322   3.332
   98SOL    HW1 1193   1.697   2.224   3.327
   98SOL    HW2 1194   1.815   2.336   3.346
   99SOL     OW 1195   3.805   3.593   5.046
   99SOL    HW1 1196   3.785   3.653   5.123
   99SOL    HW2 1197   3.753   3.624   4.966
  100SOL     OW 1198   6.724   1.550   4.658
  100SOL    HW1 1199   6.799   1.564   4.723
  100SOL    HW2 1200   6.752   1.582   4.568
  101SOL     OW 1201   6.465   3.464   2.572
  101SOL    HW1 1202   6.415   3.381   2.595
  101SOL    HW2 1203   6.407   3.523   2.516
  102SOL     OW 1204   4.490   6.797   0.176
  102SOL    HW1 1205   4.555   6.857   0.128
  102SOL    HW2 1206   4.516   6.792   0.272
  103SOL     OW 1207   3.484   1.059   2.164
  103SOL    HW1 1208   3.435   1.046   2.250
  103SOL    HW2 1209   3.423   1.040   2.087
  104SOL     OW 1210   6.601   4.574   2.435
  104SOL    HW1 1211   6.565   4.495   2.484
  104SOL    HW2 1212   6.630   4.546   2.343
  105SOL     OW 1213   6.403   1.155   5.386
  105SOL    HW1 1214   6.307   1.140   5.363
  105SOL    HW2 1215   6.433   1.243   5.348
  106SOL     OW 1216   4.834   5.246   1.626
  106SOL    HW1 1217   4.805   5.269   1.533
  106SOL    HW2 1218   4.754   5.216   1.679
  107SOL     OW 1219   5.880   6.897   1.110
  107SOL    HW1 1220   5.836   6.942   1.032
  107SOL    HW2 1221   5.955   6.955   1.144
  108SOL     OW 1222   2.518   1.462   4.222
  108SOL    HW1 1223   2.583   1.526   4.263
  108SOL    HW2 1224   2.424   1.494   4.240
  109SOL     OW 1225   1.837   1.109   4.452
  109SOL    HW1 1226   1.823   1.010   4.451
  109SOL    HW2 1227   1.773   1.151   4.517
  110SOL     OW 1228   3.415   4.264   5.579
  110SOL    HW1 1229   3.387   4.237   5.487
  110SOL    HW2 1230   3.402   4.187   5.642
  111SOL     OW 1231   6.257   1.891   1.439
  111SOL    HW1 1232   6.311   1.808   1.451
  111SOL    HW2 1233   6.270   1.951   1.518
  112SOL     OW 1234   4.826   6.428   6.544
  112SOL    HW1 1235   4.795   6.352   6.487
  112SOL    HW2 1236   4.906   6.471   6.503
  113SOL     OW 1237   0.557   6.199   2.111
  113SOL    HW1 1238   0.579   6.104   2.088
  113SOL    HW2 1239   0.602   6.224   2.197
  114SOL     OW 1240   0.294   3.351   2.717
  114SOL    HW1 1241   0.367   3.338   2.783
  114SOL    HW2 1242   0.208   3.315   2.754
  115SOL     OW 1243   5.411   0.279   3.513
  115SOL    HW1 1244   5.427   0.370   3.550
  115SOL    HW2 1245   5.432   0.278   3.415
  116SOL     OW 1246   0.342   5.193   0.190
  116SOL    HW1 1247   0.247   5.194   0.220
  116SOL    HW2 1248   0.402   5.187   0.270
  117SOL     OW 1249   2.045   2.327   0.583
  117SOL    HW1 1250   1.985   2.326   0.503
  117SOL    HW2 1251   2.133   2.285   0.560
  118SOL     OW 1252   0.954   2.231   3.815
  118SOL    HW1 1253   0.961   2.179   3.730
  118SOL    HW2 1254   0.866   2.210   3.859
  119SOL     OW 1255   6.314   6.920   6.135
  119SOL    HW1 1256   6.256   6.965   6.067
  119SOL    HW2 1257   6.338   6.829   6.104
  120SOL     OW 1258   5.235   2.564   4.955
  120SOL    HW1 1259   5.211   2.661   4.964
  120SOL    HW2 1260   5.215   2.533   4.862
  121SOL     OW 1261   1.097   4.881   6.756
  121SOL    HW1 1262   1.157   4.817   6.707
  121SOL    HW2 1263   1.055   4.834   6.834
  122SOL     OW 1264   0.311   4.145   6.522
  122SOL    HW1 1265   0.226   4.171   6.476
  122SOL    HW2 1266   0.364   4.084   6.463
  123SOL     OW 1267   0.866   1.882   1.841
  123SOL    HW1 1268   0.837   1.974   1.869
  123SOL    HW2 1269   0.924   1.888   1.760
  124SOL     OW 1270   2.081   2.826   0.614
  124SOL    HW1 1271   1.989   2.838   0.577
  124SOL    HW2 1272   2.088   2.737   0.658
  125SOL     OW 1273   4.135   3.489   0.320
  125SOL    HW1 1274   4.046   3.513   0.358
  125SOL    HW2 1275   4.197   3.464   0.395
  126SOL     OW 1276   4.005   3.865   4.704
  126SOL    HW1 1277   4.064   3.800   4.752
  126SOL    HW2 1278   4.018   3.855   4.605
  127SOL     OW 1279   0.541   5.552   5.674
  127SOL    HW1 1280   0.548   5.598   5.762
  127SOL    HW2 1281   0.462   5.490   5.675
  128SOL     OW 1282   4.323   3.060   6.892
  128SOL    HW1 1283   4.359   3.100   6.807
  128SOL    HW2 1284   4.230   3.092   6.907
  129SOL     OW 1285   1.176   5.303   1.779
  129SOL    HW1 1286   1.086   5.322   1.739
  129SOL    HW2 1287   1.234   5.383   1.769
  130SOL     OW 1288   6.482   2.717   4.469
  130SOL    HW1 1289   6.405   2.781   4.466
  130SOL    HW2 1290   6.557   2.752   4.414
  131SOL     OW 1291   0.520   2.386   3.549
  131SOL    HW1 1292   0.494   2.440   3.630
  131SOL    HW2 1293   0.547   2.294   3.578
  132SOL     OW 1294   4.042   3.302   2.142
  132SOL    HW1 1295   4.103   3.270   2.069
  132SOL    HW2 1296   3.953   3.256   2.133
  133SOL     OW 1297   5.297   6.491   6.429
  133SOL    HW1 1298   5.305   6.540   6.342
  133SOL    HW2 1299   5.201   6.490   6.458
  134SOL     OW 1300   5.557   1.612   1.566
  134SOL    HW1 1301   5.523   1.587   1.475
  134SOL    HW2 1302   5.499   1.684   1.604
  135SOL     OW 1303   5.043   2.929   3.477
  135SOL    HW1 1304   5.071   2.870   3.402
  135SOL    HW2 1305   5.106   2.919   3.553
  136SOL     OW 1306   3.245   0.024   6.559
  136SOL    HW1 1307   3.230   0.001   6.463
  136SOL    HW2 1308   3.188   6.991   6.616
  137SOL     OW 1309   3.179   3.217   5.961
  137SOL    HW1 1310   3.258   3.155   5.960
  137SOL    HW2 1311   3.165   3.253   6.053
  138SOL     OW 1312   1.134   5.308   6.549
  138SOL    HW1 1313   1.111   5.268   6.638
  138SOL    HW2 1314   1.199   5.249   6.502
  139SOL     OW 1315   1.844   6.341   0.810
  139SOL    HW1 1316   1.899   6.355   0.892
  139SOL    HW2 1317   1.905   6.332   0.731
  140SOL     OW 1318   2.976   0.620   0.972
  140SOL    HW1 1319   3.044   0.615   1.045
  140SOL    HW2 1320   2.899   0.559   0.994
  141SOL     OW 1321   0.132   2.604   0.452
  141SOL    HW1 1322   0.146   2.508   0.431
  141SOL    HW2 1323   0.140   2.619   0.550
  142SOL     OW 1324   0.999   4.243   1.490
  142SOL    HW1 1325   0.945   4.244   1.406
  142SOL    HW2 1326   1.019   4.337   1.519
  143SOL     OW 1327   4.883   6.093   2.156
  143SOL    HW1 1328   4.893   5.997   2.182
  143SOL    HW2 1329   4.867   6.100   2.058
  144SOL     OW 1330   3.183   5.192   3.909
  144SOL    HW1 1331   3.272   5.165   3.944
  144SOL    HW2 1332   3.115   5.121   3.932
  145SOL     OW 1333   6.883   4.832   3.124
  145SOL    HW1 1334   6.876   4.740   3.164
  145SOL    HW2 1335   6.899   4.824   3.026
  146SOL     OW 1336   5.406   0.899   6.159
  146SOL    HW1 1337   5.378   0.869   6.068
  146SOL    HW2 1338   5.505   0.891   6.169
  147SOL     OW 1339   5.106   0.911   5.034
  147SOL    HW1 1340   5.034   0.977   5.058
  147SOL    HW2 1341   5.096   0.829   5.090
  148SOL     OW 1342   0.795   5.377   0.844
  148SOL    HW1 1343   0.806   5.360   0.746
  148SOL    HW2 1344   0.723   5.444   0.860
  149SOL     OW 1345   1.819   2.599   5.350
  149SOL    HW1 1346   1.849   2.659   5.276
  149SOL    HW2 1347   1.898   2.558   5.394
  150SOL     OW 1348   4.176   1.404   5.027
  150SOL    HW1 1349   4.184   1.480   4.962
  150SOL    HW2 1350   4.185   1.440   5.120
  151SOL     OW 1351   3.909   3.065   0.924
  151SOL    HW1 1352   3.945   2.972   0.931
  151SOL    HW2 1353   3.844   3.070   0.848
  152SOL     OW 1354   0.481   2.334   0.998
  152SOL    HW1 1355   0.500   2.268   1.070
  152SOL    HW2 1356   0.553   2.331   0.930
  153SOL     OW 1357   2.986   1.230   3.613
  153SOL    HW1 1358   3.038   1.161   3.562
  153SOL    HW2 1359   2.892   1.197   3.626
  154SOL     OW 1360   6.325   1.426   2.752
  154SOL    HW1 1361   6.414   1.459   2.722
  154SOL    HW2 1362   6.335   1.332   2.786
  155SOL     OW 1363   0.427   6.790   2.117
  155SOL    HW1 1364   0.449   6.874   2.168
  155SOL    HW2 1365   0.444   6.805   2.020
  156SOL     OW 1366   5.132   2.548   0.588
  156SOL    HW1 1367   5.036   2.576   0.589
  156SOL    HW2 1368   5.155   2.505   0.675
  157SOL     OW 1369   3.334   5.440   0.556
  157SOL    HW1 1370   3.433   5.435   0.545
  157SOL    HW2 1371   3.310   5.416   0.650
  158SOL     OW 1372   0.186   2.619   3.384
  158SOL    HW1 1373   0.142   2.571   3.308
  158SOL    HW2 1374   0.239   2.554   3.438
  159SOL     OW 1375   6.039   4.945   0.624
  159SOL    HW1 1376   6.000   4.909   0.708
  159SOL    HW2 1377   5.993   5.031   0.599
  160SOL     OW 1378   6.466   0.053   1.998
  160SOL    HW1 1379   6.427   0.140   2.027
  160SOL    HW2 1380   6.392   7.017   1.966
  161SOL     OW 1381   0.299   6.003   0.582
  161SOL    HW1 1382   0.355   5.928   0.617
  161SOL    HW2 1383   0.358   6.071   0.539
  162SOL     OW 1384   4.649   6.991   6.990
  162SOL    HW1 1385   4.653   0.063   7.013
  162SOL    HW2 1386   4.679   6.978   6.896
  163SOL     OW 1387   0.203   4.267   3.094
  163SOL    HW1 1388   0.274   4.224   3.039
  163SOL    HW2 1389   0.130   4.201   3.112
  164SOL     OW 1390   2.418   2.281   3.756
  164SOL    HW1 1391   2.499   2.276   3.814
  164SOL    HW2 1392   2.444   2.271   3.660
  165SOL     OW 1393   0.200   6.089   3.335
  165SOL    HW1 1394   0.177   6.077   3.431
  165SOL    HW2 1395   0.151   6.168   3.299
  166SOL     OW 1396   6.538   4.299   3.484
  166SOL    HW1 1397   6.598   4.223   3.461
  166SOL    HW2 1398   6.514   4.295   3.581
  167SOL     OW 1399   3.087   2.359   0.014
  167SOL    HW1 1400   3.130   2.333   6.952
  167SOL    HW2 1401   2.997   2.398   7.021
  168SOL     OW 1402   5.099   3.808   1.427
  168SOL    HW1 1403   5.077   3.772   1.336
  168SOL    HW2 1404   5.055   3.751   1.497
  169SOL     OW 1405   4.971   2.182   0.642
  169SOL    HW1 1406   4.966   2.281   0.650
  169SOL    HW2 1407   5.066   2.152   0.655
  170SOL     OW 1408   0.081   5.976   2.339
  170SOL    HW1 1409   0.106   5.985   2.242
  170SOL    HW2 1410   7.008   5.962   2.347
  171SOL     OW 1411   3.498   4.139   0.299
  171SOL    HW1 1412   3.420   4.174   0.351
  171SOL    HW2 1413   3.508   4.041   0.317
  172SOL     OW 1414   0.042   2.142   6.432
  172SOL    HW1 1415   0.002   2.129   6.341
  172SOL    HW2 1416   0.066   2.052   6.470
  173SOL     OW 1417   6.927   1.887   4.036
  173SOL    HW1 1418   6.941   1.963   4.100
  173SOL    HW2 1419   6.828   1.873   4.023
  174SOL     OW 1420   5.773   5.447   5.204
  174SOL    HW1 1421   5.746   5.360   5.163
  174SOL    HW2 1422   5.860   5.477   5.164
  175SOL     OW 1423   0.196   0.106   1.015
  175SOL    HW1 1424   0.252   0.065   0.943
  175SOL    HW2 1425   0.211   0.205   1.016
  176SOL     OW 1426   6.021   4.339   1.389
  176SOL    HW1 1427   6.084   4.414   1.369
  176SOL    HW2 1428   5.941   4.375   1.437
  177SOL     OW 1429   6.049   2.859   4.607
  177SOL    HW1 1430   6.111   2.883   4.532
  177SOL    HW2 1431   5.956   2.886   4.583
  178SOL     OW 1432   2.109   6.200   6.143
  178SOL    HW1 1433   2.160   6.276   6.184
  178SOL    HW2 1434   2.120   6.202   6.044
  179SOL     OW 1435   3.060   4.677   1.169
  179SOL    HW1 1436   3.103   4.767   1.160
  179SOL    HW2 1437   3.086   4.620   1.090
  180SOL     OW 1438   3.934   1.100   0.526
  180SOL    HW1 1439   3.966   1.066   0.438
  180SOL    HW2 1440   3.992   1.063   0.599
  181SOL     OW 1441   3.221   2.309   5.891
  181SOL    HW1 1442   3.316   2.301   5.861
  181SOL    HW2 1443   3.213   2.385   5.956
  182SOL     OW 1444   4.190   2.816   6.805
  182SOL    HW1 1445   4.272   2.871   6.820
  182SOL    HW2 1446   4.145   2.845   6.721
  183SOL     OW 1447   3.321   1.324   3.465
  183SOL    HW1 1448   3.361   1.415   3.473
  183SOL    HW2 1449   3.222   1.333   3.449
  184SOL     OW 1450   5.428   6.148   3.478
  184SOL    HW1 1451   5.367   6.075   3.507
  184SOL    HW2 1452   5.412   6.170   3.382
  185SOL     OW 1453   6.789   0.770   3.964
  185SOL    HW1 1454   6.837   0.775   3.877
  185SOL    HW2 1455   6.817   0.688   4.013
  186SOL     OW 1456   4.375   6.406   3.616
  186SOL    HW1 1457   4.414   6.497   3.630
  186SOL    HW2 1458   4.416   6.364   3.535
  187SOL     OW 1459   3.973   6.408   2.008
  187SOL    HW1 1460   3.972   6.311   2.034
  187SOL    HW2 1461   4.051   6.453   2.051
  188SOL     OW 1462   1.583   3.419   3.407
  188SOL    HW1 1463   1.586   3.514   3.440
  188SOL    HW2 1464   1.524   3.365   3.467
  189SOL     OW 1465   5.931   5.007   5.980
  189SOL    HW1 1466   6.025   5.032   5.961
  189SOL    HW2 1467   5.901   4.935   5.918
  190SOL     OW 1468   5.987   0.747   6.942
  190SOL    HW1 1469   6.014   0.751   6.846
  190SOL    HW2 1470   6.023   0.663   6.983
  191SOL     OW 1471   6.933   1.259   5.004
  191SOL    HW1 1472   6.914   1.334   4.940
  191SOL    HW2 1473   6.930   1.294   5.098
  192SOL     OW 1474   0.509   5.461   0.828
  192SOL    HW1 1475   0.500   5.361   0.835
  192SOL    HW2 1476   0.478   5.491   0.739
  193SOL     OW 1477   2.893   6.080   0.218
  193SOL    HW1 1478   2.929   6.137   0.291
  193SOL    HW2 1479   2.842   6.137   0.153
  194SOL     OW 1480   4.080   6.468   2.534
  194SOL    HW1 1481   4.060   6.532   2.608
  194SOL    HW2 1482   4.169   6.425   2.551
  195SOL     OW 1483   3.880   1.089   0.974
  195SOL    HW1 1484   3.962   1.127   1.016
  195SOL    HW2 1485   3.844   1.015   1.030
  196SOL     OW 1486   3.060   1.804   0.285
  196SOL    HW1 1487   2.962   1.785   0.288
  196SOL    HW2 1488   3.094   1.793   0.192
  197SOL     OW 1489   2.522   6.589   0.411
  197SOL    HW1 1490   2.423   6.601   0.411
  197SOL    HW2 1491   2.553   6.572   0.505
  198SOL     OW 1492   4.369   0.659   6.285
  198SOL    HW1 1493   4.344   0.582   6.344
  198SOL    HW2 1494   4.318   0.654   6.199
  199SOL     OW 1495   0.378   0.114   3.222
  199SOL    HW1 1496   0.291   0.080   3.258
  199SOL    HW2 1497   0.390   0.082   3.129
  200SOL     OW 1498   0.639   4.103   3.351
  200SOL    HW1 1499   0.551   4.146   3.332
  200SOL    HW2 1500   0.660   4.037   3.279
  201SOL     OW 1501   4.179   1.122   6.374
  201SOL    HW1 1502   4.113   1.051   6.349
  201SOL    HW2 1503   4.270   1.095   6.344
  202SOL     OW 1504   3.326   0.158   2.918
  202SOL    HW1 1505   3.305   0.255   2.913
  202SOL    HW2 1506   3.419   0.145   2.952
  203SOL     OW 1507   5.464   2.872   6.515
  203SOL    HW1 1508   5.403   2.805   6.559
  203SOL    HW2 1509   5.458   2.959   6.565
  204SOL     OW 1510   2.238   6.664   1.372
  204SOL    HW1 1511   2.146   6.653   1.336
  204SOL    HW2 1512   2.302   6.607   1.319
  205SOL     OW 1513   6.177   1.222   0.333
  205SOL    HW1 1514   6.276   1.211   0.339
  205SOL    HW2 1515   6.133   1.146   0.381
  206SOL     OW 1516   1.082   4.498   1.577
  206SOL    HW1 1517   1.150   4.569   1.561
  206SOL    HW2 1518   1.047   4.505   1.671
  207SOL     OW 1519   5.074   0.715   5.544
  207SOL    HW1 1520   4.997   0.748   5.490
  207SOL    HW2 1521   5.056   0.622   5.576
  208SOL     OW 1522   3.766   4.504   6.284
  208SOL    HW1 1523   3.813   4.421   6.254
  208SOL    HW2 1524   3.775   4.514   6.383
  209SOL     OW 1525   6.644   5.867   5.438
  209SOL    HW1 1526   6.658   5.915   5.525
  209SOL    HW2 1527   6.728   5.873   5.384
  210SOL     OW 1528   4.052   2.456   1.741
  210SOL    HW1 1529   3.962   2.429   1.775
  210SOL    HW2 1530   4.050   2.463   1.642
  211SOL     OW 1531   2.034   2.136   1.681
  211SOL    HW1 1532   1.964   2.149   1.610
  211SOL    HW2 1533   2.121   2.113   1.637
  212SOL     OW 1534   0.479   5.571   3.255
  212SOL    HW1 1535   0.400   5.511   3.260
  212SOL    HW2 1536   0.467   5.635   3.179
  213SOL     OW 1537   4.783   2.307   0.166
  213SOL    HW1 1538   4.720   2.256   0.224
  213SOL    HW2 1539   4.876   2.297   0.202
  214SOL     OW 1540   1.632   0.290   2.987
  214SOL    HW1 1541   1.629   0.355   3.062
  214SOL    HW2 1542   1.685   0.209   3.014
  215SOL     OW 1543   3.330   3.383   2.986
  215SOL    HW1 1544   3.293   3.379   3.079
  215SOL    HW2 1545   3.280   3.452   2.934
  216SOL     OW 1546   0.773   6.450   6.005
  216SOL    HW1 1547   0.860   6.413   5.975
  216SOL    HW2 1548   0.749   6.529   5.948
  217SOL     OW 1549   1.094   2.783   3.331
  217SOL    HW1 1550   1.132   2.802   3.240
  217SOL    HW2 1551   1.142   2.838   3.399
  218SOL     OW 1552   1.116   4.072   5.300
  218SOL    HW1 1553   1.205   4.040   5.333
  218SOL    HW2 1554   1.100   4.165   5.334
  219SOL     OW 1555   4.948   5.030   6.696
  219SOL    HW1 1556   4.885   4.984   6.635
  219SOL    HW2 1557   5.021   4.968   6.723
  220SOL     OW 1558   3.452   4.841   0.921
  220SOL    HW1 1559   3.357   4.868   0.938
  220SOL    HW2 1560   3.457   4.787   0.837
  221SOL     OW 1561   5.769   2.110   4.347
  221SOL    HW1 1562   5.783   2.019   4.384
  221SOL    HW2 1563   5.682   2.113   4.297
  222SOL     OW 1564   1.230   6.607   5.169
  222SOL    HW1 1565   1.179   6.537   5.118
  222SOL    HW2 1566   1.192   6.697   5.148
  223SOL     OW 1567   6.533   3.522   1.519
  223SOL    HW1 1568   6.492   3.599   1.469
  223SOL    HW2 1569   6.619   3.552   1.561
  224SOL     OW 1570   3.091   2.232   1.803
  224SOL    HW1 1571   3.187   2.257   1.794
  224SOL    HW2 1572   3.042   2.303   1.855
  225SOL     OW 1573   6.305   0.435   6.840
  225SOL    HW1 1574   6.285   0.419   6.743
  225SOL    HW2 1575   6.315   0.534   6.855
  226SOL     OW 1576   6.053   5.328   0.896
  226SOL    HW1 1577   5.962   5.367   0.910
  226SOL    HW2 1578   6.098   5.317   0.984
  227SOL     OW 1579   1.866   2.783   3.968
  227SOL    HW1 1580   1.922   2.764   4.048
  227SOL    HW2 1581   1.769   2.776   3.993
  228SOL     OW 1582   3.825   0.092   3.348
  228SOL    HW1 1583   3.834   0.004   3.395
  228SOL    HW2 1584   3.850   0.166   3.411
  229SOL     OW 1585   6.043   5.634   2.745
  229SOL    HW1 1586   6.072   5.655   2.839
  229SOL    HW2 1587   6.068   5.540   2.723
  230SOL     OW 1588   1.772   4.566   5.252
  230SOL    HW1 1589   1.705   4.630   5.214
  230SOL    HW2 1590   1.739   4.530   5.339
  231SOL     OW 1591   0.944   2.184   6.681
  231SOL    HW1 1592   0.954   2.143   6.590
  231SOL    HW2 1593   0.857   2.156   6.721
  232SOL     OW 1594   2.025   4.919   6.593
  232SOL    HW1 1595   2.027   4.914   6.494
  232SOL    HW2 1596   1.931   4.930   6.624
  233SOL     OW 1597   2.681   1.151   6.174
  233SOL    HW1 1598   2.676   1.098   6.258
  233SOL    HW2 1599   2.765   1.206   6.174
  234SOL     OW 1600   2.826   5.829   0.418
  234SOL    HW1 1601   2.832   5.920   0.376
  234SOL    HW2 1602   2.734   5.815   0.454
  235SOL     OW 1603   3.062   3.571   5.060
  235SOL    HW1 1604   3.048   3.576   5.159
  235SOL    HW2 1605   3.016   3.490   5.024
  236SOL     OW 1606   0.180   2.247   5.052
  236SOL    HW1 1607   0.254   2.315   5.049
  236SOL    HW2 1608   0.216   2.160   5.084
  237SOL     OW 1609   0.215   0.005   1.308
  237SOL    HW1 1610   0.298   6.974   1.311
  237SOL    HW2 1611   0.181   0.008   1.214
  238SOL     OW 1612   5.783   2.483   2.470
  238SOL    HW1 1613   5.726   2.461   2.391
  238SOL    HW2 1614   5.725   2.495   2.550
  239SOL     OW 1615   0.116   5.853   0.088
  239SOL    HW1 1616   0.152   5.830   0.178
  239SOL    HW2 1617   0.067   5.775   0.051
  240SOL     OW 1618   6.732   3.434   5.815
  240SOL    HW1 1619   6.697   3.406   5.725
  240SOL    HW2 1620   6.832   3.435   5.812
  241SOL     OW 1621   0.824   0.800   3.309
  241SOL    HW1 1622   0.727   0.825   3.316
  241SOL    HW2 1623   0.878   0.881   3.289
  242SOL     OW 1624   1.650   3.555   3.921
  242SOL    HW1 1625   1.577   3.619   3.894
  242SOL    HW2 1626   1.611   3.485   3.980
  243SOL     OW 1627   4.801   0.100   5.169
  243SOL    HW1 1628   4.736   0.041   5.216
  243SOL    HW2 1629   4.771   0.116   5.075
  244SOL     OW 1630   6.540   1.900   5.843
  244SOL    HW1 1631   6.508   1.834   5.912
  244SOL    HW2 1632   6.510   1.992   5.868
  245SOL     OW 1633   6.204   1.602   3.712
  245SOL    HW1 1634   6.205   1.701   3.729
  245SOL    HW2 1635   6.298   1.569   3.702
  246SOL     OW 1636   5.203   3.318   3.129
  246SOL    HW1 1637   5.239   3.393   3.185
  246SOL    HW2 1638   5.103   3.321   3.131
  247SOL     OW 1639   2.801   1.463   3.232
  247SOL    HW1 1640   2.775   1.490   3.139
  247SOL    HW2 1641   2.763   1.529   3.297
  248SOL     OW 1642   6.101   1.369   2.950
  248SOL    HW1 1643   6.170   1.302   2.924
  248SOL    HW2 1644   6.058   1.406   2.868
  249SOL     OW 1645   3.418   0.221   3.785
  249SOL    HW1 1646   3.351   0.147   3.797
  249SOL    HW2 1647   3.488   0.192   3.720
  250SOL     OW 1648   4.719   3.047   5.966
  250SOL    HW1 1649   4.758   3.087   5.883
  250SOL    HW2 1650   4.725   2.947   5.960
  251SOL     OW 1651   2.815   2.191   1.348
  251SOL    HW1 1652   2.871   2.245   1.411
  251SOL    HW2 1653   2.855   2.195   1.257
  252SOL     OW 1654   0.339   1.051   5.760
  252SOL    HW1 1655   0.372   1.142   5.733
  252SOL    HW2 1656   0.337   1.044   5.860
  253SOL     OW 1657   2.662   4.004   6.025
  253SOL    HW1 1658   2.679   3.963   5.936
  253SOL    HW2 1659   2.748   4.008   6.077
  254SOL     OW 1660   5.909   3.193   4.994
  254SOL    HW1 1661   5.926   3.186   4.895
  254SOL    HW2 1662   5.952   3.115   5.040
  255SOL     OW 1663   3.600   2.131   4.259
  255SOL    HW1 1664   3.657   2.213   4.261
  255SOL    HW2 1665   3.533   2.137   4.185
  256SOL     OW 1666   6.393   5.652   6.733
  256SOL    HW1 1667   6.299   5.626   6.714
  256SOL    HW2 1668   6.396   5.743   6.774
  257SOL     OW 1669   3.171   5.789   6.089
  257SOL    HW1 1670   3.082   5.833   6.099
  257SOL    HW2 1671   3.161   5.707   6.033
  258SOL     OW 1672   5.409   3.982   4.108
  258SOL    HW1 1673   5.352   3.991   4.190
  258SOL    HW2 1674   5.425   4.072   4.069
  259SOL     OW 1675   0.870   2.581   2.886
  259SOL    HW1 1676   0.923   2.514   2.939
  259SOL    HW2 1677   0.924   2.610   2.807
  260SOL     OW 1678   6.344   0.109   6.310
  260SOL    HW1 1679   6.333   0.025   6.258
  260SOL    HW2 1680   6.255   0.155   6.318
  261SOL     OW 1681   0.710   2.480   2.376
  261SOL    HW1 1682   0.768   2.424   2.434
  261SOL    HW2 1683   0.732   2.463   2.280
  262SOL     OW 1684   1.153   5.244   2.054
  262SOL    HW1 1685   1.147   5.283   1.962
  262SOL    HW2 1686   1.194   5.311   2.116
  263SOL     OW 1687   1.226   2.200   4.248
  263SOL    HW1 1688   1.291   2.135   4.289
  263SOL    HW2 1689   1.204   2.171   4.155
  264SOL     OW 1690   3.199   5.132   6.435
  264SOL    HW1 1691   3.220   5.095   6.526
  264SOL    HW2 1692   3.284   5.147   6.385
  265SOL     OW 1693   5.405   4.690   5.235
  265SOL    HW1 1694   5.429   4.625   5.307
  265SOL    HW2 1695   5.319   4.661   5.191
  266SOL     OW 1696   3.691   2.482   0.494
  266SOL    HW1 1697   3.701   2.447   0.401
  266SOL    HW2 1698   3.595   2.475   0.522
  267SOL     OW 1699   1.047   1.745   5.714
  267SOL    HW1 1700   1.090   1.677   5.655
  267SOL    HW2 1701   1.104   1.828   5.716
  268SOL     OW 1702   3.536   5.187   4.357
  268SOL    HW1 1703   3.562   5.281   4.377
  268SOL    HW2 1704   3.471   5.155   4.427
  269SOL     OW 1705   1.265   1.022   5.818
  269SOL    HW1 1706   1.174   0.981   5.812
  269SOL    HW2 1707   1.284   1.050   5.912
  270SOL     OW 1708   4.883   1.304   4.065
  270SOL    HW1 1709   4.949   1.369   4.104
  270SOL    HW2 1710   4.931   1.223   4.032
  271SOL     OW 1711   1.851   0.877   6.829
  271SOL    HW1 1712   1.831   0.825   6.746
  271SOL    HW2 1713   1.767   0.917   6.865
  272SOL     OW 1714   3.908   5.483   3.218
  272SOL    HW1 1715   3.883   5.579   3.223
  272SOL    HW2 1716   3.960   5.466   3.135
  273SOL     OW 1717   2.561   6.836   5.358
  273SOL    HW1 1718   2.622   6.793   5.425
  273SOL    HW2 1719   2.542   6.930   5.387
  274SOL     OW 1720   5.770   2.047   1.416
  274SOL    HW1 1721   5.687   2.024   1.365
  274SOL    HW2 1722   5.839   2.080   1.352
  275SOL     OW 1723   6.034   6.124   5.049
  275SOL    HW1 1724   5.952   6.093   5.098
  275SOL    HW2 1725   6.114   6.110   5.106
  276SOL     OW 1726   6.422   6.464   3.637
  276SOL    HW1 1727   6.511   6.454   3.594
  276SOL    HW2 1728   6.350   6.450   3.570
  277SOL     OW 1729   5.070   1.265   5.272
  277SOL    HW1 1730   5.020   1.305   5.196
  277SOL    HW2 1731   5.013   1.195   5.316
  278SOL     OW 1732   6.133   2.985   2.599
  278SOL    HW1 1733   6.125   2.918   2.673
  278SOL    HW2 1734   6.113   3.076   2.634
  279SOL     OW 1735   0.326   3.136   4.422
  279SOL    HW1 1736   0.327   3.229   4.458
  279SOL    HW2 1737   0.276   3.076   4.485
  280SOL     OW 1738   3.447   0.943   3.388
  280SOL    HW1 1739   3.512   0.922   3.461
  280SOL    HW2 1740   3.468   1.033   3.350
  281SOL     OW 1741   5.401   5.654   3.738
  281SOL    HW1 1742   5.315   5.704   3.726
  281SOL    HW2 1743   5.463   5.709   3.794
  282SOL     OW 1744   2.737   1.663   0.403
  282SOL    HW1 1745   2.780   1.630   0.319
  282SOL    HW2 1746   2.671   1.595   0.435
  283SOL     OW 1747   6.857   2.159   4.698
  283SOL    HW1 1748   6.948   2.120   4.707
  283SOL    HW2 1749   6.844   2.229   4.769
  284SOL     OW 1750   5.290   5.738   3.056
  284SOL    HW1 1751   5.375   5.704   3.097
  284SOL    HW2 1752   5.280   5.835   3.075
  285SOL     OW 1753   4.422   0.431   5.624
  285SOL    HW1 1754   4.358   0.382   5.683
  285SOL    HW2 1755   4.479   0.366   5.575
  286SOL     OW 1756   2.019   4.868   4.996
  286SOL    HW1 1757   2.045   4.789   4.941
  286SOL    HW2 1758   2.070   4.948   4.966
  287SOL     OW 1759   3.387   0.293   6.161
  287SOL    HW1 1760   3.293   0.271   6.188
  287SOL    HW2 1761   3.431   0.211   6.124
  288SOL     OW 1762   4.041   0.464   0.833
  288SOL    HW1 1763   4.003   0.395   0.771
  288SOL    HW2 1764   4.133   0.488   0.803
  289SOL     OW 1765   6.054   6.051   3.197
  289SOL    HW1 1766   5.985   6.023   3.265
  289SOL    HW2 1767   6.035   6.144   3.167
  290SOL     OW 1768   3.395   0.747   6.035
  290SOL    HW1 1769   3.409   0.715   5.942
  290SOL    HW2 1770   3.392   0.847   6.036
  291SOL     OW 1771   3.192   6.941   5.072
  291SOL    HW1 1772   3.233   6.930   4.982
  291SOL    HW2 1773   3.100   6.981   5.062
  292SOL     OW 1774   4.564   6.787   4.014
  292SOL    HW1 1775   4.509   6.705   4.025
  292SOL    HW2 1776   4.536   6.856   4.081
  293SOL     OW 1777   5.721   7.011   2.273
  293SOL    HW1 1778   5.699   6.946   2.346
  293SOL    HW2 1779   5.820   7.022   2.266
  294SOL     OW 1780   6.773   0.738   6.217
  294SOL    HW1 1781   6.787   0.754   6.314
  294SOL    HW2 1782   6.860   0.749   6.168
  295SOL     OW 1783   1.419   1.458   4.973
  295SOL    HW1 1784   1.330   1.477   4.931
  295SOL    HW2 1785   1.482   1.533   4.952
  296SOL     OW 1786   0.032   2.498   1.388
  296SOL    HW1 1787   7.019   2.446   1.311
  296SOL    HW2 1788   0.119   2.457   1.415
  297SOL     OW 1789   4.853   3.205   3.964
  297SOL    HW1 1790   4.942   3.247   3.981
  297SOL    HW2 1791   4.812   3.177   4.050
  298SOL     OW 1792   4.038   0.496   6.188
  298SOL    HW1 1793   3.951   0.452   6.164
  298SOL    HW2 1794   4.029   0.538   6.279
  299SOL     OW 1795   1.381   0.836   6.759
  299SOL    HW1 1796   1.309   0.875   6.817
  299SOL    HW2 1797   1.467   0.884   6.775
  300SOL     OW 1798   4.329   7.017   3.582
  300SOL    HW1 1799   4.412   7.020   3.525
  300SOL    HW2 1800   4.347   6.961   3.663
  301SOL     OW 1801   6.621   5.478   1.150
  301SOL    HW1 1802   6.545   5.451   1.091
  301SOL    HW2 1803   6.608   5.572   1.181
  302SOL     OW 1804   0.124   5.528   1.793
  302SOL    HW1 1805   0.092   5.483   1.876
  302SOL    HW2 1806   0.163   5.460   1.731
  303SOL     OW 1807   5.593   5.838   3.114
  303SOL    HW1 1808   5.622   5.923   3.070
  303SOL    HW2 1809   5.581   5.854   3.212
  304SOL     OW 1810   2.264   5.746   4.574
  304SOL    HW1 1811   2.189   5.683   4.552
  304SOL    HW2 1812   2.232   5.814   4.640
  305SOL     OW 1813   0.908   3.111   2.035
  305SOL    HW1 1814   0.999   3.133   2.071
  305SOL    HW2 1815   0.903   3.012   2.016
  306SOL     OW 1816   0.286   6.320   2.953
  306SOL    HW1 1817   0.225   6.254   2.998
  306SOL    HW2 1818   0.276   6.312   2.854
  307SOL     OW 1819   3.072   3.124   3.501
  307SOL    HW1 1820   3.027   3.151   3.586
  307SOL    HW2 1821   3.026   3.166   3.424
  308SOL     OW 1822   5.293   2.273   3.652
  308SOL    HW1 1823   5.368   2.287   3.587
  308SOL    HW2 1824   5.206   2.295   3.608
  309SOL     OW 1825   1.238   6.666   6.382
  309SOL    HW1 1826   1.221   6.628   6.473
  309SOL    HW2 1827   1.279   6.596   6.324
  310SOL     OW 1828   5.297   0.202   5.249
  310SOL    HW1 1829   5.345   0.132   5.303
  310SOL    HW2 1830   5.242   0.259   5.309
  311SOL     OW 1831   2.045   5.802   2.948
  311SOL    HW1 1832   1.954   5.827   2.914
  311SOL    HW2 1833   2.107   5.879   2.936
  312SOL     OW 1834   4.427   1.788   3.213
  312SOL    HW1 1835   4.447   1.859   3.145
  312SOL    HW2 1836   4.490   1.712   3.202
  313SOL     OW 1837   4.060   3.639   2.747
  313SOL    HW1 1838   4.014   3.559   2.787
  313SOL    HW2 1839   4.123   3.678   2.813
  314SOL     OW 1840   2.429   5.835   6.226
  314SOL    HW1 1841   2.442   5.784   6.311
  314SOL    HW2 1842   2.331   5.851   6.211
  315SOL     OW 1843   6.409   1.472   3.290
  315SOL    HW1 1844   6.333   1.420   3.328
  315SOL    HW2 1845   6.374   1.537   3.223
  316SOL     OW 1846   3.494   1.458   5.944
  316SOL    HW1 1847   3.543   1.374   5.970
  316SOL    HW2 1848   3.477   1.457   5.846
  317SOL     OW 1849   1.287   1.682   1.947
  317SOL    HW1 1850   1.285   1.761   1.885
  317SOL    HW2 1851   1.209   1.685   2.009
  318SOL     OW 1852   0.903   0.418   4.986
  318SOL    HW1 1853   0.890   0.462   5.075
  318SOL    HW2 1854   0.916   0.320   5.000
  319SOL     OW 1855   1.452   1.414   2.518
  319SOL    HW1 1856   1.495   1.445   2.433
  319SOL    HW2 1857   1.464   1.483   2.589
  320SOL     OW 1858   6.104   1.879   6.142
  320SOL    HW1 1859   6.053   1.806   6.097
  320SOL    HW2 1860   6.056   1.966   6.130
  321SOL     OW 1861   4.375   3.237   0.846
  321SOL    HW1 1862   4.376   3.245   0.946
  321SOL    HW2 1863   4.282   3.218   0.816
  322SOL     OW 1864   3.547   3.332   5.913
  322SOL    HW1 1865   3.525   3.348   6.010
  322SOL    HW2 1866   3.522   3.239   5.888
  323SOL     OW 1867   0.498   3.641   2.369
  323SOL    HW1 1868   0.579   3.618   2.423
  323SOL    HW2 1869   0.469   3.561   2.317
  324SOL     OW 1870   0.265   0.263   3.616
  324SOL    HW1 1871   0.364   0.263   3.602
  324SOL    HW2 1872   0.234   0.169   3.629
  325SOL     OW 1873   7.015   3.907   2.080
  325SOL    HW1 1874   6.985   3.843   2.152
  325SOL    HW2 1875   6.934   3.949   2.038
  326SOL     OW 1876   0.733   6.558   6.472
  326SOL    HW1 1877   0.778   6.618   6.538
  326SOL    HW2 1878   0.734   6.601   6.381
  327SOL     OW 1879   4.660   5.746   4.021
  327SOL    HW1 1880   4.625   5.696   4.101
  327SOL    HW2 1881   4.588   5.807   3.987
  328SOL     OW 1882   2.207   3.953   2.378
  328SOL    HW1 1883   2.205   3.854   2.366
  328SOL    HW2 1884   2.286   3.991   2.329
  329SOL     OW 1885   3.241   3.379   2.367
  329SOL    HW1 1886   3.188   3.456   2.333
  329SOL    HW2 1887   3.184   3.296   2.363
  330SOL     OW 1888   3.282   5.859   0.811
  330SOL    HW1 1889   3.259   5.943   0.861
  330SOL    HW2 1890   3.199   5.819   0.774
  331SOL     OW 1891   5.773   5.259   6.826
  331SOL    HW1 1892   5.723   5.222   6.748
  331SOL    HW2 1893   5.840   5.192   6.858
  332SOL     OW 1894   5.593   1.850   3.249
  332SOL    HW1 1895   5.684   1.854   3.291
  332SOL    HW2 1896   5.524   1.878   3.317
  333SOL     OW 1897   3.259   0.773   5.696
  333SOL    HW1 1898   3.293   0.846   5.636
  333SOL    HW2 1899   3.287   0.684   5.659
  334SOL     OW 1900   4.119   3.448   3.624
  334SOL    HW1 1901   4.155   3.369   3.574
  334SOL    HW2 1902   4.036   3.421   3.673
  335SOL     OW 1903   3.742   0.173   6.886
  335SOL    HW1 1904   3.683   0.175   6.966
  335SOL    HW2 1905   3.787   0.262   6.875
  336SOL     OW 1906   2.849   1.827   3.980
  336SOL    HW1 1907   2.782   1.890   4.018
  336SOL    HW2 1908   2.916   1.803   4.050
  337SOL     OW 1909   2.215   0.571   6.363
  337SOL    HW1 1910   2.149   0.503   6.396
  337SOL    HW2 1911   2.204   0.657   6.412
  338SOL     OW 1912   4.283   1.571   1.107
  338SOL    HW1 1913   4.339   1.643   1.066
  338SOL    HW2 1914   4.335   1.486   1.109
  339SOL     OW 1915   3.917   5.556   5.193
  339SOL    HW1 1916   3.912   5.631   5.260
  339SOL    HW2 1917   3.995   5.571   5.132
  340SOL     OW 1918   4.534   1.976   3.769
  340SOL    HW1 1919   4.581   1.888   3.763
  340SOL    HW2 1920   4.475   1.988   3.689
  341SOL     OW 1921   5.596   6.746   2.921
  341SOL    HW1 1922   5.681   6.716   2.876
  341SOL    HW2 1923   5.575   6.686   2.998
  342SOL     OW 1924   4.306   2.263   2.298
  342SOL    HW1 1925   4.374   2.335   2.313
  342SOL    HW2 1926   4.259   2.278   2.211
  343SOL     OW 1927   0.127   5.862   2.742
  343SOL    HW1 1928   0.212   5.855   2.794
  343SOL    HW2 1929   0.117   5.781   2.685
  344SOL     OW 1930   2.476   2.117   1.405
  344SOL    HW1 1931   2.529   2.033   1.416
  344SOL    HW2 1932   2.521   2.176   1.338
  345SOL     OW 1933   6.724   3.602   4.019
  345SOL    HW1 1934   6.782   3.655   3.957
  345SOL    HW2 1935   6.648   3.562   3.968
  346SOL     OW 1936   1.735   6.986   3.321
  346SOL    HW1 1937   1.690   6.990   3.410
  346SOL    HW2 1938   1.816   6.928   3.327
  347SOL     OW 1939   3.081   4.867   0.494
  347SOL    HW1 1940   3.170   4.871   0.539
  347SOL    HW2 1941   3.008   4.881   0.562
  348SOL     OW 1942   4.247   5.372   1.547
  348SOL    HW1 1943   4.291   5.346   1.461
  348SOL    HW2 1944   4.166   5.316   1.561
  349SOL     OW 1945   6.339   4.309   1.272
  349SOL    HW1 1946   6.361   4.232   1.332
  349SOL    HW2 1947   6.399   4.386   1.293
  350SOL     OW 1948   3.111   3.085   0.539
  350SOL    HW1 1949   3.167   3.017   0.587
  350SOL    HW2 1950   3.035   3.114   0.598
  351SOL     OW 1951   3.242   4.344   1.737
  351SOL    HW1 1952   3.203   4.414   1.677
  351SOL    HW2 1953   3.336   4.369   1.761
  352SOL     OW 1954   4.080   0.120   3.177
  352SOL    HW1 1955   3.994   0.123   3.228
  352SOL    HW2 1956   4.107   0.213   3.152
  353SOL     OW 1957   1.937   6.161   6.947
  353SOL    HW1 1958   1.861   6.101   6.923
  353SOL    HW2 1959   1.997   6.173   6.868
  354SOL     OW 1960   0.291   2.666   0.231
  354SOL    HW1 1961   0.218   2.655   0.299
  354SOL    HW2 1962   0.375   2.696   0.278
  355SOL     OW 1963   1.889   2.183   2.373
  355SOL    HW1 1964   1.851   2.129   2.297
  355SOL    HW2 1965   1.813   2.223   2.426
  356SOL     OW 1966   0.781   6.721   6.251
  356SOL    HW1 1967   0.821   6.797   6.302
  356SOL    HW2 1968   0.829   6.710   6.164
  357SOL     OW 1969   5.725   6.443   4.718
  357SOL    HW1 1970   5.663   6.521   4.714
  357SOL    HW2 1971   5.781   6.441   4.634
  358SOL     OW 1972   4.315   5.768   0.238
  358SOL    HW1 1973   4.228   5.760   0.189
  358SOL    HW2 1974   4.386   5.721   0.186
  359SOL     OW 1975   2.507   2.486   2.864
  359SOL    HW1 1976   2.498   2.536   2.778
  359SOL    HW2 1977   2.595   2.440   2.867
  360SOL     OW 1978   1.601   5.014   4.588
  360SOL    HW1 1979   1.508   5.051   4.591
  360SOL    HW2 1980   1.638   5.025   4.496
  361SOL     OW 1981   6.131   6.977   3.467
  361SOL    HW1 1982   6.135   6.919   3.386
  361SOL    HW2 1983   6.198   0.026   3.458
  362SOL     OW 1984   4.348   4.983   1.065
  362SOL    HW1 1985   4.345   4.996   0.966
  362SOL    HW2 1986   4.440   4.955   1.092
  363SOL     OW 1987   4.933   5.616   1.972
  363SOL    HW1 1988   4.944   5.546   1.901
  363SOL    HW2 1989   5.004   5.686   1.961
  364SOL     OW 1990   0.489   5.915   6.550
  364SOL    HW1 1991   0.441   5.934   6.636
  364SOL    HW2 1992   0.470   5.821   6.523
  365SOL     OW 1993   4.794   1.878   3.166
  365SOL    HW1 1994   4.827   1.968   3.193
  365SOL    HW2 1995   4.806   1.814   3.242
  366SOL     OW 1996   5.416   2.376   0.246
  366SOL    HW1 1997   5.384   2.377   0.151
  366SOL    HW2 1998   5.377   2.297   0.293
  367SOL     OW 1999   4.580   2.185   5.389
  367SOL    HW1 2000   4.559   2.137   5.475
  367SOL    HW2 2001   4.593   2.282   5.409
  368SOL     OW 2002   6.560   2.455   6.130
  368SOL    HW1 2003   6.524   2.364   6.149
  368SOL    HW2 2004   6.629   2.479   6.198
  369SOL     OW 2005   5.994   3.259   2.222
  369SOL    HW1 2006   6.053   3.340   2.227
  369SOL    HW2 2007   5.980   3.233   2.126
  370SOL     OW 2008   2.107   3.479   4.069
  370SOL    HW1 2009   2.100   3.576   4.046
  370SOL    HW2 2010   2.128   3.469   4.167
  371SOL     OW 2011   1.447   4.654   0.003
  371SOL    HW1 2012   1.451   4.753   7.022
  371SOL    HW2 2013   1.370   4.627   0.062
  372SOL     OW 2014   3.762   6.742   6.719
  372SOL    HW1 2015   3.738   6.837   6.701
  372SOL    HW2 2016   3.765   6.692   6.632
  373SOL     OW 2017   5.625   5.607   4.151
  373SOL    HW1 2018   5.701   5.543   4.152
  373SOL    HW2 2019   5.622   5.659   4.236
  374SOL     OW 2020   2.847   2.053   2.566
  374SOL    HW1 2021   2.828   2.145   2.532
  374SOL    HW2 2022   2.790   2.034   2.646
  375SOL     OW 2023   1.173   5.010   5.033
  375SOL    HW1 2024   1.210   4.919   5.013
  375SOL    HW2 2025   1.093   5.001   5.092
  376SOL     OW 2026   2.711   1.029   4.664
  376SOL    HW1 2027   2.623   1.033   4.713
  376SOL    HW2 2028   2.724   1.114   4.613
  377SOL     OW 2029   0.951   2.093   6.409
  377SOL    HW1 2030   1.017   2.026   6.375
  377SOL    HW2 2031   0.983   2.185   6.390
  378SOL     OW 2032   3.677   0.969   1.755
  378SOL    HW1 2033   3.745   0.896   1.751
  378SOL    HW2 2034   3.672   1.016   1.667
  379SOL     OW 2035   6.342   2.109   5.739
  379SOL    HW1 2036   6.345   2.019   5.696
  379SOL    HW2 2037   6.249   2.145   5.737
  380SOL     OW 2038   4.191   2.123   0.931
  380SOL    HW1 2039   4.131   2.069   0.872
  380SOL    HW2 2040   4.240   2.062   0.993
  381SOL     OW 2041   1.288   3.886   3.259
  381SOL    HW1 2042   1.267   3.981   3.237
  381SOL    HW2 2043   1.340   3.845   3.183
  382SOL     OW 2044   5.197   0.711   0.018
  382SOL    HW1 2045   5.160   0.781   6.982
  382SOL    HW2 2046   5.296   0.719   0.023
  383SOL     OW 2047   4.128   3.170   0.801
  383SOL    HW1 2048   4.044   3.152   0.851
  383SOL    HW2 2049   4.164   3.085   0.762
  384SOL     OW 2050   5.986   4.310   4.698
  384SOL    HW1 2051   6.025   4.382   4.755
  384SOL    HW2 2052   5.964   4.231   4.756
  385SOL     OW 2053   4.745   4.889   0.451
  385SOL    HW1 2054   4.797   4.887   0.537
  385SOL    HW2 2055   4.768   4.808   0.397
  386SOL     OW 2056   2.993   6.863   3.955
  386SOL    HW1 2057   2.936   6.945   3.959
  386SOL    HW2 2058   2.968   6.801   4.030
  387SOL     OW 2059   1.948   5.742   4.040
  387SOL    HW1 2060   1.988   5.737   3.949
  387SOL    HW2 2061   2.018   5.724   4.109
  388SOL     OW 2062   2.291   3.170   6.075
  388SOL    HW1 2063   2.196   3.140   6.078
  388SOL    HW2 2064   2.315   3.199   5.983
  389SOL     OW 2065   3.033   3.769   3.315
  389SOL    HW1 2066   2.960   3.763   3.383
  389SOL    HW2 2067   3.043   3.681   3.269
  390SOL     OW 2068   2.088   1.137   4.357
  390SOL    HW1 2069   2.000   1.140   4.405
  390SOL    HW2 2070   2.156   1.094   4.416
  391SOL     OW 2071   0.875   3.097   0.131
  391SOL    HW1 2072   0.937   3.109   0.208
  391SOL    HW2 2073   0.827   3.009   0.141
  392SOL     OW 2074   2.202   4.767   2.581
  392SOL    HW1 2075   2.148   4.746   2.500
  392SOL    HW2 2076   2.296   4.736   2.567
  393SOL     OW 2077   5.939   4.368   5.332
  393SOL    HW1 2078   5.952   4.291   5.269
  393SOL    HW2 2079   5.859   4.421   5.304
  394SOL     OW 2080   1.247   6.804   1.014
  394SOL    HW1 2081   1.233   6.770   0.921
  394SOL    HW2 2082   1.169   6.859   1.041
  395SOL     OW 2083   5.328   3.978   1.591
  395SOL    HW1 2084   5.402   3.992   1.526
  395SOL    HW2 2085   5.280   3.893   1.569
  396SOL     OW 2086   3.077   3.996   3.448
  396SOL    HW1 2087   3.062   3.922   3.382
  396SOL    HW2 2088   3.162   4.044   3.426
  397SOL     OW 2089   4.287   2.179   5.599
  397SOL    HW1 2090   4.273   2.198   5.502
  397SOL    HW2 2091   4.335   2.256   5.641
  398SOL     OW 2092   0.969   5.429   2.350
  398SOL    HW1 2093   0.879   5.423   2.393
  398SOL    HW2 2094   1.034   5.372   2.400
  399SOL     OW 2095   4.647   5.254   1.376
  399SOL    HW1 2096   4.647   5.166   1.425
  399SOL    HW2 2097   4.649   5.236   1.277
  400SOL     OW 2098   0.317   5.979   4.904
  400SOL    HW1 2099   0.302   6.075   4.882
  400SOL    HW2 2100   0.286   5.961   4.997
  401SOL     OW 2101   4.630   1.885   6.621
  401SOL    HW1 2102   4.551   1.887   6.560
  401SOL    HW2 2103   4.671   1.976   6.626
  402SOL     OW 2104   6.140   5.688   1.624
  402SOL    HW1 2105   6.222   5.654   1.578
  402SOL    HW2 2106   6.127   5.639   1.710
  403SOL     OW 2107   4.750   2.095   5.730
  403SOL    HW1 2108   4.784   2.068   5.640
  403SOL    HW2 2109   4.696   2.179   5.721
  404SOL     OW 2110   0.623   6.853   4.538
  404SOL    HW1 2111   0.662   6.792   4.469
  404SOL    HW2 2112   0.529   6.876   4.513
  405SOL     OW 2113   1.141   2.225   0.713
  405SOL    HW1 2114   1.193   2.284   0.651
  405SOL    HW2 2115   1.160   2.251   0.808
  406SOL     OW 2116   1.500   2.678   4.541
  406SOL    HW1 2117   1.425   2.743   4.531
  406SOL    HW2 2118   1.562   2.688   4.463
  407SOL     OW 2119   2.744   0.379   5.455
  407SOL    HW1 2120   2.746   0.340   5.362
  407SOL    HW2 2121   2.694   0.465   5.453
  408SOL     OW 2122   1.416   0.211   3.673
  408SOL    HW1 2123   1.356   0.231   3.750
  408SOL    HW2 2124   1.393   0.271   3.596
  409SOL     OW 2125   6.060   3.504   3.497
  409SOL    HW1 2126   6.027   3.569   3.565
  409SOL    HW2 2127   6.145   3.461   3.530
  410SOL     OW 2128   2.588   0.622   6.982
  410SOL    HW1 2129   2.562   0.701   6.926
  410SOL    HW2 2130   2.595   0.541   6.923
  411SOL     OW 2131   6.258   4.005   5.600
  411SOL    HW1 2132   6.345   3.960   5.619
  411SOL    HW2 2133   6.213   3.961   5.522
  412SOL     OW 2134   3.635   0.237   2.541
  412SOL    HW1 2135   3.695   0.159   2.522
  412SOL    HW2 2136   3.543   0.205   2.560
  413SOL     OW 2137   3.173   6.106   0.875
  413SOL    HW1 2138   3.087   6.142   0.910
  413SOL    HW2 2139   3.246   6.123   0.941
  414SOL     OW 2140   4.518   4.644   0.732
  414SOL    HW1 2141   4.533   4.738   0.703
  414SOL    HW2 2142   4.485   4.590   0.654
  415SOL     OW 2143   1.835   6.239   1.643
  415SOL    HW1 2144   1.748   6.279   1.614
  415SOL    HW2 2145   1.818   6.156   1.696
  416SOL     OW 2146   4.193   6.501   4.806
  416SOL    HW1 2147   4.119   6.467   4.864
  416SOL    HW2 2148   4.155   6.537   4.720
  417SOL     OW 2149   3.653   6.296   2.189
  417SOL    HW1 2150   3.605   6.214   2.219
  417SOL    HW2 2151   3.739   6.305   2.239
  418SOL     OW 2152   4.694   5.899   0.248
  418SOL    HW1 2153   4.703   5.802   0.228
  418SOL    HW2 2154   4.602   5.917   0.283
  419SOL     OW 2155   6.956   0.010   0.991
  419SOL    HW1 2156   0.029   0.021   1.012
  419SOL    HW2 2157   6.923   6.949   1.031
  420SOL     OW 2158   5.913   3.801   0.220
  420SOL    HW1 2159   5.867   3.876   0.172
  420SOL    HW2 2160   5.845   3.732   0.246
  421SOL     OW 2161   2.766   6.209   0.020
  421SOL    HW1 2162   2.671   6.203   0.051
  421SOL    HW2 2163   2.788   6.129   6.990
  422SOL     OW 2164   6.438   4.441   6.765
  422SOL    HW1 2165   6.509   4.506   6.792
  422SOL    HW2 2166   6.354   4.461   6.816
  423SOL     OW 2167   6.152   2.615   0.191
  423SOL    HW1 2168   6.170   2.537   0.250
  423SOL    HW2 2169   6.073   2.665   0.225
  424SOL     OW 2170   3.266   4.250   0.436
  424SOL    HW1 2171   3.199   4.306   0.387
  424SOL    HW2 2172   3.293   4.296   0.521
  425SOL     OW 2173   4.644   1.126   1.399
  425SOL    HW1 2174   4.648   1.180   1.315
  425SOL    HW2 2175   4.689   1.038   1.385
  426SOL     OW 2176   4.916   2.612   5.631
  426SOL    HW1 2177   4.949   2.535   5.685
  426SOL    HW2 2178   4.986   2.641   5.567
  427SOL     OW 2179   5.566   4.066   1.457
  427SOL    HW1 2180   5.529   3.991   1.402
  427SOL    HW2 2181   5.639   4.112   1.407
  428SOL     OW 2182   4.310   0.668   5.216
  428SOL    HW1 2183   4.371   0.613   5.160
  428SOL    HW2 2184   4.337   0.764   5.212
  429SOL     OW 2185   1.699   4.849   0.152
  429SOL    HW1 2186   1.668   4.763   0.112
  429SOL    HW2 2187   1.795   4.841   0.178
  430SOL     OW 2188   1.129   0.109   4.458
  430SOL    HW1 2189   1.035   0.079   4.470
  430SOL    HW2 2190   1.138   0.154   4.369
  431SOL     OW 2191   3.818   1.746   0.226
  431SOL    HW1 2192   3.870   1.663   0.209
  431SOL    HW2 2193   3.878   1.818   0.261
  432SOL     OW 2194   6.843   1.958   0.406
  432SOL    HW1 2195   6.824   2.048   0.444
  432SOL    HW2 2196   6.942   1.942   0.406
  433SOL     OW 2197   2.848   6.816   5.002
  433SOL    HW1 2198   2.869   6.750   5.074
  433SOL    HW2 2199   2.884   6.783   4.915
  434SOL     OW 2200   5.936   3.420   1.010
  434SOL    HW1 2201   5.840   3.436   1.034
  434SOL    HW2 2202   5.954   3.321   1.012
  435SOL     OW 2203   3.111   3.318   6.200
  435SOL    HW1 2204   3.182   3.386   6.218
  435SOL    HW2 2205   3.072   3.287   6.286
  436SOL     OW 2206   1.916   0.258   1.367
  436SOL    HW1 2207   1.976   0.328   1.326
  436SOL    HW2 2208   1.823   0.273   1.335
  437SOL     OW 2209   0.190   0.027   6.213
  437SOL    HW1 2210   0.173   0.124   6.227
  437SOL    HW2 2211   0.104   7.007   6.186
  438SOL     OW 2212   1.708   3.060   1.985
  438SOL    HW1 2213   1.615   3.071   2.019
  438SOL    HW2 2214   1.761   3.004   2.048
  439SOL     OW 2215   6.323   4.726   2.473
  439SOL    HW1 2216   6.342   4.694   2.380
  439SOL    HW2 2217   6.224   4.725   2.489
  440SOL     OW 2218   0.839   2.536   4.291
  440SOL    HW1 2219   0.839   2.447   4.244
  440SOL    HW2 2220   0.934   2.566   4.306
  441SOL     OW 2221   2.099   1.318   3.095
  441SOL    HW1 2222   2.064   1.384   3.028
  441SOL    HW2 2223   2.089   1.356   3.187
  442SOL     OW 2224   0.071   4.112   0.140
  442SOL    HW1 2225   0.076   4.156   0.050
  442SOL    HW2 2226   7.003   4.120   0.175
  443SOL     OW 2227   1.443   4.333   5.254
  443SOL    HW1 2228   1.479   4.241   5.264
  443SOL    HW2 2229   1.347   4.328   5.226
  444SOL     OW 2230   4.124   2.530   6.333
  444SOL    HW1 2231   4.166   2.620   6.342
  444SOL    HW2 2232   4.192   2.459   6.351
  445SOL     OW 2233   2.339   4.928   3.445
  445SOL    HW1 2234   2.400   4.904   3.370
  445SOL    HW2 2235   2.253   4.964   3.409
  446SOL     OW 2236   3.420   4.928   3.791
  446SOL    HW1 2237   3.326   4.909   3.764
  446SOL    HW2 2238   3.483   4.885   3.726
  447SOL     OW 2239   0.130   4.581   0.022
  447SOL    HW1 2240   0.106   4.543   0.111
  447SOL    HW2 2241   0.161   4.675   0.033
  448SOL     OW 2242   4.067   0.616   5.077
  448SOL    HW1 2243   4.031   0.703   5.041
  448SOL    HW2 2244   4.150   0.634   5.129
  449SOL     OW 2245   6.102   1.440   4.411
  449SOL    HW1 2246   6.168   1.372   4.443
  449SOL    HW2 2247   6.009   1.410   4.434
  450SOL     OW 2248   0.181   5.942   3.658
  450SOL    HW1 2249   0.271   5.987   3.662
  450SOL    HW2 2250   0.178   5.880   3.580
  451SOL     OW 2251   0.996   2.001   2.610
  451SOL    HW1 2252   1.034   1.947   2.534
  451SOL    HW2 2253   1.060   2.075   2.633
  452SOL     OW 2254   0.056   4.925   0.380
  452SOL    HW1 2255   0.024   4.959   0.468
  452SOL    HW2 2256   0.086   4.830   0.390
  453SOL     OW 2257   3.134   1.539   0.156
  453SOL    HW1 2258   3.084   1.473   0.101
  453SOL    HW2 2259   3.146   1.624   0.104
  454SOL     OW 2260   0.335   5.757   6.351
  454SOL    HW1 2261   0.320   5.855   6.366
  454SOL    HW2 2262   0.333   5.738   6.253
  455SOL     OW 2263   5.682   0.348   3.906
  455SOL    HW1 2264   5.726   0.317   3.823
  455SOL    HW2 2265   5.701   0.446   3.919
  456SOL     OW 2266   4.076   5.949   6.113
  456SOL    HW1 2267   4.046   5.863   6.155
  456SOL    HW2 2268   3.996   5.997   6.077
  457SOL     OW 2269   2.258   4.115   3.329
  457SOL    HW1 2270   2.260   4.114   3.429
  457SOL    HW2 2271   2.190   4.049   3.296
  458SOL     OW 2272   5.521   5.987   5.863
  458SOL    HW1 2273   5.561   6.079   5.862
  458SOL    HW2 2274   5.542   5.943   5.950
  459SOL     OW 2275   0.951   0.344   2.885
  459SOL    HW1 2276   0.869   0.287   2.887
  459SOL    HW2 2277   0.964   0.387   2.974
  460SOL     OW 2278   6.958   1.749   2.159
  460SOL    HW1 2279   7.016   1.707   2.090
  460SOL    HW2 2280   6.928   1.679   2.225
  461SOL     OW 2281   4.323   6.825   4.959
  461SOL    HW1 2282   4.306   6.872   5.046
  461SOL    HW2 2283   4.344   6.729   4.976
  462SOL     OW 2284   3.154   2.570   6.013
  462SOL    HW1 2285   3.241   2.574   5.963
  462SOL    HW2 2286   3.125   2.662   6.037
  463SOL     OW 2287   6.268   5.219   3.323
  463SOL    HW1 2288   6.229   5.287   3.386
  463SOL    HW2 2289   6.222   5.227   3.234
  464SOL     OW 2290   1.954   1.005   6.470
  464SOL    HW1 2291   1.973   1.049   6.557
  464SOL    HW2 2292   1.927   0.910   6.485
  465SOL     OW 2293   0.604   1.725   4.020
  465SOL    HW1 2294   0.515   1.764   4.047
  465SOL    HW2 2295   0.659   1.710   4.102
  466SOL     OW 2296   0.533   6.600   3.557
  466SOL    HW1 2297   0.559   6.685   3.602
  466SOL    HW2 2298   0.523   6.528   3.626
  467SOL     OW 2299   0.862   0.324   6.008
  467SOL    HW1 2300   0.801   0.254   6.044
  467SOL    HW2 2301   0.817   0.413   6.012
  468SOL     OW 2302   4.183   5.814   0.959
  468SOL    HW1 2303   4.096   5.782   0.998
  468SOL    HW2 2304   4.173   5.909   0.931
  469SOL     OW 2305   2.293   5.288   0.399
  469SOL    HW1 2306   2.269   5.215   0.335
  469SOL    HW2 2307   2.374   5.260   0.451
  470SOL     OW 2308   4.437   0.351   2.038
  470SOL    HW1 2309   4.418   0.253   2.036
  470SOL    HW2 2310   4.492   0.376   1.958
  471SOL     OW 2311   1.818   2.354   4.484
  471SOL    HW1 2312   1.769   2.407   4.554
  471SOL    HW2 2313   1.775   2.264   4.474
  472SOL     OW 2314   4.692   4.494   6.246
  472SOL    HW1 2315   4.682   4.588   6.212
  472SOL    HW2 2316   4.750   4.442   6.185
  473SOL     OW 2317   0.268   2.629   1.767
  473SOL    HW1 2318   0.231   2.536   1.768
  473SOL    HW2 2319   0.272   2.665   1.860
  474SOL     OW 2320   4.252   5.269   4.038
  474SOL    HW1 2321   4.266   5.345   3.976
  474SOL    HW2 2322   4.310   5.192   4.011
  475SOL     OW 2323   6.605   6.604   6.604
  475SOL    HW1 2324   6.560   6.649   6.527
  475SOL    HW2 2325   6.653   6.523   6.571
  476SOL     OW 2326   6.451   3.940   2.363
  476SOL    HW1 2327   6.427   4.027   2.320
  476SOL    HW2 2328   6.439   3.948   2.462
  477SOL     OW 2329   2.144   4.860   4.640
  477SOL    HW1 2330   2.061   4.916   4.634
  477SOL    HW2 2331   2.132   4.790   4.710
  478SOL     OW 2332   3.553   5.951   3.129
  478SOL    HW1 2333   3.558   5.886   3.053
  478SOL    HW2 2334   3.480   5.924   3.191
  479SOL     OW 2335   2.731   1.949   0.444
  479SOL    HW1 2336   2.708   1.852   0.433
  479SOL    HW2 2337   2.799   1.959   0.517
  480SOL     OW 2338   1.497   6.992   1.561
  480SOL    HW1 2339   1.465   6.960   1.472
  480SOL    HW2 2340   1.580   6.942   1.585
  481SOL     OW 2341   2.247   0.983   1.612
  481SOL    HW1 2342   2.225   0.886   1.604
  481SOL    HW2 2343   2.170   1.031   1.656
  482SOL     OW 2344   5.089   4.245   2.764
  482SOL    HW1 2345   5.169   4.216   2.816
  482SOL    HW2 2346   5.062   4.173   2.700
  483SOL     OW 2347   5.323   2.094   1.687
  483SOL    HW1 2348   5.329   2.050   1.597
  483SOL    HW2 2349   5.299   2.026   1.756
  484SOL     OW 2350   0.615   2.917   4.505
  484SOL    HW1 2351   0.591   2.825   4.472
  484SOL    HW2 2352   0.654   2.970   4.431
  485SOL     OW 2353   3.320   4.944   2.408
  485SOL    HW1 2354   3.401   4.989   2.445
  485SOL    HW2 2355   3.333   4.927   2.310
  486SOL     OW 2356   1.250   1.373   0.949
  486SOL    HW1 2357   1.205   1.301   0.895
  486SOL    HW2 2358   1.343   1.387   0.914
  487SOL     OW 2359   0.974   2.165   0.012
  487SOL    HW1 2360   0.902   2.097   0.025
  487SOL    HW2 2361   0.963   2.208   6.948
  488SOL     OW 2362   1.169   1.411   1.552
  488SOL    HW1 2363   1.086   1.363   1.525
  488SOL    HW2 2364   1.149   1.508   1.565
  489SOL     OW 2365   3.403   5.645   6.970
  489SOL    HW1 2366   3.462   5.580   7.018
  489SOL    HW2 2367   3.436   5.738   6.987
  490SOL     OW 2368   6.122   6.233   4.391
  490SOL    HW1 2369   6.174   6.314   4.363
  490SOL    HW2 2370   6.053   6.259   4.457
  491SOL     OW 2371   0.266   3.002   2.746
  491SOL    HW1 2372   0.193   2.940   2.775
  491SOL    HW2 2373   0.290   3.063   2.822
  492SOL     OW 2374   3.317   0.561   5.573
  492SOL    HW1 2375   3.343   0.558   5.476
  492SOL    HW2 2376   3.245   0.494   5.591
  493SOL     OW 2377   6.576   4.928   6.281
  493SOL    HW1 2378   6.493   4.898   6.234
  493SOL    HW2 2379   6.555   5.008   6.338
  494SOL     OW 2380   0.269   6.025   6.949
  494SOL    HW1 2381   0.225   5.984   0.003
  494SOL    HW2 2382   0.222   6.110   6.924
  495SOL     OW 2383   4.859   5.155   2.492
  495SOL    HW1 2384   4.945   5.163   2.442
  495SOL    HW2 2385   4.811   5.071   2.465
  496SOL     OW 2386   5.287   2.760   2.962
  496SOL    HW1 2387   5.221   2.726   2.895
  496SOL    HW2 2388   5.280   2.860   2.968
  497SOL     OW 2389   3.546   1.457   4.971
  497SOL    HW1 2390   3.473   1.470   5.038
  497SOL    HW2 2391   3.525   1.511   4.889
  498SOL     OW 2392   1.156   3.175   2.202
  498SOL    HW1 2393   1.180   3.084   2.238
  498SOL    HW2 2394   1.106   3.225   2.272
  499SOL     OW 2395   3.054   0.835   4.387
  499SOL    HW1 2396   2.979   0.800   4.443
  499SOL    HW2 2397   3.053   0.935   4.387
  500SOL     OW 2398   0.928   4.573   3.627
  500SOL    HW1 2399   0.882   4.624   3.554
  500SOL    HW2 2400   0.860   4.527   3.683
  501SOL     OW 2401   2.551   2.016   6.893
  501SOL    HW1 2402   2.579   1.950   6.963
  501SOL    HW2 2403   2.515   2.098   6.937
  502SOL     OW 2404   5.323   4.403   5.699
  502SOL    HW1 2405   5.360   4.487   5.738
  502SOL    HW2 2406   5.376   4.324   5.730
  503SOL     OW 2407   6.261   4.215   6.145
  503SOL    HW1 2408   6.273   4.247   6.051
  503SOL    HW2 2409   6.163   4.204   6.164
  504SOL     OW 2410   2.188   6.248   4.372
  504SOL    HW1 2411   2.279   6.208   4.382
  504SOL    HW2 2412   2.138   6.238   4.458
  505SOL     OW 2413   3.942   0.142   5.550
  505SOL    HW1 2414   3.935   0.238   5.579
  505SOL    HW2 2415   3.977   0.138   5.457
  506SOL     OW 2416   1.744   4.821   4.924
  506SOL    HW1 2417   1.728   4.919   4.913
  506SOL    HW2 2418   1.830   4.807   4.973
  507SOL     OW 2419   2.820   0.095   4.597
  507SOL    HW1 2420   2.807   0.122   4.693
  507SOL    HW2 2421   2.819   7.020   4.590
  508SOL     OW 2422   6.064   3.221   2.788
  508SOL    HW1 2423   6.114   3.211   2.874
  508SOL    HW2 2424   6.079   3.313   2.751
  509SOL     OW 2425   4.116   0.839   1.764
  509SOL    HW1 2426   4.033   0.784   1.772
  509SOL    HW2 2427   4.169   0.809   1.685
  510SOL     OW 2428   6.847   4.905   5.540
  510SOL    HW1 2429   6.878   4.824   5.489
  510SOL    HW2 2430   6.748   4.914   5.530
  511SOL     OW 2431   0.152   6.279   6.852
  511SOL    HW1 2432   0.054   6.297   6.849
  511SOL    HW2 2433   0.196   6.343   6.915
  512SOL     OW 2434   0.766   2.866   0.155
  512SOL    HW1 2435   0.668   2.884   0.155
  512SOL    HW2 2436   0.787   2.794   0.089
  513SOL     OW 2437   5.738   6.050   2.702
  513SOL    HW1 2438   5.829   6.041   2.743
  513SOL    HW2 2439   5.743   6.115   2.626
  514SOL     OW 2440   6.831   2.503   4.065
  514SOL    HW1 2441   6.895   2.579   4.057
  514SOL    HW2 2442   6.863   2.427   4.009
  515SOL     OW 2443   2.657   6.911   6.014
  515SOL    HW1 2444   2.564   6.875   6.017
  515SOL    HW2 2445   2.672   6.969   6.095
  516SOL     OW 2446   2.823   4.748   1.692
  516SOL    HW1 2447   2.799   4.699   1.776
  516SOL    HW2 2448   2.916   4.783   1.700
  517SOL     OW 2449   5.337   6.740   2.209
  517SOL    HW1 2450   5.247   6.732   2.167
  517SOL    HW2 2451   5.357   6.837   2.227
  518SOL     OW 2452   2.485   2.314   1.828
  518SOL    HW1 2453   2.429   2.307   1.745
  518SOL    HW2 2454   2.455   2.392   1.882
  519SOL     OW 2455   0.101   0.727   4.818
  519SOL    HW1 2456   0.029   0.659   4.799
  519SOL    HW2 2457   0.180   0.708   4.760
  520SOL     OW 2458   5.610   4.519   6.412
  520SOL    HW1 2459   5.708   4.508   6.432
  520SOL    HW2 2460   5.557   4.491   6.491
  521SOL     OW 2461   6.281   1.582   6.185
  521SOL    HW1 2462   6.182   1.570   6.192
  521SOL    HW2 2463   6.326   1.493   6.185
  522SOL     OW 2464   3.934   3.119   5.229
  522SOL    HW1 2465   3.993   3.040   5.238
  522SOL    HW2 2466   3.964   3.190   5.293
  523SOL     OW 2467   6.886   6.219   3.854
  523SOL    HW1 2468   6.799   6.254   3.819
  523SOL    HW2 2469   6.918   6.143   3.797
  524SOL     OW 2470   2.954   0.868   6.627
  524SOL    HW1 2471   2.856   0.885   6.639
  524SOL    HW2 2472   3.006   0.939   6.674
  525SOL     OW 2473   2.667   3.689   6.326
  525SOL    HW1 2474   2.593   3.628   6.353
  525SOL    HW2 2475   2.633   3.757   6.260
  526SOL     OW 2476   2.693   5.623   5.119
  526SOL    HW1 2477   2.622   5.567   5.075
  526SOL    HW2 2478   2.783   5.584   5.101
  527SOL     OW 2479   6.436   1.696   5.984
  527SOL    HW1 2480   6.475   1.619   5.933
  527SOL    HW2 2481   6.417   1.667   6.078
  528SOL     OW 2482   1.749   1.294   4.272
  528SOL    HW1 2483   1.650   1.290   4.283
  528SOL    HW2 2484   1.793   1.241   4.344
  529SOL     OW 2485   0.719   5.078   5.015
  529SOL    HW1 2486   0.809   5.074   5.058
  529SOL    HW2 2487   0.693   4.987   4.983
  530SOL     OW 2488   2.518   3.160   5.434
  530SOL    HW1 2489   2.436   3.130   5.484
  530SOL    HW2 2490   2.518   3.119   5.343
  531SOL     OW 2491   0.461   1.067   0.999
  531SOL    HW1 2492   0.450   0.995   1.067
  531SOL    HW2 2493   0.556   1.098   0.998
  532SOL     OW 2494   0.799   1.900   5.941
  532SOL    HW1 2495   0.778   1.862   5.852
  532SOL    HW2 2496   0.878   1.961   5.934
  533SOL     OW 2497   5.094   6.442   4.482
  533SOL    HW1 2498   5.046   6.378   4.543
  533SOL    HW2 2499   5.071   6.420   4.387
  534SOL     OW 2500   4.702   5.509   3.861
  534SOL    HW1 2501   4.622   5.449   3.861
  534SOL    HW2 2502   4.694   5.576   3.934
  535SOL     OW 2503   0.575   4.022   3.887
  535SOL    HW1 2504   0.672   4.044   3.881
  535SOL    HW2 2505   0.563   3.922   3.887
  536SOL     OW 2506   0.676   5.286   1.509
  536SOL    HW1 2507   0.686   5.384   1.494
  536SOL    HW2 2508   0.659   5.241   1.422
  537SOL     OW 2509   1.876   6.238   3.668
  537SOL    HW1 2510   1.780   6.247   3.694
  537SOL    HW2 2511   1.906   6.144   3.681
  538SOL     OW 2512   1.024   5.535   3.530
  538SOL    HW1 2513   1.000   5.581   3.444
  538SOL    HW2 2514   0.961   5.459   3.545
  539SOL     OW 2515   0.908   5.353   1.703
  539SOL    HW1 2516   0.856   5.425   1.748
  539SOL    HW2 2517   0.871   5.264   1.728
  540SOL     OW 2518   0.739   2.030   2.556
  540SOL    HW1 2519   0.704   1.999   2.468
  540SOL    HW2 2520   0.834   2.001   2.567
  541SOL     OW 2521   3.200   6.480   4.870
  541SOL    HW1 2522   3.108   6.484   4.907
  541SOL    HW2 2523   3.258   6.546   4.918
  542SOL     OW 2524   6.124   6.444   0.029
  542SOL    HW1 2525   6.204   6.502   0.043
  542SOL    HW2 2526   6.081   6.467   6.967
  543SOL     OW 2527   1.131   5.158   6.793
  543SOL    HW1 2528   1.209   5.193   6.846
  543SOL    HW2 2529   1.139   5.059   6.783
  544SOL     OW 2530   0.933   5.014   1.088
  544SOL    HW1 2531   0.943   4.969   1.176
  544SOL    HW2 2532   0.998   5.090   1.081
  545SOL     OW 2533   3.726   1.580   3.440
  545SOL    HW1 2534   3.761   1.674   3.445
  545SOL    HW2 2535   3.784   1.527   3.379
  546SOL     OW 2536   1.085   3.583   1.469
  546SOL    HW1 2537   1.040   3.496   1.489
  546SOL    HW2 2538   1.017   3.648   1.436
  547SOL     OW 2539   2.264   2.415   0.323
  547SOL    HW1 2540   2.274   2.342   0.390
  547SOL    HW2 2541   2.199   2.483   0.358
  548SOL     OW 2542   4.150   3.566   3.876
  548SOL    HW1 2543   4.248   3.566   3.899
  548SOL    HW2 2544   4.139   3.575   3.778
  549SOL     OW 2545   5.410   3.565   1.482
  549SOL    HW1 2546   5.364   3.598   1.564
  549SOL    HW2 2547   5.406   3.465   1.479
  550SOL     OW 2548   6.697   3.050   2.593
  550SOL    HW1 2549   6.653   3.061   2.504
  550SOL    HW2 2550   6.795   3.067   2.584
  551SOL     OW 2551   6.897   1.799   0.649
  551SOL    HW1 2552   6.832   1.749   0.706
  551SOL    HW2 2553   6.854   1.822   0.562
  552SOL     OW 2554   3.673   5.249   0.698
  552SOL    HW1 2555   3.725   5.245   0.783
  552SOL    HW2 2556   3.721   5.198   0.627
  553SOL     OW 2557   1.900   0.480   2.378
  553SOL    HW1 2558   1.947   0.513   2.460
  553SOL    HW2 2559   1.927   0.385   2.360
  554SOL     OW 2560   5.402   6.624   5.900
  554SOL    HW1 2561   5.465   6.557   5.861
  554SOL    HW2 2562   5.350   6.669   5.828
  555SOL     OW 2563   2.281   4.624   4.352
  555SOL    HW1 2564   2.226   4.566   4.412
  555SOL    HW2 2565   2.328   4.693   4.406
  556SOL     OW 2566   6.173   2.306   3.886
  556SOL    HW1 2567   6.125   2.284   3.801
  556SOL    HW2 2568   6.131   2.386   3.929
  557SOL     OW 2569   6.829   5.942   6.219
  557SOL    HW1 2570   6.796   5.850   6.239
  557SOL    HW2 2571   6.753   6.007   6.226
  558SOL     OW 2572   4.175   3.703   5.416
  558SOL    HW1 2573   4.198   3.617   5.461
  558SOL    HW2 2574   4.180   3.692   5.317
  559SOL     OW 2575   6.776   5.694   6.306
  559SOL    HW1 2576   6.827   5.669   6.388
  559SOL    HW2 2577   6.678   5.686   6.324
  560SOL     OW 2578   4.537   6.435   6.696
  560SOL    HW1 2579   4.455   6.490   6.687
  560SOL    HW2 2580   4.517   6.353   6.750
  561SOL     OW 2581   5.822   6.866   0.070
  561SOL    HW1 2582   5.830   6.772   0.104
  561SOL    HW2 2583   5.799   6.864   6.998
  562SOL     OW 2584   5.236   1.118   6.206
  562SOL    HW1 2585   5.203   1.136   6.298
  562SOL    HW2 2586   5.284   1.031   6.204
  563SOL     OW 2587   2.742   6.239   4.082
  563SOL    HW1 2588   2.680   6.204   4.011
  563SOL    HW2 2589   2.804   6.306   4.042
  564SOL     OW 2590   2.093   1.531   6.230
  564SOL    HW1 2591   2.059   1.561   6.140
  564SOL    HW2 2592   2.173   1.472   6.217
  565SOL     OW 2593   4.515   3.720   5.567
  565SOL    HW1 2594   4.504   3.734   5.468
  565SOL    HW2 2595   4.465   3.638   5.595
  566SOL     OW 2596   4.210   4.848   3.251
  566SOL    HW1 2597   4.154   4.853   3.168
  566SOL    HW2 2598   4.303   4.821   3.227
  567SOL     OW 2599   3.515   3.336   4.168
  567SOL    HW1 2600   3.520   3.339   4.268
  567SOL    HW2 2601   3.489   3.244   4.139
  568SOL     OW 2602   2.850   2.511   0.081
  568SOL    HW1 2603   2.831   2.600   0.040
  568SOL    HW2 2604   2.872   2.522   0.178
  569SOL     OW 2605   1.726   2.673   0.607
  569SOL    HW1 2606   1.816   2.631   0.621
  569SOL    HW2 2607   1.660   2.602   0.583
  570SOL     OW 2608   1.435   6.748   0.333
  570SOL    HW1 2609   1.414   6.796   0.248
  570SOL    HW2 2610   1.483   6.810   0.395
  571SOL     OW 2611   3.642   5.458   2.988
  571SOL    HW1 2612   3.586   5.419   2.914
  571SOL    HW2 2613   3.708   5.522   2.949
  572SOL     OW 2614   2.031   4.132   5.755
  572SOL    HW1 2615   2.088   4.057   5.721
  572SOL    HW2 2616   1.984   4.103   5.838
  573SOL     OW 2617   4.274   1.144   5.011
  573SOL    HW1 2618   4.358   1.127   4.959
  573SOL    HW2 2619   4.261   1.243   5.022
  574SOL     OW 2620   2.321   2.094   4.392
  574SOL    HW1 2621   2.288   2.177   4.436
  574SOL    HW2 2622   2.419   2.103   4.372
  575SOL     OW 2623   6.830   2.863   0.571
  575SOL    HW1 2624   6.799   2.858   0.666
  575SOL    HW2 2625   6.806   2.952   0.532
  576SOL     OW 2626   0.919   2.680   2.310
  576SOL    HW1 2627   1.015   2.651   2.313
  576SOL    HW2 2628   0.861   2.606   2.345
  577SOL     OW 2629   2.277   1.994   3.604
  577SOL    HW1 2630   2.347   2.064   3.615
  577SOL    HW2 2631   2.187   2.037   3.594
  578SOL     OW 2632   0.374   3.349   3.357
  578SOL    HW1 2633   0.390   3.448   3.360
  578SOL    HW2 2634   0.454   3.303   3.318
  579SOL     OW 2635   3.956   1.641   0.596
  579SOL    HW1 2636   3.909   1.711   0.649
  579SOL    HW2 2637   3.890   1.595   0.536
  580SOL     OW 2638   1.341   5.253   6.915
  580SOL    HW1 2639   1.361   5.348   6.939
  580SOL    HW2 2640   1.335   5.198   6.998
  581SOL     OW 2641   3.506   3.174   2.934
  581SOL    HW1 2642   3.422   3.229   2.934
  581SOL    HW2 2643   3.545   3.174   2.841
  582SOL     OW 2644   5.439   3.854   2.985
  582SOL    HW1 2645   5.468   3.948   3.002
  582SOL    HW2 2646   5.491   3.792   3.045
  583SOL     OW 2647   2.454   4.444   6.955
  583SOL    HW1 2648   2.407   4.519   6.909
  583SOL    HW2 2649   2.438   4.450   0.029
  584SOL     OW 2650   0.516   4.878   5.463
  584SOL    HW1 2651   0.510   4.878   5.363
  584SOL    HW2 2652   0.584   4.811   5.492
  585SOL     OW 2653   0.301   2.489   5.874
  585SOL    HW1 2654   0.314   2.497   5.972
  585SOL    HW2 2655   0.349   2.407   5.840
  586SOL     OW 2656   2.860   6.571   1.220
  586SOL    HW1 2657   2.916   6.562   1.137
  586SOL    HW2 2658   2.811   6.486   1.236
  587SOL     OW 2659   1.085   3.129   6.179
  587SOL    HW1 2660   1.146   3.051   6.193
  587SOL    HW2 2661   0.990   3.100   6.192
  588SOL     OW 2662   3.595   6.754   1.331
  588SOL    HW1 2663   3.553   6.685   1.271
  588SOL    HW2 2664   3.567   6.738   1.425
  589SOL     OW 2665   3.650   4.922   2.638
  589SOL    HW1 2666   3.558   4.899   2.668
  589SOL    HW2 2667   3.651   5.016   2.603
  590SOL     OW 2668   6.911   2.080   1.942
  590SOL    HW1 2669   6.880   2.011   1.876
  590SOL    HW2 2670   6.939   2.163   1.892
  591SOL     OW 2671   3.588   0.282   3.396
  591SOL    HW1 2672   3.646   0.228   3.337
  591SOL    HW2 2673   3.572   0.233   3.482
  592SOL     OW 2674   4.680   0.729   0.765
  592SOL    HW1 2675   4.603   0.680   0.804
  592SOL    HW2 2676   4.650   0.819   0.733
  593SOL     OW 2677   4.860   2.411   3.642
  593SOL    HW1 2678   4.949   2.393   3.602
  593SOL    HW2 2679   4.830   2.331   3.695
  594SOL     OW 2680   4.065   4.066   0.882
  594SOL    HW1 2681   4.053   4.097   0.787
  594SOL    HW2 2682   4.010   3.984   0.897
  595SOL     OW 2683   3.484   6.022   3.979
  595SOL    HW1 2684   3.507   6.115   4.005
  595SOL    HW2 2685   3.396   5.996   4.017
  596SOL     OW 2686   0.603   4.607   2.883
  596SOL    HW1 2687   0.684   4.614   2.827
  596SOL    HW2 2688   0.554   4.694   2.884
  597SOL     OW 2689   4.711   0.217   6.397
  597SOL    HW1 2690   4.679   0.169   6.316
  597SOL    HW2 2691   4.720   0.314   6.376
  598SOL     OW 2692   3.848   4.583   0.468
  598SOL    HW1 2693   3.811   4.657   0.412
  598SOL    HW2 2694   3.936   4.554   0.430
  599SOL     OW 2695   6.918   0.253   2.773
  599SOL    HW1 2696   6.910   0.183   2.843
  599SOL    HW2 2697   6.853   0.234   2.699
  600SOL     OW 2698   1.209   7.023   0.250
  600SOL    HW1 2699   1.121   0.046   0.248
  600SOL    HW2 2700   1.258   0.022   0.334
  601SOL     OW 2701   2.756   5.760   3.765
  601SOL    HW1 2702   2.789   5.671   3.735
  601SOL    HW2 2703   2.690   5.796   3.699
  602SOL     OW 2704   1.624   0.510   1.521
  602SOL    HW1 2705   1.539   0.504   1.470
  602SOL    HW2 2706   1.702   0.517   1.458
  603SOL     OW 2707   4.301   2.193   3.068
  603SOL    HW1 2708   4.348   2.279   3.089
  603SOL    HW2 2709   4.214   2.212   3.022
  604SOL     OW 2710   1.092   3.344   6.338
  604SOL    HW1 2711   1.082   3.261   6.284
  604SOL    HW2 2712   1.024   3.343   6.412
  605SOL     OW 2713   6.244   6.540   3.148
  605SOL    HW1 2714   6.229   6.512   3.054
  605SOL    HW2 2715   6.210   6.469   3.210
  606SOL     OW 2716   3.654   0.484   3.614
  606SOL    HW1 2717   3.701   0.546   3.551
  606SOL    HW2 2718   3.616   0.536   3.690
  607SOL     OW 2719   5.073   1.516   4.173
  607SOL    HW1 2720   5.118   1.596   4.212
  607SOL    HW2 2721   5.133   1.475   4.104
  608SOL     OW 2722   3.695   0.977   0.785
  608SOL    HW1 2723   3.728   1.012   0.872
  608SOL    HW2 2724   3.702   1.047   0.715
  609SOL     OW 2725   3.275   2.984   3.804
  609SOL    HW1 2726   3.259   3.041   3.885
  609SOL    HW2 2727   3.363   2.937   3.813
  610SOL     OW 2728   5.348   2.135   4.371
  610SOL    HW1 2729   5.402   2.058   4.405
  610SOL    HW2 2730   5.305   2.110   4.284
  611SOL     OW 2731   0.008   0.222   0.276
  611SOL    HW1 2732   0.105   0.237   0.297
  611SOL    HW2 2733   7.025   0.150   0.207
  612SOL     OW 2734   3.154   5.528   5.952
  612SOL    HW1 2735   3.101   5.469   6.013
  612SOL    HW2 2736   3.195   5.473   5.879
  613SOL     OW 2737   4.115   1.535   6.058
  613SOL    HW1 2738   4.051   1.461   6.078
  613SOL    HW2 2739   4.120   1.597   6.136
  614SOL     OW 2740   5.684   4.421   0.884
  614SOL    HW1 2741   5.655   4.331   0.917
  614SOL    HW2 2742   5.606   4.468   0.842
  615SOL     OW 2743   0.131   0.228   0.733
  615SOL    HW1 2744   0.075   0.251   0.812
  615SOL    HW2 2745   0.078   0.173   0.669
  616SOL     OW 2746   5.652   1.577   4.061
  616SOL    HW1 2747   5.726   1.640   4.040
  616SOL    HW2 2748   5.634   1.518   3.981
  617SOL     OW 2749   0.287   4.936   5.609
  617SOL    HW1 2750   0.377   4.902   5.584
  617SOL    HW2 2751   0.288   4.969   5.703
  618SOL     OW 2752   5.862   3.403   0.301
  618SOL    HW1 2753   5.783   3.462   0.322
  618SOL    HW2 2754   5.939   3.460   0.273
  619SOL     OW 2755   2.973   0.529   0.654
  619SOL    HW1 2756   2.903   0.548   0.585
  619SOL    HW2 2757   3.022   0.613   0.676
  620SOL     OW 2758   5.817   2.369   2.000
  620SOL    HW1 2759   5.845   2.381   1.904
  620SOL    HW2 2760   5.741   2.304   2.005
  621SOL     OW 2761   3.046   0.577   6.407
  621SOL    HW1 2762   3.071   0.633   6.328
  621SOL    HW2 2763   3.079   0.620   6.491
  622SOL     OW 2764   1.243   1.690   5.248
  622SOL    HW1 2765   1.339   1.696   5.219
  622SOL    HW2 2766   1.238   1.699   5.347
  623SOL     OW 2767   5.797   6.693   4.128
  623SOL    HW1 2768   5.880   6.638   4.144
  623SOL    HW2 2769   5.717   6.633   4.130
  624SOL     OW 2770   6.569   1.266   6.369
  624SOL    HW1 2771   6.656   1.312   6.381
  624SOL    HW2 2772   6.585   1.172   6.338
  625SOL     OW 2773   2.811   1.000   0.758
  625SOL    HW1 2774   2.867   1.082   0.748
  625SOL    HW2 2775   2.817   0.967   0.852
  626SOL     OW 2776   0.604   5.392   3.640
  626SOL    HW1 2777   0.688   5.386   3.586
  626SOL    HW2 2778   0.539   5.322   3.609
  627SOL     OW 2779   6.666   0.209   6.927
  627SOL    HW1 2780   6.610   0.136   6.889
  627SOL    HW2 2781   6.703   0.264   6.852
  628SOL     OW 2782   5.014   4.694   5.270
  628SOL    HW1 2783   5.040   4.790   5.261
  628SOL    HW2 2784   5.081   4.637   5.223
  629SOL     OW 2785   6.938   0.211   6.444
  629SOL    HW1 2786   6.866   0.179   6.383
  629SOL    HW2 2787   6.946   0.310   6.438
  630SOL     OW 2788   6.591   1.564   1.080
  630SOL    HW1 2789   6.526   1.637   1.057
  630SOL    HW2 2790   6.645   1.592   1.160
  631SOL     OW 2791   1.948   2.571   5.059
  631SOL    HW1 2792   1.974   2.550   4.964
  631SOL    HW2 2793   2.031   2.592   5.111
  632SOL     OW 2794   3.633   3.503   6.890
  632SOL    HW1 2795   3.556   3.474   6.834
  632SOL    HW2 2796   3.673   3.424   6.936
  633SOL     OW 2797   1.257   5.788   1.913
  633SOL    HW1 2798   1.343   5.739   1.921
  633SOL    HW2 2799   1.198   5.764   1.990
  634SOL     OW 2800   2.961   3.348   4.312
  634SOL    HW1 2801   3.001   3.297   4.388
  634SOL    HW2 2802   2.929   3.284   4.242
  635SOL     OW 2803   5.651   1.110   6.557
  635SOL    HW1 2804   5.650   1.202   6.518
  635SOL    HW2 2805   5.718   1.105   6.631
  636SOL     OW 2806   3.062   0.423   7.001
  636SOL    HW1 2807   3.089   0.340   0.024
  636SOL    HW2 2808   3.143   0.469   6.965
  637SOL     OW 2809   6.356   1.052   1.282
  637SOL    HW1 2810   6.452   1.051   1.309
  637SOL    HW2 2811   6.336   0.973   1.225
  638SOL     OW 2812   6.296   3.533   4.449
  638SOL    HW1 2813   6.344   3.458   4.403
  638SOL    HW2 2814   6.199   3.510   4.459
  639SOL     OW 2815   4.938   4.710   3.151
  639SOL    HW1 2816   4.933   4.802   3.112
  639SOL    HW2 2817   4.945   4.718   3.251
  640SOL     OW 2818   0.425   2.543   2.447
  640SOL    HW1 2819   0.524   2.559   2.445
  640SOL    HW2 2820   0.381   2.612   2.505
  641SOL     OW 2821   1.744   4.742   4.646
  641SOL    HW1 2822   1.746   4.786   4.736
  641SOL    HW2 2823   1.650   4.717   4.623
  642SOL     OW 2824   1.209   3.701   4.890
  642SOL    HW1 2825   1.249   3.693   4.799
  642SOL    HW2 2826   1.110   3.693   4.884
  643SOL     OW 2827   4.893   5.364   6.902
  643SOL    HW1 2828   4.913   5.338   6.996
  643SOL    HW2 2829   4.895   5.283   6.843
  644SOL     OW 2830   6.590   0.193   4.868
  644SOL    HW1 2831   6.506   0.156   4.829
  644SOL    HW2 2832   6.668   0.139   4.836
  645SOL     OW 2833   4.147   4.738   2.557
  645SOL    HW1 2834   4.209   4.722   2.480
  645SOL    HW2 2835   4.052   4.737   2.524
  646SOL     OW 2836   4.453   0.518   5.036
  646SOL    HW1 2837   4.462   0.427   5.078
  646SOL    HW2 2838   4.419   0.508   4.942
  647SOL     OW 2839   4.770   2.070   5.125
  647SOL    HW1 2840   4.818   2.006   5.185
  647SOL    HW2 2841   4.801   2.057   5.030
  648SOL     OW 2842   6.026   2.267   2.947
  648SOL    HW1 2843   6.042   2.194   3.013
  648SOL    HW2 2844   6.011   2.353   2.995
  649SOL     OW 2845   2.427   4.906   0.531
  649SOL    HW1 2846   2.476   4.840   0.587
  649SOL    HW2 2847   2.464   4.998   0.548
  650SOL     OW 2848   6.914   5.452   0.818
  650SOL    HW1 2849   6.950   5.504   0.895
  650SOL    HW2 2850   6.847   5.385   0.851
  651SOL     OW 2851   1.391   0.384   5.228
  651SOL    HW1 2852   1.333   0.438   5.288
  651SOL    HW2 2853   1.335   0.335   5.161
  652SOL     OW 2854   3.992   0.212   1.427
  652SOL    HW1 2855   3.895   0.190   1.430
  652SOL    HW2 2856   4.006   0.304   1.464
  653SOL     OW 2857   0.406   6.062   1.565
  653SOL    HW1 2858   0.490   6.043   1.617
  653SOL    HW2 2859   0.422   6.140   1.504
  654SOL     OW 2860   6.895   6.759   5.585
  654SOL    HW1 2861   6.819   6.821   5.603
  654SOL    HW2 2862   6.965   6.806   5.531
  655SOL     OW 2863   6.945   4.524   2.147
  655SOL    HW1 2864   0.006   4.476   2.164
  655SOL    HW2 2865   6.964   4.610   2.100
  656SOL     OW 2866   3.628   6.545   0.524
  656SOL    HW1 2867   3.718   6.541   0.567
  656SOL    HW2 2868   3.639   6.552   0.425
  657SOL     OW 2869   3.611   2.679   1.702
  657SOL    HW1 2870   3.527   2.625   1.690
  657SOL    HW2 2871   3.588   2.767   1.742
  658SOL     OW 2872   2.287   4.238   4.457
  658SOL    HW1 2873   2.317   4.246   4.362
  658SOL    HW2 2874   2.337   4.165   4.502
  659SOL     OW 2875   2.324   6.697   5.872
  659SOL    HW1 2876   2.244   6.679   5.929
  659SOL    HW2 2877   2.332   6.795   5.856
  660SOL     OW 2878   4.791   4.219   2.134
  660SOL    HW1 2879   4.702   4.240   2.093
  660SOL    HW2 2880   4.785   4.227   2.233
  661SOL     OW 2881   4.156   4.808   4.057
  661SOL    HW1 2882   4.059   4.832   4.066
  661SOL    HW2 2883   4.171   4.766   3.967
  662SOL     OW 2884   4.985   3.451   0.621
  662SOL    HW1 2885   4.979   3.548   0.598
  662SOL    HW2 2886   4.950   3.396   0.545
  663SOL     OW 2887   0.474   4.744   0.388
  663SOL    HW1 2888   0.501   4.660   0.435
  663SOL    HW2 2889   0.450   4.814   0.455
  664SOL     OW 2890   1.513   6.791   6.647
  664SOL    HW1 2891   1.562   6.788   6.559
  664SOL    HW2 2892   1.520   6.702   6.693
  665SOL     OW 2893   4.156   6.080   0.864
  665SOL    HW1 2894   4.148   6.136   0.947
  665SOL    HW2 2895   4.204   6.132   0.793
  666SOL     OW 2896   3.586   1.726   0.397
  666SOL    HW1 2897   3.655   1.739   0.326
  666SOL    HW2 2898   3.583   1.807   0.455
  667SOL     OW 2899   1.099   3.503   3.127
  667SOL    HW1 2900   1.160   3.532   3.200
  667SOL    HW2 2901   1.060   3.414   3.149
  668SOL     OW 2902   5.024   6.765   0.496
  668SOL    HW1 2903   4.972   6.814   0.426
  668SOL    HW2 2904   4.963   6.745   0.574
  669SOL     OW 2905   1.439   6.415   3.505
  669SOL    HW1 2906   1.456   6.498   3.559
  669SOL    HW2 2907   1.433   6.439   3.408
  670SOL     OW 2908   2.877   3.560   3.898
  670SOL    HW1 2909   2.904   3.585   3.991
  670SOL    HW2 2910   2.810   3.486   3.901
  671SOL     OW 2911   2.277   0.352   6.181
  671SOL    HW1 2912   2.262   0.435   6.235
  671SOL    HW2 2913   2.256   0.272   6.237
  672SOL     OW 2914   2.088   3.503   3.784
  672SOL    HW1 2915   2.138   3.508   3.871
  672SOL    HW2 2916   1.992   3.484   3.802
  673SOL     OW 2917   4.665   0.706   0.446
  673SOL    HW1 2918   4.633   0.625   0.495
  673SOL    HW2 2919   4.689   0.777   0.512
  674SOL     OW 2920   0.686   1.721   3.605
  674SOL    HW1 2921   0.618   1.649   3.620
  674SOL    HW2 2922   0.722   1.752   3.693
  675SOL     OW 2923   0.152   2.386   4.289
  675SOL    HW1 2924   0.121   2.386   4.384
  675SOL    HW2 2925   0.175   2.293   4.262
  676SOL     OW 2926   1.927   4.682   4.439
  676SOL    HW1 2927   2.021   4.680   4.473
  676SOL    HW2 2928   1.864   4.694   4.515
  677SOL     OW 2929   6.087   6.973   0.593
  677SOL    HW1 2930   6.135   6.889   0.618
  677SOL    HW2 2931   6.014   6.951   0.529
  678SOL     OW 2932   2.357   0.975   6.473
  678SOL    HW1 2933   2.427   0.917   6.432
  678SOL    HW2 2934   2.284   0.919   6.511
  679SOL     OW 2935   4.233   0.595   2.788
  679SOL    HW1 2936   4.322   0.570   2.827
  679SOL    HW2 2937   4.247   0.650   2.705
  680SOL     OW 2938   4.849   4.299   5.391
  680SOL    HW1 2939   4.865   4.236   5.467
  680SOL    HW2 2940   4.758   4.283   5.353
  681SOL     OW 2941   0.992   6.672   1.257
  681SOL    HW1 2942   1.089   6.675   1.280
  681SOL    HW2 2943   0.950   6.592   1.299
  682SOL     OW 2944   1.747   5.766   0.247
  682SOL    HW1 2945   1.789   5.751   0.337
  682SOL    HW2 2946   1.820   5.776   0.178
  683SOL     OW 2947   4.048   1.218   6.844
  683SOL    HW1 2948   3.982   1.206   6.771
  683SOL    HW2 2949   4.046   1.139   6.905
  684SOL     OW 2950   0.253   5.873   5.567
  684SOL    HW1 2951   0.227   5.941   5.637
  684SOL    HW2 2952   0.349   5.885   5.544
  685SOL     OW 2953   5.426   7.018   5.412
  685SOL    HW1 2954   5.336   7.003   5.452
  685SOL    HW2 2955   5.491   6.953   5.452
  686SOL     OW 2956   5.164   3.721   3.081
  686SOL    HW1 2957   5.188   3.786   3.009
  686SOL    HW2 2958   5.066   3.728   3.101
  687SOL     OW 2959   0.162   3.521   5.568
  687SOL    HW1 2960   0.082   3.534   5.511
  687SOL    HW2 2961   0.177   3.603   5.624
  688SOL     OW 2962   0.779   3.876   6.064
  688SOL    HW1 2963   0.841   3.800   6.047
  688SOL    HW2 2964   0.753   3.876   6.161
  689SOL     OW 2965   6.241   3.441   5.901
  689SOL    HW1 2966   6.263   3.538   5.905
  689SOL    HW2 2967   6.185   3.423   5.820
  690SOL     OW 2968   1.383   2.186   3.588
  690SOL    HW1 2969   1.382   2.280   3.555
  690SOL    HW2 2970   1.418   2.185   3.682
  691SOL     OW 2971   1.043   2.430   6.759
  691SOL    HW1 2972   1.141   2.421   6.774
  691SOL    HW2 2973   1.001   2.339   6.754
  692SOL     OW 2974   2.604   0.134   2.519
  692SOL    HW1 2975   2.701   0.126   2.493
  692SOL    HW2 2976   2.558   0.047   2.503
  693SOL     OW 2977   6.691   2.684   2.814
  693SOL    HW1 2978   6.723   2.590   2.807
  693SOL    HW2 2979   6.606   2.694   2.761
  694SOL     OW 2980   1.912   6.383   1.071
  694SOL    HW1 2981   1.978   6.456   1.083
  694SOL    HW2 2982   1.865   6.365   1.157
  695SOL     OW 2983   5.434   5.443   5.287
  695SOL    HW1 2984   5.486   5.466   5.369
  695SOL    HW2 2985   5.492   5.392   5.224
  696SOL     OW 2986   4.289   4.685   2.320
  696SOL    HW1 2987   4.258   4.725   2.234
  696SOL    HW2 2988   4.355   4.612   2.302
  697SOL     OW 2989   0.965   4.423   4.422
  697SOL    HW1 2990   0.973   4.479   4.340
  697SOL    HW2 2991   0.870   4.396   4.436
  698SOL     OW 2992   4.547   0.313   3.574
  698SOL    HW1 2993   4.546   0.224   3.529
  698SOL    HW2 2994   4.454   0.339   3.600
  699SOL     OW 2995   1.224   3.746   0.959
  699SOL    HW1 2996   1.176   3.773   0.876
  699SOL    HW2 2997   1.185   3.661   0.995
  700SOL     OW 2998   2.735   2.339   4.335
  700SOL    HW1 2999   2.692   2.426   4.308
  700SOL    HW2 3000   2.783   2.352   4.421
  701SOL     OW 3001   0.875   4.460   6.209
  701SOL    HW1 3002   0.966   4.420   6.218
  701SOL    HW2 3003   0.839   4.481   6.300
  702SOL     OW 3004   5.125   6.965   4.253
  702SOL    HW1 3005   5.221   6.938   4.256
  702SOL    HW2 3006   5.108   7.022   4.173
  703SOL     OW 3007   4.147   3.825   6.232
  703SOL    HW1 3008   4.058   3.780   6.243
  703SOL    HW2 3009   4.140   3.896   6.161
  704SOL     OW 3010   1.355   0.021   6.910
  704SOL    HW1 3011   1.327   6.956   6.876
  704SOL    HW2 3012   1.301   0.091   6.865
  705SOL     OW 3013   5.500   1.064   2.643
  705SOL    HW1 3014   5.524   1.148   2.592
  705SOL    HW2 3015   5.576   1.040   2.703
  706SOL     OW 3016   3.648   2.003   4.006
  706SOL    HW1 3017   3.693   2.045   3.927
  706SOL    HW2 3018   3.553   1.983   3.984
  707SOL     OW 3019   5.356   0.251   1.724
  707SOL    HW1 3020   5.373   0.316   1.650
  707SOL    HW2 3021   5.290   0.290   1.788
  708SOL     OW 3022   4.014   0.288   1.111
  708SOL    HW1 3023   3.994   0.380   1.145
  708SOL    HW2 3024   4.020   0.289   1.011
  709SOL     OW 3025   1.101   5.234   1.078
  709SOL    HW1 3026   1.168   5.212   1.149
  709SOL    HW2 3027   1.148   5.256   0.993
  710SOL     OW 3028   3.272   4.031   2.411
  710SOL    HW1 3029   3.197   4.019   2.345
  710SOL    HW2 3030   3.359   4.010   2.366
  711SOL     OW 3031   6.575   1.624   4.212
  711SOL    HW1 3032   6.481   1.592   4.216
  711SOL    HW2 3033   6.578   1.714   4.169
  712SOL     OW 3034   1.303   3.541   1.653
  712SOL    HW1 3035   1.371   3.613   1.639
  712SOL    HW2 3036   1.228   3.553   1.589
  713SOL     OW 3037   4.063   3.277   2.468
  713SOL    HW1 3038   4.091   3.281   2.373
  713SOL    HW2 3039   4.018   3.189   2.486
  714SOL     OW 3040   5.718   4.499   4.826
  714SOL    HW1 3041   5.728   4.414   4.877
  714SOL    HW2 3042   5.643   4.553   4.865
  715SOL     OW 3043   4.588   0.083   6.160
  715SOL    HW1 3044   4.642   0.001   6.138
  715SOL    HW2 3045   4.550   0.121   6.076
  716SOL     OW 3046   0.407   4.822   1.905
  716SOL    HW1 3047   0.466   4.768   1.965
  716SOL    HW2 3048   0.316   4.828   1.945
  717SOL     OW 3049   6.764   3.316   6.796
  717SOL    HW1 3050   6.733   3.340   6.704
  717SOL    HW2 3051   6.781   3.218   6.801
  718SOL     OW 3052   3.748   3.470   6.595
  718SOL    HW1 3053   3.660   3.431   6.569
  718SOL    HW2 3054   3.733   3.545   6.660
  719SOL     OW 3055   6.960   3.663   1.176
  719SOL    HW1 3056   6.917   3.720   1.106
  719SOL    HW2 3057   6.889   3.619   1.232
  720SOL     OW 3058   2.521   1.573   6.310
  720SOL    HW1 3059   2.447   1.634   6.282
  720SOL    HW2 3060   2.511   1.485   6.263
  721SOL     OW 3061   1.619   0.282   5.628
  721SOL    HW1 3062   1.551   0.220   5.668
  721SOL    HW2 3063   1.612   0.372   5.671
  722SOL     OW 3064   4.113   0.212   4.622
  722SOL    HW1 3065   4.091   0.309   4.629
  722SOL    HW2 3066   4.140   0.191   4.528
  723SOL     OW 3067   1.423   2.520   2.392
  723SOL    HW1 3068   1.471   2.438   2.362
  723SOL    HW2 3069   1.464   2.553   2.477
  724SOL     OW 3070   0.231   1.032   4.783
  724SOL    HW1 3071   0.250   0.934   4.779
  724SOL    HW2 3072   0.259   1.074   4.697
  725SOL     OW 3073   1.971   4.940   2.672
  725SOL    HW1 3074   2.070   4.926   2.663
  725SOL    HW2 3075   1.931   4.866   2.726
  726SOL     OW 3076   3.509   6.529   0.026
  726SOL    HW1 3077   3.593   6.482   7.025
  726SOL    HW2 3078   3.430   6.469   0.009
  727SOL     OW 3079   3.166   5.250   4.289
  727SOL    HW1 3080   3.197   5.157   4.272
  727SOL    HW2 3081   3.139   5.259   4.385
  728SOL     OW 3082   0.104   4.218   5.077
  728SOL    HW1 3083   0.165   4.297   5.075
  728SOL    HW2 3084   0.050   4.218   5.161
  729SOL     OW 3085   2.095   0.832   1.336
  729SOL    HW1 3086   2.057   0.916   1.374
  729SOL    HW2 3087   2.095   0.760   1.406
  730SOL     OW 3088   6.072   0.664   3.673
  730SOL    HW1 3089   6.113   0.592   3.729
  730SOL    HW2 3090   5.977   0.678   3.702
  731SOL     OW 3091   5.676   3.397   4.512
  731SOL    HW1 3092   5.652   3.470   4.448
  731SOL    HW2 3093   5.604   3.388   4.581
  732SOL     OW 3094   6.898   2.953   1.447
  732SOL    HW1 3095   6.810   2.907   1.436
  732SOL    HW2 3096   6.972   2.885   1.441
  733SOL     OW 3097   4.811   4.159   4.085
  733SOL    HW1 3098   4.742   4.210   4.135
  733SOL    HW2 3099   4.823   4.200   3.994
  734SOL     OW 3100   0.024   4.276   1.161
  734SOL    HW1 3101   6.976   4.225   1.208
  734SOL    HW2 3102   0.111   4.260   1.207
  735SOL     OW 3103   1.246   3.715   6.670
  735SOL    HW1 3104   1.213   3.736   6.578
  735SOL    HW2 3105   1.303   3.791   6.702
  736SOL     OW 3106   6.834   0.452   3.235
  736SOL    HW1 3107   6.772   0.519   3.194
  736SOL    HW2 3108   6.910   0.434   3.173
  737SOL     OW 3109   5.498   3.721   1.114
  737SOL    HW1 3110   5.477   3.623   1.119
  737SOL    HW2 3111   5.593   3.733   1.084
  738SOL     OW 3112   0.050   4.059   4.353
  738SOL    HW1 3113   0.097   4.134   4.307
  738SOL    HW2 3114   0.114   4.014   4.417
  739SOL     OW 3115   4.185   6.455   5.819
  739SOL    HW1 3116   4.197   6.473   5.917
  739SOL    HW2 3117   4.157   6.539   5.773
  740SOL     OW 3118   6.100   6.866   1.679
  740SOL    HW1 3119   6.035   6.791   1.683
  740SOL    HW2 3120   6.083   6.929   1.755
  741SOL     OW 3121   1.357   6.506   2.975
  741SOL    HW1 3122   1.369   6.422   3.029
  741SOL    HW2 3123   1.381   6.585   3.031
  742SOL     OW 3124   1.410   6.747   3.459
  742SOL    HW1 3125   1.315   6.780   3.462
  742SOL    HW2 3126   1.452   6.775   3.373
  743SOL     OW 3127   1.653   3.788   4.334
  743SOL    HW1 3128   1.688   3.849   4.264
  743SOL    HW2 3129   1.555   3.803   4.345
  744SOL     OW 3130   6.974   5.698   6.944
  744SOL    HW1 3131   6.985   5.620   7.005
  744SOL    HW2 3132   6.883   5.695   6.901
  745SOL     OW 3133   1.298   6.125   3.168
  745SOL    HW1 3134   1.219   6.085   3.123
  745SOL    HW2 3135   1.361   6.161   3.098
  746SOL     OW 3136   1.184   0.084   4.776
  746SOL    HW1 3137   1.156   7.015   4.795
  746SOL    HW2 3138   1.157   0.108   4.683
  747SOL     OW 3139   4.694   4.661   3.283
  747SOL    HW1 3140   4.750   4.657   3.200
  747SOL    HW2 3141   4.624   4.731   3.272
  748SOL     OW 3142   4.160   3.650   0.730
  748SOL    HW1 3143   4.084   3.608   0.779
  748SOL    HW2 3144   4.126   3.719   0.667
  749SOL     OW 3145   0.595   2.164   5.026
  749SOL    HW1 3146   0.616   2.258   4.998
  749SOL    HW2 3147   0.675   2.125   5.072
  750SOL     OW 3148   1.864   3.447   0.168
  750SOL    HW1 3149   1.944   3.450   0.109
  750SOL    HW2 3150   1.850   3.536   0.210
  751SOL     OW 3151   4.914   1.105   0.603
  751SOL    HW1 3152   4.915   1.179   0.536
  751SOL    HW2 3153   5.008   1.079   0.625
  752SOL     OW 3154   4.305   2.330   1.827
  752SOL    HW1 3155   4.392   2.363   1.862
  752SOL    HW2 3156   4.244   2.407   1.810
  753SOL     OW 3157   1.865   3.239   4.878
  753SOL    HW1 3158   1.956   3.197   4.878
  753SOL    HW2 3159   1.825   3.231   4.788
  754SOL     OW 3160   4.428   4.104   6.497
  754SOL    HW1 3161   4.446   4.109   6.595
  754SOL    HW2 3162   4.513   4.083   6.448
  755SOL     OW 3163   0.797   5.837   0.254
  755SOL    HW1 3164   0.872   5.882   0.207
  755SOL    HW2 3165   0.717   5.898   0.256
  756SOL     OW 3166   5.185   0.314   1.922
  756SOL    HW1 3167   5.169   0.413   1.918
  756SOL    HW2 3168   5.233   0.292   2.006
  757SOL     OW 3169   0.443   6.373   3.666
  757SOL    HW1 3170   0.378   6.400   3.736
  757SOL    HW2 3171   0.399   6.375   3.576
  758SOL     OW 3172   3.506   2.157   0.992
  758SOL    HW1 3173   3.442   2.210   0.937
  758SOL    HW2 3174   3.462   2.074   1.025
  759SOL     OW 3175   1.130   1.722   7.002
  759SOL    HW1 3176   1.227   1.739   6.983
  759SOL    HW2 3177   1.080   1.715   6.915
  760SOL     OW 3178   5.220   1.681   7.011
  760SOL    HW1 3179   5.134   1.629   7.012
  760SOL    HW2 3180   5.203   1.775   0.013
  761SOL     OW 3181   6.616   2.702   0.276
  761SOL    HW1 3182   6.598   2.605   0.259
  761SOL    HW2 3183   6.712   2.715   0.299
  762SOL     OW 3184   2.581   5.832   3.574
  762SOL    HW1 3185   2.586   5.740   3.536
  762SOL    HW2 3186   2.625   5.896   3.510
  763SOL     OW 3187   4.197   5.585   6.879
  763SOL    HW1 3188   4.118   5.583   6.819
  763SOL    HW2 3189   4.268   5.643   6.839
  764SOL     OW 3190   3.668   1.593   2.123
  764SOL    HW1 3191   3.649   1.495   2.128
  764SOL    HW2 3192   3.733   1.610   2.049
  765SOL     OW 3193   0.391   6.690   2.365
  765SOL    HW1 3194   0.367   6.756   2.436
  765SOL    HW2 3195   0.396   6.736   2.276
  766SOL     OW 3196   6.641   6.840   6.788
  766SOL    HW1 3197   6.579   6.770   6.753
  766SOL    HW2 3198   6.598   6.930   6.780
  767SOL     OW 3199   6.819   6.457   2.234
  767SOL    HW1 3200   6.857   6.533   2.183
  767SOL    HW2 3201   6.720   6.451   2.217
  768SOL     OW 3202   2.850   0.755   2.681
  768SOL    HW1 3203   2.856   0.849   2.714
  768SOL    HW2 3204   2.785   0.704   2.737
  769SOL     OW 3205   4.711   0.175   4.932
  769SOL    HW1 3206   4.616   0.142   4.933
  769SOL    HW2 3207   4.713   0.270   4.903
  770SOL     OW 3208   2.886   4.810   3.865
  770SOL    HW1 3209   2.951   4.773   3.931
  770SOL    HW2 3210   2.848   4.896   3.900
  771SOL     OW 3211   1.610   5.567   3.531
  771SOL    HW1 3212   1.694   5.566   3.478
  771SOL    HW2 3213   1.542   5.623   3.484
  772SOL     OW 3214   6.745   4.580   6.617
  772SOL    HW1 3215   6.694   4.515   6.673
  772SOL    HW2 3216   6.683   4.622   6.550
  773SOL     OW 3217   6.944   3.830   3.159
  773SOL    HW1 3218   6.859   3.785   3.187
  773SOL    HW2 3219   7.018   3.802   3.220
  774SOL     OW 3220   1.556   1.289   1.924
  774SOL    HW1 3221   1.528   1.384   1.939
  774SOL    HW2 3222   1.500   1.229   1.982
  775SOL     OW 3223   1.346   1.840   3.967
  775SOL    HW1 3224   1.285   1.762   3.981
  775SOL    HW2 3225   1.293   1.919   3.934
  776SOL     OW 3226   1.680   0.662   6.171
  776SOL    HW1 3227   1.740   0.602   6.119
  776SOL    HW2 3228   1.624   0.716   6.108
  777SOL     OW 3229   4.659   1.434   0.606
  777SOL    HW1 3230   4.574   1.483   0.586
  777SOL    HW2 3231   4.735   1.498   0.609
  778SOL     OW 3232   4.188   0.738   3.779
  778SOL    HW1 3233   4.237   0.824   3.787
  778SOL    HW2 3234   4.090   0.757   3.771
  779SOL     OW 3235   0.824   2.129   1.941
  779SOL    HW1 3236   0.873   2.179   2.012
  779SOL    HW2 3237   0.734   2.101   1.975
  780SOL     OW 3238   6.400   2.885   4.122
  780SOL    HW1 3239   6.412   2.793   4.158
  780SOL    HW2 3240   6.475   2.907   4.059
  781SOL     OW 3241   6.712   1.066   5.952
  781SOL    HW1 3242   6.674   1.092   5.863
  781SOL    HW2 3243   6.652   0.999   5.996
  782SOL     OW 3244   0.725   2.868   0.834
  782SOL    HW1 3245   0.637   2.885   0.878
  782SOL    HW2 3246   0.788   2.827   0.900
  783SOL     OW 3247   2.860   5.366   0.820
  783SOL    HW1 3248   2.881   5.323   0.907
  783SOL    HW2 3249   2.895   5.460   0.820
  784SOL     OW 3250   4.184   0.342   5.081
  784SOL    HW1 3251   4.113   0.409   5.102
  784SOL    HW2 3252   4.142   0.254   5.062
  785SOL     OW 3253   6.231   1.647   2.864
  785SOL    HW1 3254   6.249   1.555   2.829
  785SOL    HW2 3255   6.294   1.712   2.820
  786SOL     OW 3256   0.163   6.752   0.159
  786SOL    HW1 3257   0.201   6.810   0.232
  786SOL    HW2 3258   0.063   6.758   0.161
  787SOL     OW 3259   2.560   1.390   6.490
  787SOL    HW1 3260   2.553   1.479   6.444
  787SOL    HW2 3261   2.470   1.348   6.497
  788SOL     OW 3262   2.102   3.700   4.559
  788SOL    HW1 3263   2.157   3.690   4.642
  788SOL    HW2 3264   2.008   3.726   4.584
  789SOL     OW 3265   5.693   3.671   1.534
  789SOL    HW1 3266   5.601   3.661   1.495
  789SOL    HW2 3267   5.688   3.728   1.617
  790SOL     OW 3268   2.471   1.534   3.802
  790SOL    HW1 3269   2.562   1.527   3.843
  790SOL    HW2 3270   2.461   1.625   3.760
  791SOL     OW 3271   4.018   1.019   4.005
  791SOL    HW1 3272   3.972   1.026   3.917
  791SOL    HW2 3273   4.059   1.107   4.029
  792SOL     OW 3274   6.385   0.541   2.118
  792SOL    HW1 3275   6.345   0.451   2.132
  792SOL    HW2 3276   6.320   0.611   2.149
  793SOL     OW 3277   5.214   6.475   0.884
  793SOL    HW1 3278   5.177   6.464   0.792
  793SOL    HW2 3279   5.260   6.391   0.912
  794SOL     OW 3280   2.732   4.859   5.345
  794SOL    HW1 3281   2.681   4.797   5.286
  794SOL    HW2 3282   2.816   4.814   5.377
  795SOL     OW 3283   3.834   5.154   5.838
  795SOL    HW1 3284   3.874   5.066   5.811
  795SOL    HW2 3285   3.737   5.141   5.859
  796SOL     OW 3286   0.350   2.519   5.487
  796SOL    HW1 3287   0.299   2.566   5.559
  796SOL    HW2 3288   0.316   2.425   5.479
  797SOL     OW 3289   6.113   2.222   3.621
  797SOL    HW1 3290   6.094   2.280   3.542
  797SOL    HW2 3291   6.070   2.133   3.609
  798SOL     OW 3292   4.774   0.486   0.257
  798SOL    HW1 3293   4.793   0.553   0.185
  798SOL    HW2 3294   4.728   0.531   0.333
  799SOL     OW 3295   6.672   2.061   3.307
  799SOL    HW1 3296   6.688   2.106   3.219
  799SOL    HW2 3297   6.702   2.121   3.381
  800SOL     OW 3298   5.092   1.181   2.201
  800SOL    HW1 3299   5.180   1.156   2.242
  800SOL    HW2 3300   5.022   1.185   2.273
  801SOL     OW 3301   0.936   2.561   3.633
  801SOL    HW1 3302   1.018   2.610   3.603
  801SOL    HW2 3303   0.960   2.466   3.655
  802SOL     OW 3304   5.268   2.133   0.308
  802SOL    HW1 3305   5.285   2.194   0.385
  802SOL    HW2 3306   5.197   2.067   0.333
  803SOL     OW 3307   5.962   5.717   4.028
  803SOL    HW1 3308   6.042   5.754   3.981
  803SOL    HW2 3309   5.879   5.761   3.991
  804SOL     OW 3310   0.239   6.334   0.507
  804SOL    HW1 3311   0.147   6.359   0.478
  804SOL    HW2 3312   0.255   6.368   0.600
  805SOL     OW 3313   3.688   2.676   5.627
  805SOL    HW1 3314   3.746   2.604   5.663
  805SOL    HW2 3315   3.656   2.651   5.536
  806SOL     OW 3316   4.854   1.792   6.451
  806SOL    HW1 3317   4.779   1.831   6.506
  806SOL    HW2 3318   4.847   1.692   6.452
  807SOL     OW 3319   0.815   0.570   3.484
  807SOL    HW1 3320   0.789   0.607   3.574
  807SOL    HW2 3321   0.823   0.645   3.418
  808SOL     OW 3322   5.133   3.213   5.676
  808SOL    HW1 3323   5.211   3.229   5.737
  808SOL    HW2 3324   5.166   3.168   5.592
  809SOL     OW 3325   1.384   4.544   0.738
  809SOL    HW1 3326   1.385   4.451   0.774
  809SOL    HW2 3327   1.458   4.555   0.673
  810SOL     OW 3328   4.825   3.809   0.793
  810SOL    HW1 3329   4.880   3.737   0.834
  810SOL    HW2 3330   4.795   3.873   0.865
  811SOL     OW 3331   4.911   5.407   3.737
  811SOL    HW1 3332   4.822   5.434   3.775
  811SOL    HW2 3333   4.916   5.307   3.735
  812SOL     OW 3334   6.815   0.366   1.255
  812SOL    HW1 3335   6.914   0.381   1.258
  812SOL    HW2 3336   6.774   0.407   1.337
  813SOL     OW 3337   4.201   5.786   3.443
  813SOL    HW1 3338   4.133   5.740   3.500
  813SOL    HW2 3339   4.216   5.733   3.359
  814SOL     OW 3340   5.537   6.718   1.969
  814SOL    HW1 3341   5.502   6.733   2.061
  814SOL    HW2 3342   5.602   6.791   1.946
  815SOL     OW 3343   6.727   2.731   1.432
  815SOL    HW1 3344   6.752   2.665   1.362
  815SOL    HW2 3345   6.628   2.728   1.447
  816SOL     OW 3346   7.001   6.470   0.701
  816SOL    HW1 3347   6.980   6.477   0.603
  816SOL    HW2 3348   0.020   6.555   0.732
  817SOL     OW 3349   1.674   3.539   2.022
  817SOL    HW1 3350   1.757   3.498   1.984
  817SOL    HW2 3351   1.594   3.493   1.984
  818SOL     OW 3352   6.139   2.099   0.521
  818SOL    HW1 3353   6.204   2.156   0.471
  818SOL    HW2 3354   6.180   2.009   0.537
  819SOL     OW 3355   6.861   2.221   3.510
  819SOL    HW1 3356   6.782   2.176   3.553
  819SOL    HW2 3357   6.945   2.192   3.556
  820SOL     OW 3358   0.607   2.633   4.394
  820SOL    HW1 3359   0.554   2.553   4.424
  820SOL    HW2 3360   0.695   2.602   4.357
  821SOL     OW 3361   1.583   4.257   0.538
  821SOL    HW1 3362   1.547   4.164   0.542
  821SOL    HW2 3363   1.561   4.305   0.623
  822SOL     OW 3364   0.799   4.123   5.027
  822SOL    HW1 3365   0.893   4.090   5.025
  822SOL    HW2 3366   0.736   4.049   5.001
  823SOL     OW 3367   5.337   3.958   6.444
  823SOL    HW1 3368   5.395   3.900   6.387
  823SOL    HW2 3369   5.266   3.903   6.487
  824SOL     OW 3370   4.846   2.388   5.392
  824SOL    HW1 3371   4.909   2.464   5.404
  824SOL    HW2 3372   4.753   2.418   5.413
  825SOL     OW 3373   2.134   3.166   2.043
  825SOL    HW1 3374   2.105   3.115   1.962
  825SOL    HW2 3375   2.161   3.258   2.017
  826SOL     OW 3376   5.755   3.445   7.004
  826SOL    HW1 3377   5.759   3.391   0.063
  826SOL    HW2 3378   5.659   3.459   6.978
  827SOL     OW 3379   3.530   5.399   0.033
  827SOL    HW1 3380   3.472   5.330   0.076
  827SOL    HW2 3381   3.621   5.361   0.017
  828SOL     OW 3382   5.986   0.899   5.331
  828SOL    HW1 3383   6.077   0.862   5.351
  828SOL    HW2 3384   5.931   0.830   5.284
  829SOL     OW 3385   3.151   3.085   4.282
  829SOL    HW1 3386   3.051   3.081   4.274
  829SOL    HW2 3387   3.178   3.060   4.374
  830SOL     OW 3388   4.646   4.019   5.402
  830SOL    HW1 3389   4.617   4.109   5.372
  830SOL    HW2 3390   4.585   3.949   5.366
  831SOL     OW 3391   5.515   0.682   4.961
  831SOL    HW1 3392   5.583   0.637   4.904
  831SOL    HW2 3393   5.557   0.759   5.009
  832SOL     OW 3394   2.123   1.770   0.253
  832SOL    HW1 3395   2.207   1.717   0.263
  832SOL    HW2 3396   2.125   1.821   0.168
  833SOL     OW 3397   6.561   6.644   5.867
  833SOL    HW1 3398   6.544   6.589   5.786
  833SOL    HW2 3399   6.660   6.653   5.881
  834SOL     OW 3400   3.232   3.364   3.909
  834SOL    HW1 3401   3.262   3.416   3.828
  834SOL    HW2 3402   3.289   3.283   3.919
  835SOL     OW 3403   3.332   6.449   3.943
  835SOL    HW1 3404   3.418   6.398   3.945
  835SOL    HW2 3405   3.271   6.414   4.015
  836SOL     OW 3406   3.393   7.011   0.215
  836SOL    HW1 3407   3.319   6.982   0.277
  836SOL    HW2 3408   3.465   6.942   0.215
  837SOL     OW 3409   4.954   0.385   6.506
  837SOL    HW1 3410   4.989   0.468   6.464
  837SOL    HW2 3411   4.881   0.346   6.449
  838SOL     OW 3412   1.709   6.058   4.654
  838SOL    HW1 3413   1.654   6.111   4.589
  838SOL    HW2 3414   1.770   5.997   4.603
  839SOL     OW 3415   2.749   1.534   3.667
  839SOL    HW1 3416   2.673   1.580   3.621
  839SOL    HW2 3417   2.753   1.565   3.762
  840SOL     OW 3418   0.939   1.062   6.808
  840SOL    HW1 3419   1.021   1.091   6.857
  840SOL    HW2 3420   0.915   1.130   6.739
  841SOL     OW 3421   0.043   3.587   0.014
  841SOL    HW1 3422   0.060   3.672   0.064
  841SOL    HW2 3423   0.040   3.607   6.940
  842SOL     OW 3424   4.118   5.439   3.027
  842SOL    HW1 3425   4.147   5.398   2.940
  842SOL    HW2 3426   4.091   5.366   3.090
  843SOL     OW 3427   6.391   2.055   1.864
  843SOL    HW1 3428   6.408   1.977   1.925
  843SOL    HW2 3429   6.374   2.137   1.918
  844SOL     OW 3430   4.928   6.051   0.257
  844SOL    HW1 3431   4.953   6.067   0.162
  844SOL    HW2 3432   4.875   5.966   0.265
  845SOL     OW 3433   0.046   3.913   4.802
  845SOL    HW1 3434   7.003   3.942   4.734
  845SOL    HW2 3435   0.016   3.940   4.893
  846SOL     OW 3436   6.208   1.212   0.054
  846SOL    HW1 3437   6.267   1.288   0.080
  846SOL    HW2 3438   6.144   1.192   0.128
  847SOL     OW 3439   5.960   3.129   1.060
  847SOL    HW1 3440   6.026   3.084   1.120
  847SOL    HW2 3441   5.908   3.060   1.009
  848SOL     OW 3442   6.221   0.034   5.891
  848SOL    HW1 3443   6.318   0.052   5.907
  848SOL    HW2 3444   6.211   7.002   5.810
  849SOL     OW 3445   0.630   5.240   4.801
  849SOL    HW1 3446   0.674   5.204   4.884
  849SOL    HW2 3447   0.701   5.273   4.738
  850SOL     OW 3448   4.190   1.282   3.260
  850SOL    HW1 3449   4.168   1.349   3.190
  850SOL    HW2 3450   4.191   1.190   3.221
  851SOL     OW 3451   0.401   1.061   0.260
  851SOL    HW1 3452   0.337   1.088   0.332
  851SOL    HW2 3453   0.361   1.081   0.171
  852SOL     OW 3454   2.148   3.244   6.335
  852SOL    HW1 3455   2.193   3.288   6.257
  852SOL    HW2 3456   2.152   3.145   6.324
  853SOL     OW 3457   1.169   2.946   1.969
  853SOL    HW1 3458   1.208   3.037   1.953
  853SOL    HW2 3459   1.104   2.924   1.897
  854SOL     OW 3460   5.087   5.730   2.662
  854SOL    HW1 3461   5.149   5.699   2.735
  854SOL    HW2 3462   5.088   5.830   2.658
  855SOL     OW 3463   6.001   0.106   1.964
  855SOL    HW1 3464   5.951   0.173   1.909
  855SOL    HW2 3465   5.935   0.042   2.006
  856SOL     OW 3466   1.950   6.131   5.297
  856SOL    HW1 3467   2.002   6.196   5.353
  856SOL    HW2 3468   1.879   6.089   5.353
  857SOL     OW 3469   6.202   3.683   0.629
  857SOL    HW1 3470   6.248   3.616   0.571
  857SOL    HW2 3471   6.144   3.636   0.695
  858SOL     OW 3472   3.155   4.857   1.968
  858SOL    HW1 3473   3.148   4.952   1.938
  858SOL    HW2 3474   3.065   4.823   1.993
  859SOL     OW 3475   0.226   5.005   6.664
  859SOL    HW1 3476   0.211   5.061   6.745
  859SOL    HW2 3477   0.203   4.910   6.685
  860SOL     OW 3478   3.399   4.169   0.947
  860SOL    HW1 3479   3.326   4.134   1.006
  860SOL    HW2 3480   3.487   4.157   0.993
  861SOL     OW 3481   2.777   6.049   5.522
  861SOL    HW1 3482   2.765   6.130   5.579
  861SOL    HW2 3483   2.776   5.967   5.579
  862SOL     OW 3484   5.475   4.620   4.934
  862SOL    HW1 3485   5.392   4.592   4.983
  862SOL    HW2 3486   5.484   4.719   4.939
  863SOL     OW 3487   0.305   1.306   1.057
  863SOL    HW1 3488   0.350   1.395   1.061
  863SOL    HW2 3489   0.373   1.236   1.033
  864SOL     OW 3490   5.370   4.453   2.657
  864SOL    HW1 3491   5.423   4.370   2.639
  864SOL    HW2 3492   5.272   4.433   2.650
  865SOL     OW 3493   1.549   0.189   3.330
  865SOL    HW1 3494   1.553   0.219   3.426
  865SOL    HW2 3495   1.630   0.135   3.309
  866SOL     OW 3496   3.635   1.980   2.015
  866SOL    HW1 3497   3.623   1.982   1.916
  866SOL    HW2 3498   3.662   2.070   2.048
  867SOL     OW 3499   2.790   3.055   6.556
  867SOL    HW1 3500   2.757   2.965   6.584
  867SOL    HW2 3501   2.794   3.115   6.636
  868SOL     OW 3502   5.723   0.888   3.145
  868SOL    HW1 3503   5.775   0.819   3.093
  868SOL    HW2 3504   5.787   0.942   3.200
  869SOL     OW 3505   5.857   6.229   1.521
  869SOL    HW1 3506   5.862   6.206   1.618
  869SOL    HW2 3507   5.773   6.191   1.481
  870SOL     OW 3508   6.540   1.834   1.343
  870SOL    HW1 3509   6.469   1.879   1.288
  870SOL    HW2 3510   6.505   1.747   1.377
  871SOL     OW 3511   5.622   2.343   1.748
  871SOL    HW1 3512   5.625   2.245   1.769
  871SOL    HW2 3513   5.639   2.357   1.651
  872SOL     OW 3514   6.653   2.574   3.869
  872SOL    HW1 3515   6.685   2.563   3.964
  872SOL    HW2 3516   6.713   2.637   3.821
  873SOL     OW 3517   3.291   6.990   3.875
  873SOL    HW1 3518   3.343   6.909   3.849
  873SOL    HW2 3519   3.199   6.964   3.902
  874SOL     OW 3520   1.339   4.057   5.444
  874SOL    HW1 3521   1.439   4.064   5.439
  874SOL    HW2 3522   1.308   4.085   5.535
  875SOL     OW 3523   5.615   3.765   0.028
  875SOL    HW1 3524   5.603   3.864   0.024
  875SOL    HW2 3525   5.697   3.739   7.002
  876SOL     OW 3526   6.984   3.446   2.072
  876SOL    HW1 3527   0.029   3.429   2.003
  876SOL    HW2 3528   7.000   3.387   2.151
  877SOL     OW 3529   4.885   5.629   6.816
  877SOL    HW1 3530   4.872   5.530   6.819
  877SOL    HW2 3531   4.949   5.654   6.744
  878SOL     OW 3532   2.789   5.112   0.734
  878SOL    HW1 3533   2.807   5.210   0.729
  878SOL    HW2 3534   2.802   5.070   0.645
  879SOL     OW 3535   3.859   2.168   2.746
  879SOL    HW1 3536   3.799   2.169   2.826
  879SOL    HW2 3537   3.952   2.193   2.773
  880SOL     OW 3538   3.592   4.955   0.571
  880SOL    HW1 3539   3.654   5.020   0.526
  880SOL    HW2 3540   3.630   4.929   0.659
  881SOL     OW 3541   3.637   4.935   4.694
  881SOL    HW1 3542   3.553   4.962   4.741
  881SOL    HW2 3543   3.639   4.836   4.684
  882SOL     OW 3544   1.606   0.722   4.717
  882SOL    HW1 3545   1.536   0.655   4.695
  882SOL    HW2 3546   1.668   0.683   4.786
  883SOL     OW 3547   3.447   5.638   6.696
  883SOL    HW1 3548   3.469   5.588   6.612
  883SOL    HW2 3549   3.469   5.581   6.775
  884SOL     OW 3550   5.708   3.151   1.608
  884SOL    HW1 3551   5.705   3.133   1.706
  884SOL    HW2 3552   5.737   3.245   1.592
  885SOL     OW 3553   5.516   5.920   0.647
  885SOL    HW1 3554   5.500   6.014   0.619
  885SOL    HW2 3555   5.567   5.918   0.733
  886SOL     OW 3556   4.815   1.518   6.406
  886SOL    HW1 3557   4.745   1.466   6.455
  886SOL    HW2 3558   4.836   1.473   6.319
  887SOL     OW 3559   4.302   0.036   5.494
  887SOL    HW1 3560   4.264   0.034   5.587
  887SOL    HW2 3561   4.245   0.093   5.436
  888SOL     OW 3562   5.981   6.005   2.806
  888SOL    HW1 3563   6.009   5.948   2.883
  888SOL    HW2 3564   6.011   5.963   2.721
  889SOL     OW 3565   0.596   6.204   5.293
  889SOL    HW1 3566   0.544   6.180   5.211
  889SOL    HW2 3567   0.677   6.145   5.299
  890SOL     OW 3568   2.520   4.508   2.207
  890SOL    HW1 3569   2.554   4.422   2.170
  890SOL    HW2 3570   2.585   4.581   2.187
  891SOL     OW 3571   5.335   3.012   0.285
  891SOL    HW1 3572   5.264   2.953   0.247
  891SOL    HW2 3573   5.419   2.959   0.301
  892SOL     OW 3574   2.882   4.382   1.054
  892SOL    HW1 3575   2.833   4.311   1.104
  892SOL    HW2 3576   2.969   4.401   1.099
  893SOL     OW 3577   1.554   0.462   0.210
  893SOL    HW1 3578   1.648   0.497   0.207
  893SOL    HW2 3579   1.491   0.531   0.175
  894SOL     OW 3580   1.257   5.647   4.465
  894SOL    HW1 3581   1.248   5.746   4.475
  894SOL    HW2 3582   1.343   5.626   4.418
  895SOL     OW 3583   2.113   6.772   4.645
  895SOL    HW1 3584   2.024   6.817   4.646
  895SOL    HW2 3585   2.101   6.673   4.635
  896SOL     OW 3586   5.889   6.690   2.871
  896SOL    HW1 3587   5.867   6.644   2.957
  896SOL    HW2 3588   5.913   6.622   2.802
  897SOL     OW 3589   4.715   2.147   6.654
  897SOL    HW1 3590   4.715   2.164   6.752
  897SOL    HW2 3591   4.703   2.233   6.604
  898SOL     OW 3592   5.460   6.431   2.923
  898SOL    HW1 3593   5.464   6.380   2.836
  898SOL    HW2 3594   5.385   6.497   2.919
  899SOL     OW 3595   0.539   4.362   6.421
  899SOL    HW1 3596   0.521   4.457   6.398
  899SOL    HW2 3597   0.506   4.343   6.514
  900SOL     OW 3598   0.429   6.089   3.622
  900SOL    HW1 3599   0.503   6.041   3.576
  900SOL    HW2 3600   0.461   6.179   3.653
  901SOL     OW 3601   6.370   0.884   4.201
  901SOL    HW1 3602   6.431   0.826   4.148
  901SOL    HW2 3603   6.393   0.878   4.298
  902SOL     OW 3604   0.034   6.501   0.405
  902SOL    HW1 3605   7.025   6.593   0.423
  902SOL    HW2 3606   0.109   6.505   0.339
  903SOL     OW 3607   1.084   4.994   0.676
  903SOL    HW1 3608   1.165   5.052   0.665
  903SOL    HW2 3609   1.024   5.007   0.597
  904SOL     OW 3610   1.854   1.719   3.319
  904SOL    HW1 3611   1.930   1.716   3.384
  904SOL    HW2 3612   1.866   1.798   3.258
  905SOL     OW 3613   5.477   1.455   5.155
  905SOL    HW1 3614   5.400   1.459   5.219
  905SOL    HW2 3615   5.532   1.374   5.174
  906SOL     OW 3616   7.024   3.368   5.738
  906SOL    HW1 3617   6.965   3.321   5.673
  906SOL    HW2 3618   0.063   3.427   5.687
  907SOL     OW 3619   6.431   2.186   2.595
  907SOL    HW1 3620   6.348   2.241   2.593
  907SOL    HW2 3621   6.431   2.122   2.518
  908SOL     OW 3622   1.664   0.891   4.279
  908SOL    HW1 3623   1.729   0.955   4.238
  908SOL    HW2 3624   1.651   0.813   4.217
  909SOL     OW 3625   4.051   1.091   1.778
  909SOL    HW1 3626   4.070   0.992   1.784
  909SOL    HW2 3627   4.064   1.132   1.869
  910SOL     OW 3628   1.939   1.309   0.750
  910SOL    HW1 3629   1.860   1.368   0.731
  910SOL    HW2 3630   1.999   1.355   0.815
  911SOL     OW 3631   0.466   4.546   2.111
  911SOL    HW1 3632   0.412   4.527   2.193
  911SOL    HW2 3633   0.562   4.552   2.135
  912SOL     OW 3634   0.666   6.681   5.885
  912SOL    HW1 3635   0.701   6.769   5.917
  912SOL    HW2 3636   0.657   6.682   5.785
  913SOL     OW 3637   3.061   0.839   2.445
  913SOL    HW1 3638   3.109   0.843   2.533
  913SOL    HW2 3639   2.983   0.777   2.453
  914SOL     OW 3640   2.839   6.128   2.768
  914SOL    HW1 3641   2.885   6.039   2.768
  914SOL    HW2 3642   2.854   6.173   2.680
  915SOL     OW 3643   1.003   2.630   0.891
  915SOL    HW1 3644   1.008   2.729   0.883
  915SOL    HW2 3645   0.999   2.588   0.801
  916SOL     OW 3646   2.277   2.907   3.245
  916SOL    HW1 3647   2.205   2.962   3.203
  916SOL    HW2 3648   2.256   2.893   3.342
  917SOL     OW 3649   4.256   1.745   0.757
  917SOL    HW1 3650   4.214   1.655   0.758
  917SOL    HW2 3651   4.325   1.751   0.830
  918SOL     OW 3652   2.234   0.107   6.339
  918SOL    HW1 3653   2.201   0.140   6.427
  918SOL    HW2 3654   2.156   0.076   6.284
  919SOL     OW 3655   2.402   5.835   2.717
  919SOL    HW1 3656   2.388   5.820   2.815
  919SOL    HW2 3657   2.428   5.930   2.702
  920SOL     OW 3658   2.202   0.825   4.178
  920SOL    HW1 3659   2.138   0.759   4.218
  920SOL    HW2 3660   2.196   0.821   4.079
  921SOL     OW 3661   5.571   5.186   4.588
  921SOL    HW1 3662   5.578   5.201   4.687
  921SOL    HW2 3663   5.593   5.271   4.540
  922SOL     OW 3664   3.112   3.437   0.000
  922SOL    HW1 3665   3.117   3.499   6.946
  922SOL    HW2 3666   3.196   3.384   0.006
  923SOL     OW 3667   3.227   6.981   6.313
  923SOL    HW1 3668   3.293   6.907   6.296
  923SOL    HW2 3669   3.164   6.987   6.235
  924SOL     OW 3670   5.550   2.715   2.981
  924SOL    HW1 3671   5.464   2.734   2.935
  924SOL    HW2 3672   5.545   2.625   3.025
  925SOL     OW 3673   0.735   2.055   3.909
  925SOL    HW1 3674   0.733   2.067   4.008
  925SOL    HW2 3675   0.736   1.958   3.887
  926SOL     OW 3676   5.249   5.838   0.702
  926SOL    HW1 3677   5.346   5.835   0.676
  926SOL    HW2 3678   5.198   5.769   0.650
  927SOL     OW 3679   3.740   5.045   4.437
  927SOL    HW1 3680   3.660   5.091   4.397
  927SOL    HW2 3681   3.711   4.991   4.516
  928SOL     OW 3682   2.161   1.240   1.337
  928SOL    HW1 3683   2.189   1.210   1.245
  928SOL    HW2 3684   2.150   1.339   1.337
  929SOL     OW 3685   0.073   2.858   2.850
  929SOL    HW1 3686   0.068   2.772   2.902
  929SOL    HW2 3687   7.006   2.884   2.821
  930SOL     OW 3688   4.905   5.868   3.943
  930SOL    HW1 3689   4.871   5.942   3.884
  930SOL    HW2 3690   4.828   5.819   3.983
  931SOL     OW 3691   1.617   2.543   2.811
  931SOL    HW1 3692   1.689   2.476   2.830
  931SOL    HW2 3693   1.528   2.500   2.824
  932SOL     OW 3694   4.602   7.021   1.015
  932SOL    HW1 3695   4.694   6.985   1.002
  932SOL    HW2 3696   4.535   6.952   0.988
  933SOL     OW 3697   1.476   6.383   3.206
  933SOL    HW1 3698   1.560   6.421   3.246
  933SOL    HW2 3699   1.500   6.313   3.139
  934SOL     OW 3700   3.265   1.307   5.372
  934SOL    HW1 3701   3.225   1.225   5.413
  934SOL    HW2 3702   3.194   1.357   5.323
  935SOL     OW 3703   3.795   3.311   6.202
  935SOL    HW1 3704   3.822   3.342   6.111
  935SOL    HW2 3705   3.696   3.317   6.210
  936SOL     OW 3706   1.107   1.099   1.460
  936SOL    HW1 3707   1.166   1.167   1.417
  936SOL    HW2 3708   1.162   1.041   1.520
  937SOL     OW 3709   4.651   2.049   4.672
  937SOL    HW1 3710   4.603   2.097   4.598
  937SOL    HW2 3711   4.589   2.036   4.749
  938SOL     OW 3712   0.882   2.970   6.603
  938SOL    HW1 3713   0.899   2.954   6.700
  938SOL    HW2 3714   0.790   3.007   6.590
  939SOL     OW 3715   6.010   1.270   5.546
  939SOL    HW1 3716   5.941   1.331   5.508
  939SOL    HW2 3717   6.070   1.237   5.473
  940SOL     OW 3718   6.914   1.324   3.802
  940SOL    HW1 3719   6.954   1.415   3.790
  940SOL    HW2 3720   6.964   1.258   3.746
  941SOL     OW 3721   5.299   1.764   4.547
  941SOL    HW1 3722   5.380   1.819   4.526
  941SOL    HW2 3723   5.313   1.717   4.634
  942SOL     OW 3724   5.635   6.886   5.508
  942SOL    HW1 3725   5.662   6.890   5.604
  942SOL    HW2 3726   5.696   6.825   5.458
  943SOL     OW 3727   5.539   1.867   1.419
  943SOL    HW1 3728   5.459   1.920   1.446
  943SOL    HW2 3729   5.547   1.786   1.477
  944SOL     OW 3730   5.268   4.243   3.870
  944SOL    HW1 3731   5.358   4.243   3.913
  944SOL    HW2 3732   5.271   4.295   3.784
  945SOL     OW 3733   5.575   4.264   4.357
  945SOL    HW1 3734   5.486   4.254   4.400
  945SOL    HW2 3735   5.643   4.286   4.426
  946SOL     OW 3736   5.709   2.558   5.280
  946SOL    HW1 3737   5.612   2.576   5.264
  946SOL    HW2 3738   5.748   2.512   5.200
  947SOL     OW 3739   2.286   2.370   6.095
  947SOL    HW1 3740   2.230   2.292   6.067
  947SOL    HW2 3741   2.233   2.428   6.157
  948SOL     OW 3742   3.929   2.245   0.426
  948SOL    HW1 3743   3.914   2.298   0.510
  948SOL    HW2 3744   3.870   2.280   0.354
  949SOL     OW 3745   6.021   5.889   6.155
  949SOL    HW1 3746   6.042   5.807   6.101
  949SOL    HW2 3747   6.090   5.959   6.137
  950SOL     OW 3748   4.285   5.453   0.956
  950SOL    HW1 3749   4.206   5.428   1.012
  950SOL    HW2 3750   4.353   5.380   0.959
  951SOL     OW 3751   1.000   1.307   2.366
  951SOL    HW1 3752   1.058   1.359   2.428
  951SOL    HW2 3753   0.994   1.355   2.278
  952SOL     OW 3754   5.545   1.060   2.959
  952SOL    HW1 3755   5.598   1.000   3.019
  952SOL    HW2 3756   5.536   1.018   2.869
  953SOL     OW 3757   4.827   6.487   6.184
  953SOL    HW1 3758   4.799   6.404   6.233
  953SOL    HW2 3759   4.746   6.536   6.153
  954SOL     OW 3760   6.505   0.016   0.269
  954SOL    HW1 3761   6.518   6.973   0.342
  954SOL    HW2 3762   6.414   0.058   0.278
  955SOL     OW 3763   0.351   6.296   2.625
  955SOL    HW1 3764   0.379   6.391   2.616
  955SOL    HW2 3765   0.291   6.272   2.548
  956SOL     OW 3766   1.396   2.487   1.487
  956SOL    HW1 3767   1.321   2.437   1.444
  956SOL    HW2 3768   1.366   2.581   1.507
  957SOL     OW 3769   1.921   4.979   4.390
  957SOL    HW1 3770   1.835   5.010   4.350
  957SOL    HW2 3771   1.936   4.883   4.369
  958SOL     OW 3772   4.800   2.406   1.165
  958SOL    HW1 3773   4.784   2.498   1.200
  958SOL    HW2 3774   4.717   2.352   1.173
  959SOL     OW 3775   2.519   4.467   2.944
  959SOL    HW1 3776   2.464   4.431   2.868
  959SOL    HW2 3777   2.576   4.393   2.981
  960SOL     OW 3778   1.754   5.291   4.547
  960SOL    HW1 3779   1.848   5.271   4.520
  960SOL    HW2 3780   1.753   5.334   4.637
  961SOL     OW 3781   3.815   6.713   1.687
  961SOL    HW1 3782   3.823   6.615   1.701
  961SOL    HW2 3783   3.893   6.760   1.729
  962SOL     OW 3784   1.884   0.358   3.524
  962SOL    HW1 3785   1.860   0.456   3.528
  962SOL    HW2 3786   1.820   0.307   3.582
  963SOL     OW 3787   6.648   0.202   0.549
  963SOL    HW1 3788   6.599   0.289   0.540
  963SOL    HW2 3789   6.740   0.211   0.512
  964SOL     OW 3790   5.794   3.389   1.518
  964SOL    HW1 3791   5.894   3.400   1.515
  964SOL    HW2 3792   5.752   3.477   1.543
  965SOL     OW 3793   0.217   2.298   0.022
  965SOL    HW1 3794   0.220   2.391   7.012
  965SOL    HW2 3795   0.298   2.248   7.017
  966SOL     OW 3796   6.676   2.229   2.716
  966SOL    HW1 3797   6.666   2.241   2.815
  966SOL    HW2 3798   6.586   2.221   2.674
  967SOL     OW 3799   1.471   5.740   1.494
  967SOL    HW1 3800   1.550   5.751   1.555
  967SOL    HW2 3801   1.401   5.686   1.540
  968SOL     OW 3802   5.097   2.870   2.746
  968SOL    HW1 3803   5.018   2.852   2.804
  968SOL    HW2 3804   5.112   2.968   2.738
  969SOL     OW 3805   4.837   6.172   5.954
  969SOL    HW1 3806   4.828   6.246   5.886
  969SOL    HW2 3807   4.880   6.093   5.910
  970SOL     OW 3808   4.260   2.366   5.338
  970SOL    HW1 3809   4.357   2.388   5.332
  970SOL    HW2 3810   4.209   2.421   5.272
  971SOL     OW 3811   6.684   1.373   1.638
  971SOL    HW1 3812   6.675   1.450   1.701
  971SOL    HW2 3813   6.773   1.330   1.651
  972SOL     OW 3814   6.342   5.160   0.840
  972SOL    HW1 3815   6.345   5.096   0.763
  972SOL    HW2 3816   6.259   5.145   0.893
  973SOL     OW 3817   6.308   4.787   5.762
  973SOL    HW1 3818   6.262   4.736   5.835
  973SOL    HW2 3819   6.375   4.727   5.717
  974SOL     OW 3820   2.750   1.124   3.675
  974SOL    HW1 3821   2.774   1.092   3.766
  974SOL    HW2 3822   2.665   1.177   3.679
  975SOL     OW 3823   3.045   6.168   6.058
  975SOL    HW1 3824   3.055   6.123   6.147
  975SOL    HW2 3825   3.033   6.099   5.987
  976SOL     OW 3826   0.286   3.891   3.188
  976SOL    HW1 3827   0.334   3.876   3.101
  976SOL    HW2 3828   0.211   3.826   3.197
  977SOL     OW 3829   1.675   0.758   3.786
  977SOL    HW1 3830   1.599   0.790   3.728
  977SOL    HW2 3831   1.730   0.837   3.814
  978SOL     OW 3832   5.108   4.120   4.805
  978SOL    HW1 3833   5.141   4.208   4.769
  978SOL    HW2 3834   5.180   4.079   4.862
  979SOL     OW 3835   6.256   0.812   2.938
  979SOL    HW1 3836   6.201   0.748   2.884
  979SOL    HW2 3837   6.249   0.789   3.035
  980SOL     OW 3838   5.252   2.198   4.746
  980SOL    HW1 3839   5.349   2.218   4.731
  980SOL    HW2 3840   5.242   2.134   4.822
  981SOL     OW 3841   0.919   1.942   4.760
  981SOL    HW1 3842   0.844   1.897   4.712
  981SOL    HW2 3843   0.963   2.007   4.698
  982SOL     OW 3844   0.507   3.037   1.719
  982SOL    HW1 3845   0.550   3.123   1.693
  982SOL    HW2 3846   0.409   3.043   1.702
  983SOL     OW 3847   6.516   2.009   3.026
  983SOL    HW1 3848   6.552   1.922   3.060
  983SOL    HW2 3849   6.474   1.994   2.936
  984SOL     OW 3850   4.658   1.321   4.726
  984SOL    HW1 3851   4.586   1.387   4.704
  984SOL    HW2 3852   4.652   1.243   4.664
  985SOL     OW 3853   3.143   5.418   1.002
  985SOL    HW1 3854   3.083   5.338   1.013
  985SOL    HW2 3855   3.101   5.483   0.939
  986SOL     OW 3856   4.051   4.597   6.457
  986SOL    HW1 3857   4.022   4.501   6.467
  986SOL    HW2 3858   4.074   4.615   6.362
  987SOL     OW 3859   3.509   6.644   2.530
  987SOL    HW1 3860   3.420   6.618   2.492
  987SOL    HW2 3861   3.517   6.744   2.530
  988SOL     OW 3862   3.678   3.037   0.524
  988SOL    HW1 3863   3.718   3.089   0.600
  988SOL    HW2 3864   3.586   3.070   0.506
  989SOL     OW 3865   0.614   6.952   5.664
  989SOL    HW1 3866   0.529   6.899   5.668
  989SOL    HW2 3867   0.592   0.024   5.651
  990SOL     OW 3868   4.131   0.497   3.910
  990SOL    HW1 3869   4.201   0.449   3.962
  990SOL    HW2 3870   4.170   0.580   3.870
  991SOL     OW 3871   0.511   1.388   4.680
  991SOL    HW1 3872   0.592   1.398   4.739
  991SOL    HW2 3873   0.494   1.474   4.632
  992SOL     OW 3874   0.558   3.232   0.178
  992SOL    HW1 3875   0.524   3.141   0.154
  992SOL    HW2 3876   0.514   3.301   0.119
  993SOL     OW 3877   2.825   4.779   3.053
  993SOL    HW1 3878   2.827   4.855   3.118
  993SOL    HW2 3879   2.745   4.721   3.072
  994SOL     OW 3880   2.928   3.277   2.978
  994SOL    HW1 3881   2.915   3.357   2.919
  994SOL    HW2 3882   3.018   3.237   2.961
  995SOL     OW 3883   1.486   2.072   5.701
  995SOL    HW1 3884   1.516   2.110   5.614
  995SOL    HW2 3885   1.535   1.986   5.718
  996SOL     OW 3886   2.125   3.950   2.760
  996SOL    HW1 3887   2.077   4.017   2.704
  996SOL    HW2 3888   2.157   3.994   2.844
  997SOL     OW 3889   0.586   0.697   1.486
  997SOL    HW1 3890   0.663   0.760   1.473
  997SOL    HW2 3891   0.514   0.719   1.420
  998SOL     OW 3892   4.543   0.062   2.251
  998SOL    HW1 3893   4.575   7.013   2.308
  998SOL    HW2 3894   4.614   0.087   2.185
  999SOL     OW 3895   6.629   5.316   1.383
  999SOL    HW1 3896   6.653   5.358   1.470
  999SOL    HW2 3897   6.623   5.387   1.312
 1000SOL     OW 3898   2.798   2.213   3.991
 1000SOL    HW1 3899   2.728   2.141   3.996
 1000SOL    HW2 3900   2.755   2.299   3.966
 1001SOL     OW 3901   5.032   0.213   5.777
 1001SOL    HW1 3902   5.100   0.150   5.815
 1001SOL    HW2 3903   4.940   0.177   5.793
 1002SOL     OW 3904   6.000   1.783   0.165
 1002SOL    HW1 3905   6.018   1.696   0.120
 1002SOL    HW2 3906   6.066   1.797   0.239
 1003SOL     OW 3907   2.929   6.153   2.230
 1003SOL    HW1 3908   2.830   6.155   2.238
 1003SOL    HW2 3909   2.957   6.201   2.146
 1004SOL     OW 3910   6.651   6.850   0.059
 1004SOL    HW1 3911   6.635   6.850   6.985
 1004SOL    HW2 3912   6.581   6.906   0.103
 1005SOL     OW 3913   0.716   0.195   2.999
 1005SOL    HW1 3914   0.718   0.096   3.009
 1005SOL    HW2 3915   0.750   0.237   3.083
 1006SOL     OW 3916   2.666   5.014   1.218
 1006SOL    HW1 3917   2.730   4.937   1.211
 1006SOL    HW2 3918   2.574   4.982   1.195
 1007SOL     OW 3919   0.021   1.024   3.027
 1007SOL    HW1 3920   0.029   1.124   3.033
 1007SOL    HW2 3921   0.109   0.984   3.004
 1008SOL     OW 3922   1.113   3.741   3.777
 1008SOL    HW1 3923   1.124   3.799   3.857
 1008SOL    HW2 3924   1.178   3.770   3.706
 1009SOL     OW 3925   0.578   6.210   4.528
 1009SOL    HW1 3926   0.618   6.119   4.527
 1009SOL    HW2 3927   0.541   6.229   4.619
 1010SOL     OW 3928   4.267   2.506   0.384
 1010SOL    HW1 3929   4.189   2.529   0.325
 1010SOL    HW2 3930   4.350   2.548   0.348
 1011SOL     OW 3931   2.070   5.653   4.267
 1011SOL    HW1 3932   2.157   5.703   4.257
 1011SOL    HW2 3933   2.075   5.595   4.348
 1012SOL     OW 3934   5.736   5.246   0.371
 1012SOL    HW1 3935   5.684   5.161   0.370
 1012SOL    HW2 3936   5.675   5.322   0.393
 1013SOL     OW 3937   0.864   0.879   0.729
 1013SOL    HW1 3938   0.826   0.868   0.637
 1013SOL    HW2 3939   0.792   0.863   0.797
 1014SOL     OW 3940   4.515   6.434   5.720
 1014SOL    HW1 3941   4.434   6.407   5.772
 1014SOL    HW2 3942   4.519   6.534   5.712
 1015SOL     OW 3943   3.399   5.956   4.640
 1015SOL    HW1 3944   3.338   5.902   4.582
 1015SOL    HW2 3945   3.399   6.051   4.608
 1016SOL     OW 3946   3.692   2.744   1.129
 1016SOL    HW1 3947   3.708   2.653   1.092
 1016SOL    HW2 3948   3.594   2.763   1.131
 1017SOL     OW 3949   4.219   3.093   0.462
 1017SOL    HW1 3950   4.127   3.127   0.441
 1017SOL    HW2 3951   4.256   3.047   0.382
 1018SOL     OW 3952   0.832   3.583   3.985
 1018SOL    HW1 3953   0.817   3.584   3.886
 1018SOL    HW2 3954   0.765   3.524   4.028
 1019SOL     OW 3955   6.910   1.391   6.954
 1019SOL    HW1 3956   6.991   1.448   6.941
 1019SOL    HW2 3957   6.939   1.297   6.972
 1020SOL     OW 3958   2.760   1.223   1.163
 1020SOL    HW1 3959   2.798   1.148   1.216
 1020SOL    HW2 3960   2.691   1.188   1.100
 1021SOL     OW 3961   6.768   1.269   1.044
 1021SOL    HW1 3962   6.823   1.186   1.048
 1021SOL    HW2 3963   6.735   1.291   1.136
 1022SOL     OW 3964   4.118   3.238   6.133
 1022SOL    HW1 3965   4.153   3.316   6.082
 1022SOL    HW2 3966   4.021   3.225   6.112
 1023SOL     OW 3967   6.114   0.610   2.223
 1023SOL    HW1 3968   6.045   0.681   2.241
 1023SOL    HW2 3969   6.070   0.521   2.220
 1024SOL     OW 3970   6.666   1.893   3.951
 1024SOL    HW1 3971   6.699   1.985   3.930
 1024SOL    HW2 3972   6.566   1.891   3.943
 1025SOL     OW 3973   3.156   4.500   1.013
 1025SOL    HW1 3974   3.160   4.522   0.916
 1025SOL    HW2 3975   3.243   4.459   1.041
 1026SOL     OW 3976   2.554   2.096   6.576
 1026SOL    HW1 3977   2.645   2.128   6.549
 1026SOL    HW2 3978   2.555   2.072   6.673
 1027SOL     OW 3979   2.886   4.935   2.238
 1027SOL    HW1 3980   2.856   5.030   2.231
 1027SOL    HW2 3981   2.953   4.926   2.312
 1028SOL     OW 3982   1.589   5.899   0.897
 1028SOL    HW1 3983   1.685   5.871   0.892
 1028SOL    HW2 3984   1.581   5.996   0.873
 1029SOL     OW 3985   2.454   0.013   0.073
 1029SOL    HW1 3986   2.548   7.015   0.100
 1029SOL    HW2 3987   2.425   0.095   0.122
 1030SOL     OW 3988   4.189   3.720   5.135
 1030SOL    HW1 3989   4.236   3.675   5.059
 1030SOL    HW2 3990   4.120   3.783   5.098
 1031SOL     OW 3991   2.506   5.411   1.857
 1031SOL    HW1 3992   2.471   5.500   1.885
 1031SOL    HW2 3993   2.523   5.412   1.758
 1032SOL     OW 3994   1.953   1.585   4.353
 1032SOL    HW1 3995   1.924   1.651   4.422
 1032SOL    HW2 3996   2.033   1.534   4.387
 1033SOL     OW 3997   2.270   5.923   1.566
 1033SOL    HW1 3998   2.257   5.869   1.483
 1033SOL    HW2 3999   2.185   5.928   1.617
 1034SOL     OW 4000   2.459   5.298   3.682
 1034SOL    HW1 4001   2.369   5.327   3.650
 1034SOL    HW2 4002   2.497   5.231   3.617
 1035SOL     OW 4003   3.315   1.302   4.876
 1035SOL    HW1 4004   3.389   1.364   4.851
 1035SOL    HW2 4005   3.348   1.237   4.945
 1036SOL     OW 4006   4.422   2.625   0.638
 1036SOL    HW1 4007   4.377   2.593   0.555
 1036SOL    HW2 4008   4.506   2.572   0.653
 1037SOL     OW 4009   2.392   0.996   0.480
 1037SOL    HW1 4010   2.458   1.028   0.413
 1037SOL    HW2 4011   2.439   0.969   0.564
 1038SOL     OW 4012   1.800   1.145   5.570
 1038SOL    HW1 4013   1.745   1.228   5.569
 1038SOL    HW2 4014   1.762   1.081   5.637
 1039SOL     OW 4015   4.057   2.173   4.308
 1039SOL    HW1 4016   4.053   2.155   4.210
 1039SOL    HW2 4017   3.964   2.183   4.344
 1040SOL     OW 4018   5.942   4.159   2.744
 1040SOL    HW1 4019   5.998   4.167   2.826
 1040SOL    HW2 4020   5.845   4.158   2.770
 1041SOL     OW 4021   0.063   1.124   4.209
 1041SOL    HW1 4022   0.079   1.153   4.304
 1041SOL    HW2 4023   0.004   1.191   4.164
 1042SOL     OW 4024   5.535   4.922   0.990
 1042SOL    HW1 4025   5.582   4.954   1.073
 1042SOL    HW2 4026   5.555   4.984   0.915
 1043SOL     OW 4027   3.587   1.875   6.824
 1043SOL    HW1 4028   3.603   1.827   6.910
 1043SOL    HW2 4029   3.565   1.809   6.752
 1044SOL     OW 4030   3.799   3.231   2.011
 1044SOL    HW1 4031   3.708   3.193   2.023
 1044SOL    HW2 4032   3.794   3.312   1.952
 1045SOL     OW 4033   3.041   1.290   3.012
 1045SOL    HW1 4034   2.947   1.312   3.039
 1045SOL    HW2 4035   3.048   1.290   2.912
 1046SOL     OW 4036   3.499   6.754   0.965
 1046SOL    HW1 4037   3.513   6.694   1.043
 1046SOL    HW2 4038   3.577   6.816   0.955
 1047SOL     OW 4039   0.952   4.850   3.092
 1047SOL    HW1 4040   0.883   4.867   3.022
 1047SOL    HW2 4041   1.039   4.890   3.063
 1048SOL     OW 4042   5.279   4.366   4.760
 1048SOL    HW1 4043   5.314   4.431   4.692
 1048SOL    HW2 4044   5.353   4.341   4.823
 1049SOL     OW 4045   0.148   4.156   4.614
 1049SOL    HW1 4046   0.118   4.243   4.653
 1049SOL    HW2 4047   0.146   4.086   4.685
 1050SOL     OW 4048   3.711   7.014   6.672
 1050SOL    HW1 4049   3.633   6.997   6.611
 1050SOL    HW2 4050   3.685   0.056   6.741
 1051SOL     OW 4051   5.046   4.687   0.104
 1051SOL    HW1 4052   5.041   4.615   0.173
 1051SOL    HW2 4053   4.965   4.684   0.046
 1052SOL     OW 4054   3.853   0.189   4.853
 1052SOL    HW1 4055   3.753   0.182   4.859
 1052SOL    HW2 4056   3.879   0.285   4.853
 1053SOL     OW 4057   4.595   5.076   3.716
 1053SOL    HW1 4058   4.560   5.005   3.776
 1053SOL    HW2 4059   4.695   5.072   3.714
 1054SOL     OW 4060   3.230   5.054   5.262
 1054SOL    HW1 4061   3.253   5.060   5.359
 1054SOL    HW2 4062   3.309   5.018   5.211
 1055SOL     OW 4063   4.111   5.997   4.922
 1055SOL    HW1 4064   4.046   5.922   4.936
 1055SOL    HW2 4065   4.189   5.985   4.983
 1056SOL     OW 4066   1.860   6.297   5.752
 1056SOL    HW1 4067   1.845   6.220   5.814
 1056SOL    HW2 4068   1.820   6.277   5.663
 1057SOL     OW 4069   2.978   3.435   2.695
 1057SOL    HW1 4070   3.014   3.348   2.660
 1057SOL    HW2 4071   2.934   3.485   2.620
 1058SOL     OW 4072   3.458   1.287   1.816
 1058SOL    HW1 4073   3.380   1.281   1.877
 1058SOL    HW2 4074   3.537   1.243   1.857
 1059SOL     OW 4075   4.393   1.113   1.703
 1059SOL    HW1 4076   4.447   1.197   1.704
 1059SOL    HW2 4077   4.299   1.134   1.728
 1060SOL     OW 4078   1.201   2.609   5.912
 1060SOL    HW1 4079   1.268   2.551   5.864
 1060SOL    HW2 4080   1.117   2.614   5.858
 1061SOL     OW 4081   3.703   5.245   1.663
 1061SOL    HW1 4082   3.742   5.166   1.616
 1061SOL    HW2 4083   3.749   5.329   1.633
 1062SOL     OW 4084   6.269   5.976   5.684
 1062SOL    HW1 4085   6.280   6.001   5.588
 1062SOL    HW2 4086   6.171   5.966   5.706
 1063SOL     OW 4087   1.957   3.114   0.522
 1063SOL    HW1 4088   1.924   3.020   0.509
 1063SOL    HW2 4089   2.046   3.124   0.476
 1064SOL     OW 4090   0.612   3.125   1.979
 1064SOL    HW1 4091   0.617   3.085   2.070
 1064SOL    HW2 4092   0.574   3.059   1.915
 1065SOL     OW 4093   5.902   6.969   4.190
 1065SOL    HW1 4094   5.851   6.885   4.170
 1065SOL    HW2 4095   5.997   6.945   4.212
 1066SOL     OW 4096   4.806   0.319   3.713
 1066SOL    HW1 4097   4.733   0.307   3.646
 1066SOL    HW2 4098   4.891   0.343   3.665
 1067SOL     OW 4099   2.076   2.966   2.258
 1067SOL    HW1 4100   2.100   3.027   2.182
 1067SOL    HW2 4101   2.117   3.000   2.342
 1068SOL     OW 4102   0.112   3.737   2.425
 1068SOL    HW1 4103   0.056   3.685   2.489
 1068SOL    HW2 4104   0.201   3.692   2.413
 1069SOL     OW 4105   4.476   4.447   1.225
 1069SOL    HW1 4106   4.477   4.349   1.210
 1069SOL    HW2 4107   4.386   4.474   1.260
 1070SOL     OW 4108   2.160   1.148   0.500
 1070SOL    HW1 4109   2.112   1.109   0.579
 1070SOL    HW2 4110   2.235   1.088   0.473
 1071SOL     OW 4111   3.749   6.638   3.786
 1071SOL    HW1 4112   3.843   6.631   3.819
 1071SOL    HW2 4113   3.708   6.546   3.782
 1072SOL     OW 4114   3.120   6.619   2.685
 1072SOL    HW1 4115   3.193   6.590   2.623
 1072SOL    HW2 4116   3.132   6.574   2.773
 1073SOL     OW 4117   2.639   4.673   2.789
 1073SOL    HW1 4118   2.632   4.578   2.819
 1073SOL    HW2 4119   2.604   4.733   2.860
 1074SOL     OW 4120   0.725   4.597   2.175
 1074SOL    HW1 4121   0.825   4.600   2.184
 1074SOL    HW2 4122   0.684   4.668   2.232
 1075SOL     OW 4123   5.207   4.642   4.028
 1075SOL    HW1 4124   5.164   4.732   4.041
 1075SOL    HW2 4125   5.300   4.654   3.994
 1076SOL     OW 4126   0.440   4.413   3.860
 1076SOL    HW1 4127   0.537   4.415   3.886
 1076SOL    HW2 4128   0.408   4.319   3.862
 1077SOL     OW 4129   4.416   0.330   1.035
 1077SOL    HW1 4130   4.353   0.321   0.957
 1077SOL    HW2 4131   4.399   0.256   1.100
 1078SOL     OW 4132   1.637   2.357   1.554
 1078SOL    HW1 4133   1.663   2.414   1.632
 1078SOL    HW2 4134   1.555   2.395   1.511
 1079SOL     OW 4135   2.934   5.559   3.784
 1079SOL    HW1 4136   2.973   5.481   3.833
 1079SOL    HW2 4137   3.005   5.605   3.731
 1080SOL     OW 4138   1.800   5.307   3.852
 1080SOL    HW1 4139   1.776   5.404   3.847
 1080SOL    HW2 4140   1.724   5.252   3.820
 1081SOL     OW 4141   1.839   0.517   0.528
 1081SOL    HW1 4142   1.743   0.528   0.555
 1081SOL    HW2 4143   1.887   0.604   0.540
 1082SOL     OW 4144   1.378   0.101   5.684
 1082SOL    HW1 4145   1.383   0.094   5.585
 1082SOL    HW2 4146   1.368   0.010   5.724
 1083SOL     OW 4147   3.583   3.648   2.259
 1083SOL    HW1 4148   3.534   3.617   2.341
 1083SOL    HW2 4149   3.680   3.655   2.280
 1084SOL     OW 4150   5.819   4.132   1.333
 1084SOL    HW1 4151   5.910   4.171   1.320
 1084SOL    HW2 4152   5.821   4.066   1.408
 1085SOL     OW 4153   1.842   4.777   4.016
 1085SOL    HW1 4154   1.847   4.870   4.052
 1085SOL    HW2 4155   1.772   4.726   4.066
 1086SOL     OW 4156   4.393   4.700   2.051
 1086SOL    HW1 4157   4.411   4.609   2.015
 1086SOL    HW2 4158   4.446   4.768   1.998
 1087SOL     OW 4159   4.563   2.778   5.212
 1087SOL    HW1 4160   4.543   2.873   5.237
 1087SOL    HW2 4161   4.499   2.717   5.258
 1088SOL     OW 4162   5.000   4.450   4.081
 1088SOL    HW1 4163   5.069   4.522   4.072
 1088SOL    HW2 4164   4.919   4.487   4.127
 1089SOL     OW 4165   0.151   0.164   4.025
 1089SOL    HW1 4166   0.180   0.186   4.118
 1089SOL    HW2 4167   0.072   0.102   4.028
 1090SOL     OW 4168   1.682   1.539   6.923
 1090SOL    HW1 4169   1.744   1.599   6.874
 1090SOL    HW2 4170   1.724   1.448   6.933
 1091SOL     OW 4171   2.004   1.840   4.993
 1091SOL    HW1 4172   1.942   1.906   5.034
 1091SOL    HW2 4173   2.087   1.887   4.962
 1092SOL     OW 4174   2.516   3.857   1.691
 1092SOL    HW1 4175   2.491   3.942   1.739
 1092SOL    HW2 4176   2.447   3.787   1.711
 1093SOL     OW 4177   0.371   2.066   2.504
 1093SOL    HW1 4178   0.420   2.012   2.436
 1093SOL    HW2 4179   0.423   2.149   2.524
 1094SOL     OW 4180   0.267   6.707   1.244
 1094SOL    HW1 4181   0.225   6.691   1.155
 1094SOL    HW2 4182   0.344   6.770   1.234
 1095SOL     OW 4183   6.180   3.089   6.259
 1095SOL    HW1 4184   6.165   3.117   6.164
 1095SOL    HW2 4185   6.096   3.102   6.311
 1096SOL     OW 4186   3.510   4.411   1.734
 1096SOL    HW1 4187   3.588   4.351   1.750
 1096SOL    HW2 4188   3.534   4.505   1.755
 1097SOL     OW 4189   1.126   5.354   5.192
 1097SOL    HW1 4190   1.161   5.340   5.099
 1097SOL    HW2 4191   1.189   5.314   5.258
 1098SOL     OW 4192   4.753   1.894   2.469
 1098SOL    HW1 4193   4.813   1.928   2.397
 1098SOL    HW2 4194   4.682   1.835   2.428
 1099SOL     OW 4195   4.198   1.652   4.087
 1099SOL    HW1 4196   4.190   1.749   4.110
 1099SOL    HW2 4197   4.117   1.603   4.117
 1100SOL     OW 4198   0.666   0.730   6.790
 1100SOL    HW1 4199   0.576   0.748   6.752
 1100SOL    HW2 4200   0.659   0.662   6.863
 1101SOL     OW 4201   5.050   3.550   0.903
 1101SOL    HW1 4202   5.030   3.554   0.806
 1101SOL    HW2 4203   5.122   3.616   0.926
 1102SOL     OW 4204   0.427   4.975   3.806
 1102SOL    HW1 4205   0.402   4.938   3.895
 1102SOL    HW2 4206   0.502   4.922   3.768
 1103SOL     OW 4207   1.780   2.121   1.825
 1103SOL    HW1 4208   1.852   2.178   1.785
 1103SOL    HW2 4209   1.720   2.178   1.881
 1104SOL     OW 4210   3.650   4.677   6.097
 1104SOL    HW1 4211   3.721   4.635   6.154
 1104SOL    HW2 4212   3.669   4.657   6.001
 1105SOL     OW 4213   5.267   4.152   6.279
 1105SOL    HW1 4214   5.294   4.079   6.341
 1105SOL    HW2 4215   5.342   4.218   6.270
 1106SOL     OW 4216   0.217   2.666   5.672
 1106SOL    HW1 4217   0.216   2.766   5.677
 1106SOL    HW2 4218   0.249   2.629   5.759
 1107SOL     OW 4219   1.235   0.380   0.689
 1107SOL    HW1 4220   1.156   0.386   0.627
 1107SOL    HW2 4221   1.229   0.297   0.743
 1108SOL     OW 4222   1.721   1.123   5.194
 1108SOL    HW1 4223   1.680   1.164   5.113
 1108SOL    HW2 4224   1.653   1.116   5.267
 1109SOL     OW 4225   4.228   6.674   3.793
 1109SOL    HW1 4226   4.225   6.633   3.701
 1109SOL    HW2 4227   4.289   6.753   3.793
 1110SOL     OW 4228   3.021   3.660   2.183
 1110SOL    HW1 4229   2.946   3.664   2.117
 1110SOL    HW2 4230   3.107   3.646   2.134
 1111SOL     OW 4231   5.439   1.010   0.111
 1111SOL    HW1 4232   5.385   1.082   0.067
 1111SOL    HW2 4233   5.537   1.033   0.105
 1112SOL     OW 4234   6.930   0.869   2.097
 1112SOL    HW1 4235   6.856   0.894   2.036
 1112SOL    HW2 4236   7.018   0.887   2.053
 1113SOL     OW 4237   6.331   3.218   2.577
 1113SOL    HW1 4238   6.377   3.149   2.634
 1113SOL    HW2 4239   6.311   3.179   2.487
 1114SOL     OW 4240   4.500   1.472   5.532
 1114SOL    HW1 4241   4.527   1.445   5.440
 1114SOL    HW2 4242   4.425   1.414   5.564
 1115SOL     OW 4243   3.013   3.311   0.920
 1115SOL    HW1 4244   3.080   3.367   0.969
 1115SOL    HW2 4245   2.973   3.244   0.982
 1116SOL     OW 4246   3.912   6.810   4.119
 1116SOL    HW1 4247   3.833   6.764   4.079
 1116SOL    HW2 4248   3.987   6.810   4.053
 1117SOL     OW 4249   3.012   2.700   1.208
 1117SOL    HW1 4250   3.031   2.775   1.145
 1117SOL    HW2 4251   2.999   2.615   1.156
 1118SOL     OW 4252   2.437   4.357   3.328
 1118SOL    HW1 4253   2.407   4.412   3.250
 1118SOL    HW2 4254   2.418   4.261   3.311
 1119SOL     OW 4255   4.298   3.876   1.501
 1119SOL    HW1 4256   4.361   3.799   1.502
 1119SOL    HW2 4257   4.281   3.908   1.594
 1120SOL     OW 4258   4.965   0.351   5.174
 1120SOL    HW1 4259   5.016   0.359   5.260
 1120SOL    HW2 4260   4.896   0.279   5.184
 1121SOL     OW 4261   5.367   2.769   1.939
 1121SOL    HW1 4262   5.418   2.694   1.897
 1121SOL    HW2 4263   5.335   2.831   1.867
 1122SOL     OW 4264   5.169   3.398   6.428
 1122SOL    HW1 4265   5.214   3.351   6.505
 1122SOL    HW2 4266   5.109   3.469   6.463
 1123SOL     OW 4267   4.438   1.042   2.570
 1123SOL    HW1 4268   4.506   1.001   2.509
 1123SOL    HW2 4269   4.370   1.091   2.515
 1124SOL     OW 4270   6.846   3.967   4.661
 1124SOL    HW1 4271   6.808   3.899   4.599
 1124SOL    HW2 4272   6.817   4.059   4.633
 1125SOL     OW 4273   3.483   3.259   5.015
 1125SOL    HW1 4274   3.462   3.313   4.933
 1125SOL    HW2 4275   3.575   3.281   5.047
 1126SOL     OW 4276   5.240   6.264   1.580
 1126SOL    HW1 4277   5.213   6.172   1.608
 1126SOL    HW2 4278   5.167   6.328   1.601
 1127SOL     OW 4279   2.129   4.922   6.954
 1127SOL    HW1 4280   2.042   4.880   6.928
 1127SOL    HW2 4281   2.160   4.884   0.016
 1128SOL     OW 4282   3.262   1.789   4.198
 1128SOL    HW1 4283   3.361   1.797   4.198
 1128SOL    HW2 4284   3.236   1.695   4.178
 1129SOL     OW 4285   5.374   0.370   6.700
 1129SOL    HW1 4286   5.376   0.462   6.661
 1129SOL    HW2 4287   5.280   0.347   6.726
 1130SOL     OW 4288   1.227   4.430   6.852
 1130SOL    HW1 4289   1.162   4.430   6.928
 1130SOL    HW2 4290   1.275   4.343   6.850
 1131SOL     OW 4291   0.379   6.195   5.553
 1131SOL    HW1 4292   0.424   6.223   5.468
 1131SOL    HW2 4293   0.399   6.262   5.625
 1132SOL     OW 4294   5.121   6.141   5.389
 1132SOL    HW1 4295   5.036   6.172   5.432
 1132SOL    HW2 4296   5.118   6.163   5.291
 1133SOL     OW 4297   0.356   3.828   1.507
 1133SOL    HW1 4298   0.431   3.795   1.449
 1133SOL    HW2 4299   0.290   3.878   1.450
 1134SOL     OW 4300   5.248   2.847   5.916
 1134SOL    HW1 4301   5.159   2.853   5.870
 1134SOL    HW2 4302   5.263   2.929   5.970
 1135SOL     OW 4303   2.606   2.084   3.284
 1135SOL    HW1 4304   2.574   1.993   3.256
 1135SOL    HW2 4305   2.669   2.120   3.214
 1136SOL     OW 4306   3.294   5.689   3.482
 1136SOL    HW1 4307   3.348   5.609   3.508
 1136SOL    HW2 4308   3.222   5.704   3.549
 1137SOL     OW 4309   1.063   1.478   6.290
 1137SOL    HW1 4310   1.055   1.566   6.338
 1137SOL    HW2 4311   0.988   1.418   6.318
 1138SOL     OW 4312   1.333   3.682   6.045
 1138SOL    HW1 4313   1.386   3.696   6.129
 1138SOL    HW2 4314   1.278   3.764   6.027
 1139SOL     OW 4315   1.668   6.834   2.483
 1139SOL    HW1 4316   1.639   6.740   2.503
 1139SOL    HW2 4317   1.624   6.897   2.546
 1140SOL     OW 4318   3.436   1.565   3.540
 1140SOL    HW1 4319   3.534   1.566   3.557
 1140SOL    HW2 4320   3.386   1.571   3.627
 1141SOL     OW 4321   6.357   5.623   5.180
 1141SOL    HW1 4322   6.305   5.601   5.097
 1141SOL    HW2 4323   6.428   5.554   5.193
 1142SOL     OW 4324   5.334   0.547   3.971
 1142SOL    HW1 4325   5.336   0.451   4.000
 1142SOL    HW2 4326   5.367   0.605   4.045
 1143SOL     OW 4327   3.900   2.180   3.039
 1143SOL    HW1 4328   3.926   2.263   2.988
 1143SOL    HW2 4329   3.815   2.143   3.001
 1144SOL     OW 4330   0.208   5.097   4.390
 1144SOL    HW1 4331   0.260   5.182   4.380
 1144SOL    HW2 4332   0.185   5.084   4.487
 1145SOL     OW 4333   6.761   5.487   4.623
 1145SOL    HW1 4334   6.808   5.472   4.709
 1145SOL    HW2 4335   6.760   5.585   4.603
 1146SOL     OW 4336   5.958   1.847   0.912
 1146SOL    HW1 4337   5.982   1.785   0.837
 1146SOL    HW2 4338   5.882   1.905   0.883
 1147SOL     OW 4339   0.548   3.361   2.142
 1147SOL    HW1 4340   0.583   3.304   2.068
 1147SOL    HW2 4341   0.451   3.378   2.128
 1148SOL     OW 4342   3.711   6.782   0.002
 1148SOL    HW1 4343   3.739   6.687   0.018
 1148SOL    HW2 4344   3.637   6.783   6.959
 1149SOL     OW 4345   6.986   3.252   2.317
 1149SOL    HW1 4346   6.891   3.224   2.330
 1149SOL    HW2 4347   0.020   3.171   2.323
 1150SOL     OW 4348   1.755   5.024   0.674
 1150SOL    HW1 4349   1.728   4.983   0.587
 1150SOL    HW2 4350   1.832   4.973   0.713
 1151SOL     OW 4351   6.101   5.178   6.627
 1151SOL    HW1 4352   6.027   5.244   6.640
 1151SOL    HW2 4353   6.123   5.136   6.715
 1152SOL     OW 4354   1.654   0.063   4.828
 1152SOL    HW1 4355   1.752   0.064   4.808
 1152SOL    HW2 4356   1.640   0.068   4.927
 1153SOL     OW 4357   2.472   5.570   2.934
 1153SOL    HW1 4358   2.513   5.513   2.864
 1153SOL    HW2 4359   2.430   5.513   3.004
 1154SOL     OW 4360   0.395   3.780   1.772
 1154SOL    HW1 4361   0.374   3.775   1.674
 1154SOL    HW2 4362   0.311   3.771   1.825
 1155SOL     OW 4363   3.618   5.538   1.986
 1155SOL    HW1 4364   3.637   5.481   2.066
 1155SOL    HW2 4365   3.696   5.598   1.968
 1156SOL     OW 4366   2.259   0.529   4.343
 1156SOL    HW1 4367   2.244   0.444   4.393
 1156SOL    HW2 4368   2.307   0.595   4.400
 1157SOL     OW 4369   0.630   2.873   3.722
 1157SOL    HW1 4370   0.676   2.791   3.756
 1157SOL    HW2 4371   0.580   2.851   3.638
 1158SOL     OW 4372   5.583   5.179   5.355
 1158SOL    HW1 4373   5.639   5.182   5.272
 1158SOL    HW2 4374   5.535   5.091   5.360
 1159SOL     OW 4375   3.852   5.266   3.546
 1159SOL    HW1 4376   3.791   5.200   3.503
 1159SOL    HW2 4377   3.929   5.217   3.588
 1160SOL     OW 4378   3.818   3.499   1.891
 1160SOL    HW1 4379   3.809   3.556   1.809
 1160SOL    HW2 4380   3.873   3.547   1.959
 1161SOL     OW 4381   5.619   0.916   3.577
 1161SOL    HW1 4382   5.599   1.014   3.572
 1161SOL    HW2 4383   5.560   0.867   3.512
 1162SOL     OW 4384   3.641   4.151   1.953
 1162SOL    HW1 4385   3.584   4.232   1.966
 1162SOL    HW2 4386   3.679   4.123   2.042
 1163SOL     OW 4387   5.108   1.928   2.889
 1163SOL    HW1 4388   5.145   1.835   2.887
 1163SOL    HW2 4389   5.081   1.955   2.797
 1164SOL     OW 4390   5.676   2.800   3.246
 1164SOL    HW1 4391   5.609   2.781   3.175
 1164SOL    HW2 4392   5.741   2.869   3.213
 1165SOL     OW 4393   0.599   4.474   3.320
 1165SOL    HW1 4394   0.555   4.462   3.231
 1165SOL    HW2 4395   0.559   4.410   3.386
 1166SOL     OW 4396   3.895   2.264   6.171
 1166SOL    HW1 4397   3.909   2.239   6.075
 1166SOL    HW2 4398   3.900   2.363   6.180
 1167SOL     OW 4399   4.916   1.284   5.059
 1167SOL    HW1 4400   4.969   1.326   4.986
 1167SOL    HW2 4401   4.818   1.297   5.042
 1168SOL     OW 4402   6.795   6.861   3.126
 1168SOL    HW1 4403   6.746   6.812   3.198
 1168SOL    HW2 4404   6.891   6.834   3.127
 1169SOL     OW 4405   0.518   3.825   1.284
 1169SOL    HW1 4406   0.610   3.825   1.324
 1169SOL    HW2 4407   0.500   3.736   1.242
 1170SOL     OW 4408   3.289   1.025   1.948
 1170SOL    HW1 4409   3.278   1.124   1.942
 1170SOL    HW2 4410   3.210   0.985   1.994
 1171SOL     OW 4411   2.976   5.833   0.906
 1171SOL    HW1 4412   2.973   5.883   0.819
 1171SOL    HW2 4413   2.971   5.898   0.982
 1172SOL     OW 4414   3.091   3.411   4.726
 1172SOL    HW1 4415   3.040   3.485   4.683
 1172SOL    HW2 4416   3.041   3.378   4.806
 1173SOL     OW 4417   3.237   0.875   6.385
 1173SOL    HW1 4418   3.333   0.847   6.377
 1173SOL    HW2 4419   3.190   0.816   6.449
 1174SOL     OW 4420   2.933   6.004   1.136
 1174SOL    HW1 4421   3.004   6.052   1.188
 1174SOL    HW2 4422   2.873   5.954   1.199
 1175SOL     OW 4423   6.223   5.005   5.976
 1175SOL    HW1 4424   6.308   5.032   5.932
 1175SOL    HW2 4425   6.187   4.923   5.932
 1176SOL     OW 4426   5.549   4.330   1.189
 1176SOL    HW1 4427   5.532   4.231   1.191
 1176SOL    HW2 4428   5.499   4.371   1.112
 1177SOL     OW 4429   6.752   2.744   5.759
 1177SOL    HW1 4430   6.751   2.669   5.693
 1177SOL    HW2 4431   6.840   2.746   5.806
 1178SOL     OW 4432   6.079   3.500   1.553
 1178SOL    HW1 4433   6.127   3.454   1.628
 1178SOL    HW2 4434   6.091   3.599   1.561
 1179SOL     OW 4435   2.148   5.711   6.621
 1179SOL    HW1 4436   2.167   5.807   6.599
 1179SOL    HW2 4437   2.066   5.706   6.677
 1180SOL     OW 4438   2.151   1.873   4.358
 1180SOL    HW1 4439   2.210   1.952   4.371
 1180SOL    HW2 4440   2.073   1.899   4.301
 1181SOL     OW 4441   1.792   4.338   3.031
 1181SOL    HW1 4442   1.883   4.338   2.990
 1181SOL    HW2 4443   1.792   4.281   3.113
 1182SOL     OW 4444   2.440   4.367   3.942
 1182SOL    HW1 4445   2.540   4.361   3.945
 1182SOL    HW2 4446   2.410   4.448   3.993
 1183SOL     OW 4447   4.498   5.793   0.745
 1183SOL    HW1 4448   4.515   5.890   0.729
 1183SOL    HW2 4449   4.506   5.773   0.842
 1184SOL     OW 4450   3.001   2.831   5.647
 1184SOL    HW1 4451   3.094   2.807   5.619
 1184SOL    HW2 4452   3.005   2.892   5.726
 1185SOL     OW 4453   1.954   0.785   0.112
 1185SOL    HW1 4454   2.046   0.788   0.073
 1185SOL    HW2 4455   1.943   0.862   0.175
 1186SOL     OW 4456   4.982   0.728   4.462
 1186SOL    HW1 4457   4.957   0.636   4.430
 1186SOL    HW2 4458   5.006   0.723   4.559
 1187SOL     OW 4459   5.898   0.288   5.255
 1187SOL    HW1 4460   5.900   0.331   5.165
 1187SOL    HW2 4461   5.911   0.189   5.245
 1188SOL     OW 4462   1.837   0.238   6.207
 1188SOL    HW1 4463   1.818   0.297   6.286
 1188SOL    HW2 4464   1.870   0.293   6.131
 1189SOL     OW 4465   5.678   0.437   1.690
 1189SOL    HW1 4466   5.738   0.418   1.613
 1189SOL    HW2 4467   5.583   0.436   1.659
 1190SOL     OW 4468   4.577   4.953   2.528
 1190SOL    HW1 4469   4.664   4.906   2.514
 1190SOL    HW2 4470   4.517   4.896   2.585
 1191SOL     OW 4471   3.122   5.711   6.674
 1191SOL    HW1 4472   3.101   5.689   6.579
 1191SOL    HW2 4473   3.205   5.663   6.702
 1192SOL     OW 4474   5.910   5.395   2.996
 1192SOL    HW1 4475   5.833   5.450   3.028
 1192SOL    HW2 4476   5.876   5.323   2.935
 1193SOL     OW 4477   5.401   0.541   3.688
 1193SOL    HW1 4478   5.472   0.591   3.739
 1193SOL    HW2 4479   5.323   0.525   3.749
 1194SOL     OW 4480   6.298   0.358   0.428
 1194SOL    HW1 4481   6.287   0.270   0.381
 1194SOL    HW2 4482   6.231   0.365   0.501
 1195SOL     OW 4483   5.467   0.102   6.604
 1195SOL    HW1 4484   5.428   0.190   6.632
 1195SOL    HW2 4485   5.395   0.047   6.562
 1196SOL     OW 4486   0.314   5.060   2.740
 1196SOL    HW1 4487   0.291   5.033   2.647
 1196SOL    HW2 4488   0.376   5.139   2.738
 1197SOL     OW 4489   3.991   5.784   5.508
 1197SOL    HW1 4490   3.916   5.773   5.443
 1197SOL    HW2 4491   3.990   5.709   5.574
 1198SOL     OW 4492   3.269   2.115   2.948
 1198SOL    HW1 4493   3.278   2.025   2.993
 1198SOL    HW2 4494   3.301   2.108   2.854
 1199SOL     OW 4495   3.847   4.036   1.808
 1199SOL    HW1 4496   3.849   4.005   1.713
 1199SOL    HW2 4497   3.759   4.080   1.827
 1200SOL     OW 4498   3.820   4.334   6.791
 1200SOL    HW1 4499   3.771   4.335   6.704
 1200SOL    HW2 4500   3.767   4.284   6.859
 1201SOL     OW 4501   1.431   1.315   5.213
 1201SOL    HW1 4502   1.344   1.332   5.259
 1201SOL    HW2 4503   1.421   1.333   5.115
 1202SOL     OW 4504   5.890   0.373   4.923
 1202SOL    HW1 4505   5.990   0.371   4.933
 1202SOL    HW2 4506   5.864   0.318   4.844
 1203SOL     OW 4507   5.236   7.021   0.895
 1203SOL    HW1 4508   5.233   6.938   0.839
 1203SOL    HW2 4509   5.285   7.001   0.980
 1204SOL     OW 4510   3.563   0.746   0.705
 1204SOL    HW1 4511   3.525   0.806   0.635
 1204SOL    HW2 4512   3.603   0.801   0.778
 1205SOL     OW 4513   6.048   2.183   5.162
 1205SOL    HW1 4514   5.959   2.192   5.117
 1205SOL    HW2 4515   6.084   2.091   5.144
 1206SOL     OW 4516   2.185   2.039   5.163
 1206SOL    HW1 4517   2.271   2.080   5.192
 1206SOL    HW2 4518   2.187   2.023   5.065
 1207SOL     OW 4519   5.942   0.226   6.763
 1207SOL    HW1 4520   5.945   0.326   6.771
 1207SOL    HW2 4521   5.846   0.196   6.761
 1208SOL     OW 4522   3.855   3.386   3.238
 1208SOL    HW1 4523   3.952   3.376   3.216
 1208SOL    HW2 4524   3.841   3.474   3.284
 1209SOL     OW 4525   5.354   5.130   4.266
 1209SOL    HW1 4526   5.334   5.228   4.267
 1209SOL    HW2 4527   5.348   5.094   4.359
 1210SOL     OW 4528   4.258   6.886   2.585
 1210SOL    HW1 4529   4.179   6.890   2.647
 1210SOL    HW2 4530   4.305   6.974   2.585
 1211SOL     OW 4531   0.612   4.558   4.766
 1211SOL    HW1 4532   0.603   4.460   4.780
 1211SOL    HW2 4533   0.620   4.577   4.668
 1212SOL     OW 4534   1.570   3.921   5.140
 1212SOL    HW1 4535   1.484   3.873   5.122
 1212SOL    HW2 4536   1.630   3.914   5.060
 1213SOL     OW 4537   6.398   2.235   5.478
 1213SOL    HW1 4538   6.375   2.173   5.553
 1213SOL    HW2 4539   6.361   2.199   5.392
 1214SOL     OW 4540   1.825   3.914   3.447
 1214SOL    HW1 4541   1.788   3.870   3.365
 1214SOL    HW2 4542   1.909   3.868   3.475
 1215SOL     OW 4543   0.985   4.631   2.289
 1215SOL    HW1 4544   0.917   4.653   2.359
 1215SOL    HW2 4545   1.051   4.566   2.326
 1216SOL     OW 4546   1.732   0.248   1.851
 1216SOL    HW1 4547   1.804   0.262   1.783
 1216SOL    HW2 4548   1.731   0.326   1.914
 1217SOL     OW 4549   1.573   6.365   1.886
 1217SOL    HW1 4550   1.490   6.421   1.883
 1217SOL    HW2 4551   1.594   6.332   1.794
 1218SOL     OW 4552   0.564   3.731   4.103
 1218SOL    HW1 4553   0.557   3.830   4.118
 1218SOL    HW2 4554   0.595   3.713   4.010
 1219SOL     OW 4555   3.622   6.420   1.490
 1219SOL    HW1 4556   3.707   6.469   1.505
 1219SOL    HW2 4557   3.546   6.485   1.488
 1220SOL     OW 4558   5.852   3.657   3.623
 1220SOL    HW1 4559   5.844   3.749   3.583
 1220SOL    HW2 4560   5.773   3.602   3.597
 1221SOL     OW 4561   5.069   3.765   7.018
 1221SOL    HW1 4562   5.052   3.668   6.997
 1221SOL    HW2 4563   5.032   3.822   6.944
 1222SOL     OW 4564   6.710   6.554   1.169
 1222SOL    HW1 4565   6.767   6.492   1.223
 1222SOL    HW2 4566   6.614   6.540   1.192
 1223SOL     OW 4567   6.441   6.748   6.414
 1223SOL    HW1 4568   6.524   6.784   6.371
 1223SOL    HW2 4569   6.365   6.753   6.350
 1224SOL     OW 4570   4.877   5.515   1.385
 1224SOL    HW1 4571   4.790   5.476   1.356
 1224SOL    HW2 4572   4.861   5.604   1.429
 1225SOL     OW 4573   4.695   2.176   0.593
 1225SOL    HW1 4574   4.794   2.166   0.588
 1225SOL    HW2 4575   4.654   2.090   0.624
 1226SOL     OW 4576   5.987   6.131   0.970
 1226SOL    HW1 4577   5.905   6.075   0.983
 1226SOL    HW2 4578   6.031   6.148   1.058
 1227SOL     OW 4579   6.019   3.706   5.144
 1227SOL    HW1 4580   6.060   3.743   5.060
 1227SOL    HW2 4581   6.057   3.616   5.163
 1228SOL     OW 4582   3.936   3.130   2.851
 1228SOL    HW1 4583   3.979   3.117   2.762
 1228SOL    HW2 4584   3.935   3.043   2.901
 1229SOL     OW 4585   2.693   5.757   2.834
 1229SOL    HW1 4586   2.602   5.725   2.862
 1229SOL    HW2 4587   2.761   5.722   2.899
 1230SOL     OW 4588   5.305   4.846   1.088
 1230SOL    HW1 4589   5.335   4.768   1.143
 1230SOL    HW2 4590   5.381   4.878   1.031
 1231SOL     OW 4591   1.827   2.425   6.671
 1231SOL    HW1 4592   1.896   2.375   6.618
 1231SOL    HW2 4593   1.736   2.399   6.640
 1232SOL     OW 4594   3.002   0.661   5.445
 1232SOL    HW1 4595   3.055   0.735   5.404
 1232SOL    HW2 4596   2.916   0.650   5.396
 1233SOL     OW 4597   0.124   5.918   4.713
 1233SOL    HW1 4598   0.210   5.917   4.764
 1233SOL    HW2 4599   0.144   5.912   4.615
 1234SOL     OW 4600   6.595   3.005   6.799
 1234SOL    HW1 4601   6.635   2.961   6.880
 1234SOL    HW2 4602   6.517   3.060   6.827
 1235SOL     OW 4603   6.238   5.072   0.233
 1235SOL    HW1 4604   6.167   5.001   0.224
 1235SOL    HW2 4605   6.288   5.079   0.147
 1236SOL     OW 4606   1.846   1.867   1.685
 1236SOL    HW1 4607   1.842   1.953   1.734
 1236SOL    HW2 4608   1.921   1.811   1.720
 1237SOL     OW 4609   0.940   6.861   4.616
 1237SOL    HW1 4610   1.022   6.838   4.669
 1237SOL    HW2 4611   0.860   6.854   4.676
 1238SOL     OW 4612   6.790   0.916   4.190
 1238SOL    HW1 4613   6.755   1.010   4.195
 1238SOL    HW2 4614   6.783   0.883   4.096
 1239SOL     OW 4615   6.300   4.586   4.019
 1239SOL    HW1 4616   6.399   4.582   4.002
 1239SOL    HW2 4617   6.282   4.649   4.094
 1240SOL     OW 4618   5.796   4.290   3.799
 1240SOL    HW1 4619   5.886   4.283   3.757
 1240SOL    HW2 4620   5.726   4.299   3.729
 1241SOL     OW 4621   5.251   4.797   4.690
 1241SOL    HW1 4622   5.276   4.827   4.782
 1241SOL    HW2 4623   5.300   4.713   4.667
 1242SOL     OW 4624   1.207   4.616   0.160
 1242SOL    HW1 4625   1.207   4.638   0.257
 1242SOL    HW2 4626   1.138   4.670   0.113
 1243SOL     OW 4627   0.878   4.669   4.811
 1243SOL    HW1 4628   0.909   4.664   4.906
 1243SOL    HW2 4629   0.788   4.627   4.804
 1244SOL     OW 4630   5.093   7.013   4.561
 1244SOL    HW1 4631   5.048   6.934   4.601
 1244SOL    HW2 4632   5.075   7.015   4.463
 1245SOL     OW 4633   4.754   7.017   1.784
 1245SOL    HW1 4634   4.725   6.947   1.718
 1245SOL    HW2 4635   4.853   7.015   1.794
 1246SOL     OW 4636   4.486   1.390   0.240
 1246SOL    HW1 4637   4.573   1.380   0.192
 1246SOL    HW2 4638   4.454   1.300   0.270
 1247SOL     OW 4639   6.412   6.836   3.739
 1247SOL    HW1 4640   6.433   6.764   3.805
 1247SOL    HW2 4641   6.341   6.804   3.676
 1248SOL     OW 4642   1.121   6.864   4.838
 1248SOL    HW1 4643   1.108   6.832   4.932
 1248SOL    HW2 4644   1.196   6.813   4.796
 1249SOL     OW 4645   6.214   4.470   6.904
 1249SOL    HW1 4646   6.187   4.381   6.942
 1249SOL    HW2 4647   6.191   4.542   6.969
 1250SOL     OW 4648   6.702   3.022   4.665
 1250SOL    HW1 4649   6.777   2.968   4.627
 1250SOL    HW2 4650   6.726   3.119   4.660
 1251SOL     OW 4651   2.699   0.572   2.969
 1251SOL    HW1 4652   2.773   0.506   2.959
 1251SOL    HW2 4653   2.735   0.659   3.002
 1252SOL     OW 4654   1.509   5.606   0.205
 1252SOL    HW1 4655   1.427   5.661   0.222
 1252SOL    HW2 4656   1.590   5.663   0.214
 1253SOL     OW 4657   3.785   0.866   1.103
 1253SOL    HW1 4658   3.806   0.772   1.079
 1253SOL    HW2 4659   3.692   0.872   1.140
 1254SOL     OW 4660   6.902   1.190   1.708
 1254SOL    HW1 4661   6.889   1.134   1.789
 1254SOL    HW2 4662   6.982   1.158   1.657
 1255SOL     OW 4663   5.527   1.195   5.267
 1255SOL    HW1 4664   5.615   1.187   5.312
 1255SOL    HW2 4665   5.528   1.144   5.181
 1256SOL     OW 4666   0.631   5.814   4.890
 1256SOL    HW1 4667   0.700   5.880   4.859
 1256SOL    HW2 4668   0.674   5.750   4.953
 1257SOL     OW 4669   0.341   5.298   4.260
 1257SOL    HW1 4670   0.369   5.248   4.178
 1257SOL    HW2 4671   0.262   5.356   4.238
 1258SOL     OW 4672   3.029   5.997   4.641
 1258SOL    HW1 4673   3.067   6.083   4.675
 1258SOL    HW2 4674   3.055   5.984   4.545
 1259SOL     OW 4675   5.393   0.274   3.980
 1259SOL    HW1 4676   5.483   0.307   3.953
 1259SOL    HW2 4677   5.395   0.174   3.989
 1260SOL     OW 4678   2.027   0.746   2.106
 1260SOL    HW1 4679   2.086   0.671   2.136
 1260SOL    HW2 4680   2.083   0.823   2.077
 1261SOL     OW 4681   6.681   4.444   6.295
 1261SOL    HW1 4682   6.593   4.408   6.264
 1261SOL    HW2 4683   6.729   4.485   6.217
 1262SOL     OW 4684   5.011   5.364   0.146
 1262SOL    HW1 4685   5.101   5.373   0.103
 1262SOL    HW2 4686   4.973   5.456   0.162
 1263SOL     OW 4687   0.397   2.170   1.627
 1263SOL    HW1 4688   0.363   2.094   1.682
 1263SOL    HW2 4689   0.460   2.135   1.557
 1264SOL     OW 4690   0.321   3.975   3.653
 1264SOL    HW1 4691   0.346   3.886   3.690
 1264SOL    HW2 4692   0.335   3.975   3.554
 1265SOL     OW 4693   6.764   4.622   5.570
 1265SOL    HW1 4694   6.741   4.579   5.657
 1265SOL    HW2 4695   6.858   4.599   5.546
 1266SOL     OW 4696   3.158   1.648   5.436
 1266SOL    HW1 4697   3.135   1.714   5.364
 1266SOL    HW2 4698   3.255   1.626   5.431
 1267SOL     OW 4699   6.811   5.288   2.779
 1267SOL    HW1 4700   6.852   5.197   2.770
 1267SOL    HW2 4701   6.793   5.306   2.876
 1268SOL     OW 4702   5.349   2.636   6.751
 1268SOL    HW1 4703   5.306   2.704   6.810
 1268SOL    HW2 4704   5.336   2.545   6.790
 1269SOL     OW 4705   6.772   5.296   5.461
 1269SOL    HW1 4706   6.810   5.376   5.508
 1269SOL    HW2 4707   6.838   5.221   5.466
 1270SOL     OW 4708   1.726   3.562   4.624
 1270SOL    HW1 4709   1.766   3.653   4.611
 1270SOL    HW2 4710   1.630   3.564   4.595
 1271SOL     OW 4711   3.600   1.817   2.855
 1271SOL    HW1 4712   3.531   1.744   2.850
 1271SOL    HW2 4713   3.628   1.842   2.762
 1272SOL     OW 4714   6.954   5.276   1.715
 1272SOL    HW1 4715   0.010   5.287   1.658
 1272SOL    HW2 4716   6.981   5.245   1.807
 1273SOL     OW 4717   2.995   5.375   6.863
 1273SOL    HW1 4718   2.958   5.468   6.870
 1273SOL    HW2 4719   2.921   5.309   6.868
 1274SOL     OW 4720   6.880   2.505   2.211
 1274SOL    HW1 4721   6.788   2.519   2.174
 1274SOL    HW2 4722   6.939   2.580   2.182
 1275SOL     OW 4723   3.990   1.593   4.694
 1275SOL    HW1 4724   3.994   1.615   4.597
 1275SOL    HW2 4725   3.908   1.634   4.734
 1276SOL     OW 4726   1.105   0.285   2.559
 1276SOL    HW1 4727   1.079   0.189   2.549
 1276SOL    HW2 4728   1.033   0.344   2.522
 1277SOL     OW 4729   0.051   0.647   4.129
 1277SOL    HW1 4730   0.125   0.635   4.063
 1277SOL    HW2 4731   7.002   0.583   4.107
 1278SOL     OW 4732   2.242   1.706   5.617
 1278SOL    HW1 4733   2.182   1.651   5.674
 1278SOL    HW2 4734   2.191   1.738   5.537
 1279SOL     OW 4735   2.757   6.076   0.688
 1279SOL    HW1 4736   2.850   6.039   0.686
 1279SOL    HW2 4737   2.731   6.105   0.596
 1280SOL     OW 4738   2.320   0.214   3.435
 1280SOL    HW1 4739   2.229   0.230   3.398
 1280SOL    HW2 4740   2.334   0.116   3.450
 1281SOL     OW 4741   1.233   6.528   3.263
 1281SOL    HW1 4742   1.307   6.466   3.236
 1281SOL    HW2 4743   1.269   6.620   3.277
 1282SOL     OW 4744   0.905   1.005   1.114
 1282SOL    HW1 4745   0.830   1.046   1.063
 1282SOL    HW2 4746   0.878   0.994   1.210
 1283SOL     OW 4747   5.716   5.206   5.096
 1283SOL    HW1 4748   5.666   5.217   5.010
 1283SOL    HW2 4749   5.803   5.159   5.079
 1284SOL     OW 4750   3.082   2.684   1.815
 1284SOL    HW1 4751   3.021   2.738   1.757
 1284SOL    HW2 4752   3.037   2.600   1.842
 1285SOL     OW 4753   4.661   2.662   5.671
 1285SOL    HW1 4754   4.754   2.639   5.644
 1285SOL    HW2 4755   4.632   2.746   5.626
 1286SOL     OW 4756   5.689   4.128   1.913
 1286SOL    HW1 4757   5.679   4.113   2.012
 1286SOL    HW2 4758   5.616   4.187   1.881
 1287SOL     OW 4759   6.543   5.919   6.755
 1287SOL    HW1 4760   6.482   5.988   6.795
 1287SOL    HW2 4761   6.619   5.965   6.710
 1288SOL     OW 4762   0.083   3.087   0.614
 1288SOL    HW1 4763   0.117   3.181   0.610
 1288SOL    HW2 4764   0.159   3.023   0.597
 1289SOL     OW 4765   6.819   6.198   2.320
 1289SOL    HW1 4766   6.826   6.291   2.284
 1289SOL    HW2 4767   6.752   6.196   2.394
 1290SOL     OW 4768   0.492   6.714   0.405
 1290SOL    HW1 4769   0.562   6.735   0.474
 1290SOL    HW2 4770   0.474   6.616   0.406
 1291SOL     OW 4771   1.013   6.353   6.938
 1291SOL    HW1 4772   1.023   6.259   6.971
 1291SOL    HW2 4773   1.088   6.409   6.974
 1292SOL     OW 4774   0.650   4.897   1.458
 1292SOL    HW1 4775   0.648   4.800   1.432
 1292SOL    HW2 4776   0.743   4.923   1.482
 1293SOL     OW 4777   0.508   1.696   6.638
 1293SOL    HW1 4778   0.485   1.783   6.594
 1293SOL    HW2 4779   0.478   1.698   6.733
 1294SOL     OW 4780   0.176   3.096   2.099
 1294SOL    HW1 4781   0.168   3.075   2.001
 1294SOL    HW2 4782   0.244   3.036   2.141
 1295SOL     OW 4783   5.288   2.549   1.684
 1295SOL    HW1 4784   5.276   2.470   1.624
 1295SOL    HW2 4785   5.384   2.556   1.711
 1296SOL     OW 4786   3.060   2.178   6.275
 1296SOL    HW1 4787   3.014   2.265   6.290
 1296SOL    HW2 4788   2.991   2.107   6.257
 1297SOL     OW 4789   6.695   1.545   5.293
 1297SOL    HW1 4790   6.762   1.617   5.273
 1297SOL    HW2 4791   6.742   1.457   5.301
 1298SOL     OW 4792   5.916   2.912   2.445
 1298SOL    HW1 4793   5.858   2.992   2.457
 1298SOL    HW2 4794   6.001   2.923   2.497
 1299SOL     OW 4795   1.329   4.072   4.619
 1299SOL    HW1 4796   1.413   4.109   4.579
 1299SOL    HW2 4797   1.254   4.138   4.605
 1300SOL     OW 4798   3.212   2.918   1.922
 1300SOL    HW1 4799   3.211   2.994   1.858
 1300SOL    HW2 4800   3.170   2.838   1.879
 1301SOL     OW 4801   0.751   6.564   4.106
 1301SOL    HW1 4802   0.749   6.626   4.028
 1301SOL    HW2 4803   0.846   6.549   4.134
 1302SOL     OW 4804   2.256   0.023   4.867
 1302SOL    HW1 4805   2.320   0.027   4.790
 1302SOL    HW2 4806   2.188   6.976   4.850
 1303SOL     OW 4807   3.608   1.576   0.872
 1303SOL    HW1 4808   3.548   1.528   0.807
 1303SOL    HW2 4809   3.676   1.513   0.908
 1304SOL     OW 4810   1.992   0.407   6.459
 1304SOL    HW1 4811   1.929   0.482   6.442
 1304SOL    HW2 4812   2.001   0.392   6.558
 1305SOL     OW 4813   4.230   0.173   4.380
 1305SOL    HW1 4814   4.308   0.235   4.384
 1305SOL    HW2 4815   4.263   0.079   4.370
 1306SOL     OW 4816   0.449   4.296   4.271
 1306SOL    HW1 4817   0.542   4.317   4.239
 1306SOL    HW2 4818   0.452   4.274   4.368
 1307SOL     OW 4819   1.118   3.213   4.595
 1307SOL    HW1 4820   1.023   3.183   4.589
 1307SOL    HW2 4821   1.144   3.223   4.692
 1308SOL     OW 4822   4.374   5.856   4.211
 1308SOL    HW1 4823   4.413   5.786   4.151
 1308SOL    HW2 4824   4.447   5.905   4.258
 1309SOL     OW 4825   5.704   2.414   4.336
 1309SOL    HW1 4826   5.658   2.356   4.269
 1309SOL    HW2 4827   5.794   2.375   4.357
 1310SOL     OW 4828   5.655   3.838   4.206
 1310SOL    HW1 4829   5.670   3.898   4.284
 1310SOL    HW2 4830   5.605   3.887   4.135
 1311SOL     OW 4831   6.329   6.772   4.700
 1311SOL    HW1 4832   6.371   6.779   4.790
 1311SOL    HW2 4833   6.237   6.810   4.703
 1312SOL     OW 4834   0.240   0.432   0.271
 1312SOL    HW1 4835   0.316   0.423   0.207
 1312SOL    HW2 4836   0.179   0.506   0.242
 1313SOL     OW 4837   3.548   5.254   5.101
 1313SOL    HW1 4838   3.604   5.174   5.123
 1313SOL    HW2 4839   3.585   5.334   5.148
 1314SOL     OW 4840   1.112   1.520   5.539
 1314SOL    HW1 4841   1.047   1.488   5.469
 1314SOL    HW2 4842   1.204   1.524   5.499
 1315SOL     OW 4843   2.251   1.818   1.645
 1315SOL    HW1 4844   2.291   1.731   1.614
 1315SOL    HW2 4845   2.186   1.800   1.719
 1316SOL     OW 4846   2.814   6.748   4.175
 1316SOL    HW1 4847   2.771   6.838   4.182
 1316SOL    HW2 4848   2.753   6.684   4.129
 1317SOL     OW 4849   6.931   4.961   4.536
 1317SOL    HW1 4850   6.978   5.036   4.583
 1317SOL    HW2 4851   6.891   4.995   4.451
 1318SOL     OW 4852   0.158   0.126   7.019
 1318SOL    HW1 4853   0.088   0.075   0.043
 1318SOL    HW2 4854   0.115   0.197   6.963
 1319SOL     OW 4855   6.087   1.477   0.349
 1319SOL    HW1 4856   6.131   1.387   0.349
 1319SOL    HW2 4857   6.157   1.548   0.348
 1320SOL     OW 4858   6.148   4.591   5.940
 1320SOL    HW1 4859   6.087   4.599   6.018
 1320SOL    HW2 4860   6.167   4.494   5.922
 1321SOL     OW 4861   4.044   2.889   0.006
 1321SOL    HW1 4862   3.962   2.832   0.002
 1321SOL    HW2 4863   4.104   2.866   6.954
 1322SOL     OW 4864   6.474   1.463   3.645
 1322SOL    HW1 4865   6.528   1.520   3.583
 1322SOL    HW2 4866   6.523   1.453   3.732
 1323SOL     OW 4867   0.596   1.623   5.126
 1323SOL    HW1 4868   0.592   1.644   5.028
 1323SOL    HW2 4869   0.597   1.524   5.139
 1324SOL     OW 4870   1.326   3.256   1.550
 1324SOL    HW1 4871   1.288   3.348   1.556
 1324SOL    HW2 4872   1.261   3.190   1.586
 1325SOL     OW 4873   2.066   6.408   3.516
 1325SOL    HW1 4874   2.014   6.373   3.595
 1325SOL    HW2 4875   2.007   6.467   3.462
 1326SOL     OW 4876   5.669   2.692   4.421
 1326SOL    HW1 4877   5.692   2.595   4.426
 1326SOL    HW2 4878   5.570   2.702   4.410
 1327SOL     OW 4879   3.123   4.997   3.380
 1327SOL    HW1 4880   3.070   5.045   3.449
 1327SOL    HW2 4881   3.214   4.975   3.416
 1328SOL     OW 4882   1.698   1.768   0.135
 1328SOL    HW1 4883   1.755   1.690   0.106
 1328SOL    HW2 4884   1.746   1.853   0.113
 1329SOL     OW 4885   0.781   1.230   0.558
 1329SOL    HW1 4886   0.845   1.284   0.613
 1329SOL    HW2 4887   0.830   1.185   0.484
 1330SOL     OW 4888   6.648   0.470   1.044
 1330SOL    HW1 4889   6.703   0.458   0.961
 1330SOL    HW2 4890   6.684   0.413   1.117
 1331SOL     OW 4891   5.917   0.386   2.130
 1331SOL    HW1 4892   5.921   0.391   2.030
 1331SOL    HW2 4893   5.824   0.361   2.158
 1332SOL     OW 4894   4.356   1.320   1.439
 1332SOL    HW1 4895   4.307   1.385   1.496
 1332SOL    HW2 4896   4.443   1.296   1.482
 1333SOL     OW 4897   4.000   3.916   5.009
 1333SOL    HW1 4898   3.980   3.933   4.913
 1333SOL    HW2 4899   3.938   3.846   5.045
 1334SOL     OW 4900   0.969   3.817   5.486
 1334SOL    HW1 4901   0.875   3.817   5.520
 1334SOL    HW2 4902   0.981   3.893   5.422
 1335SOL     OW 4903   2.156   5.689   3.181
 1335SOL    HW1 4904   2.242   5.717   3.223
 1335SOL    HW2 4905   2.136   5.748   3.102
 1336SOL     OW 4906   0.790   1.176   5.541
 1336SOL    HW1 4907   0.745   1.207   5.625
 1336SOL    HW2 4908   0.721   1.147   5.475
 1337SOL     OW 4909   1.651   1.896   6.455
 1337SOL    HW1 4910   1.640   1.952   6.537
 1337SOL    HW2 4911   1.681   1.954   6.379
 1338SOL     OW 4912   4.301   4.637   6.587
 1338SOL    HW1 4913   4.291   4.736   6.588
 1338SOL    HW2 4914   4.228   4.597   6.531
 1339SOL     OW 4915   6.847   4.094   6.087
 1339SOL    HW1 4916   6.891   4.037   6.156
 1339SOL    HW2 4917   6.881   4.187   6.094
 1340SOL     OW 4918   1.755   2.064   0.186
 1340SOL    HW1 4919   1.724   2.154   0.155
 1340SOL    HW2 4920   1.690   2.027   0.253
 1341SOL     OW 4921   3.013   1.622   3.534
 1341SOL    HW1 4922   3.022   1.685   3.612
 1341SOL    HW2 4923   2.924   1.578   3.537
 1342SOL     OW 4924   1.049   5.873   0.076
 1342SOL    HW1 4925   0.995   5.877   7.016
 1342SOL    HW2 4926   1.080   5.965   0.100
 1343SOL     OW 4927   3.925   5.963   2.523
 1343SOL    HW1 4928   3.844   5.962   2.465
 1343SOL    HW2 4929   3.991   6.029   2.487
 1344SOL     OW 4930   6.536   1.173   2.760
 1344SOL    HW1 4931   6.486   1.088   2.776
 1344SOL    HW2 4932   6.523   1.202   2.665
 1345SOL     OW 4933   0.875   0.667   2.942
 1345SOL    HW1 4934   0.849   0.628   3.030
 1345SOL    HW2 4935   0.906   0.762   2.956
 1346SOL     OW 4936   6.767   0.278   3.934
 1346SOL    HW1 4937   6.724   0.188   3.921
 1346SOL    HW2 4938   6.832   0.294   3.860
 1347SOL     OW 4939   6.552   6.555   3.075
 1347SOL    HW1 4940   6.476   6.612   3.107
 1347SOL    HW2 4941   6.638   6.598   3.099
 1348SOL     OW 4942   5.475   4.575   3.975
 1348SOL    HW1 4943   5.459   4.533   4.064
 1348SOL    HW2 4944   5.572   4.568   3.952
 1349SOL     OW 4945   3.954   2.637   7.012
 1349SOL    HW1 4946   3.858   2.610   7.010
 1349SOL    HW2 4947   4.001   2.600   6.932
 1350SOL     OW 4948   3.073   6.924   6.738
 1350SOL    HW1 4949   2.999   6.879   6.689
 1350SOL    HW2 4950   3.072   6.896   6.833
 1351SOL     OW 4951   0.236   1.107   3.388
 1351SOL    HW1 4952   0.280   1.044   3.324
 1351SOL    HW2 4953   0.179   1.055   3.452
 1352SOL     OW 4954   0.173   0.961   2.361
 1352SOL    HW1 4955   0.216   1.028   2.422
 1352SOL    HW2 4956   0.074   0.971   2.364
 1353SOL     OW 4957   0.643   4.277   4.781
 1353SOL    HW1 4958   0.694   4.196   4.752
 1353SOL    HW2 4959   0.610   4.263   4.875
 1354SOL     OW 4960   0.270   0.276   1.376
 1354SOL    HW1 4961   0.248   0.179   1.377
 1354SOL    HW2 4962   0.359   0.291   1.418
 1355SOL     OW 4963   4.983   3.473   6.964
 1355SOL    HW1 4964   4.898   3.520   6.985
 1355SOL    HW2 4965   4.964   3.377   6.943
 1356SOL     OW 4966   3.592   3.495   2.900
 1356SOL    HW1 4967   3.516   3.456   2.953
 1356SOL    HW2 4968   3.664   3.525   2.963
 1357SOL     OW 4969   2.574   3.023   5.863
 1357SOL    HW1 4970   2.527   3.102   5.824
 1357SOL    HW2 4971   2.598   3.042   5.958
 1358SOL     OW 4972   2.345   3.365   6.516
 1358SOL    HW1 4973   2.323   3.457   6.482
 1358SOL    HW2 4974   2.267   3.305   6.500
 1359SOL     OW 4975   6.336   3.125   0.749
 1359SOL    HW1 4976   6.371   3.154   0.838
 1359SOL    HW2 4977   6.411   3.126   0.682
 1360SOL     OW 4978   3.567   4.149   3.124
 1360SOL    HW1 4979   3.488   4.146   3.063
 1360SOL    HW2 4980   3.536   4.152   3.219
 1361SOL     OW 4981   0.758   6.086   6.759
 1361SOL    HW1 4982   0.749   6.173   6.712
 1361SOL    HW2 4983   0.671   6.063   6.803
 1362SOL     OW 4984   2.763   3.577   6.046
 1362SOL    HW1 4985   2.768   3.652   5.980
 1362SOL    HW2 4986   2.848   3.573   6.098
 1363SOL     OW 4987   6.233   5.538   2.460
 1363SOL    HW1 4988   6.152   5.591   2.487
 1363SOL    HW2 4989   6.307   5.556   2.525
 1364SOL     OW 4990   6.968   3.270   1.121
 1364SOL    HW1 4991   7.023   3.331   1.063
 1364SOL    HW2 4992   7.021   3.188   1.142
 1365SOL     OW 4993   0.471   3.629   6.328
 1365SOL    HW1 4994   0.465   3.706   6.264
 1365SOL    HW2 4995   0.554   3.577   6.311
 1366SOL     OW 4996   6.834   2.277   0.228
 1366SOL    HW1 4997   6.926   2.273   0.190
 1366SOL    HW2 4998   6.791   2.187   0.221
 1367SOL     OW 4999   0.080   5.550   3.800
 1367SOL    HW1 5000   0.152   5.585   3.861
 1367SOL    HW2 5001   7.018   5.592   3.825
 1368SOL     OW 5002   7.022   0.333   3.823
 1368SOL    HW1 5003   0.017   0.281   3.740
 1368SOL    HW2 5004   0.034   0.284   3.902
 1369SOL     OW 5005   2.721   6.451   2.846
 1369SOL    HW1 5006   2.777   6.389   2.900
 1369SOL    HW2 5007   2.772   6.482   2.766
 1370SOL     OW 5008   6.862   2.254   3.006
 1370SOL    HW1 5009   6.905   2.302   3.083
 1370SOL    HW2 5010   6.763   2.268   3.010
 1371SOL     OW 5011   5.646   1.171   4.396
 1371SOL    HW1 5012   5.638   1.231   4.317
 1371SOL    HW2 5013   5.619   1.221   4.479
 1372SOL     OW 5014   6.368   2.556   0.049
 1372SOL    HW1 5015   6.398   2.634   7.019
 1372SOL    HW2 5016   6.286   2.582   0.102
 1373SOL     OW 5017   4.765   2.852   2.235
 1373SOL    HW1 5018   4.753   2.943   2.193
 1373SOL    HW2 5019   4.849   2.851   2.289
 1374SOL     OW 5020   5.251   4.313   6.944
 1374SOL    HW1 5021   5.279   4.223   6.911
 1374SOL    HW2 5022   5.194   4.358   6.874
 1375SOL     OW 5023   5.666   6.101   4.703
 1375SOL    HW1 5024   5.595   6.035   4.728
 1375SOL    HW2 5025   5.632   6.194   4.720
 1376SOL     OW 5026   2.482   5.280   6.961
 1376SOL    HW1 5027   2.429   5.297   6.878
 1376SOL    HW2 5028   2.487   5.363   7.016
 1377SOL     OW 5029   1.586   2.272   3.051
 1377SOL    HW1 5030   1.658   2.334   3.082
 1377SOL    HW2 5031   1.568   2.204   3.121
 1378SOL     OW 5032   4.481   2.132   4.487
 1378SOL    HW1 5033   4.522   2.138   4.395
 1378SOL    HW2 5034   4.441   2.041   4.499
 1379SOL     OW 5035   5.416   5.332   1.225
 1379SOL    HW1 5036   5.402   5.267   1.150
 1379SOL    HW2 5037   5.370   5.418   1.203
 1380SOL     OW 5038   6.892   5.501   1.096
 1380SOL    HW1 5039   6.944   5.426   1.135
 1380SOL    HW2 5040   6.798   5.498   1.130
 1381SOL     OW 5041   6.663   2.152   5.712
 1381SOL    HW1 5042   6.700   2.228   5.765
 1381SOL    HW2 5043   6.564   2.165   5.700
 1382SOL     OW 5044   4.080   2.457   1.383
 1382SOL    HW1 5045   4.061   2.474   1.286
 1382SOL    HW2 5046   4.171   2.494   1.406
 1383SOL     OW 5047   1.344   0.498   1.645
 1383SOL    HW1 5048   1.350   0.532   1.551
 1383SOL    HW2 5049   1.386   0.408   1.650
 1384SOL     OW 5050   5.706   0.236   0.502
 1384SOL    HW1 5051   5.634   0.181   0.544
 1384SOL    HW2 5052   5.768   0.176   0.450
 1385SOL     OW 5053   1.909   5.360   2.709
 1385SOL    HW1 5054   1.977   5.373   2.782
 1385SOL    HW2 5055   1.852   5.441   2.702
 1386SOL     OW 5056   2.771   5.986   4.211
 1386SOL    HW1 5057   2.743   6.074   4.174
 1386SOL    HW2 5058   2.766   5.917   4.139
 1387SOL     OW 5059   3.754   6.153   1.685
 1387SOL    HW1 5060   3.717   6.246   1.682
 1387SOL    HW2 5061   3.680   6.088   1.700
 1388SOL     OW 5062   6.140   0.300   0.932
 1388SOL    HW1 5063   6.041   0.291   0.943
 1388SOL    HW2 5064   6.167   0.260   0.845
 1389SOL     OW 5065   6.770   0.933   3.004
 1389SOL    HW1 5066   6.701   0.980   3.059
 1389SOL    HW2 5067   6.861   0.970   3.026
 1390SOL     OW 5068   0.529   3.360   5.741
 1390SOL    HW1 5069   0.485   3.328   5.657
 1390SOL    HW2 5070   0.587   3.439   5.721
 1391SOL     OW 5071   6.906   1.855   3.457
 1391SOL    HW1 5072   6.809   1.876   3.445
 1391SOL    HW2 5073   6.949   1.842   3.368
 1392SOL     OW 5074   5.321   5.079   5.066
 1392SOL    HW1 5075   5.310   5.179   5.061
 1392SOL    HW2 5076   5.232   5.036   5.075
 1393SOL     OW 5077   5.186   6.043   5.974
 1393SOL    HW1 5078   5.201   6.106   5.899
 1393SOL    HW2 5079   5.092   6.053   6.008
 1394SOL     OW 5080   2.768   6.204   5.733
 1394SOL    HW1 5081   2.684   6.250   5.707
 1394SOL    HW2 5082   2.765   6.181   5.830
 1395SOL     OW 5083   3.015   4.286   5.843
 1395SOL    HW1 5084   3.032   4.338   5.759
 1395SOL    HW2 5085   3.020   4.347   5.921
 1396SOL     OW 5086   6.768   6.837   4.293
 1396SOL    HW1 5087   6.836   6.848   4.222
 1396SOL    HW2 5088   6.677   6.861   4.257
 1397SOL     OW 5089   6.221   0.309   4.691
 1397SOL    HW1 5090   6.265   0.219   4.692
 1397SOL    HW2 5091   6.205   0.339   4.785
 1398SOL     OW 5092   1.755   1.373   4.979
 1398SOL    HW1 5093   1.662   1.401   4.955
 1398SOL    HW2 5094   1.815   1.452   4.983
 1399SOL     OW 5095   3.028   6.228   1.361
 1399SOL    HW1 5096   2.984   6.282   1.432
 1399SOL    HW2 5097   3.097   6.168   1.402
 1400SOL     OW 5098   0.111   1.243   2.055
 1400SOL    HW1 5099   0.064   1.162   2.091
 1400SOL    HW2 5100   0.134   1.228   1.959
 1401SOL     OW 5101   0.521   1.867   5.241
 1401SOL    HW1 5102   0.586   1.899   5.310
 1401SOL    HW2 5103   0.558   1.785   5.197
 1402SOL     OW 5104   0.052   3.249   6.693
 1402SOL    HW1 5105   0.014   3.340   6.675
 1402SOL    HW2 5106   7.004   3.186   6.715
 1403SOL     OW 5107   3.316   0.199   2.088
 1403SOL    HW1 5108   3.370   0.226   2.168
 1403SOL    HW2 5109   3.220   0.188   2.115
 1404SOL     OW 5110   5.090   0.665   0.581
 1404SOL    HW1 5111   5.052   0.756   0.562
 1404SOL    HW2 5112   5.185   0.661   0.550
 1405SOL     OW 5113   1.790   4.165   0.865
 1405SOL    HW1 5114   1.818   4.157   0.769
 1405SOL    HW2 5115   1.794   4.075   0.909
 1406SOL     OW 5116   1.417   5.007   1.576
 1406SOL    HW1 5117   1.484   5.070   1.536
 1406SOL    HW2 5118   1.345   4.988   1.509
 1407SOL     OW 5119   6.779   1.111   1.989
 1407SOL    HW1 5120   6.679   1.104   1.997
 1407SOL    HW2 5121   6.816   1.160   2.067
 1408SOL     OW 5122   5.444   0.618   6.304
 1408SOL    HW1 5123   5.480   0.690   6.364
 1408SOL    HW2 5124   5.481   0.630   6.212
 1409SOL     OW 5125   0.187   0.778   5.069
 1409SOL    HW1 5126   0.166   0.761   4.973
 1409SOL    HW2 5127   0.106   0.816   5.114
 1410SOL     OW 5128   1.646   3.320   6.685
 1410SOL    HW1 5129   1.585   3.340   6.762
 1410SOL    HW2 5130   1.610   3.363   6.602
 1411SOL     OW 5131   2.054   6.778   3.262
 1411SOL    HW1 5132   2.116   6.722   3.207
 1411SOL    HW2 5133   2.072   6.875   3.244
 1412SOL     OW 5134   1.454   2.908   0.613
 1412SOL    HW1 5135   1.535   2.966   0.602
 1412SOL    HW2 5136   1.372   2.959   0.587
 1413SOL     OW 5137   2.426   0.884   4.693
 1413SOL    HW1 5138   2.397   0.925   4.607
 1413SOL    HW2 5139   2.358   0.904   4.764
 1414SOL     OW 5140   2.675   1.729   2.187
 1414SOL    HW1 5141   2.767   1.768   2.179
 1414SOL    HW2 5142   2.636   1.716   2.095
 1415SOL     OW 5143   2.686   6.309   4.636
 1415SOL    HW1 5144   2.674   6.400   4.596
 1415SOL    HW2 5145   2.596   6.267   4.651
 1416SOL     OW 5146   4.684   4.286   2.727
 1416SOL    HW1 5147   4.631   4.337   2.795
 1416SOL    HW2 5148   4.676   4.331   2.638
 1417SOL     OW 5149   2.414   2.535   6.531
 1417SOL    HW1 5150   2.481   2.495   6.593
 1417SOL    HW2 5151   2.329   2.552   6.581
 1418SOL     OW 5152   3.343   3.670   2.815
 1418SOL    HW1 5153   3.342   3.703   2.721
 1418SOL    HW2 5154   3.386   3.738   2.874
 1419SOL     OW 5155   2.838   6.850   4.553
 1419SOL    HW1 5156   2.856   6.831   4.457
 1419SOL    HW2 5157   2.892   6.789   4.610
 1420SOL     OW 5158   1.538   6.571   2.219
 1420SOL    HW1 5159   1.555   6.668   2.235
 1420SOL    HW2 5160   1.441   6.558   2.197
 1421SOL     OW 5161   1.697   3.082   3.226
 1421SOL    HW1 5162   1.685   3.104   3.322
 1421SOL    HW2 5163   1.654   2.994   3.206
 1422SOL     OW 5164   2.313   4.607   2.021
 1422SOL    HW1 5165   2.261   4.552   1.955
 1422SOL    HW2 5166   2.374   4.547   2.074
 1423SOL     OW 5167   5.833   6.268   1.796
 1423SOL    HW1 5168   5.918   6.320   1.790
 1423SOL    HW2 5169   5.756   6.331   1.807
 1424SOL     OW 5170   5.383   4.591   4.590
 1424SOL    HW1 5171   5.479   4.609   4.613
 1424SOL    HW2 5172   5.369   4.608   4.492
 1425SOL     OW 5173   1.304   6.064   4.198
 1425SOL    HW1 5174   1.314   5.980   4.145
 1425SOL    HW2 5175   1.390   6.115   4.197
 1426SOL     OW 5176   1.210   1.943   5.681
 1426SOL    HW1 5177   1.299   1.948   5.727
 1426SOL    HW2 5178   1.222   1.957   5.583
 1427SOL     OW 5179   0.066   6.766   3.069
 1427SOL    HW1 5180   0.142   6.737   3.127
 1427SOL    HW2 5181   0.097   6.837   3.005
 1428SOL     OW 5182   5.951   2.453   0.765
 1428SOL    HW1 5183   5.933   2.551   0.762
 1428SOL    HW2 5184   5.982   2.421   0.675
 1429SOL     OW 5185   5.881   1.792   0.486
 1429SOL    HW1 5186   5.872   1.890   0.504
 1429SOL    HW2 5187   5.907   1.777   0.391
 1430SOL     OW 5188   1.183   4.176   4.143
 1430SOL    HW1 5189   1.125   4.111   4.192
 1430SOL    HW2 5190   1.262   4.200   4.200
 1431SOL     OW 5191   2.208   2.151   1.939
 1431SOL    HW1 5192   2.276   2.218   1.908
 1431SOL    HW2 5193   2.123   2.164   1.889
 1432SOL     OW 5194   2.586   1.685   3.502
 1432SOL    HW1 5195   2.529   1.766   3.515
 1432SOL    HW2 5196   2.671   1.711   3.456
 1433SOL     OW 5197   4.406   0.990   4.162
 1433SOL    HW1 5198   4.480   1.002   4.096
 1433SOL    HW2 5199   4.343   0.920   4.129
 1434SOL     OW 5200   0.379   1.188   5.253
 1434SOL    HW1 5201   0.361   1.140   5.167
 1434SOL    HW2 5202   0.314   1.156   5.322
 1435SOL     OW 5203   6.558   1.016   2.243
 1435SOL    HW1 5204   6.531   0.931   2.197
 1435SOL    HW2 5205   6.651   1.040   2.218
 1436SOL     OW 5206   4.498   4.131   6.750
 1436SOL    HW1 5207   4.400   4.115   6.767
 1436SOL    HW2 5208   4.552   4.081   6.819
 1437SOL     OW 5209   2.647   1.992   4.069
 1437SOL    HW1 5210   2.588   1.920   4.034
 1437SOL    HW2 5211   2.620   2.015   4.163
 1438SOL     OW 5212   3.831   6.098   1.330
 1438SOL    HW1 5213   3.875   6.178   1.290
 1438SOL    HW2 5214   3.820   6.028   1.260
 1439SOL     OW 5215   0.153   5.984   1.616
 1439SOL    HW1 5216   0.087   6.059   1.608
 1439SOL    HW2 5217   0.245   6.020   1.600
 1440SOL     OW 5218   3.281   3.735   1.565
 1440SOL    HW1 5219   3.371   3.780   1.569
 1440SOL    HW2 5220   3.225   3.767   1.641
 1441SOL     OW 5221   6.336   0.930   1.525
 1441SOL    HW1 5222   6.333   1.021   1.483
 1441SOL    HW2 5223   6.391   0.869   1.469
 1442SOL     OW 5224   6.200   6.160   6.760
 1442SOL    HW1 5225   6.176   6.101   6.683
 1442SOL    HW2 5226   6.249   6.240   6.726
 1443SOL     OW 5227   0.300   2.689   2.631
 1443SOL    HW1 5228   0.332   2.692   2.726
 1443SOL    HW2 5229   0.200   2.691   2.630
 1444SOL     OW 5230   5.030   6.770   0.946
 1444SOL    HW1 5231   5.078   6.719   1.017
 1444SOL    HW2 5232   5.088   6.780   0.866
 1445SOL     OW 5233   0.832   3.414   2.974
 1445SOL    HW1 5234   0.793   3.333   2.930
 1445SOL    HW2 5235   0.931   3.416   2.959
 1446SOL     OW 5236   6.581   0.420   6.405
 1446SOL    HW1 5237   6.545   0.509   6.433
 1446SOL    HW2 5238   6.571   0.410   6.306
 1447SOL     OW 5239   5.575   5.029   2.860
 1447SOL    HW1 5240   5.556   4.937   2.893
 1447SOL    HW2 5241   5.580   5.092   2.937
 1448SOL     OW 5242   0.238   3.246   4.704
 1448SOL    HW1 5243   0.329   3.223   4.671
 1448SOL    HW2 5244   0.239   3.339   4.742
 1449SOL     OW 5245   1.815   4.265   5.225
 1449SOL    HW1 5246   1.781   4.359   5.224
 1449SOL    HW2 5247   1.880   4.251   5.150
 1450SOL     OW 5248   1.015   2.054   5.915
 1450SOL    HW1 5249   1.052   2.142   5.887
 1450SOL    HW2 5250   1.084   1.983   5.902
 1451SOL     OW 5251   1.350   6.041   1.925
 1451SOL    HW1 5252   1.310   6.107   1.862
 1451SOL    HW2 5253   1.319   5.949   1.900
 1452SOL     OW 5254   4.508   2.892   5.586
 1452SOL    HW1 5255   4.428   2.879   5.644
 1452SOL    HW2 5256   4.482   2.936   5.500
 1453SOL     OW 5257   0.696   4.619   5.420
 1453SOL    HW1 5258   0.678   4.609   5.518
 1453SOL    HW2 5259   0.651   4.546   5.369
 1454SOL     OW 5260   2.774   1.773   3.099
 1454SOL    HW1 5261   2.834   1.820   3.034
 1454SOL    HW2 5262   2.821   1.762   3.186
 1455SOL     OW 5263   0.995   6.247   3.083
 1455SOL    HW1 5264   1.049   6.168   3.052
 1455SOL    HW2 5265   0.961   6.229   3.175
 1456SOL     OW 5266   6.594   6.119   6.232
 1456SOL    HW1 5267   6.607   6.185   6.307
 1456SOL    HW2 5268   6.565   6.167   6.150
 1457SOL     OW 5269   0.376   4.312   0.756
 1457SOL    HW1 5270   0.300   4.352   0.807
 1457SOL    HW2 5271   0.341   4.238   0.698
 1458SOL     OW 5272   5.653   4.934   5.645
 1458SOL    HW1 5273   5.662   5.016   5.588
 1458SOL    HW2 5274   5.565   4.935   5.693
 1459SOL     OW 5275   4.823   6.865   5.826
 1459SOL    HW1 5276   4.883   6.786   5.815
 1459SOL    HW2 5277   4.808   6.909   5.737
 1460SOL     OW 5278   1.809   6.430   5.462
 1460SOL    HW1 5279   1.901   6.393   5.448
 1460SOL    HW2 5280   1.750   6.404   5.385
 1461SOL     OW 5281   0.507   3.696   3.036
 1461SOL    HW1 5282   0.488   3.777   2.981
 1461SOL    HW2 5283   0.604   3.694   3.059
 1462SOL     OW 5284   1.120   0.683   6.971
 1462SOL    HW1 5285   1.069   0.705   6.888
 1462SOL    HW2 5286   1.140   0.768   7.021
 1463SOL     OW 5287   1.729   5.298   6.549
 1463SOL    HW1 5288   1.712   5.330   6.641
 1463SOL    HW2 5289   1.653   5.323   6.490
 1464SOL     OW 5290   6.481   4.245   3.766
 1464SOL    HW1 5291   6.493   4.315   3.836
 1464SOL    HW2 5292   6.515   4.157   3.801
 1465SOL     OW 5293   1.996   1.614   3.749
 1465SOL    HW1 5294   1.915   1.667   3.774
 1465SOL    HW2 5295   1.993   1.525   3.795
 1466SOL     OW 5296   3.760   2.459   1.680
 1466SOL    HW1 5297   3.710   2.546   1.690
 1466SOL    HW2 5298   3.722   2.391   1.742
 1467SOL     OW 5299   1.340   1.147   4.124
 1467SOL    HW1 5300   1.378   1.182   4.210
 1467SOL    HW2 5301   1.415   1.130   4.060
 1468SOL     OW 5302   2.822   5.769   1.751
 1468SOL    HW1 5303   2.829   5.670   1.766
 1468SOL    HW2 5304   2.746   5.788   1.689
 1469SOL     OW 5305   6.613   6.456   3.442
 1469SOL    HW1 5306   6.682   6.485   3.375
 1469SOL    HW2 5307   6.527   6.505   3.425
 1470SOL     OW 5308   0.139   2.826   1.150
 1470SOL    HW1 5309   0.174   2.737   1.123
 1470SOL    HW2 5310   0.075   2.816   1.227
 1471SOL     OW 5311   6.927   0.135   0.548
 1471SOL    HW1 5312   6.960   0.143   0.454
 1471SOL    HW2 5313   6.870   0.054   0.557
 1472SOL     OW 5314   2.718   6.478   6.469
 1472SOL    HW1 5315   2.776   6.401   6.492
 1472SOL    HW2 5316   2.680   6.518   6.553
 1473SOL     OW 5317   3.393   4.816   5.169
 1473SOL    HW1 5318   3.353   4.788   5.082
 1473SOL    HW2 5319   3.328   4.799   5.243
 1474SOL     OW 5320   4.403   5.054   1.750
 1474SOL    HW1 5321   4.389   5.041   1.652
 1474SOL    HW2 5322   4.328   5.110   1.787
 1475SOL     OW 5323   5.233   1.504   0.251
 1475SOL    HW1 5324   5.287   1.437   0.301
 1475SOL    HW2 5325   5.286   1.539   0.174
 1476SOL     OW 5326   3.174   1.441   1.267
 1476SOL    HW1 5327   3.247   1.396   1.217
 1476SOL    HW2 5328   3.212   1.491   1.345
 1477SOL     OW 5329   4.419   6.870   0.659
 1477SOL    HW1 5330   4.320   6.859   0.661
 1477SOL    HW2 5331   4.446   6.906   0.569
 1478SOL     OW 5332   5.355   6.490   4.902
 1478SOL    HW1 5333   5.338   6.576   4.854
 1478SOL    HW2 5334   5.423   6.504   4.973
 1479SOL     OW 5335   4.019   3.917   2.298
 1479SOL    HW1 5336   4.106   3.869   2.309
 1479SOL    HW2 5337   3.995   3.920   2.200
 1480SOL     OW 5338   2.544   0.840   6.347
 1480SOL    HW1 5339   2.515   0.809   6.257
 1480SOL    HW2 5340   2.598   0.924   6.338
 1481SOL     OW 5341   5.347   2.778   5.413
 1481SOL    HW1 5342   5.369   2.711   5.342
 1481SOL    HW2 5343   5.329   2.867   5.371
 1482SOL     OW 5344   4.526   0.524   0.879
 1482SOL    HW1 5345   4.462   0.502   0.952
 1482SOL    HW2 5346   4.615   0.482   0.898
 1483SOL     OW 5347   4.757   1.858   5.511
 1483SOL    HW1 5348   4.663   1.890   5.503
 1483SOL    HW2 5349   4.757   1.765   5.547
 1484SOL     OW 5350   3.243   4.900   4.921
 1484SOL    HW1 5351   3.213   4.872   4.830
 1484SOL    HW2 5352   3.167   4.891   4.985
 1485SOL     OW 5353   4.927   1.073   3.474
 1485SOL    HW1 5354   4.944   1.149   3.411
 1485SOL    HW2 5355   4.940   0.987   3.426
 1486SOL     OW 5356   4.928   6.796   3.813
 1486SOL    HW1 5357   4.897   6.702   3.824
 1486SOL    HW2 5358   5.027   6.800   3.824
 1487SOL     OW 5359   6.991   0.864   0.208
 1487SOL    HW1 5360   0.013   0.951   0.220
 1487SOL    HW2 5361   6.915   0.859   0.273
 1488SOL     OW 5362   6.248   0.465   2.453
 1488SOL    HW1 5363   6.231   0.563   2.443
 1488SOL    HW2 5364   6.207   0.416   2.376
 1489SOL     OW 5365   4.291   4.530   6.839
 1489SOL    HW1 5366   4.371   4.471   6.842
 1489SOL    HW2 5367   4.283   4.573   6.749
 1490SOL     OW 5368   0.252   2.339   1.799
 1490SOL    HW1 5369   0.288   2.272   1.733
 1490SOL    HW2 5370   0.314   2.346   1.876
 1491SOL     OW 5371   6.496   3.438   1.926
 1491SOL    HW1 5372   6.481   3.341   1.946
 1491SOL    HW2 5373   6.457   3.494   1.999
 1492SOL     OW 5374   6.908   0.537   2.345
 1492SOL    HW1 5375   7.003   0.560   2.362
 1492SOL    HW2 5376   6.849   0.610   2.377
 1493SOL     OW 5377   4.283   1.293   5.576
 1493SOL    HW1 5378   4.184   1.285   5.563
 1493SOL    HW2 5379   4.316   1.212   5.626
 1494SOL     OW 5380   5.442   2.418   5.956
 1494SOL    HW1 5381   5.411   2.502   5.999
 1494SOL    HW2 5382   5.491   2.439   5.872
 1495SOL     OW 5383   6.063   3.606   3.798
 1495SOL    HW1 5384   6.034   3.546   3.872
 1495SOL    HW2 5385   5.985   3.629   3.740
 1496SOL     OW 5386   0.184   6.484   0.176
 1496SOL    HW1 5387   0.178   6.584   0.165
 1496SOL    HW2 5388   0.233   6.444   0.099
 1497SOL     OW 5389   5.221   1.973   3.231
 1497SOL    HW1 5390   5.218   1.945   3.135
 1497SOL    HW2 5391   5.198   1.895   3.289
 1498SOL     OW 5392   2.815   4.471   1.357
 1498SOL    HW1 5393   2.806   4.451   1.455
 1498SOL    HW2 5394   2.912   4.484   1.334
 1499SOL     OW 5395   0.072   3.921   5.942
 1499SOL    HW1 5396   0.028   3.835   5.968
 1499SOL    HW2 5397   0.011   3.973   5.882
 1500SOL     OW 5398   0.818   5.860   0.542
 1500SOL    HW1 5399   0.888   5.793   0.568
 1500SOL    HW2 5400   0.768   5.826   0.463
 1501SOL     OW 5401   6.054   1.912   6.422
 1501SOL    HW1 5402   6.094   2.000   6.449
 1501SOL    HW2 5403   6.097   1.880   6.338
 1502SOL     OW 5404   7.001   0.919   5.913
 1502SOL    HW1 5405   6.902   0.904   5.924
 1502SOL    HW2 5406   7.016   1.005   5.864
 1503SOL     OW 5407   0.522   3.866   2.212
 1503SOL    HW1 5408   0.517   3.785   2.271
 1503SOL    HW2 5409   0.542   3.947   2.267
 1504SOL     OW 5410   0.497   7.022   4.077
 1504SOL    HW1 5411   0.590   0.022   4.106
 1504SOL    HW2 5412   0.460   0.069   4.019
 1505SOL     OW 5413   5.688   6.298   5.258
 1505SOL    HW1 5414   5.769   6.297   5.317
 1505SOL    HW2 5415   5.610   6.260   5.307
 1506SOL     OW 5416   1.539   0.596   1.182
 1506SOL    HW1 5417   1.514   0.661   1.254
 1506SOL    HW2 5418   1.484   0.615   1.100
 1507SOL     OW 5419   1.201   1.838   4.384
 1507SOL    HW1 5420   1.146   1.820   4.303
 1507SOL    HW2 5421   1.297   1.813   4.365
 1508SOL     OW 5422   0.699   1.466   0.403
 1508SOL    HW1 5423   0.701   1.391   0.470
 1508SOL    HW2 5424   0.687   1.428   0.311
 1509SOL     OW 5425   5.087   1.372   4.866
 1509SOL    HW1 5426   5.185   1.368   4.881
 1509SOL    HW2 5427   5.055   1.286   4.826
 1510SOL     OW 5428   4.107   6.859   3.933
 1510SOL    HW1 5429   4.140   6.783   3.877
 1510SOL    HW2 5430   4.180   6.927   3.944
 1511SOL     OW 5431   3.001   3.984   4.536
 1511SOL    HW1 5432   3.027   3.975   4.633
 1511SOL    HW2 5433   2.945   4.065   4.523
 1512SOL     OW 5434   6.031   5.754   0.939
 1512SOL    HW1 5435   6.088   5.830   0.909
 1512SOL    HW2 5436   6.068   5.717   1.024
 1513SOL     OW 5437   3.241   6.868   5.901
 1513SOL    HW1 5438   3.185   6.837   5.824
 1513SOL    HW2 5439   3.210   6.824   5.985
 1514SOL     OW 5440   3.464   2.300   5.697
 1514SOL    HW1 5441   3.432   2.391   5.671
 1514SOL    HW2 5442   3.426   2.232   5.635
 1515SOL     OW 5443   6.717   1.746   2.863
 1515SOL    HW1 5444   6.694   1.692   2.944
 1515SOL    HW2 5445   6.751   1.835   2.891
 1516SOL     OW 5446   6.253   6.075   4.565
 1516SOL    HW1 5447   6.232   5.977   4.570
 1516SOL    HW2 5448   6.199   6.117   4.492
 1517SOL     OW 5449   3.496   6.578   3.368
 1517SOL    HW1 5450   3.454   6.487   3.373
 1517SOL    HW2 5451   3.592   6.569   3.344
 1518SOL     OW 5452   6.641   2.557   6.909
 1518SOL    HW1 5453   6.695   2.596   6.984
 1518SOL    HW2 5454   6.587   2.629   6.866
 1519SOL     OW 5455   6.920   4.978   0.604
 1519SOL    HW1 5456   6.965   4.950   0.689
 1519SOL    HW2 5457   6.907   5.077   0.604
 1520SOL     OW 5458   0.959   4.853   1.303
 1520SOL    HW1 5459   0.929   4.864   1.398
 1520SOL    HW2 5460   0.910   4.776   1.262
 1521SOL     OW 5461   2.901   4.717   0.033
 1521SOL    HW1 5462   2.821   4.735   7.000
 1521SOL    HW2 5463   2.894   4.772   0.116
 1522SOL     OW 5464   5.244   5.697   4.885
 1522SOL    HW1 5465   5.156   5.690   4.839
 1522SOL    HW2 5466   5.242   5.643   4.970
 1523SOL     OW 5467   3.510   6.878   6.521
 1523SOL    HW1 5468   3.487   6.852   6.427
 1523SOL    HW2 5469   3.427   6.901   6.570
 1524SOL     OW 5470   2.632   2.449   3.197
 1524SOL    HW1 5471   2.680   2.418   3.278
 1524SOL    HW2 5472   2.628   2.549   3.197
 1525SOL     OW 5473   6.246   2.877   0.756
 1525SOL    HW1 5474   6.295   2.962   0.772
 1525SOL    HW2 5475   6.236   2.862   0.657
 1526SOL     OW 5476   0.720   1.858   6.931
 1526SOL    HW1 5477   0.818   1.851   6.916
 1526SOL    HW2 5478   0.701   1.934   6.994
 1527SOL     OW 5479   3.683   1.317   5.155
 1527SOL    HW1 5480   3.752   1.389   5.154
 1527SOL    HW2 5481   3.604   1.345   5.100
 1528SOL     OW 5482   4.609   4.084   0.889
 1528SOL    HW1 5483   4.532   4.145   0.866
 1528SOL    HW2 5484   4.693   4.137   0.891
 1529SOL     OW 5485   5.324   1.292   6.991
 1529SOL    HW1 5486   5.234   1.314   6.955
 1529SOL    HW2 5487   5.378   1.376   7.001
 1530SOL     OW 5488   3.294   0.311   1.789
 1530SOL    HW1 5489   3.261   0.249   1.860
 1530SOL    HW2 5490   3.391   0.330   1.804
 1531SOL     OW 5491   3.988   0.269   3.777
 1531SOL    HW1 5492   3.934   0.194   3.815
 1531SOL    HW2 5493   4.005   0.337   3.848
 1532SOL     OW 5494   3.684   4.657   5.829
 1532SOL    HW1 5495   3.626   4.579   5.852
 1532SOL    HW2 5496   3.641   4.709   5.755
 1533SOL     OW 5497   5.668   5.880   0.855
 1533SOL    HW1 5498   5.693   5.784   0.863
 1533SOL    HW2 5499   5.690   5.927   0.940
 1534SOL     OW 5500   3.578   5.720   0.199
 1534SOL    HW1 5501   3.532   5.730   0.287
 1534SOL    HW2 5502   3.559   5.800   0.142
 1535SOL     OW 5503   5.783   6.861   4.799
 1535SOL    HW1 5504   5.726   6.787   4.835
 1535SOL    HW2 5505   5.824   6.831   4.712
 1536SOL     OW 5506   3.992   4.546   6.829
 1536SOL    HW1 5507   3.922   4.474   6.821
 1536SOL    HW2 5508   4.079   4.511   6.796
 1537SOL     OW 5509   3.640   5.229   3.742
 1537SOL    HW1 5510   3.714   5.266   3.687
 1537SOL    HW2 5511   3.631   5.131   3.725
 1538SOL     OW 5512   3.648   1.704   0.032
 1538SOL    HW1 5513   3.709   1.706   0.111
 1538SOL    HW2 5514   3.615   1.611   0.017
 1539SOL     OW 5515   5.003   3.032   1.757
 1539SOL    HW1 5516   5.005   2.968   1.680
 1539SOL    HW2 5517   4.942   2.997   1.828
 1540SOL     OW 5518   1.305   7.011   5.166
 1540SOL    HW1 5519   1.223   6.955   5.154
 1540SOL    HW2 5520   1.309   0.054   5.093
 1541SOL     OW 5521   4.018   3.326   4.621
 1541SOL    HW1 5522   4.118   3.324   4.631
 1541SOL    HW2 5523   3.984   3.416   4.648
 1542SOL     OW 5524   6.604   6.551   1.994
 1542SOL    HW1 5525   6.567   6.561   1.902
 1542SOL    HW2 5526   6.588   6.459   2.028
 1543SOL     OW 5527   3.523   5.678   6.232
 1543SOL    HW1 5528   3.496   5.763   6.186
 1543SOL    HW2 5529   3.508   5.600   6.171
 1544SOL     OW 5530   3.644   3.728   4.060
 1544SOL    HW1 5531   3.643   3.766   3.967
 1544SOL    HW2 5532   3.568   3.664   4.070
 1545SOL     OW 5533   6.087   0.401   1.635
 1545SOL    HW1 5534   6.137   0.380   1.551
 1545SOL    HW2 5535   6.148   0.443   1.701
 1546SOL     OW 5536   5.219   7.003   5.827
 1546SOL    HW1 5537   5.150   6.966   5.889
 1546SOL    HW2 5538   5.310   6.977   5.859
 1547SOL     OW 5539   1.454   4.299   0.820
 1547SOL    HW1 5540   1.505   4.300   0.906
 1547SOL    HW2 5541   1.373   4.241   0.829
 1548SOL     OW 5542   6.502   3.445   7.013
 1548SOL    HW1 5543   6.515   3.437   0.087
 1548SOL    HW2 5544   6.404   3.454   6.994
 1549SOL     OW 5545   3.943   1.132   4.431
 1549SOL    HW1 5546   3.957   1.231   4.429
 1549SOL    HW2 5547   3.989   1.094   4.511
 1550SOL     OW 5548   3.677   2.947   2.626
 1550SOL    HW1 5549   3.644   3.036   2.594
 1550SOL    HW2 5550   3.609   2.907   2.688
 1551SOL     OW 5551   1.092   4.984   0.268
 1551SOL    HW1 5552   1.172   4.926   0.250
 1551SOL    HW2 5553   1.083   5.051   0.195
 1552SOL     OW 5554   2.791   4.566   0.868
 1552SOL    HW1 5555   2.832   4.509   0.940
 1552SOL    HW2 5556   2.741   4.507   0.804
 1553SOL     OW 5557   0.245   1.408   6.413
 1553SOL    HW1 5558   0.177   1.375   6.348
 1553SOL    HW2 5559   0.209   1.489   6.460
 1554SOL     OW 5560   2.933   1.812   3.721
 1554SOL    HW1 5561   2.910   1.791   3.816
 1554SOL    HW2 5562   2.954   1.910   3.713
 1555SOL     OW 5563   5.724   2.799   5.930
 1555SOL    HW1 5564   5.755   2.848   5.849
 1555SOL    HW2 5565   5.629   2.771   5.919
 1556SOL     OW 5566   2.174   1.034   6.269
 1556SOL    HW1 5567   2.105   1.027   6.341
 1556SOL    HW2 5568   2.264   1.017   6.308
 1557SOL     OW 5569   1.834   3.654   6.035
 1557SOL    HW1 5570   1.893   3.724   6.076
 1557SOL    HW2 5571   1.787   3.693   5.956
 1558SOL     OW 5572   6.371   0.677   4.546
 1558SOL    HW1 5573   6.416   0.648   4.631
 1558SOL    HW2 5574   6.356   0.597   4.488
 1559SOL     OW 5575   0.890   2.626   6.650
 1559SOL    HW1 5576   0.946   2.676   6.584
 1559SOL    HW2 5577   0.937   2.542   6.677
 1560SOL     OW 5578   0.302   1.178   6.586
 1560SOL    HW1 5579   0.382   1.173   6.646
 1560SOL    HW2 5580   0.305   1.262   6.533
 1561SOL     OW 5581   4.615   5.981   3.123
 1561SOL    HW1 5582   4.536   5.920   3.122
 1561SOL    HW2 5583   4.658   5.979   3.213
 1562SOL     OW 5584   4.026   6.728   1.930
 1562SOL    HW1 5585   4.001   6.765   2.020
 1562SOL    HW2 5586   4.081   6.646   1.942
 1563SOL     OW 5587   3.628   0.728   6.185
 1563SOL    HW1 5588   3.560   0.732   6.111
 1563SOL    HW2 5589   3.624   0.639   6.229
 1564SOL     OW 5590   1.605   0.583   2.574
 1564SOL    HW1 5591   1.616   0.524   2.654
 1564SOL    HW2 5592   1.682   0.569   2.512
 1565SOL     OW 5593   4.832   3.934   2.239
 1565SOL    HW1 5594   4.810   4.029   2.216
 1565SOL    HW2 5595   4.864   3.887   2.156
 1566SOL     OW 5596   5.406   3.815   3.531
 1566SOL    HW1 5597   5.308   3.806   3.510
 1566SOL    HW2 5598   5.418   3.887   3.599
 1567SOL     OW 5599   5.809   6.328   6.525
 1567SOL    HW1 5600   5.787   6.294   6.617
 1567SOL    HW2 5601   5.860   6.413   6.532
 1568SOL     OW 5602   1.090   0.533   0.333
 1568SOL    HW1 5603   1.170   0.473   0.337
 1568SOL    HW2 5604   1.024   0.506   0.402
 1569SOL     OW 5605   4.129   6.331   4.029
 1569SOL    HW1 5606   4.107   6.321   3.932
 1569SOL    HW2 5607   4.167   6.245   4.064
 1570SOL     OW 5608   2.678   1.416   1.761
 1570SOL    HW1 5609   2.594   1.378   1.801
 1570SOL    HW2 5610   2.707   1.358   1.684
 1571SOL     OW 5611   6.051   2.869   1.474
 1571SOL    HW1 5612   6.063   2.841   1.379
 1571SOL    HW2 5613   5.957   2.852   1.503
 1572SOL     OW 5614   0.512   0.616   2.389
 1572SOL    HW1 5615   0.549   0.706   2.370
 1572SOL    HW2 5616   0.500   0.566   2.303
 1573SOL     OW 5617   5.165   6.692   1.911
 1573SOL    HW1 5618   5.101   6.687   1.834
 1573SOL    HW2 5619   5.251   6.648   1.887
 1574SOL     OW 5620   0.336   1.942   1.768
 1574SOL    HW1 5621   0.421   1.891   1.758
 1574SOL    HW2 5622   0.342   2.002   1.848
 1575SOL     OW 5623   2.311   2.246   0.540
 1575SOL    HW1 5624   2.359   2.159   0.528
 1575SOL    HW2 5625   2.304   2.267   0.638
 1576SOL     OW 5626   5.254   6.188   3.929
 1576SOL    HW1 5627   5.288   6.247   4.002
 1576SOL    HW2 5628   5.181   6.130   3.964
 1577SOL     OW 5629   2.304   1.294   5.415
 1577SOL    HW1 5630   2.224   1.354   5.419
 1577SOL    HW2 5631   2.344   1.286   5.507
 1578SOL     OW 5632   5.725   3.821   5.049
 1578SOL    HW1 5633   5.657   3.890   5.073
 1578SOL    HW2 5634   5.804   3.829   5.110
 1579SOL     OW 5635   0.720   1.295   3.036
 1579SOL    HW1 5636   0.651   1.340   3.093
 1579SOL    HW2 5637   0.690   1.295   2.941
 1580SOL     OW 5638   2.752   4.202   5.335
 1580SOL    HW1 5639   2.729   4.285   5.283
 1580SOL    HW2 5640   2.728   4.216   5.431
 1581SOL     OW 5641   6.539   4.165   4.052
 1581SOL    HW1 5642   6.582   4.075   4.043
 1581SOL    HW2 5643   6.443   4.159   4.028
 1582SOL     OW 5644   0.312   4.835   4.580
 1582SOL    HW1 5645   0.270   4.826   4.671
 1582SOL    HW2 5646   0.379   4.910   4.582
 1583SOL     OW 5647   2.070   3.117   3.771
 1583SOL    HW1 5648   2.129   3.119   3.690
 1583SOL    HW2 5649   2.091   3.036   3.825
 1584SOL     OW 5650   2.476   6.656   5.087
 1584SOL    HW1 5651   2.381   6.676   5.064
 1584SOL    HW2 5652   2.494   6.683   5.182
 1585SOL     OW 5653   5.419   2.250   3.187
 1585SOL    HW1 5654   5.368   2.322   3.140
 1585SOL    HW2 5655   5.375   2.162   3.172
 1586SOL     OW 5656   3.850   3.700   2.360
 1586SOL    HW1 5657   3.887   3.792   2.351
 1586SOL    HW2 5658   3.911   3.644   2.416
 1587SOL     OW 5659   3.319   6.149   6.822
 1587SOL    HW1 5660   3.247   6.080   6.827
 1587SOL    HW2 5661   3.322   6.200   6.908
 1588SOL     OW 5662   5.296   1.205   2.780
 1588SOL    HW1 5663   5.381   1.158   2.760
 1588SOL    HW2 5664   5.245   1.219   2.695
 1589SOL     OW 5665   5.431   4.500   3.693
 1589SOL    HW1 5666   5.455   4.538   3.782
 1589SOL    HW2 5667   5.393   4.572   3.635
 1590SOL     OW 5668   1.717   6.692   0.080
 1590SOL    HW1 5669   1.675   6.773   0.040
 1590SOL    HW2 5670   1.798   6.719   0.132
 1591SOL     OW 5671   1.229   5.044   2.234
 1591SOL    HW1 5672   1.226   5.104   2.154
 1591SOL    HW2 5673   1.302   5.073   2.295
 1592SOL     OW 5674   3.292   3.325   2.650
 1592SOL    HW1 5675   3.255   3.395   2.589
 1592SOL    HW2 5676   3.343   3.258   2.597
 1593SOL     OW 5677   0.388   6.556   4.435
 1593SOL    HW1 5678   0.289   6.547   4.436
 1593SOL    HW2 5679   0.430   6.469   4.408
 1594SOL     OW 5680   6.583   5.351   2.654
 1594SOL    HW1 5681   6.519   5.387   2.722
 1594SOL    HW2 5682   6.666   5.319   2.700
 1595SOL     OW 5683   0.433   4.669   6.685
 1595SOL    HW1 5684   0.452   4.571   6.680
 1595SOL    HW2 5685   0.388   4.698   6.600
 1596SOL     OW 5686   1.851   5.024   5.773
 1596SOL    HW1 5687   1.893   5.060   5.690
 1596SOL    HW2 5688   1.922   5.002   5.839
 1597SOL     OW 5689   1.963   6.404   2.161
 1597SOL    HW1 5690   1.897   6.430   2.232
 1597SOL    HW2 5691   1.921   6.414   2.071
 1598SOL     OW 5692   0.741   4.259   0.897
 1598SOL    HW1 5693   0.712   4.188   0.962
 1598SOL    HW2 5694   0.678   4.336   0.903
 1599SOL     OW 5695   3.689   4.291   6.538
 1599SOL    HW1 5696   3.639   4.332   6.462
 1599SOL    HW2 5697   3.681   4.191   6.534
 1600SOL     OW 5698   5.226   1.491   5.279
 1600SOL    HW1 5699   5.177   1.406   5.300
 1600SOL    HW2 5700   5.182   1.567   5.328
 1601SOL     OW 5701   1.624   4.784   5.165
 1601SOL    HW1 5702   1.530   4.817   5.171
 1601SOL    HW2 5703   1.647   4.766   5.070
 1602SOL     OW 5704   1.382   6.146   3.470
 1602SOL    HW1 5705   1.382   6.246   3.472
 1602SOL    HW2 5706   1.368   6.115   3.376
 1603SOL     OW 5707   1.016   6.644   2.186
 1603SOL    HW1 5708   0.931   6.677   2.226
 1603SOL    HW2 5709   1.031   6.687   2.097
 1604SOL     OW 5710   6.587   5.487   6.783
 1604SOL    HW1 5711   6.502   5.534   6.760
 1604SOL    HW2 5712   6.655   5.554   6.813
 1605SOL     OW 5713   6.358   0.273   2.615
 1605SOL    HW1 5714   6.369   0.304   2.710
 1605SOL    HW2 5715   6.315   0.345   2.561
 1606SOL     OW 5716   4.648   6.926   5.331
 1606SOL    HW1 5717   4.678   6.860   5.262
 1606SOL    HW2 5718   4.605   6.877   5.407
 1607SOL     OW 5719   4.070   2.297   1.105
 1607SOL    HW1 5720   4.059   2.261   1.197
 1607SOL    HW2 5721   4.137   2.242   1.055
 1608SOL     OW 5722   2.553   6.897   0.355
 1608SOL    HW1 5723   2.616   6.937   0.288
 1608SOL    HW2 5724   2.538   6.800   0.332
 1609SOL     OW 5725   5.785   2.234   5.862
 1609SOL    HW1 5726   5.712   2.251   5.929
 1609SOL    HW2 5727   5.793   2.312   5.801
 1610SOL     OW 5728   5.939   6.029   4.704
 1610SOL    HW1 5729   5.842   6.050   4.716
 1610SOL    HW2 5730   5.951   5.930   4.694
 1611SOL     OW 5731   3.934   3.038   2.546
 1611SOL    HW1 5732   3.950   2.968   2.476
 1611SOL    HW2 5733   3.857   3.010   2.604
 1612SOL     OW 5734   2.403   1.653   4.935
 1612SOL    HW1 5735   2.357   1.674   5.022
 1612SOL    HW2 5736   2.444   1.737   4.898
 1613SOL     OW 5737   1.750   5.992   0.644
 1613SOL    HW1 5738   1.774   5.927   0.716
 1613SOL    HW2 5739   1.832   6.039   0.612
 1614SOL     OW 5740   5.959   2.552   6.671
 1614SOL    HW1 5741   5.990   2.549   6.766
 1614SOL    HW2 5742   5.878   2.610   6.664
 1615SOL     OW 5743   0.175   4.387   6.459
 1615SOL    HW1 5744   0.098   4.449   6.445
 1615SOL    HW2 5745   0.191   4.375   6.557
 1616SOL     OW 5746   4.158   1.938   6.141
 1616SOL    HW1 5747   4.138   1.911   6.235
 1616SOL    HW2 5748   4.086   1.905   6.081
 1617SOL     OW 5749   5.998   0.720   2.564
 1617SOL    HW1 5750   5.964   0.638   2.519
 1617SOL    HW2 5751   5.932   0.794   2.554
 1618SOL     OW 5752   6.723   3.546   1.307
 1618SOL    HW1 5753   6.780   3.488   1.366
 1618SOL    HW2 5754   6.629   3.511   1.308
 1619SOL     OW 5755   1.213   3.936   3.975
 1619SOL    HW1 5756   1.231   4.019   4.028
 1619SOL    HW2 5757   1.243   3.856   4.028
 1620SOL     OW 5758   2.088   5.863   1.261
 1620SOL    HW1 5759   2.173   5.828   1.301
 1620SOL    HW2 5760   2.010   5.832   1.315
 1621SOL     OW 5761   0.759   0.491   0.917
 1621SOL    HW1 5762   0.682   0.434   0.946
 1621SOL    HW2 5763   0.780   0.473   0.821
 1622SOL     OW 5764   1.785   1.903   4.437
 1622SOL    HW1 5765   1.820   1.902   4.344
 1622SOL    HW2 5766   1.837   1.839   4.493
 1623SOL     OW 5767   2.279   2.707   6.220
 1623SOL    HW1 5768   2.234   2.687   6.132
 1623SOL    HW2 5769   2.248   2.641   6.289
 1624SOL     OW 5770   3.423   1.250   6.777
 1624SOL    HW1 5771   3.456   1.178   6.839
 1624SOL    HW2 5772   3.347   1.215   6.723
 1625SOL     OW 5773   0.702   5.130   2.294
 1625SOL    HW1 5774   0.632   5.079   2.243
 1625SOL    HW2 5775   0.781   5.146   2.234
 1626SOL     OW 5776   2.210   2.966   6.324
 1626SOL    HW1 5777   2.275   3.009   6.385
 1626SOL    HW2 5778   2.210   2.867   6.339
 1627SOL     OW 5779   6.375   2.161   3.654
 1627SOL    HW1 5780   6.279   2.170   3.627
 1627SOL    HW2 5781   6.399   2.235   3.717
 1628SOL     OW 5782   3.172   4.918   1.068
 1628SOL    HW1 5783   3.094   4.958   1.019
 1628SOL    HW2 5784   3.173   4.950   1.162
 1629SOL     OW 5785   3.481   2.104   4.501
 1629SOL    HW1 5786   3.398   2.051   4.480
 1629SOL    HW2 5787   3.512   2.150   4.418
 1630SOL     OW 5788   0.933   5.157   5.803
 1630SOL    HW1 5789   0.933   5.227   5.874
 1630SOL    HW2 5790   0.842   5.152   5.762
 1631SOL     OW 5791   0.369   0.404   5.634
 1631SOL    HW1 5792   0.340   0.476   5.697
 1631SOL    HW2 5793   0.316   0.411   5.550
 1632SOL     OW 5794   0.080   1.149   0.201
 1632SOL    HW1 5795   0.009   1.172   0.268
 1632SOL    HW2 5796   0.147   1.222   0.197
 1633SOL     OW 5797   5.857   1.769   3.072
 1633SOL    HW1 5798   5.935   1.824   3.040
 1633SOL    HW2 5799   5.846   1.782   3.171
 1634SOL     OW 5800   3.117   6.035   6.286
 1634SOL    HW1 5801   3.161   6.121   6.313
 1634SOL    HW2 5802   3.169   5.958   6.323
 1635SOL     OW 5803   0.340   5.333   4.781
 1635SOL    HW1 5804   0.422   5.277   4.769
 1635SOL    HW2 5805   0.359   5.426   4.751
 1636SOL     OW 5806   2.604   5.626   1.580
 1636SOL    HW1 5807   2.544   5.550   1.606
 1636SOL    HW2 5808   2.551   5.711   1.578
 1637SOL     OW 5809   6.959   3.025   2.555
 1637SOL    HW1 5810   0.019   3.000   2.602
 1637SOL    HW2 5811   6.961   2.988   2.461
 1638SOL     OW 5812   0.386   3.412   3.971
 1638SOL    HW1 5813   0.349   3.500   4.000
 1638SOL    HW2 5814   0.359   3.395   3.876
 1639SOL     OW 5815   4.833   5.652   2.892
 1639SOL    HW1 5816   4.737   5.675   2.874
 1639SOL    HW2 5817   4.886   5.662   2.808
 1640SOL     OW 5818   6.451   1.576   0.348
 1640SOL    HW1 5819   6.402   1.490   0.364
 1640SOL    HW2 5820   6.440   1.603   0.252
 1641SOL     OW 5821   6.144   3.000   4.207
 1641SOL    HW1 5822   6.234   2.995   4.163
 1641SOL    HW2 5823   6.100   2.910   4.201
 1642SOL     OW 5824   6.984   2.473   6.961
 1642SOL    HW1 5825   0.042   2.490   6.906
 1642SOL    HW2 5826   6.944   2.386   6.932
 1643SOL     OW 5827   3.343   6.555   5.232
 1643SOL    HW1 5828   3.289   6.471   5.241
 1643SOL    HW2 5829   3.356   6.577   5.135
 1644SOL     OW 5830   3.277   2.006   1.427
 1644SOL    HW1 5831   3.329   1.964   1.352
 1644SOL    HW2 5832   3.271   2.105   1.412
 1645SOL     OW 5833   2.918   5.907   5.977
 1645SOL    HW1 5834   2.852   5.981   5.969
 1645SOL    HW2 5835   2.909   5.864   6.067
 1646SOL     OW 5836   1.551   4.861   0.811
 1646SOL    HW1 5837   1.586   4.768   0.798
 1646SOL    HW2 5838   1.592   4.922   0.743
 1647SOL     OW 5839   5.884   2.894   3.750
 1647SOL    HW1 5840   5.814   2.919   3.683
 1647SOL    HW2 5841   5.860   2.807   3.792
 1648SOL     OW 5842   4.636   0.423   1.837
 1648SOL    HW1 5843   4.662   0.518   1.819
 1648SOL    HW2 5844   4.716   0.364   1.824
 1649SOL     OW 5845   2.881   0.522   3.222
 1649SOL    HW1 5846   2.876   0.518   3.122
 1649SOL    HW2 5847   2.974   0.544   3.250
 1650SOL     OW 5848   2.706   0.668   4.273
 1650SOL    HW1 5849   2.675   0.578   4.243
 1650SOL    HW2 5850   2.778   0.701   4.212
 1651SOL     OW 5851   0.025   0.603   0.163
 1651SOL    HW1 5852   6.989   0.546   0.108
 1651SOL    HW2 5853   7.007   0.692   0.179
 1652SOL     OW 5854   3.209   2.274   1.451
 1652SOL    HW1 5855   3.136   2.278   1.518
 1652SOL    HW2 5856   3.205   2.356   1.393
 1653SOL     OW 5857   6.850   5.531   0.297
 1653SOL    HW1 5858   6.832   5.452   0.356
 1653SOL    HW2 5859   6.827   5.615   0.347
 1654SOL     OW 5860   0.047   3.226   2.791
 1654SOL    HW1 5861   0.005   3.287   2.858
 1654SOL    HW2 5862   7.014   3.222   2.709
 1655SOL     OW 5863   5.451   4.354   6.246
 1655SOL    HW1 5864   5.425   4.422   6.177
 1655SOL    HW2 5865   5.502   4.399   6.320
 1656SOL     OW 5866   1.038   4.772   3.379
 1656SOL    HW1 5867   1.002   4.681   3.357
 1656SOL    HW2 5868   1.117   4.792   3.320
 1657SOL     OW 5869   1.701   1.009   5.787
 1657SOL    HW1 5870   1.694   1.084   5.853
 1657SOL    HW2 5871   1.759   0.937   5.826
 1658SOL     OW 5872   5.724   6.246   2.509
 1658SOL    HW1 5873   5.785   6.323   2.530
 1658SOL    HW2 5874   5.718   6.234   2.410
 1659SOL     OW 5875   3.536   2.241   6.388
 1659SOL    HW1 5876   3.628   2.277   6.375
 1659SOL    HW2 5877   3.518   2.170   6.319
 1660SOL     OW 5878   0.928   5.771   3.688
 1660SOL    HW1 5879   0.934   5.760   3.787
 1660SOL    HW2 5880   0.952   5.685   3.644
 1661SOL     OW 5881   3.142   1.611   2.433
 1661SOL    HW1 5882   3.097   1.700   2.447
 1661SOL    HW2 5883   3.089   1.539   2.478
 1662SOL     OW 5884   0.132   1.794   3.011
 1662SOL    HW1 5885   0.147   1.706   2.966
 1662SOL    HW2 5886   0.036   1.821   3.000
 1663SOL     OW 5887   2.858   6.670   2.970
 1663SOL    HW1 5888   2.806   6.602   2.918
 1663SOL    HW2 5889   2.914   6.724   2.907
 1664SOL     OW 5890   1.774   6.934   4.300
 1664SOL    HW1 5891   1.839   6.902   4.369
 1664SOL    HW2 5892   1.685   6.891   4.315
 1665SOL     OW 5893   0.676   1.655   2.506
 1665SOL    HW1 5894   0.687   1.746   2.465
 1665SOL    HW2 5895   0.654   1.589   2.434
 1666SOL     OW 5896   6.064   2.736   5.558
 1666SOL    HW1 5897   6.012   2.658   5.522
 1666SOL    HW2 5898   6.035   2.754   5.652
 1667SOL     OW 5899   6.411   6.676   6.092
 1667SOL    HW1 5900   6.476   6.656   6.019
 1667SOL    HW2 5901   6.401   6.595   6.150
 1668SOL     OW 5902   3.867   0.525   3.975
 1668SOL    HW1 5903   3.960   0.498   3.999
 1668SOL    HW2 5904   3.862   0.547   3.878
 1669SOL     OW 5905   5.886   0.023   6.216
 1669SOL    HW1 5906   5.936   0.019   6.129
 1669SOL    HW2 5907   5.951   0.018   6.292
 1670SOL     OW 5908   5.656   4.637   5.662
 1670SOL    HW1 5909   5.635   4.733   5.644
 1670SOL    HW2 5910   5.754   4.627   5.678
 1671SOL     OW 5911   4.561   3.570   0.510
 1671SOL    HW1 5912   4.609   3.549   0.425
 1671SOL    HW2 5913   4.519   3.487   0.546
 1672SOL     OW 5914   1.863   4.227   2.255
 1672SOL    HW1 5915   1.962   4.236   2.243
 1672SOL    HW2 5916   1.842   4.225   2.353
 1673SOL     OW 5917   6.816   3.424   4.444
 1673SOL    HW1 5918   6.747   3.382   4.502
 1673SOL    HW2 5919   6.907   3.400   4.477
 1674SOL     OW 5920   1.136   3.972   0.754
 1674SOL    HW1 5921   1.170   4.064   0.736
 1674SOL    HW2 5922   1.050   3.977   0.806
 1675SOL     OW 5923   4.657   1.174   6.657
 1675SOL    HW1 5924   4.703   1.106   6.601
 1675SOL    HW2 5925   4.611   1.240   6.598
 1676SOL     OW 5926   2.287   1.233   2.029
 1676SOL    HW1 5927   2.330   1.289   2.100
 1676SOL    HW2 5928   2.301   1.277   1.940
 1677SOL     OW 5929   5.679   1.606   5.255
 1677SOL    HW1 5930   5.706   1.701   5.236
 1677SOL    HW2 5931   5.600   1.582   5.198
 1678SOL     OW 5932   4.893   6.235   2.391
 1678SOL    HW1 5933   4.935   6.158   2.440
 1678SOL    HW2 5934   4.860   6.204   2.302
 1679SOL     OW 5935   1.145   3.062   5.749
 1679SOL    HW1 5936   1.205   2.995   5.793
 1679SOL    HW2 5937   1.067   3.081   5.808
 1680SOL     OW 5938   0.855   1.491   3.865
 1680SOL    HW1 5939   0.781   1.434   3.832
 1680SOL    HW2 5940   0.880   1.463   3.958
 1681SOL     OW 5941   6.156   5.234   1.134
 1681SOL    HW1 5942   6.239   5.238   1.191
 1681SOL    HW2 5943   6.143   5.140   1.101
 1682SOL     OW 5944   0.034   3.059   4.803
 1682SOL    HW1 5945   0.097   3.124   4.760
 1682SOL    HW2 5946   0.040   3.069   4.903
 1683SOL     OW 5947   4.768   5.232   1.091
 1683SOL    HW1 5948   4.832   5.293   1.043
 1683SOL    HW2 5949   4.815   5.148   1.117
 1684SOL     OW 5950   0.521   6.624   5.101
 1684SOL    HW1 5951   0.514   6.691   5.027
 1684SOL    HW2 5952   0.431   6.612   5.144
 1685SOL     OW 5953   1.758   1.098   0.456
 1685SOL    HW1 5954   1.814   1.135   0.530
 1685SOL    HW2 5955   1.721   1.173   0.401
 1686SOL     OW 5956   1.357   5.626   5.689
 1686SOL    HW1 5957   1.371   5.545   5.633
 1686SOL    HW2 5958   1.362   5.602   5.786
 1687SOL     OW 5959   1.579   4.561   2.585
 1687SOL    HW1 5960   1.660   4.504   2.599
 1687SOL    HW2 5961   1.586   4.607   2.496
 1688SOL     OW 5962   1.755   1.609   3.053
 1688SOL    HW1 5963   1.818   1.629   3.127
 1688SOL    HW2 5964   1.802   1.558   2.981
 1689SOL     OW 5965   3.331   1.840   2.361
 1689SOL    HW1 5966   3.246   1.826   2.310
 1689SOL    HW2 5967   3.409   1.839   2.297
 1690SOL     OW 5968   1.553   1.418   2.267
 1690SOL    HW1 5969   1.551   1.479   2.187
 1690SOL    HW2 5970   1.519   1.328   2.240
 1691SOL     OW 5971   5.272   3.040   3.232
 1691SOL    HW1 5972   5.290   3.129   3.274
 1691SOL    HW2 5973   5.188   3.046   3.177
 1692SOL     OW 5974   0.477   6.910   1.285
 1692SOL    HW1 5975   0.540   6.878   1.215
 1692SOL    HW2 5976   0.529   6.929   1.369
 1693SOL     OW 5977   2.484   2.687   3.538
 1693SOL    HW1 5978   2.395   2.660   3.575
 1693SOL    HW2 5979   2.557   2.642   3.589
 1694SOL     OW 5980   4.416   5.582   4.721
 1694SOL    HW1 5981   4.428   5.653   4.791
 1694SOL    HW2 5982   4.337   5.526   4.745
 1695SOL     OW 5983   2.906   2.770   5.405
 1695SOL    HW1 5984   2.947   2.797   5.493
 1695SOL    HW2 5985   2.933   2.677   5.383
 1696SOL     OW 5986   4.920   5.572   0.595
 1696SOL    HW1 5987   4.989   5.529   0.654
 1696SOL    HW2 5988   4.896   5.509   0.522
 1697SOL     OW 5989   1.229   7.015   1.411
 1697SOL    HW1 5990   1.278   0.075   1.427
 1697SOL    HW2 5991   1.130   0.007   1.413
 1698SOL     OW 5992   4.795   2.255   2.023
 1698SOL    HW1 5993   4.820   2.249   1.927
 1698SOL    HW2 5994   4.833   2.178   2.073
 1699SOL     OW 5995   2.697   2.990   1.008
 1699SOL    HW1 5996   2.658   2.949   0.926
 1699SOL    HW2 5997   2.628   3.044   1.056
 1700SOL     OW 5998   6.829   2.913   2.829
 1700SOL    HW1 5999   6.792   2.961   2.749
 1700SOL    HW2 6000   6.806   2.816   2.823
 1701SOL     OW 6001   6.400   2.607   4.171
 1701SOL    HW1 6002   6.376   2.524   4.121
 1701SOL    HW2 6003   6.392   2.591   4.269
 1702SOL     OW 6004   5.689   3.465   1.202
 1702SOL    HW1 6005   5.592   3.449   1.183
 1702SOL    HW2 6006   5.718   3.402   1.275
 1703SOL     OW 6007   2.312   3.768   0.953
 1703SOL    HW1 6008   2.359   3.845   0.910
 1703SOL    HW2 6009   2.289   3.791   1.047
 1704SOL     OW 6010   6.904   0.824   1.358
 1704SOL    HW1 6011   6.844   0.774   1.296
 1704SOL    HW2 6012   6.850   0.862   1.433
 1705SOL     OW 6013   3.803   2.429   1.423
 1705SOL    HW1 6014   3.774   2.429   1.519
 1705SOL    HW2 6015   3.902   2.435   1.418
 1706SOL     OW 6016   4.126   0.676   0.515
 1706SOL    HW1 6017   4.116   0.733   0.434
 1706SOL    HW2 6018   4.074   0.716   0.590
 1707SOL     OW 6019   5.464   1.786   2.967
 1707SOL    HW1 6020   5.534   1.772   3.037
 1707SOL    HW2 6021   5.469   1.880   2.933
 1708SOL     OW 6022   6.497   6.383   2.410
 1708SOL    HW1 6023   6.570   6.335   2.459
 1708SOL    HW2 6024   6.474   6.467   2.459
 1709SOL     OW 6025   2.444   6.429   2.535
 1709SOL    HW1 6026   2.421   6.332   2.546
 1709SOL    HW2 6027   2.360   6.481   2.519
 1710SOL     OW 6028   0.458   4.822   4.026
 1710SOL    HW1 6029   0.424   4.857   4.113
 1710SOL    HW2 6030   0.486   4.727   4.036
 1711SOL     OW 6031   1.375   4.738   5.614
 1711SOL    HW1 6032   1.465   4.782   5.613
 1711SOL    HW2 6033   1.350   4.711   5.522
 1712SOL     OW 6034   0.336   4.078   0.190
 1712SOL    HW1 6035   0.241   4.108   0.183
 1712SOL    HW2 6036   0.395   4.156   0.208
 1713SOL     OW 6037   1.579   2.606   2.010
 1713SOL    HW1 6038   1.636   2.609   2.092
 1713SOL    HW2 6039   1.534   2.695   1.997
 1714SOL     OW 6040   3.857   2.038   6.914
 1714SOL    HW1 6041   3.947   2.032   6.869
 1714SOL    HW2 6042   3.796   2.094   6.859
 1715SOL     OW 6043   0.704   2.970   3.136
 1715SOL    HW1 6044   0.674   2.881   3.103
 1715SOL    HW2 6045   0.798   2.987   3.103
 1716SOL     OW 6046   6.975   7.010   0.100
 1716SOL    HW1 6047   6.955   6.912   0.110
 1716SOL    HW2 6048   6.890   0.037   0.102
 1717SOL     OW 6049   2.470   6.456   0.177
 1717SOL    HW1 6050   2.498   6.545   0.142
 1717SOL    HW2 6051   2.484   6.452   0.276
 1718SOL     OW 6052   2.323   3.713   0.244
 1718SOL    HW1 6053   2.295   3.750   0.155
 1718SOL    HW2 6054   2.321   3.613   0.240
 1719SOL     OW 6055   1.858   3.223   1.592
 1719SOL    HW1 6056   1.953   3.249   1.604
 1719SOL    HW2 6057   1.804   3.257   1.669
 1720SOL     OW 6058   6.826   1.456   0.623
 1720SOL    HW1 6059   6.792   1.449   0.529
 1720SOL    HW2 6060   6.926   1.457   0.623
 1721SOL     OW 6061   1.703   6.495   3.317
 1721SOL    HW1 6062   1.722   6.575   3.260
 1721SOL    HW2 6063   1.703   6.522   3.413
 1722SOL     OW 6064   6.125   0.271   2.285
 1722SOL    HW1 6065   6.188   0.194   2.274
 1722SOL    HW2 6066   6.073   0.284   2.201
 1723SOL     OW 6067   0.361   1.902   2.719
 1723SOL    HW1 6068   0.371   1.963   2.640
 1723SOL    HW2 6069   0.427   1.928   2.790
 1724SOL     OW 6070   5.048   0.880   6.875
 1724SOL    HW1 6071   5.004   0.821   6.808
 1724SOL    HW2 6072   5.075   0.966   6.831
 1725SOL     OW 6073   3.496   4.099   1.391
 1725SOL    HW1 6074   3.412   4.060   1.355
 1725SOL    HW2 6075   3.485   4.197   1.406
 1726SOL     OW 6076   6.966   4.523   5.190
 1726SOL    HW1 6077   6.870   4.503   5.206
 1726SOL    HW2 6078   6.981   4.547   5.094
 1727SOL     OW 6079   4.004   3.451   4.927
 1727SOL    HW1 6080   3.970   3.357   4.920
 1727SOL    HW2 6081   3.933   3.510   4.964
 1728SOL     OW 6082   4.512   4.530   4.068
 1728SOL    HW1 6083   4.460   4.585   4.133
 1728SOL    HW2 6084   4.485   4.554   3.975
 1729SOL     OW 6085   0.941   3.941   2.974
 1729SOL    HW1 6086   0.976   3.879   3.044
 1729SOL    HW2 6087   1.018   3.981   2.925
 1730SOL     OW 6088   6.781   1.682   4.411
 1730SOL    HW1 6089   6.817   1.616   4.346
 1730SOL    HW2 6090   6.692   1.716   4.378
 1731SOL     OW 6091   2.250   4.739   1.495
 1731SOL    HW1 6092   2.162   4.736   1.448
 1731SOL    HW2 6093   2.306   4.661   1.465
 1732SOL     OW 6094   2.066   4.604   6.949
 1732SOL    HW1 6095   2.009   4.547   7.008
 1732SOL    HW2 6096   2.013   4.684   6.919
 1733SOL     OW 6097   1.139   3.773   1.727
 1733SOL    HW1 6098   1.210   3.703   1.717
 1733SOL    HW2 6099   1.180   3.855   1.767
 1734SOL     OW 6100   4.184   2.930   0.677
 1734SOL    HW1 6101   4.210   2.978   0.594
 1734SOL    HW2 6102   4.103   2.874   0.658
 1735SOL     OW 6103   6.008   4.987   1.228
 1735SOL    HW1 6104   5.956   5.027   1.303
 1735SOL    HW2 6105   6.017   4.888   1.242
 1736SOL     OW 6106   3.341   3.252   6.953
 1736SOL    HW1 6107   3.365   3.249   0.025
 1736SOL    HW2 6108   3.303   3.164   6.925
 1737SOL     OW 6109   1.999   0.626   4.300
 1737SOL    HW1 6110   2.096   0.608   4.316
 1737SOL    HW2 6111   1.952   0.541   4.277
 1738SOL     OW 6112   2.118   3.083   2.531
 1738SOL    HW1 6113   2.177   3.155   2.569
 1738SOL    HW2 6114   2.025   3.117   2.524
 1739SOL     OW 6115   4.423   2.322   4.845
 1739SOL    HW1 6116   4.436   2.225   4.863
 1739SOL    HW2 6117   4.505   2.373   4.870
 1740SOL     OW 6118   6.976   1.120   7.001
 1740SOL    HW1 6119   0.009   1.124   0.058
 1740SOL    HW2 6120   6.935   1.029   6.994
 1741SOL     OW 6121   2.384   0.779   2.537
 1741SOL    HW1 6122   2.336   0.840   2.600
 1741SOL    HW2 6123   2.385   0.687   2.575
 1742SOL     OW 6124   5.914   0.637   4.950
 1742SOL    HW1 6125   5.877   0.679   4.867
 1742SOL    HW2 6126   5.884   0.542   4.954
 1743SOL     OW 6127   3.347   1.497   1.498
 1743SOL    HW1 6128   3.261   1.523   1.542
 1743SOL    HW2 6129   3.402   1.579   1.480
 1744SOL     OW 6130   2.642   0.879   1.838
 1744SOL    HW1 6131   2.579   0.953   1.862
 1744SOL    HW2 6132   2.590   0.794   1.823
 1745SOL     OW 6133   0.098   1.870   3.276
 1745SOL    HW1 6134   0.093   1.969   3.276
 1745SOL    HW2 6135   0.093   1.836   3.182
 1746SOL     OW 6136   3.025   0.277   6.424
 1746SOL    HW1 6137   3.016   0.216   6.502
 1746SOL    HW2 6138   2.988   0.367   6.448
 1747SOL     OW 6139   3.561   0.100   1.065
 1747SOL    HW1 6140   3.500   0.057   1.132
 1747SOL    HW2 6141   3.511   0.113   0.979
 1748SOL     OW 6142   6.265   1.903   3.681
 1748SOL    HW1 6143   6.314   1.991   3.685
 1748SOL    HW2 6144   6.167   1.920   3.666
 1749SOL     OW 6145   4.400   6.525   6.398
 1749SOL    HW1 6146   4.362   6.617   6.407
 1749SOL    HW2 6147   4.348   6.462   6.455
 1750SOL     OW 6148   5.268   1.204   2.433
 1750SOL    HW1 6149   5.365   1.224   2.418
 1750SOL    HW2 6150   5.223   1.284   2.473
 1751SOL     OW 6151   1.944   5.037   4.709
 1751SOL    HW1 6152   1.983   5.121   4.748
 1751SOL    HW2 6153   1.858   5.059   4.664
 1752SOL     OW 6154   0.099   1.951   0.681
 1752SOL    HW1 6155   0.015   1.903   0.655
 1752SOL    HW2 6156   0.078   2.047   0.701
 1753SOL     OW 6157   0.743   0.458   0.318
 1753SOL    HW1 6158   0.683   0.534   0.291
 1753SOL    HW2 6159   0.709   0.373   0.279
 1754SOL     OW 6160   3.078   2.957   1.294
 1754SOL    HW1 6161   3.174   2.966   1.319
 1754SOL    HW2 6162   3.045   2.866   1.319
 1755SOL     OW 6163   5.246   4.903   1.418
 1755SOL    HW1 6164   5.257   5.002   1.412
 1755SOL    HW2 6165   5.333   4.861   1.442
 1756SOL     OW 6166   6.249   4.792   4.223
 1756SOL    HW1 6167   6.196   4.840   4.153
 1756SOL    HW2 6168   6.253   4.848   4.306
 1757SOL     OW 6169   2.985   6.352   4.519
 1757SOL    HW1 6170   3.061   6.415   4.504
 1757SOL    HW2 6171   2.899   6.402   4.509
 1758SOL     OW 6172   3.053   1.340   3.349
 1758SOL    HW1 6173   2.980   1.383   3.297
 1758SOL    HW2 6174   3.027   1.336   3.446
 1759SOL     OW 6175   0.240   4.624   6.215
 1759SOL    HW1 6176   0.276   4.542   6.170
 1759SOL    HW2 6177   0.168   4.663   6.159
 1760SOL     OW 6178   6.156   1.439   1.466
 1760SOL    HW1 6179   6.201   1.409   1.550
 1760SOL    HW2 6180   6.135   1.359   1.409
 1761SOL     OW 6181   5.840   0.892   0.706
 1761SOL    HW1 6182   5.872   0.823   0.770
 1761SOL    HW2 6183   5.823   0.978   0.755
 1762SOL     OW 6184   6.785   2.279   5.431
 1762SOL    HW1 6185   6.720   2.317   5.497
 1762SOL    HW2 6186   6.788   2.180   5.440
 1763SOL     OW 6187   2.043   4.107   4.451
 1763SOL    HW1 6188   1.955   4.152   4.463
 1763SOL    HW2 6189   2.112   4.175   4.426
 1764SOL     OW 6190   1.483   3.217   3.095
 1764SOL    HW1 6191   1.479   3.316   3.110
 1764SOL    HW2 6192   1.565   3.180   3.138
 1765SOL     OW 6193   2.644   1.229   0.114
 1765SOL    HW1 6194   2.742   1.215   0.096
 1765SOL    HW2 6195   2.603   1.144   0.145
 1766SOL     OW 6196   5.325   3.020   4.844
 1766SOL    HW1 6197   5.305   3.017   4.746
 1766SOL    HW2 6198   5.287   2.939   4.888
 1767SOL     OW 6199   5.286   3.742   1.991
 1767SOL    HW1 6200   5.260   3.695   2.076
 1767SOL    HW2 6201   5.376   3.784   2.003
 1768SOL     OW 6202   4.159   0.208   3.553
 1768SOL    HW1 6203   4.117   0.220   3.644
 1768SOL    HW2 6204   4.217   0.127   3.553
 1769SOL     OW 6205   3.835   1.820   3.802
 1769SOL    HW1 6206   3.835   1.911   3.760
 1769SOL    HW2 6207   3.928   1.784   3.804
 1770SOL     OW 6208   1.941   5.722   5.323
 1770SOL    HW1 6209   2.029   5.764   5.345
 1770SOL    HW2 6210   1.869   5.792   5.324
 1771SOL     OW 6211   3.068   6.324   0.044
 1771SOL    HW1 6212   3.010   6.354   6.994
 1771SOL    HW2 6213   3.014   6.316   0.128
 1772SOL     OW 6214   3.677   6.897   3.805
 1772SOL    HW1 6215   3.609   6.925   3.873
 1772SOL    HW2 6216   3.678   6.798   3.798
 1773SOL     OW 6217   2.530   4.931   6.164
 1773SOL    HW1 6218   2.538   4.873   6.082
 1773SOL    HW2 6219   2.459   4.896   6.224
 1774SOL     OW 6220   3.909   5.640   1.940
 1774SOL    HW1 6221   3.955   5.583   2.008
 1774SOL    HW2 6222   3.966   5.720   1.920
 1775SOL     OW 6223   0.568   4.282   2.572
 1775SOL    HW1 6224   0.637   4.233   2.626
 1775SOL    HW2 6225   0.606   4.301   2.481
 1776SOL     OW 6226   4.155   6.241   4.357
 1776SOL    HW1 6227   4.254   6.235   4.368
 1776SOL    HW2 6228   4.112   6.155   4.387
 1777SOL     OW 6229   3.537   5.910   0.005
 1777SOL    HW1 6230   3.547   6.004   0.035
 1777SOL    HW2 6231   3.588   5.896   6.945
 1778SOL     OW 6232   4.723   3.195   5.332
 1778SOL    HW1 6233   4.789   3.192   5.406
 1778SOL    HW2 6234   4.771   3.212   5.245
 1779SOL     OW 6235   3.910   0.476   4.890
 1779SOL    HW1 6236   3.969   0.532   4.949
 1779SOL    HW2 6237   3.815   0.507   4.898
 1780SOL     OW 6238   3.590   2.674   6.275
 1780SOL    HW1 6239   3.594   2.764   6.317
 1780SOL    HW2 6240   3.681   2.648   6.243
 1781SOL     OW 6241   3.872   6.115   2.730
 1781SOL    HW1 6242   3.895   6.060   2.650
 1781SOL    HW2 6243   3.793   6.075   2.776
 1782SOL     OW 6244   3.167   1.655   3.106
 1782SOL    HW1 6245   3.150   1.634   3.202
 1782SOL    HW2 6246   3.240   1.595   3.071
 1783SOL     OW 6247   2.811   5.309   6.327
 1783SOL    HW1 6248   2.743   5.246   6.290
 1783SOL    HW2 6249   2.877   5.332   6.255
 1784SOL     OW 6250   4.101   0.837   5.717
 1784SOL    HW1 6251   4.171   0.766   5.716
 1784SOL    HW2 6252   4.011   0.796   5.703
 1785SOL     OW 6253   6.481   3.951   2.643
 1785SOL    HW1 6254   6.425   3.917   2.719
 1785SOL    HW2 6255   6.511   4.044   2.663
 1786SOL     OW 6256   1.967   2.783   6.620
 1786SOL    HW1 6257   2.045   2.827   6.664
 1786SOL    HW2 6258   1.882   2.812   6.665
 1787SOL     OW 6259   2.960   1.306   5.535
 1787SOL    HW1 6260   3.044   1.313   5.587
 1787SOL    HW2 6261   2.921   1.397   5.521
 1788SOL     OW 6262   2.105   4.591   6.351
 1788SOL    HW1 6263   2.205   4.583   6.352
 1788SOL    HW2 6264   2.068   4.564   6.440
 1789SOL     OW 6265   6.214   2.345   0.944
 1789SOL    HW1 6266   6.149   2.272   0.965
 1789SOL    HW2 6267   6.168   2.417   0.892
 1790SOL     OW 6268   3.953   6.207   3.441
 1790SOL    HW1 6269   4.004   6.167   3.516
 1790SOL    HW2 6270   4.011   6.273   3.392
 1791SOL     OW 6271   6.969   0.715   2.678
 1791SOL    HW1 6272   6.935   0.809   2.677
 1791SOL    HW2 6273   7.012   0.694   2.591
 1792SOL     OW 6274   0.056   3.646   4.756
 1792SOL    HW1 6275   0.071   3.744   4.765
 1792SOL    HW2 6276   7.024   3.614   4.831
 1793SOL     OW 6277   5.972   7.006   3.872
 1793SOL    HW1 6278   6.040   0.045   3.836
 1793SOL    HW2 6279   5.991   6.988   3.968
 1794SOL     OW 6280   4.939   5.885   5.783
 1794SOL    HW1 6281   4.998   5.828   5.726
 1794SOL    HW2 6282   4.853   5.903   5.735
 1795SOL     OW 6283   0.875   2.577   1.234
 1795SOL    HW1 6284   0.919   2.596   1.322
 1795SOL    HW2 6285   0.859   2.663   1.186
 1796SOL     OW 6286   2.906   1.317   6.158
 1796SOL    HW1 6287   2.889   1.385   6.087
 1796SOL    HW2 6288   3.005   1.308   6.172
 1797SOL     OW 6289   1.400   0.225   0.077
 1797SOL    HW1 6290   1.366   0.134   0.053
 1797SOL    HW2 6291   1.347   0.261   0.154
 1798SOL     OW 6292   4.464   2.469   4.007
 1798SOL    HW1 6293   4.444   2.477   4.105
 1798SOL    HW2 6294   4.538   2.532   3.983
 1799SOL     OW 6295   0.003   2.734   4.515
 1799SOL    HW1 6296   0.087   2.778   4.546
 1799SOL    HW2 6297   6.977   2.797   4.455
 1800SOL     OW 6298   4.497   4.180   1.457
 1800SOL    HW1 6299   4.560   4.250   1.490
 1800SOL    HW2 6300   4.500   4.101   1.517
 1801SOL     OW 6301   0.423   0.451   2.189
 1801SOL    HW1 6302   0.347   0.436   2.125
 1801SOL    HW2 6303   0.392   0.433   2.282
 1802SOL     OW 6304   5.309   5.989   4.191
 1802SOL    HW1 6305   5.388   6.047   4.172
 1802SOL    HW2 6306   5.311   5.960   4.286
 1803SOL     OW 6307   0.579   5.482   6.998
 1803SOL    HW1 6308   0.544   5.556   6.941
 1803SOL    HW2 6309   0.661   5.512   0.020
 1804SOL     OW 6310   2.404   4.167   5.383
 1804SOL    HW1 6311   2.449   4.121   5.460
 1804SOL    HW2 6312   2.396   4.104   5.306
 1805SOL     OW 6313   5.210   3.507   6.178
 1805SOL    HW1 6314   5.213   3.460   6.266
 1805SOL    HW2 6315   5.119   3.497   6.138
 1806SOL     OW 6316   0.135   6.863   6.471
 1806SOL    HW1 6317   0.201   6.792   6.445
 1806SOL    HW2 6318   0.124   6.927   6.395
 1807SOL     OW 6319   5.451   2.680   4.708
 1807SOL    HW1 6320   5.374   2.717   4.655
 1807SOL    HW2 6321   5.531   2.739   4.695
 1808SOL     OW 6322   7.022   4.436   5.654
 1808SOL    HW1 6323   0.064   4.452   5.727
 1808SOL    HW2 6324   0.035   4.370   5.589
 1809SOL     OW 6325   2.826   2.137   5.395
 1809SOL    HW1 6326   2.764   2.153   5.471
 1809SOL    HW2 6327   2.827   2.217   5.335
 1810SOL     OW 6328   2.668   7.001   4.197
 1810SOL    HW1 6329   2.754   0.012   4.234
 1810SOL    HW2 6330   2.595   0.044   4.209
 1811SOL     OW 6331   5.781   5.788   3.551
 1811SOL    HW1 6332   5.706   5.750   3.497
 1811SOL    HW2 6333   5.818   5.717   3.611
 1812SOL     OW 6334   4.014   5.735   4.930
 1812SOL    HW1 6335   4.054   5.705   4.843
 1812SOL    HW2 6336   3.915   5.732   4.925
 1813SOL     OW 6337   5.950   3.897   0.758
 1813SOL    HW1 6338   5.982   3.803   0.764
 1813SOL    HW2 6339   6.017   3.958   0.800
 1814SOL     OW 6340   4.850   0.279   1.740
 1814SOL    HW1 6341   4.871   0.190   1.780
 1814SOL    HW2 6342   4.816   0.267   1.647
 1815SOL     OW 6343   0.547   1.901   2.356
 1815SOL    HW1 6344   0.641   1.888   2.325
 1815SOL    HW2 6345   0.483   1.874   2.283
 1816SOL     OW 6346   3.050   2.890   0.957
 1816SOL    HW1 6347   3.011   2.892   0.864
 1816SOL    HW2 6348   3.018   2.970   1.007
 1817SOL     OW 6349   1.601   6.264   2.317
 1817SOL    HW1 6350   1.671   6.289   2.383
 1817SOL    HW2 6351   1.619   6.310   2.230
 1818SOL     OW 6352   1.047   0.372   3.152
 1818SOL    HW1 6353   1.121   0.375   3.220
 1818SOL    HW2 6354   0.971   0.429   3.183
 1819SOL     OW 6355   1.205   4.231   2.154
 1819SOL    HW1 6356   1.121   4.186   2.123
 1819SOL    HW2 6357   1.202   4.242   2.253
 1820SOL     OW 6358   4.374   1.417   2.446
 1820SOL    HW1 6359   4.469   1.393   2.464
 1820SOL    HW2 6360   4.363   1.516   2.451
 1821SOL     OW 6361   2.142   1.134   2.644
 1821SOL    HW1 6362   2.052   1.123   2.687
 1821SOL    HW2 6363   2.151   1.228   2.611
 1822SOL     OW 6364   3.371   2.557   1.679
 1822SOL    HW1 6365   3.278   2.592   1.665
 1822SOL    HW2 6366   3.367   2.464   1.715
 1823SOL     OW 6367   3.695   6.473   2.987
 1823SOL    HW1 6368   3.780   6.495   2.939
 1823SOL    HW2 6369   3.712   6.463   3.085
 1824SOL     OW 6370   4.193   2.549   1.093
 1824SOL    HW1 6371   4.157   2.463   1.057
 1824SOL    HW2 6372   4.205   2.614   1.018
 1825SOL     OW 6373   1.074   0.410   1.592
 1825SOL    HW1 6374   1.042   0.444   1.680
 1825SOL    HW2 6375   1.170   0.432   1.580
 1826SOL     OW 6376   2.951   1.740   1.902
 1826SOL    HW1 6377   2.999   1.780   1.824
 1826SOL    HW2 6378   3.002   1.758   1.986
 1827SOL     OW 6379   6.972   4.786   2.013
 1827SOL    HW1 6380   6.939   4.788   1.919
 1827SOL    HW2 6381   0.045   4.801   2.015
 1828SOL     OW 6382   0.812   3.246   6.947
 1828SOL    HW1 6383   0.831   3.190   0.003
 1828SOL    HW2 6384   0.775   3.335   6.976
 1829SOL     OW 6385   5.189   6.448   3.335
 1829SOL    HW1 6386   5.122   6.483   3.401
 1829SOL    HW2 6387   5.279   6.483   3.359
 1830SOL     OW 6388   4.733   0.194   3.949
 1830SOL    HW1 6389   4.771   0.108   3.981
 1830SOL    HW2 6390   4.787   0.227   3.871
 1831SOL     OW 6391   6.211   6.855   2.553
 1831SOL    HW1 6392   6.273   6.929   2.528
 1831SOL    HW2 6393   6.204   6.790   2.478
 1832SOL     OW 6394   4.396   2.612   1.287
 1832SOL    HW1 6395   4.332   2.593   1.212
 1832SOL    HW2 6396   4.400   2.710   1.303
 1833SOL     OW 6397   5.325   7.019   4.699
 1833SOL    HW1 6398   5.401   7.020   4.633
 1833SOL    HW2 6399   5.238   7.019   4.649
 1834SOL     OW 6400   3.484   3.650   0.929
 1834SOL    HW1 6401   3.407   3.587   0.930
 1834SOL    HW2 6402   3.451   3.743   0.940
 1835SOL     OW 6403   1.889   4.373   1.235
 1835SOL    HW1 6404   1.896   4.284   1.190
 1835SOL    HW2 6405   1.936   4.369   1.324
 1836SOL     OW 6406   0.049   1.683   0.826
 1836SOL    HW1 6407   0.014   1.773   0.798
 1836SOL    HW2 6408   0.006   1.656   0.912
 1837SOL     OW 6409   0.960   2.248   4.338
 1837SOL    HW1 6410   1.059   2.253   4.321
 1837SOL    HW2 6411   0.916   2.199   4.263
 1838SOL     OW 6412   0.076   2.667   3.728
 1838SOL    HW1 6413   0.059   2.721   3.646
 1838SOL    HW2 6414   0.018   2.586   3.727
 1839SOL     OW 6415   5.575   3.098   4.860
 1839SOL    HW1 6416   5.481   3.064   4.855
 1839SOL    HW2 6417   5.601   3.110   4.956
 1840SOL     OW 6418   2.311   6.180   1.018
 1840SOL    HW1 6419   2.275   6.192   1.110
 1840SOL    HW2 6420   2.377   6.252   0.998
 1841SOL     OW 6421   2.059   3.832   4.286
 1841SOL    HW1 6422   2.040   3.914   4.341
 1841SOL    HW2 6423   2.091   3.758   4.346
 1842SOL     OW 6424   0.411   5.077   1.395
 1842SOL    HW1 6425   0.436   5.140   1.321
 1842SOL    HW2 6426   0.494   5.037   1.435
 1843SOL     OW 6427   1.590   2.172   5.478
 1843SOL    HW1 6428   1.687   2.158   5.463
 1843SOL    HW2 6429   1.558   2.248   5.421
 1844SOL     OW 6430   3.993   2.148   5.055
 1844SOL    HW1 6431   4.002   2.054   5.090
 1844SOL    HW2 6432   3.946   2.204   5.123
 1845SOL     OW 6433   2.948   0.149   6.659
 1845SOL    HW1 6434   3.038   0.113   6.685
 1845SOL    HW2 6435   2.916   0.212   6.730
 1846SOL     OW 6436   4.129   1.991   6.810
 1846SOL    HW1 6437   4.176   1.998   6.722
 1846SOL    HW2 6438   4.178   2.044   6.879
 1847SOL     OW 6439   0.691   0.747   0.075
 1847SOL    HW1 6440   0.768   0.740   0.139
 1847SOL    HW2 6441   0.669   0.657   0.040
 1848SOL     OW 6442   2.211   6.026   2.911
 1848SOL    HW1 6443   2.241   6.120   2.926
 1848SOL    HW2 6444   2.281   5.963   2.946
 1849SOL     OW 6445   4.151   0.711   0.210
 1849SOL    HW1 6446   4.139   0.635   0.147
 1849SOL    HW2 6447   4.247   0.739   0.212
 1850SOL     OW 6448   6.075   1.682   3.426
 1850SOL    HW1 6449   6.092   1.618   3.351
 1850SOL    HW2 6450   6.130   1.656   3.505
 1851SOL     OW 6451   0.445   1.486   1.531
 1851SOL    HW1 6452   0.442   1.442   1.620
 1851SOL    HW2 6453   0.353   1.496   1.494
 1852SOL     OW 6454   4.677   4.026   0.463
 1852SOL    HW1 6455   4.635   3.956   0.521
 1852SOL    HW2 6456   4.707   4.103   0.520
 1853SOL     OW 6457   0.731   3.814   1.489
 1853SOL    HW1 6458   0.649   3.867   1.512
 1853SOL    HW2 6459   0.812   3.864   1.521
 1854SOL     OW 6460   2.837   5.813   4.022
 1854SOL    HW1 6461   2.817   5.806   3.924
 1854SOL    HW2 6462   2.858   5.722   4.058
 1855SOL     OW 6463   5.191   5.423   0.719
 1855SOL    HW1 6464   5.154   5.331   0.704
 1855SOL    HW2 6465   5.197   5.472   0.632
 1856SOL     OW 6466   5.687   2.245   5.582
 1856SOL    HW1 6467   5.687   2.333   5.630
 1856SOL    HW2 6468   5.683   2.171   5.649
 1857SOL     OW 6469   4.599   1.121   4.513
 1857SOL    HW1 6470   4.512   1.073   4.523
 1857SOL    HW2 6471   4.674   1.054   4.514
 1858SOL     OW 6472   5.678   3.362   4.071
 1858SOL    HW1 6473   5.705   3.385   3.977
 1858SOL    HW2 6474   5.686   3.264   4.085
 1859SOL     OW 6475   4.099   2.287   3.456
 1859SOL    HW1 6476   4.159   2.211   3.433
 1859SOL    HW2 6477   4.148   2.373   3.446
 1860SOL     OW 6478   6.637   1.415   3.881
 1860SOL    HW1 6479   6.577   1.356   3.934
 1860SOL    HW2 6480   6.715   1.362   3.849
 1861SOL     OW 6481   4.748   6.483   1.957
 1861SOL    HW1 6482   4.723   6.414   2.024
 1861SOL    HW2 6483   4.822   6.541   1.993
 1862SOL     OW 6484   2.344   0.408   7.005
 1862SOL    HW1 6485   2.423   0.419   6.945
 1862SOL    HW2 6486   2.365   0.340   0.051
 1863SOL     OW 6487   2.579   2.264   0.980
 1863SOL    HW1 6488   2.529   2.351   0.982
 1863SOL    HW2 6489   2.587   2.233   0.886
 1864SOL     OW 6490   0.811   6.784   5.055
 1864SOL    HW1 6491   0.818   6.794   4.955
 1864SOL    HW2 6492   0.739   6.845   5.089
 1865SOL     OW 6493   3.443   1.595   5.483
 1865SOL    HW1 6494   3.495   1.619   5.401
 1865SOL    HW2 6495   3.427   1.677   5.538
 1866SOL     OW 6496   4.562   4.529   1.920
 1866SOL    HW1 6497   4.642   4.576   1.958
 1866SOL    HW2 6498   4.554   4.439   1.962
 1867SOL     OW 6499   0.264   4.403   0.467
 1867SOL    HW1 6500   0.224   4.378   0.378
 1867SOL    HW2 6501   0.202   4.374   0.540
 1868SOL     OW 6502   6.013   4.423   6.732
 1868SOL    HW1 6503   6.096   4.459   6.774
 1868SOL    HW2 6504   5.960   4.375   6.802
 1869SOL     OW 6505   6.759   2.385   5.182
 1869SOL    HW1 6506   6.768   2.358   5.278
 1869SOL    HW2 6507   6.825   2.334   5.127
 1870SOL     OW 6508   2.067   4.653   5.815
 1870SOL    HW1 6509   2.050   4.559   5.844
 1870SOL    HW2 6510   2.117   4.653   5.729
 1871SOL     OW 6511   1.992   6.829   0.923
 1871SOL    HW1 6512   1.990   6.893   0.846
 1871SOL    HW2 6513   1.898   6.804   0.948
 1872SOL     OW 6514   3.195   4.613   0.367
 1872SOL    HW1 6515   3.294   4.601   0.372
 1872SOL    HW2 6516   3.174   4.705   0.333
 1873SOL     OW 6517   3.892   0.607   5.290
 1873SOL    HW1 6518   3.873   0.699   5.325
 1873SOL    HW2 6519   3.949   0.613   5.208
 1874SOL     OW 6520   2.414   1.664   1.899
 1874SOL    HW1 6521   2.507   1.696   1.879
 1874SOL    HW2 6522   2.383   1.706   1.984
 1875SOL     OW 6523   0.552   6.925   6.375
 1875SOL    HW1 6524   0.558   6.829   6.347
 1875SOL    HW2 6525   0.642   6.968   6.369
 1876SOL     OW 6526   2.943   0.039   5.000
 1876SOL    HW1 6527   2.909   6.970   4.997
 1876SOL    HW2 6528   3.004   0.054   4.922
 1877SOL     OW 6529   0.729   0.510   4.256
 1877SOL    HW1 6530   0.747   0.608   4.269
 1877SOL    HW2 6531   0.789   0.457   4.316
 1878SOL     OW 6532   0.129   1.936   3.885
 1878SOL    HW1 6533   0.035   1.913   3.913
 1878SOL    HW2 6534   0.174   1.853   3.852
 1879SOL     OW 6535   1.483   3.573   4.521
 1879SOL    HW1 6536   1.438   3.653   4.481
 1879SOL    HW2 6537   1.482   3.498   4.455
 1880SOL     OW 6538   6.900   1.517   4.879
 1880SOL    HW1 6539   6.976   1.514   4.815
 1880SOL    HW2 6540   6.883   1.611   4.907
 1881SOL     OW 6541   6.305   2.011   1.160
 1881SOL    HW1 6542   6.249   1.990   1.241
 1881SOL    HW2 6543   6.245   2.034   1.083
 1882SOL     OW 6544   1.118   4.284   6.616
 1882SOL    HW1 6545   1.153   4.376   6.629
 1882SOL    HW2 6546   1.032   4.273   6.665
 1883SOL     OW 6547   6.402   2.207   2.099
 1883SOL    HW1 6548   6.399   2.154   2.184
 1883SOL    HW2 6549   6.497   2.218   2.069
 1884SOL     OW 6550   0.900   1.367   0.764
 1884SOL    HW1 6551   0.976   1.309   0.736
 1884SOL    HW2 6552   0.853   1.326   0.842
 1885SOL     OW 6553   1.871   1.662   5.765
 1885SOL    HW1 6554   1.880   1.759   5.744
 1885SOL    HW2 6555   1.952   1.612   5.733
 1886SOL     OW 6556   2.261   0.015   2.071
 1886SOL    HW1 6557   2.339   6.983   2.097
 1886SOL    HW2 6558   2.252   0.091   2.136
 1887SOL     OW 6559   0.853   5.751   6.040
 1887SOL    HW1 6560   0.894   5.678   5.986
 1887SOL    HW2 6561   0.786   5.711   6.103
 1888SOL     OW 6562   3.218   2.019   0.397
 1888SOL    HW1 6563   3.209   2.108   0.352
 1888SOL    HW2 6564   3.173   1.949   0.341
 1889SOL     OW 6565   0.788   3.873   4.303
 1889SOL    HW1 6566   0.709   3.873   4.241
 1889SOL    HW2 6567   0.849   3.798   4.278
 1890SOL     OW 6568   0.728   5.562   4.360
 1890SOL    HW1 6569   0.753   5.530   4.268
 1890SOL    HW2 6570   0.665   5.497   4.402
 1891SOL     OW 6571   3.999   3.011   1.731
 1891SOL    HW1 6572   3.929   3.060   1.784
 1891SOL    HW2 6573   3.954   2.944   1.672
 1892SOL     OW 6574   6.987   0.561   1.523
 1892SOL    HW1 6575   6.902   0.609   1.546
 1892SOL    HW2 6576   6.976   0.464   1.543
 1893SOL     OW 6577   3.424   3.024   2.266
 1893SOL    HW1 6578   3.504   2.971   2.239
 1893SOL    HW2 6579   3.341   2.973   2.243
 1894SOL     OW 6580   3.213   3.788   4.193
 1894SOL    HW1 6581   3.229   3.714   4.128
 1894SOL    HW2 6582   3.226   3.876   4.148
 1895SOL     OW 6583   4.278   0.195   1.263
 1895SOL    HW1 6584   4.195   0.230   1.221
 1895SOL    HW2 6585   4.257   0.159   1.354
 1896SOL     OW 6586   6.432   1.396   0.717
 1896SOL    HW1 6587   6.511   1.457   0.711
 1896SOL    HW2 6588   6.439   1.342   0.801
 1897SOL     OW 6589   1.376   5.397   2.225
 1897SOL    HW1 6590   1.460   5.450   2.220
 1897SOL    HW2 6591   1.368   5.354   2.315
 1898SOL     OW 6592   2.169   4.605   2.798
 1898SOL    HW1 6593   2.165   4.659   2.714
 1898SOL    HW2 6594   2.182   4.509   2.774
 1899SOL     OW 6595   0.465   0.557   1.227
 1899SOL    HW1 6596   0.507   0.505   1.153
 1899SOL    HW2 6597   0.366   0.540   1.228
 1900SOL     OW 6598   2.952   0.184   0.151
 1900SOL    HW1 6599   2.923   0.279   0.168
 1900SOL    HW2 6600   3.049   0.175   0.174
 1901SOL     OW 6601   2.498   2.912   1.196
 1901SOL    HW1 6602   2.438   2.899   1.117
 1901SOL    HW2 6603   2.582   2.860   1.182
 1902SOL     OW 6604   2.588   0.409   4.696
 1902SOL    HW1 6605   2.636   0.370   4.775
 1902SOL    HW2 6606   2.578   0.507   4.708
 1903SOL     OW 6607   0.690   3.130   3.780
 1903SOL    HW1 6608   0.670   3.032   3.776
 1903SOL    HW2 6609   0.789   3.144   3.790
 1904SOL     OW 6610   5.802   4.956   2.472
 1904SOL    HW1 6611   5.874   5.024   2.456
 1904SOL    HW2 6612   5.842   4.864   2.472
 1905SOL     OW 6613   0.686   0.292   3.880
 1905SOL    HW1 6614   0.732   0.244   3.806
 1905SOL    HW2 6615   0.589   0.266   3.882
 1906SOL     OW 6616   2.964   0.634   5.908
 1906SOL    HW1 6617   3.035   0.584   5.958
 1906SOL    HW2 6618   3.006   0.707   5.855
 1907SOL     OW 6619   4.916   2.631   0.870
 1907SOL    HW1 6620   4.854   2.670   0.938
 1907SOL    HW2 6621   4.902   2.532   0.865
 1908SOL     OW 6622   4.005   6.689   6.851
 1908SOL    HW1 6623   3.990   6.627   6.928
 1908SOL    HW2 6624   3.917   6.708   6.807
 1909SOL     OW 6625   0.044   3.287   4.251
 1909SOL    HW1 6626   0.046   3.214   4.182
 1909SOL    HW2 6627   7.012   3.362   4.218
 1910SOL     OW 6628   6.372   6.149   5.855
 1910SOL    HW1 6629   6.332   6.225   5.803
 1910SOL    HW2 6630   6.353   6.063   5.808
 1911SOL     OW 6631   6.976   4.650   4.145
 1911SOL    HW1 6632   7.003   4.713   4.218
 1911SOL    HW2 6633   0.031   4.623   4.093
 1912SOL     OW 6634   2.626   4.941   2.609
 1912SOL    HW1 6635   2.566   4.907   2.537
 1912SOL    HW2 6636   2.692   4.869   2.633
 1913SOL     OW 6637   1.941   5.622   4.813
 1913SOL    HW1 6638   2.024   5.571   4.790
 1913SOL    HW2 6639   1.933   5.629   4.913
 1914SOL     OW 6640   3.073   3.886   6.038
 1914SOL    HW1 6641   3.080   3.912   5.942
 1914SOL    HW2 6642   3.005   3.943   6.084
 1915SOL     OW 6643   4.208   2.858   6.302
 1915SOL    HW1 6644   4.124   2.891   6.260
 1915SOL    HW2 6645   4.283   2.867   6.237
 1916SOL     OW 6646   3.847   0.070   1.101
 1916SOL    HW1 6647   3.772   0.125   1.063
 1916SOL    HW2 6648   3.925   0.129   1.118
 1917SOL     OW 6649   2.693   4.334   0.610
 1917SOL    HW1 6650   2.653   4.343   0.702
 1917SOL    HW2 6651   2.789   4.311   0.618
 1918SOL     OW 6652   0.968   0.877   5.019
 1918SOL    HW1 6653   0.946   0.784   4.990
 1918SOL    HW2 6654   1.061   0.880   5.055
 1919SOL     OW 6655   1.680   1.966   1.162
 1919SOL    HW1 6656   1.661   1.916   1.247
 1919SOL    HW2 6657   1.603   2.027   1.142
 1920SOL     OW 6658   6.039   2.225   2.147
 1920SOL    HW1 6659   5.954   2.267   2.116
 1920SOL    HW2 6660   6.117   2.274   2.108
 1921SOL     OW 6661   1.511   2.484   0.324
 1921SOL    HW1 6662   1.433   2.441   0.278
 1921SOL    HW2 6663   1.482   2.571   0.364
 1922SOL     OW 6664   3.201   3.395   1.773
 1922SOL    HW1 6665   3.299   3.406   1.787
 1922SOL    HW2 6666   3.182   3.372   1.678
 1923SOL     OW 6667   5.172   0.228   6.191
 1923SOL    HW1 6668   5.213   0.141   6.220
 1923SOL    HW2 6669   5.073   0.221   6.193
 1924SOL     OW 6670   4.506   0.349   1.363
 1924SOL    HW1 6671   4.434   0.326   1.297
 1924SOL    HW2 6672   4.468   0.350   1.455
 1925SOL     OW 6673   1.362   4.216   1.092
 1925SOL    HW1 6674   1.366   4.123   1.056
 1925SOL    HW2 6675   1.429   4.227   1.165
 1926SOL     OW 6676   3.652   0.167   1.669
 1926SOL    HW1 6677   3.749   0.191   1.666
 1926SOL    HW2 6678   3.607   0.202   1.588
 1927SOL     OW 6679   2.364   4.535   1.339
 1927SOL    HW1 6680   2.293   4.466   1.350
 1927SOL    HW2 6681   2.429   4.505   1.269
 1928SOL     OW 6682   4.614   4.311   4.207
 1928SOL    HW1 6683   4.567   4.373   4.144
 1928SOL    HW2 6684   4.553   4.288   4.283
 1929SOL     OW 6685   3.225   0.854   2.659
 1929SOL    HW1 6686   3.304   0.885   2.711
 1929SOL    HW2 6687   3.187   0.772   2.701
 1930SOL     OW 6688   4.634   3.188   6.562
 1930SOL    HW1 6689   4.560   3.154   6.505
 1930SOL    HW2 6690   4.659   3.281   6.532
 1931SOL     OW 6691   0.778   1.414   6.138
 1931SOL    HW1 6692   0.783   1.510   6.114
 1931SOL    HW2 6693   0.806   1.358   6.060
 1932SOL     OW 6694   4.494   2.101   3.313
 1932SOL    HW1 6695   4.503   2.053   3.225
 1932SOL    HW2 6696   4.458   2.037   3.381
 1933SOL     OW 6697   0.718   2.042   0.093
 1933SOL    HW1 6698   0.695   2.138   0.075
 1933SOL    HW2 6699   0.722   2.027   0.192
 1934SOL     OW 6700   0.248   0.469   5.381
 1934SOL    HW1 6701   0.303   0.494   5.301
 1934SOL    HW2 6702   0.166   0.525   5.385
 1935SOL     OW 6703   5.165   4.551   3.328
 1935SOL    HW1 6704   5.239   4.501   3.283
 1935SOL    HW2 6705   5.133   4.625   3.268
 1936SOL     OW 6706   5.354   3.213   4.421
 1936SOL    HW1 6707   5.290   3.285   4.396
 1936SOL    HW2 6708   5.406   3.241   4.502
 1937SOL     OW 6709   4.967   5.312   6.489
 1937SOL    HW1 6710   4.982   5.221   6.529
 1937SOL    HW2 6711   5.044   5.372   6.511
 1938SOL     OW 6712   0.666   2.054   6.420
 1938SOL    HW1 6713   0.766   2.054   6.418
 1938SOL    HW2 6714   0.630   2.091   6.334
 1939SOL     OW 6715   0.839   5.624   4.984
 1939SOL    HW1 6716   0.823   5.606   5.082
 1939SOL    HW2 6717   0.925   5.673   4.973
 1940SOL     OW 6718   6.166   4.841   1.741
 1940SOL    HW1 6719   6.210   4.894   1.669
 1940SOL    HW2 6720   6.114   4.902   1.801
 1941SOL     OW 6721   1.024   3.036   4.007
 1941SOL    HW1 6722   1.060   3.105   4.070
 1941SOL    HW2 6723   0.949   2.987   4.051
 1942SOL     OW 6724   5.474   3.453   2.749
 1942SOL    HW1 6725   5.408   3.527   2.762
 1942SOL    HW2 6726   5.432   3.366   2.777
 1943SOL     OW 6727   1.417   1.202   2.154
 1943SOL    HW1 6728   1.345   1.149   2.109
 1943SOL    HW2 6729   1.470   1.141   2.213
 1944SOL     OW 6730   0.408   3.064   0.891
 1944SOL    HW1 6731   0.398   3.013   0.805
 1944SOL    HW2 6732   0.433   3.000   0.964
 1945SOL     OW 6733   3.983   6.536   0.756
 1945SOL    HW1 6734   4.012   6.533   0.660
 1945SOL    HW2 6735   4.024   6.615   0.801
 1946SOL     OW 6736   6.689   6.112   1.323
 1946SOL    HW1 6737   6.679   6.176   1.399
 1946SOL    HW2 6738   6.760   6.044   1.346
 1947SOL     OW 6739   5.523   3.784   3.263
 1947SOL    HW1 6740   5.530   3.883   3.253
 1947SOL    HW2 6741   5.443   3.761   3.318
 1948SOL     OW 6742   5.842   3.447   2.998
 1948SOL    HW1 6743   5.821   3.350   2.993
 1948SOL    HW2 6744   5.765   3.497   3.038
 1949SOL     OW 6745   4.009   4.954   0.639
 1949SOL    HW1 6746   4.021   4.909   0.727
 1949SOL    HW2 6747   3.935   5.021   0.646
 1950SOL     OW 6748   3.361   4.092   4.038
 1950SOL    HW1 6749   3.396   4.118   3.948
 1950SOL    HW2 6750   3.263   4.070   4.030
 1951SOL     OW 6751   6.441   5.013   5.744
 1951SOL    HW1 6752   6.520   4.954   5.761
 1951SOL    HW2 6753   6.360   4.957   5.726
 1952SOL     OW 6754   5.720   3.535   0.688
 1952SOL    HW1 6755   5.686   3.575   0.773
 1952SOL    HW2 6756   5.697   3.437   0.686
 1953SOL     OW 6757   0.849   1.352   6.413
 1953SOL    HW1 6758   0.785   1.397   6.476
 1953SOL    HW2 6759   0.808   1.349   6.321
 1954SOL     OW 6760   3.705   7.004   1.319
 1954SOL    HW1 6761   3.683   6.907   1.315
 1954SOL    HW2 6762   3.763   0.004   1.241
 1955SOL     OW 6763   1.077   1.504   2.140
 1955SOL    HW1 6764   1.054   1.601   2.136
 1955SOL    HW2 6765   1.087   1.468   2.048
 1956SOL     OW 6766   6.245   0.638   1.893
 1956SOL    HW1 6767   6.159   0.681   1.919
 1956SOL    HW2 6768   6.259   0.556   1.950
 1957SOL     OW 6769   5.327   2.256   3.958
 1957SOL    HW1 6770   5.365   2.236   3.868
 1957SOL    HW2 6771   5.351   2.350   3.984
 1958SOL     OW 6772   4.466   1.574   0.464
 1958SOL    HW1 6773   4.377   1.618   0.480
 1958SOL    HW2 6774   4.460   1.516   0.383
 1959SOL     OW 6775   6.684   0.020   3.872
 1959SOL    HW1 6776   6.596   0.028   3.824
 1959SOL    HW2 6777   6.715   6.951   3.869
 1960SOL     OW 6778   5.850   3.180   2.956
 1960SOL    HW1 6779   5.795   3.097   2.948
 1960SOL    HW2 6780   5.915   3.185   2.881
 1961SOL     OW 6781   6.500   4.136   5.361
 1961SOL    HW1 6782   6.426   4.069   5.364
 1961SOL    HW2 6783   6.513   4.167   5.267
 1962SOL     OW 6784   1.184   6.840   2.998
 1962SOL    HW1 6785   1.260   6.825   2.935
 1962SOL    HW2 6786   1.106   6.785   2.968
 1963SOL     OW 6787   1.055   1.908   1.655
 1963SOL    HW1 6788   1.088   1.868   1.569
 1963SOL    HW2 6789   1.132   1.925   1.716
 1964SOL     OW 6790   5.584   4.676   1.890
 1964SOL    HW1 6791   5.524   4.648   1.815
 1964SOL    HW2 6792   5.579   4.610   1.964
 1965SOL     OW 6793   0.092   4.567   4.458
 1965SOL    HW1 6794   0.055   4.655   4.431
 1965SOL    HW2 6795   0.128   4.519   4.378
 1966SOL     OW 6796   2.028   4.818   1.027
 1966SOL    HW1 6797   1.967   4.754   1.073
 1966SOL    HW2 6798   2.025   4.907   1.073
 1967SOL     OW 6799   6.383   2.789   3.320
 1967SOL    HW1 6800   6.363   2.882   3.292
 1967SOL    HW2 6801   6.459   2.789   3.385
 1968SOL     OW 6802   2.008   1.314   5.494
 1968SOL    HW1 6803   1.940   1.251   5.533
 1968SOL    HW2 6804   2.011   1.302   5.395
 1969SOL     OW 6805   2.780   6.970   1.022
 1969SOL    HW1 6806   2.860   6.923   0.984
 1969SOL    HW2 6807   2.727   6.906   1.078
 1970SOL     OW 6808   6.593   5.670   4.884
 1970SOL    HW1 6809   6.652   5.676   4.965
 1970SOL    HW2 6810   6.576   5.761   4.849
 1971SOL     OW 6811   1.600   7.004   5.468
 1971SOL    HW1 6812   1.685   6.960   5.495
 1971SOL    HW2 6813   1.601   0.074   5.498
 1972SOL     OW 6814   6.211   2.559   1.295
 1972SOL    HW1 6815   6.293   2.556   1.239
 1972SOL    HW2 6816   6.236   2.586   1.388
 1973SOL     OW 6817   2.143   4.135   0.680
 1973SOL    HW1 6818   2.175   4.208   0.620
 1973SOL    HW2 6819   2.157   4.162   0.775
 1974SOL     OW 6820   3.769   6.766   5.235
 1974SOL    HW1 6821   3.851   6.820   5.255
 1974SOL    HW2 6822   3.795   6.672   5.216
 1975SOL     OW 6823   1.644   3.480   2.943
 1975SOL    HW1 6824   1.583   3.483   3.022
 1975SOL    HW2 6825   1.719   3.416   2.961
 1976SOL     OW 6826   6.916   0.393   6.096
 1976SOL    HW1 6827   6.878   0.450   6.023
 1976SOL    HW2 6828   6.891   0.432   6.185
 1977SOL     OW 6829   1.797   4.203   6.924
 1977SOL    HW1 6830   1.756   4.129   6.976
 1977SOL    HW2 6831   1.729   4.243   6.863
 1978SOL     OW 6832   2.511   6.908   2.433
 1978SOL    HW1 6833   2.417   6.885   2.458
 1978SOL    HW2 6834   2.573   6.837   2.467
 1979SOL     OW 6835   5.860   5.384   6.527
 1979SOL    HW1 6836   5.790   5.417   6.590
 1979SOL    HW2 6837   5.858   5.439   6.443
 1980SOL     OW 6838   2.950   1.453   1.856
 1980SOL    HW1 6839   2.912   1.410   1.938
 1980SOL    HW2 6840   2.933   1.551   1.858
 1981SOL     OW 6841   4.654   2.617   3.111
 1981SOL    HW1 6842   4.681   2.521   3.115
 1981SOL    HW2 6843   4.695   2.667   3.187
 1982SOL     OW 6844   6.597   2.978   3.635
 1982SOL    HW1 6845   6.573   3.061   3.685
 1982SOL    HW2 6846   6.520   2.915   3.635
 1983SOL     OW 6847   6.980   0.285   0.958
 1983SOL    HW1 6848   7.000   0.317   1.050
 1983SOL    HW2 6849   6.956   0.187   0.960
 1984SOL     OW 6850   6.015   2.927   5.066
 1984SOL    HW1 6851   6.040   2.871   5.144
 1984SOL    HW2 6852   5.950   2.877   5.008
 1985SOL     OW 6853   6.515   4.776   2.068
 1985SOL    HW1 6854   6.582   4.850   2.072
 1985SOL    HW2 6855   6.485   4.753   2.160
 1986SOL     OW 6856   3.423   1.519   0.237
 1986SOL    HW1 6857   3.460   1.600   0.281
 1986SOL    HW2 6858   3.325   1.531   0.221
 1987SOL     OW 6859   1.584   0.536   3.163
 1987SOL    HW1 6860   1.642   0.617   3.165
 1987SOL    HW2 6861   1.536   0.527   3.250
 1988SOL     OW 6862   6.969   2.309   1.179
 1988SOL    HW1 6863   6.973   2.222   1.130
 1988SOL    HW2 6864   6.875   2.342   1.181
 1989SOL     OW 6865   2.931   5.168   5.530
 1989SOL    HW1 6866   2.936   5.183   5.431
 1989SOL    HW2 6867   2.945   5.071   5.549
 1990SOL     OW 6868   3.522   0.787   0.064
 1990SOL    HW1 6869   3.556   0.858   0.125
 1990SOL    HW2 6870   3.508   0.703   0.116
 1991SOL     OW 6871   3.107   5.512   0.434
 1991SOL    HW1 6872   3.063   5.581   0.491
 1991SOL    HW2 6873   3.181   5.468   0.486
 1992SOL     OW 6874   0.472   6.459   0.459
 1992SOL    HW1 6875   0.389   6.403   0.462
 1992SOL    HW2 6876   0.488   6.499   0.550
 1993SOL     OW 6877   2.094   3.506   4.356
 1993SOL    HW1 6878   2.003   3.497   4.315
 1993SOL    HW2 6879   2.088   3.563   4.438
 1994SOL     OW 6880   3.447   3.537   0.222
 1994SOL    HW1 6881   3.411   3.542   0.129
 1994SOL    HW2 6882   3.417   3.618   0.273
 1995SOL     OW 6883   5.503   2.279   4.662
 1995SOL    HW1 6884   5.518   2.331   4.746
 1995SOL    HW2 6885   5.591   2.253   4.623
 1996SOL     OW 6886   3.792   1.405   0.990
 1996SOL    HW1 6887   3.838   1.435   1.074
 1996SOL    HW2 6888   3.857   1.360   0.930
 1997SOL     OW 6889   3.156   1.343   3.805
 1997SOL    HW1 6890   3.204   1.270   3.855
 1997SOL    HW2 6891   3.080   1.303   3.753
 1998SOL     OW 6892   0.955   3.370   1.576
 1998SOL    HW1 6893   0.902   3.289   1.550
 1998SOL    HW2 6894   0.955   3.379   1.676
 1999SOL     OW 6895   0.919   0.075   5.304
 1999SOL    HW1 6896   0.951   0.087   5.210
 1999SOL    HW2 6897   0.998   0.074   5.366
 2000SOL     OW 6898   3.745   3.883   6.976
 2000SOL    HW1 6899   3.747   3.797   0.002
 2000SOL    HW2 6900   3.654   3.924   6.984
 2001SOL     OW 6901   1.930   1.375   6.634
 2001SOL    HW1 6902   1.892   1.322   6.558
 2001SOL    HW2 6903   1.966   1.462   6.599
 2002SOL     OW 6904   6.420   5.397   0.977
 2002SOL    HW1 6905   6.375   5.308   0.975
 2002SOL    HW2 6906   6.443   5.425   0.884
 2003SOL     OW 6907   6.189   5.289   2.277
 2003SOL    HW1 6908   6.260   5.319   2.214
 2003SOL    HW2 6909   6.188   5.347   2.358
 2004SOL     OW 6910   3.615   0.822   3.579
 2004SOL    HW1 6911   3.572   0.779   3.658
 2004SOL    HW2 6912   3.662   0.906   3.607
 2005SOL     OW 6913   1.138   6.227   0.368
 2005SOL    HW1 6914   1.125   6.130   0.389
 2005SOL    HW2 6915   1.072   6.281   0.420
 2006SOL     OW 6916   5.154   6.856   3.296
 2006SOL    HW1 6917   5.127   6.796   3.220
 2006SOL    HW2 6918   5.087   6.848   3.370
 2007SOL     OW 6919   5.376   4.511   0.438
 2007SOL    HW1 6920   5.470   4.501   0.470
 2007SOL    HW2 6921   5.319   4.440   0.479
 2008SOL     OW 6922   2.247   4.097   3.623
 2008SOL    HW1 6923   2.273   4.166   3.689
 2008SOL    HW2 6924   2.202   4.021   3.670
 2009SOL     OW 6925   6.675   6.074   1.991
 2009SOL    HW1 6926   6.679   6.148   2.058
 2009SOL    HW2 6927   6.756   6.017   2.000
 2010SOL     OW 6928   1.659   2.547   1.763
 2010SOL    HW1 6929   1.756   2.556   1.740
 2010SOL    HW2 6930   1.649   2.541   1.862
 2011SOL     OW 6931   6.962   6.131   5.797
 2011SOL    HW1 6932   6.985   6.175   5.710
 2011SOL    HW2 6933   6.958   6.032   5.785
 2012SOL     OW 6934   1.430   3.150   2.841
 2012SOL    HW1 6935   1.341   3.184   2.812
 2012SOL    HW2 6936   1.449   3.181   2.934
 2013SOL     OW 6937   0.823   3.084   3.419
 2013SOL    HW1 6938   0.888   3.032   3.474
 2013SOL    HW2 6939   0.730   3.055   3.441
 2014SOL     OW 6940   2.900   0.452   3.878
 2014SOL    HW1 6941   2.926   0.357   3.864
 2014SOL    HW2 6942   2.962   0.494   3.944
 2015SOL     OW 6943   3.852   0.729   1.819
 2015SOL    HW1 6944   3.820   0.639   1.789
 2015SOL    HW2 6945   3.870   0.726   1.917
 2016SOL     OW 6946   1.976   0.017   6.252
 2016SOL    HW1 6947   1.993   6.980   6.175
 2016SOL    HW2 6948   1.915   0.091   6.222
 2017SOL     OW 6949   4.016   6.983   2.710
 2017SOL    HW1 6950   3.937   7.015   2.657
 2017SOL    HW2 6951   3.984   6.926   2.785
 2018SOL     OW 6952   0.764   1.604   3.139
 2018SOL    HW1 6953   0.669   1.586   3.165
 2018SOL    HW2 6954   0.811   1.648   3.215
 2019SOL     OW 6955   6.342   4.857   6.181
 2019SOL    HW1 6956   6.303   4.765   6.185
 2019SOL    HW2 6957   6.278   4.919   6.136
 2020SOL     OW 6958   1.609   6.586   6.325
 2020SOL    HW1 6959   1.517   6.562   6.295
 2020SOL    HW2 6960   1.614   6.684   6.342
 2021SOL     OW 6961   5.924   6.209   3.508
 2021SOL    HW1 6962   5.919   6.112   3.483
 2021SOL    HW2 6963   5.846   6.257   3.469
 2022SOL     OW 6964   2.122   4.259   5.197
 2022SOL    HW1 6965   2.206   4.291   5.154
 2022SOL    HW2 6966   2.074   4.197   5.135
 2023SOL     OW 6967   0.134   6.839   6.921
 2023SOL    HW1 6968   0.175   6.929   6.909
 2023SOL    HW2 6969   0.152   6.807   7.014
 2024SOL     OW 6970   0.836   5.384   4.548
 2024SOL    HW1 6971   0.857   5.470   4.502
 2024SOL    HW2 6972   0.872   5.386   4.641
 2025SOL     OW 6973   2.332   0.541   4.745
 2025SOL    HW1 6974   2.368   0.458   4.703
 2025SOL    HW2 6975   2.381   0.561   4.829
 2026SOL     OW 6976   6.217   1.193   6.167
 2026SOL    HW1 6977   6.277   1.225   6.093
 2026SOL    HW2 6978   6.122   1.214   6.145
 2027SOL     OW 6979   0.510   6.085   2.642
 2027SOL    HW1 6980   0.466   6.004   2.603
 2027SOL    HW2 6981   0.451   6.165   2.628
 2028SOL     OW 6982   3.971   5.707   2.665
 2028SOL    HW1 6983   3.964   5.792   2.613
 2028SOL    HW2 6984   4.064   5.670   2.655
 2029SOL     OW 6985   6.499   2.754   5.941
 2029SOL    HW1 6986   6.538   2.791   6.025
 2029SOL    HW2 6987   6.571   2.740   5.874
 2030SOL     OW 6988   2.546   5.949   3.226
 2030SOL    HW1 6989   2.605   5.965   3.146
 2030SOL    HW2 6990   2.584   5.997   3.305
 2031SOL     OW 6991   6.688   5.676   2.943
 2031SOL    HW1 6992   6.726   5.753   2.894
 2031SOL    HW2 6993   6.706   5.686   3.041
 2032SOL     OW 6994   3.116   1.611   6.466
 2032SOL    HW1 6995   3.173   1.554   6.525
 2032SOL    HW2 6996   3.156   1.617   6.375
 2033SOL     OW 6997   2.140   1.522   1.254
 2033SOL    HW1 6998   2.075   1.587   1.294
 2033SOL    HW2 6999   2.226   1.568   1.235
 2034SOL     OW 7000   0.376   4.479   5.964
 2034SOL    HW1 7001   0.474   4.495   5.979
 2034SOL    HW2 7002   0.342   4.546   5.898
 2035SOL     OW 7003   5.726   0.244   2.402
 2035SOL    HW1 7004   5.682   0.166   2.359
 2035SOL    HW2 7005   5.727   0.231   2.501
 2036SOL     OW 7006   0.764   3.701   2.244
 2036SOL    HW1 7007   0.740   3.646   2.324
 2036SOL    HW2 7008   0.687   3.762   2.222
 2037SOL     OW 7009   0.489   3.150   6.382
 2037SOL    HW1 7010   0.588   3.156   6.392
 2037SOL    HW2 7011   0.445   3.200   6.456
 2038SOL     OW 7012   2.011   1.321   0.334
 2038SOL    HW1 7013   2.067   1.280   0.406
 2038SOL    HW2 7014   2.071   1.357   0.262
 2039SOL     OW 7015   6.461   5.919   2.443
 2039SOL    HW1 7016   6.479   5.821   2.454
 2039SOL    HW2 7017   6.435   5.937   2.348
 2040SOL     OW 7018   2.357   3.059   6.870
 2040SOL    HW1 7019   2.302   3.051   6.954
 2040SOL    HW2 7020   2.445   3.014   6.883
 2041SOL     OW 7021   1.943   0.132   6.532
 2041SOL    HW1 7022   1.963   0.102   6.438
 2041SOL    HW2 7023   1.939   0.232   6.535
 2042SOL     OW 7024   4.924   1.075   5.402
 2042SOL    HW1 7025   4.898   0.980   5.417
 2042SOL    HW2 7026   4.915   1.126   5.488
 2043SOL     OW 7027   6.566   3.913   1.261
 2043SOL    HW1 7028   6.591   3.873   1.173
 2043SOL    HW2 7029   6.646   3.912   1.322
 2044SOL     OW 7030   4.945   0.647   0.810
 2044SOL    HW1 7031   4.850   0.678   0.803
 2044SOL    HW2 7032   4.992   0.664   0.724
 2045SOL     OW 7033   1.730   6.478   6.567
 2045SOL    HW1 7034   1.811   6.534   6.585
 2045SOL    HW2 7035   1.693   6.501   6.477
 2046SOL     OW 7036   0.997   2.486   5.158
 2046SOL    HW1 7037   1.043   2.502   5.071
 2046SOL    HW2 7038   1.057   2.513   5.233
 2047SOL     OW 7039   6.551   1.567   6.791
 2047SOL    HW1 7040   6.463   1.537   6.830
 2047SOL    HW2 7041   6.533   1.632   6.716
 2048SOL     OW 7042   1.343   1.431   4.514
 2048SOL    HW1 7043   1.398   1.430   4.431
 2048SOL    HW2 7044   1.326   1.338   4.545
 2049SOL     OW 7045   4.560   1.605   4.596
 2049SOL    HW1 7046   4.585   1.602   4.499
 2049SOL    HW2 7047   4.625   1.663   4.645
 2050SOL     OW 7048   0.675   1.289   3.816
 2050SOL    HW1 7049   0.575   1.289   3.823
 2050SOL    HW2 7050   0.714   1.250   3.899
 2051SOL     OW 7051   3.379   6.043   1.061
 2051SOL    HW1 7052   3.440   5.989   1.005
 2051SOL    HW2 7053   3.370   6.001   1.151
 2052SOL     OW 7054   1.380   4.106   0.073
 2052SOL    HW1 7055   1.397   4.153   0.160
 2052SOL    HW2 7056   1.290   4.063   0.076
 2053SOL     OW 7057   0.865   5.140   3.888
 2053SOL    HW1 7058   0.768   5.120   3.902
 2053SOL    HW2 7059   0.909   5.154   3.977
 2054SOL     OW 7060   3.340   3.261   3.536
 2054SOL    HW1 7061   3.388   3.223   3.458
 2054SOL    HW2 7062   3.241   3.248   3.525
 2055SOL     OW 7063   2.857   2.300   5.832
 2055SOL    HW1 7064   2.946   2.327   5.795
 2055SOL    HW2 7065   2.785   2.349   5.784
 2056SOL     OW 7066   4.262   4.742   1.151
 2056SOL    HW1 7067   4.334   4.684   1.112
 2056SOL    HW2 7068   4.272   4.835   1.116
 2057SOL     OW 7069   5.910   2.297   4.078
 2057SOL    HW1 7070   5.812   2.306   4.063
 2057SOL    HW2 7071   5.958   2.366   4.024
 2058SOL     OW 7072   0.619   5.965   3.447
 2058SOL    HW1 7073   0.544   5.899   3.449
 2058SOL    HW2 7074   0.611   6.023   3.366
 2059SOL     OW 7075   1.678   6.876   5.903
 2059SOL    HW1 7076   1.750   6.889   5.834
 2059SOL    HW2 7077   1.666   6.962   5.954
 2060SOL     OW 7078   1.114   3.617   6.892
 2060SOL    HW1 7079   1.139   3.670   6.811
 2060SOL    HW2 7080   1.117   3.520   6.871
 2061SOL     OW 7081   2.305   2.125   2.860
 2061SOL    HW1 7082   2.208   2.124   2.834
 2061SOL    HW2 7083   2.360   2.148   2.780
 2062SOL     OW 7084   6.846   5.337   5.166
 2062SOL    HW1 7085   6.863   5.345   5.068
 2062SOL    HW2 7086   6.931   5.349   5.216
 2063SOL     OW 7087   1.551   1.099   4.939
 2063SOL    HW1 7088   1.619   1.058   4.878
 2063SOL    HW2 7089   1.497   1.166   4.888
 2064SOL     OW 7090   0.191   3.145   3.659
 2064SOL    HW1 7091   0.247   3.072   3.697
 2064SOL    HW2 7092   0.178   3.129   3.561
 2065SOL     OW 7093   4.478   2.743   5.919
 2065SOL    HW1 7094   4.548   2.701   5.862
 2065SOL    HW2 7095   4.406   2.780   5.861
 2066SOL     OW 7096   6.445   3.076   5.069
 2066SOL    HW1 7097   6.393   3.131   5.003
 2066SOL    HW2 7098   6.528   3.041   5.025
 2067SOL     OW 7099   6.548   4.956   1.100
 2067SOL    HW1 7100   6.560   5.003   1.012
 2067SOL    HW2 7101   6.532   4.859   1.083
 2068SOL     OW 7102   3.763   0.756   4.110
 2068SOL    HW1 7103   3.829   0.820   4.150
 2068SOL    HW2 7104   3.811   0.676   4.075
 2069SOL     OW 7105   0.337   2.568   3.729
 2069SOL    HW1 7106   0.397   2.625   3.786
 2069SOL    HW2 7107   0.248   2.612   3.720
 2070SOL     OW 7108   0.710   4.341   2.337
 2070SOL    HW1 7109   0.696   4.433   2.302
 2070SOL    HW2 7110   0.745   4.282   2.265
 2071SOL     OW 7111   6.643   1.494   5.892
 2071SOL    HW1 7112   6.605   1.444   5.969
 2071SOL    HW2 7113   6.719   1.551   5.922
 2072SOL     OW 7114   3.815   4.725   5.507
 2072SOL    HW1 7115   3.882   4.692   5.574
 2072SOL    HW2 7116   3.849   4.705   5.415
 2073SOL     OW 7117   3.325   6.162   0.466
 2073SOL    HW1 7118   3.383   6.193   0.542
 2073SOL    HW2 7119   3.301   6.066   0.480
 2074SOL     OW 7120   1.238   3.761   5.389
 2074SOL    HW1 7121   1.284   3.845   5.418
 2074SOL    HW2 7122   1.148   3.756   5.432
 2075SOL     OW 7123   6.640   1.845   1.610
 2075SOL    HW1 7124   6.601   1.905   1.540
 2075SOL    HW2 7125   6.604   1.752   1.599
 2076SOL     OW 7126   5.243   6.676   4.491
 2076SOL    HW1 7127   5.178   6.752   4.485
 2076SOL    HW2 7128   5.193   6.590   4.487
 2077SOL     OW 7129   6.901   4.017   0.944
 2077SOL    HW1 7130   6.819   3.962   0.962
 2077SOL    HW2 7131   6.934   4.055   1.030
 2078SOL     OW 7132   1.525   3.331   5.767
 2078SOL    HW1 7133   1.592   3.359   5.835
 2078SOL    HW2 7134   1.433   3.332   5.808
 2079SOL     OW 7135   5.200   1.962   1.928
 2079SOL    HW1 7136   5.173   1.870   1.900
 2079SOL    HW2 7137   5.245   1.958   2.017
 2080SOL     OW 7138   2.289   3.059   5.552
 2080SOL    HW1 7139   2.250   2.970   5.574
 2080SOL    HW2 7140   2.217   3.122   5.525
 2081SOL     OW 7141   6.570   0.261   3.383
 2081SOL    HW1 7142   6.517   0.342   3.359
 2081SOL    HW2 7143   6.619   0.228   3.303
 2082SOL     OW 7144   0.175   6.248   2.398
 2082SOL    HW1 7145   0.156   6.299   2.314
 2082SOL    HW2 7146   0.130   6.158   2.394
 2083SOL     OW 7147   6.961   6.133   4.459
 2083SOL    HW1 7148   6.913   6.111   4.544
 2083SOL    HW2 7149   7.024   6.209   4.474
 2084SOL     OW 7150   0.262   2.719   2.025
 2084SOL    HW1 7151   0.291   2.799   2.076
 2084SOL    HW2 7152   0.261   2.639   2.086
 2085SOL     OW 7153   5.481   5.500   0.838
 2085SOL    HW1 7154   5.392   5.454   0.842
 2085SOL    HW2 7155   5.496   5.551   0.923
 2086SOL     OW 7156   4.267   0.027   6.727
 2086SOL    HW1 7157   4.168   0.033   6.717
 2086SOL    HW2 7158   4.294   6.956   6.733
 2087SOL     OW 7159   4.171   2.272   6.629
 2087SOL    HW1 7160   4.249   2.218   6.663
 2087SOL    HW2 7161   4.132   2.227   6.548
 2088SOL     OW 7162   0.144   5.858   5.083
 2088SOL    HW1 7163   0.099   5.784   5.034
 2088SOL    HW2 7164   0.142   5.839   5.182
 2089SOL     OW 7165   3.162   3.608   6.803
 2089SOL    HW1 7166   3.235   3.639   6.863
 2089SOL    HW2 7167   3.145   3.677   6.733
 2090SOL     OW 7168   4.505   3.369   5.376
 2090SOL    HW1 7169   4.528   3.453   5.328
 2090SOL    HW2 7170   4.575   3.300   5.356
 2091SOL     OW 7171   6.039   5.533   1.828
 2091SOL    HW1 7172   5.955   5.507   1.780
 2091SOL    HW2 7173   6.017   5.557   1.923
 2092SOL     OW 7174   4.515   3.672   1.286
 2092SOL    HW1 7175   4.538   3.760   1.244
 2092SOL    HW2 7176   4.597   3.633   1.327
 2093SOL     OW 7177   3.660   2.087   2.937
 2093SOL    HW1 7178   3.568   2.126   2.926
 2093SOL    HW2 7179   3.655   1.987   2.933
 2094SOL     OW 7180   5.485   2.450   6.291
 2094SOL    HW1 7181   5.426   2.525   6.261
 2094SOL    HW2 7182   5.452   2.415   6.379
 2095SOL     OW 7183   5.220   6.607   3.622
 2095SOL    HW1 7184   5.128   6.584   3.593
 2095SOL    HW2 7185   5.272   6.523   3.639
 2096SOL     OW 7186   4.705   6.665   2.498
 2096SOL    HW1 7187   4.634   6.610   2.454
 2096SOL    HW2 7188   4.662   6.728   2.562
 2097SOL     OW 7189   1.292   5.181   6.388
 2097SOL    HW1 7190   1.278   5.088   6.424
 2097SOL    HW2 7191   1.245   5.189   6.299
 2098SOL     OW 7192   3.174   6.224   3.113
 2098SOL    HW1 7193   3.239   6.294   3.084
 2098SOL    HW2 7194   3.190   6.202   3.210
 2099SOL     OW 7195   5.490   1.460   0.090
 2099SOL    HW1 7196   5.496   1.537   0.152
 2099SOL    HW2 7197   5.579   1.448   0.044
 2100SOL     OW 7198   5.501   0.547   1.264
 2100SOL    HW1 7199   5.542   0.608   1.196
 2100SOL    HW2 7200   5.402   0.560   1.263
 2101SOL     OW 7201   0.160   6.556   1.841
 2101SOL    HW1 7202   0.215   6.475   1.823
 2101SOL    HW2 7203   0.173   6.586   1.936
 2102SOL     OW 7204   3.390   3.414   0.486
 2102SOL    HW1 7205   3.343   3.472   0.552
 2102SOL    HW2 7206   3.424   3.470   0.410
 2103SOL     OW 7207   2.920   6.198   0.921
 2103SOL    HW1 7208   2.866   6.147   0.987
 2103SOL    HW2 7209   2.863   6.268   0.877
 2104SOL     OW 7210   1.360   5.334   2.722
 2104SOL    HW1 7211   1.436   5.294   2.774
 2104SOL    HW2 7212   1.274   5.294   2.753
 2105SOL     OW 7213   5.807   3.798   6.345
 2105SOL    HW1 7214   5.792   3.896   6.329
 2105SOL    HW2 7215   5.895   3.771   6.305
 2106SOL     OW 7216   5.262   3.597   1.741
 2106SOL    HW1 7217   5.180   3.603   1.684
 2106SOL    HW2 7218   5.244   3.640   1.829
 2107SOL     OW 7219   5.713   3.669   5.683
 2107SOL    HW1 7220   5.614   3.675   5.694
 2107SOL    HW2 7221   5.735   3.607   5.608
 2108SOL     OW 7222   5.874   0.236   5.785
 2108SOL    HW1 7223   5.892   0.330   5.814
 2108SOL    HW2 7224   5.843   0.236   5.690
 2109SOL     OW 7225   2.309   5.764   3.389
 2109SOL    HW1 7226   2.213   5.793   3.391
 2109SOL    HW2 7227   2.329   5.711   3.471
 2110SOL     OW 7228   4.271   0.261   6.502
 2110SOL    HW1 7229   4.368   0.242   6.515
 2110SOL    HW2 7230   4.218   0.177   6.519
 2111SOL     OW 7231   1.090   2.314   5.850
 2111SOL    HW1 7232   1.023   2.359   5.791
 2111SOL    HW2 7233   1.182   2.344   5.825
 2112SOL     OW 7234   0.327   1.403   0.264
 2112SOL    HW1 7235   0.377   1.480   0.303
 2112SOL    HW2 7236   0.320   1.414   0.165
 2113SOL     OW 7237   1.419   0.131   4.429
 2113SOL    HW1 7238   1.467   0.151   4.514
 2113SOL    HW2 7239   1.321   0.121   4.447
 2114SOL     OW 7240   2.057   2.293   6.537
 2114SOL    HW1 7241   2.138   2.267   6.591
 2114SOL    HW2 7242   2.051   2.235   6.456
 2115SOL     OW 7243   6.311   5.975   3.365
 2115SOL    HW1 7244   6.272   6.063   3.339
 2115SOL    HW2 7245   6.237   5.909   3.380
 2116SOL     OW 7246   0.613   2.594   6.564
 2116SOL    HW1 7247   0.699   2.593   6.614
 2116SOL    HW2 7248   0.566   2.682   6.580
 2117SOL     OW 7249   6.248   1.123   1.889
 2117SOL    HW1 7250   6.228   1.180   1.968
 2117SOL    HW2 7251   6.169   1.065   1.869
 2118SOL     OW 7252   6.387   2.485   2.110
 2118SOL    HW1 7253   6.311   2.519   2.165
 2118SOL    HW2 7254   6.381   2.385   2.102
 2119SOL     OW 7255   3.211   0.776   0.137
 2119SOL    HW1 7256   3.206   0.780   0.237
 2119SOL    HW2 7257   3.251   0.861   0.102
 2120SOL     OW 7258   5.676   1.711   0.661
 2120SOL    HW1 7259   5.739   1.725   0.585
 2120SOL    HW2 7260   5.681   1.616   0.692
 2121SOL     OW 7261   1.220   0.408   6.634
 2121SOL    HW1 7262   1.284   0.402   6.710
 2121SOL    HW2 7263   1.210   0.504   6.605
 2122SOL     OW 7264   6.011   1.037   4.636
 2122SOL    HW1 7265   6.096   1.087   4.651
 2122SOL    HW2 7266   6.030   0.938   4.640
 2123SOL     OW 7267   1.609   5.922   3.602
 2123SOL    HW1 7268   1.591   5.844   3.662
 2123SOL    HW2 7269   1.674   5.896   3.531
 2124SOL     OW 7270   3.837   3.365   5.934
 2124SOL    HW1 7271   3.745   3.363   5.895
 2124SOL    HW2 7272   3.885   3.446   5.900
 2125SOL     OW 7273   1.196   5.759   3.805
 2125SOL    HW1 7274   1.159   5.667   3.819
 2125SOL    HW2 7275   1.180   5.786   3.710
 2126SOL     OW 7276   3.508   4.463   6.697
 2126SOL    HW1 7277   3.573   4.417   6.637
 2126SOL    HW2 7278   3.418   4.421   6.687
 2127SOL     OW 7279   0.647   2.427   4.974
 2127SOL    HW1 7280   0.626   2.523   4.992
 2127SOL    HW2 7281   0.676   2.417   4.878
 2128SOL     OW 7282   5.368   2.897   1.308
 2128SOL    HW1 7283   5.345   2.939   1.396
 2128SOL    HW2 7284   5.438   2.827   1.322
 2129SOL     OW 7285   5.139   4.490   3.709
 2129SOL    HW1 7286   5.054   4.544   3.706
 2129SOL    HW2 7287   5.183   4.503   3.798
 2130SOL     OW 7288   2.500   1.155   2.870
 2130SOL    HW1 7289   2.480   1.212   2.791
 2130SOL    HW2 7290   2.432   1.173   2.942
 2131SOL     OW 7291   5.855   1.605   5.683
 2131SOL    HW1 7292   5.869   1.626   5.780
 2131SOL    HW2 7293   5.798   1.676   5.641
 2132SOL     OW 7294   2.470   2.467   0.154
 2132SOL    HW1 7295   2.380   2.446   0.191
 2132SOL    HW2 7296   2.532   2.490   0.230
 2133SOL     OW 7297   2.848   2.068   1.912
 2133SOL    HW1 7298   2.890   2.152   1.945
 2133SOL    HW2 7299   2.896   1.989   1.951
 2134SOL     OW 7300   0.874   6.520   5.006
 2134SOL    HW1 7301   0.842   6.612   5.030
 2134SOL    HW2 7302   0.901   6.519   4.910
 2135SOL     OW 7303   0.984   1.070   3.273
 2135SOL    HW1 7304   1.014   1.104   3.184
 2135SOL    HW2 7305   0.912   1.129   3.309
 2136SOL     OW 7306   0.756   4.383   3.806
 2136SOL    HW1 7307   0.806   4.335   3.878
 2136SOL    HW2 7308   0.719   4.316   3.741
 2137SOL     OW 7309   1.653   0.421   5.214
 2137SOL    HW1 7310   1.661   0.508   5.262
 2137SOL    HW2 7311   1.559   0.388   5.222
 2138SOL     OW 7312   0.628   2.450   0.669
 2138SOL    HW1 7313   0.651   2.392   0.747
 2138SOL    HW2 7314   0.649   2.402   0.584
 2139SOL     OW 7315   2.769   0.966   5.692
 2139SOL    HW1 7316   2.841   0.919   5.743
 2139SOL    HW2 7317   2.783   1.065   5.697
 2140SOL     OW 7318   2.638   5.556   3.249
 2140SOL    HW1 7319   2.569   5.515   3.189
 2140SOL    HW2 7320   2.603   5.561   3.343
 2141SOL     OW 7321   5.597   2.381   1.058
 2141SOL    HW1 7322   5.655   2.324   1.001
 2141SOL    HW2 7323   5.518   2.412   1.004
 2142SOL     OW 7324   2.035   2.132   3.330
 2142SOL    HW1 7325   2.124   2.086   3.329
 2142SOL    HW2 7326   2.042   2.219   3.283
 2143SOL     OW 7327   2.871   6.992   1.390
 2143SOL    HW1 7328   2.902   6.898   1.387
 2143SOL    HW2 7329   2.771   6.994   1.389
 2144SOL     OW 7330   0.590   0.897   3.383
 2144SOL    HW1 7331   0.514   0.916   3.321
 2144SOL    HW2 7332   0.606   0.976   3.442
 2145SOL     OW 7333   3.787   5.055   3.362
 2145SOL    HW1 7334   3.769   5.106   3.278
 2145SOL    HW2 7335   3.886   5.041   3.371
 2146SOL     OW 7336   3.833   2.939   3.004
 2146SOL    HW1 7337   3.772   2.875   2.958
 2146SOL    HW2 7338   3.783   3.023   3.025
 2147SOL     OW 7339   1.433   0.808   5.370
 2147SOL    HW1 7340   1.432   0.880   5.300
 2147SOL    HW2 7341   1.339   0.780   5.389
 2148SOL     OW 7342   5.110   3.431   2.780
 2148SOL    HW1 7343   5.197   3.385   2.801
 2148SOL    HW2 7344   5.103   3.446   2.682
 2149SOL     OW 7345   4.199   1.164   2.912
 2149SOL    HW1 7346   4.124   1.132   2.855
 2149SOL    HW2 7347   4.198   1.115   2.999
 2150SOL     OW 7348   3.009   2.152   3.362
 2150SOL    HW1 7349   3.011   2.053   3.378
 2150SOL    HW2 7350   3.095   2.181   3.321
 2151SOL     OW 7351   3.837   2.961   5.475
 2151SOL    HW1 7352   3.894   2.968   5.394
 2151SOL    HW2 7353   3.753   2.912   5.453
 2152SOL     OW 7354   6.283   5.933   1.681
 2152SOL    HW1 7355   6.206   5.870   1.686
 2152SOL    HW2 7356   6.266   6.012   1.740
 2153SOL     OW 7357   4.731   2.781   3.324
 2153SOL    HW1 7358   4.638   2.778   3.360
 2153SOL    HW2 7359   4.754   2.876   3.300
 2154SOL     OW 7360   3.731   6.285   5.234
 2154SOL    HW1 7361   3.805   6.244   5.182
 2154SOL    HW2 7362   3.765   6.317   5.323
 2155SOL     OW 7363   0.055   3.811   0.139
 2155SOL    HW1 7364   0.084   3.906   0.145
 2155SOL    HW2 7365   6.995   3.799   0.191
 2156SOL     OW 7366   2.046   0.298   2.091
 2156SOL    HW1 7367   2.012   0.344   2.009
 2156SOL    HW2 7368   2.085   0.365   2.154
 2157SOL     OW 7369   0.982   1.840   5.014
 2157SOL    HW1 7370   1.076   1.807   5.028
 2157SOL    HW2 7371   0.964   1.848   4.916
 2158SOL     OW 7372   3.160   6.689   1.704
 2158SOL    HW1 7373   3.088   6.721   1.642
 2158SOL    HW2 7374   3.233   6.757   1.707
 2159SOL     OW 7375   1.517   6.581   4.999
 2159SOL    HW1 7376   1.498   6.638   4.918
 2159SOL    HW2 7377   1.508   6.637   5.081
 2160SOL     OW 7378   3.177   3.791   1.111
 2160SOL    HW1 7379   3.214   3.769   1.021
 2160SOL    HW2 7380   3.087   3.749   1.121
 2161SOL     OW 7381   5.677   2.514   3.297
 2161SOL    HW1 7382   5.694   2.609   3.324
 2161SOL    HW2 7383   5.591   2.483   3.338
 2162SOL     OW 7384   0.828   0.374   6.618
 2162SOL    HW1 7385   0.874   0.384   6.706
 2162SOL    HW2 7386   0.767   0.294   6.621
 2163SOL     OW 7387   1.809   1.742   0.581
 2163SOL    HW1 7388   1.855   1.788   0.506
 2163SOL    HW2 7389   1.731   1.797   0.611
 2164SOL     OW 7390   1.366   1.210   0.128
 2164SOL    HW1 7391   1.309   1.160   0.193
 2164SOL    HW2 7392   1.389   1.300   0.166
 2165SOL     OW 7393   2.437   0.039   3.002
 2165SOL    HW1 7394   2.513   7.000   2.998
 2165SOL    HW2 7395   2.459   0.121   2.949
 2166SOL     OW 7396   7.000   2.882   6.440
 2166SOL    HW1 7397   6.936   2.959   6.439
 2166SOL    HW2 7398   7.010   2.846   6.348
 2167SOL     OW 7399   3.378   0.784   2.930
 2167SOL    HW1 7400   3.378   0.691   2.891
 2167SOL    HW2 7401   3.428   0.845   2.868
 2168SOL     OW 7402   5.696   4.962   4.912
 2168SOL    HW1 7403   5.721   4.956   4.815
 2168SOL    HW2 7404   5.779   4.976   4.967
 2169SOL     OW 7405   5.430   1.946   5.878
 2169SOL    HW1 7406   5.473   2.000   5.951
 2169SOL    HW2 7407   5.488   1.949   5.797
 2170SOL     OW 7408   4.050   4.876   4.819
 2170SOL    HW1 7409   3.961   4.902   4.856
 2170SOL    HW2 7410   4.056   4.904   4.723
 2171SOL     OW 7411   0.294   2.612   7.001
 2171SOL    HW1 7412   0.289   2.619   0.075
 2171SOL    HW2 7413   0.237   2.683   6.960
 2172SOL     OW 7414   3.319   0.738   1.052
 2172SOL    HW1 7415   3.415   0.767   1.050
 2172SOL    HW2 7416   3.306   0.659   0.992
 2173SOL     OW 7417   5.483   1.356   5.515
 2173SOL    HW1 7418   5.488   1.298   5.434
 2173SOL    HW2 7419   5.564   1.339   5.572
 2174SOL     OW 7420   0.169   5.284   4.978
 2174SOL    HW1 7421   0.206   5.281   4.885
 2174SOL    HW2 7422   0.196   5.202   5.028
 2175SOL     OW 7423   1.708   6.655   4.639
 2175SOL    HW1 7424   1.656   6.740   4.642
 2175SOL    HW2 7425   1.744   6.634   4.730
 2176SOL     OW 7426   1.648   2.816   3.159
 2176SOL    HW1 7427   1.569   2.779   3.109
 2176SOL    HW2 7428   1.687   2.744   3.217
 2177SOL     OW 7429   0.385   2.548   1.264
 2177SOL    HW1 7430   0.363   2.569   1.168
 2177SOL    HW2 7431   0.471   2.497   1.268
 2178SOL     OW 7432   0.446   4.760   0.126
 2178SOL    HW1 7433   0.353   4.797   0.119
 2178SOL    HW2 7434   0.473   4.754   0.222
 2179SOL     OW 7435   1.515   5.415   4.431
 2179SOL    HW1 7436   1.468   5.334   4.397
 2179SOL    HW2 7437   1.595   5.388   4.485
 2180SOL     OW 7438   3.416   2.856   2.764
 2180SOL    HW1 7439   3.392   2.760   2.746
 2180SOL    HW2 7440   3.419   2.871   2.863
 2181SOL     OW 7441   4.861   5.391   6.069
 2181SOL    HW1 7442   4.831   5.479   6.030
 2181SOL    HW2 7443   4.792   5.322   6.052
 2182SOL     OW 7444   6.437   3.050   6.288
 2182SOL    HW1 7445   6.341   3.065   6.264
 2182SOL    HW2 7446   6.445   3.028   6.385
 2183SOL     OW 7447   3.620   3.241   1.038
 2183SOL    HW1 7448   3.644   3.312   1.104
 2183SOL    HW2 7449   3.629   3.151   1.080
 2184SOL     OW 7450   3.897   2.551   6.556
 2184SOL    HW1 7451   3.980   2.539   6.501
 2184SOL    HW2 7452   3.884   2.471   6.614
 2185SOL     OW 7453   1.513   1.157   1.512
 2185SOL    HW1 7454   1.459   1.090   1.563
 2185SOL    HW2 7455   1.593   1.182   1.565
 2186SOL     OW 7456   0.470   6.082   3.238
 2186SOL    HW1 7457   0.493   6.177   3.215
 2186SOL    HW2 7458   0.374   6.078   3.267
 2187SOL     OW 7459   0.168   1.085   6.169
 2187SOL    HW1 7460   0.260   1.108   6.137
 2187SOL    HW2 7461   0.152   0.987   6.158
 2188SOL     OW 7462   5.709   0.333   3.135
 2188SOL    HW1 7463   5.665   0.369   3.053
 2188SOL    HW2 7464   5.806   0.319   3.118
 2189SOL     OW 7465   2.197   0.212   6.628
 2189SOL    HW1 7466   2.173   0.256   6.714
 2189SOL    HW2 7467   2.114   0.172   6.588
 2190SOL     OW 7468   4.981   2.048   2.110
 2190SOL    HW1 7469   4.959   2.012   2.020
 2190SOL    HW2 7470   5.080   2.040   2.127
 2191SOL     OW 7471   3.313   2.846   6.580
 2191SOL    HW1 7472   3.268   2.758   6.564
 2191SOL    HW2 7473   3.403   2.845   6.536
 2192SOL     OW 7474   4.868   5.925   4.728
 2192SOL    HW1 7475   4.824   5.839   4.704
 2192SOL    HW2 7476   4.855   5.992   4.655
 2193SOL     OW 7477   1.285   4.796   6.264
 2193SOL    HW1 7478   1.205   4.739   6.245
 2193SOL    HW2 7479   1.305   4.854   6.185
 2194SOL     OW 7480   2.670   0.418   1.839
 2194SOL    HW1 7481   2.614   0.350   1.888
 2194SOL    HW2 7482   2.711   0.481   1.905
 2195SOL     OW 7483   1.512   4.783   2.702
 2195SOL    HW1 7484   1.470   4.845   2.635
 2195SOL    HW2 7485   1.514   4.690   2.665
 2196SOL     OW 7486   3.283   2.341   6.426
 2196SOL    HW1 7487   3.291   2.402   6.347
 2196SOL    HW2 7488   3.371   2.295   6.441
 2197SOL     OW 7489   4.484   5.269   0.971
 2197SOL    HW1 7490   4.555   5.332   1.001
 2197SOL    HW2 7491   4.505   5.177   1.003
 2198SOL     OW 7492   6.496   3.643   0.276
 2198SOL    HW1 7493   6.516   3.677   0.368
 2198SOL    HW2 7494   6.511   3.544   0.273
 2199SOL     OW 7495   5.019   0.447   1.594
 2199SOL    HW1 7496   5.064   0.405   1.516
 2199SOL    HW2 7497   4.941   0.391   1.623
 2200SOL     OW 7498   3.158   0.940   4.989
 2200SOL    HW1 7499   3.097   0.941   4.909
 2200SOL    HW2 7500   3.135   0.862   5.047
 2201SOL     OW 7501   5.448   3.147   1.774
 2201SOL    HW1 7502   5.523   3.083   1.791
 2201SOL    HW2 7503   5.474   3.238   1.806
 2202SOL     OW 7504   4.459   6.100   3.772
 2202SOL    HW1 7505   4.447   6.198   3.790
 2202SOL    HW2 7506   4.423   6.078   3.681
 2203SOL     OW 7507   3.261   2.170   3.259
 2203SOL    HW1 7508   3.241   2.144   3.164
 2203SOL    HW2 7509   3.360   2.183   3.269
 2204SOL     OW 7510   3.296   2.757   0.337
 2204SOL    HW1 7511   3.314   2.848   0.298
 2204SOL    HW2 7512   3.257   2.698   0.266
 2205SOL     OW 7513   2.940   6.705   0.582
 2205SOL    HW1 7514   3.014   6.645   0.614
 2205SOL    HW2 7515   2.979   6.789   0.545
 2206SOL     OW 7516   2.100   2.978   6.764
 2206SOL    HW1 7517   2.196   3.002   6.752
 2206SOL    HW2 7518   2.042   3.053   6.733
 2207SOL     OW 7519   0.925   4.104   5.571
 2207SOL    HW1 7520   0.915   4.050   5.655
 2207SOL    HW2 7521   0.836   4.145   5.548
 2208SOL     OW 7522   0.638   4.151   1.834
 2208SOL    HW1 7523   0.579   4.093   1.890
 2208SOL    HW2 7524   0.734   4.131   1.856
 2209SOL     OW 7525   1.120   5.957   0.391
 2209SOL    HW1 7526   1.213   5.950   0.429
 2209SOL    HW2 7527   1.055   5.914   0.453
 2210SOL     OW 7528   0.549   6.037   4.248
 2210SOL    HW1 7529   0.615   5.963   4.261
 2210SOL    HW2 7530   0.459   5.999   4.229
 2211SOL     OW 7531   6.418   1.522   5.507
 2211SOL    HW1 7532   6.395   1.485   5.417
 2211SOL    HW2 7533   6.334   1.545   5.556
 2212SOL     OW 7534   1.385   0.002   6.157
 2212SOL    HW1 7535   1.361   0.066   6.230
 2212SOL    HW2 7536   1.478   0.020   6.125
 2213SOL     OW 7537   3.689   1.355   3.604
 2213SOL    HW1 7538   3.682   1.440   3.552
 2213SOL    HW2 7539   3.772   1.356   3.660
 2214SOL     OW 7540   4.048   0.062   4.108
 2214SOL    HW1 7541   4.049   7.006   4.049
 2214SOL    HW2 7542   4.132   0.064   4.163
 2215SOL     OW 7543   5.855   2.520   5.514
 2215SOL    HW1 7544   5.810   2.554   5.431
 2215SOL    HW2 7545   5.831   2.424   5.528
 2216SOL     OW 7546   2.146   0.033   1.654
 2216SOL    HW1 7547   2.187   6.976   1.695
 2216SOL    HW2 7548   2.116   0.094   1.727
 2217SOL     OW 7549   3.951   0.537   1.251
 2217SOL    HW1 7550   4.000   0.596   1.315
 2217SOL    HW2 7551   3.874   0.494   1.298
 2218SOL     OW 7552   0.979   5.563   0.969
 2218SOL    HW1 7553   0.927   5.648   0.960
 2218SOL    HW2 7554   0.937   5.492   0.911
 2219SOL     OW 7555   1.216   3.607   3.355
 2219SOL    HW1 7556   1.248   3.559   3.436
 2219SOL    HW2 7557   1.197   3.702   3.377
 2220SOL     OW 7558   0.130   1.240   6.830
 2220SOL    HW1 7559   0.061   1.173   6.856
 2220SOL    HW2 7560   0.170   1.215   6.742
 2221SOL     OW 7561   0.079   2.467   0.993
 2221SOL    HW1 7562   0.057   2.397   1.062
 2221SOL    HW2 7563   7.021   2.516   0.968
 2222SOL     OW 7564   5.185   6.689   2.516
 2222SOL    HW1 7565   5.153   6.599   2.487
 2222SOL    HW2 7566   5.129   6.721   2.593
 2223SOL     OW 7567   5.192   5.587   2.183
 2223SOL    HW1 7568   5.103   5.541   2.176
 2223SOL    HW2 7569   5.249   5.538   2.248
 2224SOL     OW 7570   1.585   4.885   1.201
 2224SOL    HW1 7571   1.512   4.869   1.134
 2224SOL    HW2 7572   1.581   4.980   1.232
 2225SOL     OW 7573   6.251   4.774   1.999
 2225SOL    HW1 7574   6.228   4.779   1.901
 2225SOL    HW2 7575   6.344   4.805   2.013
 2226SOL     OW 7576   4.526   4.152   1.186
 2226SOL    HW1 7577   4.489   4.159   1.278
 2226SOL    HW2 7578   4.500   4.065   1.145
 2227SOL     OW 7579   0.508   4.232   5.072
 2227SOL    HW1 7580   0.416   4.213   5.105
 2227SOL    HW2 7581   0.564   4.149   5.079
 2228SOL     OW 7582   2.940   4.897   5.621
 2228SOL    HW1 7583   3.029   4.853   5.612
 2228SOL    HW2 7584   2.913   4.899   5.717
 2229SOL     OW 7585   4.760   0.579   3.271
 2229SOL    HW1 7586   4.677   0.580   3.326
 2229SOL    HW2 7587   4.737   0.558   3.176
 2230SOL     OW 7588   1.150   6.122   0.104
 2230SOL    HW1 7589   1.243   6.095   0.082
 2230SOL    HW2 7590   1.149   6.169   0.193
 2231SOL     OW 7591   2.690   0.021   1.898
 2231SOL    HW1 7592   2.652   0.050   1.810
 2231SOL    HW2 7593   2.667   6.950   1.915
 2232SOL     OW 7594   6.466   3.181   2.970
 2232SOL    HW1 7595   6.440   3.149   2.878
 2232SOL    HW2 7596   6.565   3.182   2.978
 2233SOL     OW 7597   3.825   0.633   6.853
 2233SOL    HW1 7598   3.886   0.660   6.779
 2233SOL    HW2 7599   3.840   0.537   6.876
 2234SOL     OW 7600   3.349   1.536   0.652
 2234SOL    HW1 7601   3.400   1.450   0.640
 2234SOL    HW2 7602   3.291   1.551   0.572
 2235SOL     OW 7603   1.895   6.798   1.293
 2235SOL    HW1 7604   1.905   6.799   1.393
 2235SOL    HW2 7605   1.977   6.838   1.252
 2236SOL     OW 7606   6.552   4.201   0.710
 2236SOL    HW1 7607   6.505   4.142   0.645
 2236SOL    HW2 7608   6.490   4.223   0.785
 2237SOL     OW 7609   6.408   2.372   4.045
 2237SOL    HW1 7610   6.460   2.307   4.101
 2237SOL    HW2 7611   6.364   2.324   3.970
 2238SOL     OW 7612   0.801   6.042   2.243
 2238SOL    HW1 7613   0.881   5.994   2.278
 2238SOL    HW2 7614   0.822   6.080   2.153
 2239SOL     OW 7615   4.540   5.079   3.008
 2239SOL    HW1 7616   4.545   5.079   3.108
 2239SOL    HW2 7617   4.620   5.126   2.971
 2240SOL     OW 7618   5.765   4.123   2.475
 2240SOL    HW1 7619   5.769   4.031   2.437
 2240SOL    HW2 7620   5.842   4.137   2.538
 2241SOL     OW 7621   0.669   0.332   2.132
 2241SOL    HW1 7622   0.675   0.272   2.211
 2241SOL    HW2 7623   0.580   0.377   2.131
 2242SOL     OW 7624   5.256   2.228   2.413
 2242SOL    HW1 7625   5.188   2.287   2.457
 2242SOL    HW2 7626   5.322   2.285   2.364
 2243SOL     OW 7627   2.286   6.068   5.316
 2243SOL    HW1 7628   2.383   6.050   5.334
 2243SOL    HW2 7629   2.275   6.160   5.280
 2244SOL     OW 7630   2.821   0.676   5.183
 2244SOL    HW1 7631   2.780   0.688   5.093
 2244SOL    HW2 7632   2.749   0.669   5.252
 2245SOL     OW 7633   1.485   1.655   1.478
 2245SOL    HW1 7634   1.457   1.616   1.390
 2245SOL    HW2 7635   1.451   1.596   1.552
 2246SOL     OW 7636   1.516   3.663   4.924
 2246SOL    HW1 7637   1.442   3.709   4.974
 2246SOL    HW2 7638   1.585   3.731   4.897
 2247SOL     OW 7639   1.728   2.010   6.047
 2247SOL    HW1 7640   1.631   1.992   6.064
 2247SOL    HW2 7641   1.778   2.008   6.134
 2248SOL     OW 7642   5.209   3.280   4.926
 2248SOL    HW1 7643   5.235   3.188   4.896
 2248SOL    HW2 7644   5.285   3.321   4.977
 2249SOL     OW 7645   4.891   5.375   4.525
 2249SOL    HW1 7646   4.892   5.435   4.446
 2249SOL    HW2 7647   4.951   5.297   4.509
 2250SOL     OW 7648   5.993   4.656   6.978
 2250SOL    HW1 7649   5.990   4.718   6.899
 2250SOL    HW2 7650   5.901   4.622   6.997
 2251SOL     OW 7651   6.345   0.902   6.725
 2251SOL    HW1 7652   6.254   0.913   6.684
 2251SOL    HW2 7653   6.388   0.991   6.736
 2252SOL     OW 7654   4.004   1.868   5.705
 2252SOL    HW1 7655   4.063   1.942   5.737
 2252SOL    HW2 7656   3.923   1.862   5.764
 2253SOL     OW 7657   1.939   3.205   6.664
 2253SOL    HW1 7658   1.908   3.288   6.711
 2253SOL    HW2 7659   1.895   3.199   6.574
 2254SOL     OW 7660   2.086   3.642   6.617
 2254SOL    HW1 7661   2.050   3.565   6.564
 2254SOL    HW2 7662   2.012   3.706   6.638
 2255SOL     OW 7663   5.762   2.745   1.778
 2255SOL    HW1 7664   5.822   2.667   1.761
 2255SOL    HW2 7665   5.814   2.819   1.820
 2256SOL     OW 7666   4.088   4.823   1.565
 2256SOL    HW1 7667   4.068   4.909   1.612
 2256SOL    HW2 7668   4.085   4.748   1.631
 2257SOL     OW 7669   2.315   4.207   4.174
 2257SOL    HW1 7670   2.285   4.124   4.127
 2257SOL    HW2 7671   2.387   4.251   4.121
 2258SOL     OW 7672   1.511   5.548   4.022
 2258SOL    HW1 7673   1.414   5.560   4.004
 2258SOL    HW2 7674   1.559   5.634   4.004
 2259SOL     OW 7675   5.973   2.833   6.788
 2259SOL    HW1 7676   5.973   2.736   6.762
 2259SOL    HW2 7677   6.042   2.882   6.734
 2260SOL     OW 7678   5.694   5.334   0.749
 2260SOL    HW1 7679   5.731   5.284   0.828
 2260SOL    HW2 7680   5.642   5.413   0.781
 2261SOL     OW 7681   4.375   6.156   6.126
 2261SOL    HW1 7682   4.336   6.091   6.061
 2261SOL    HW2 7683   4.459   6.117   6.165
 2262SOL     OW 7684   3.999   1.941   3.111
 2262SOL    HW1 7685   3.947   2.027   3.109
 2262SOL    HW2 7686   4.043   1.927   3.022
 2263SOL     OW 7687   0.228   5.317   6.321
 2263SOL    HW1 7688   0.272   5.233   6.351
 2263SOL    HW2 7689   0.262   5.394   6.375
 2264SOL     OW 7690   3.098   4.030   4.006
 2264SOL    HW1 7691   3.108   4.001   3.911
 2264SOL    HW2 7692   3.023   3.979   4.049
 2265SOL     OW 7693   0.255   0.523   1.604
 2265SOL    HW1 7694   0.248   0.439   1.550
 2265SOL    HW2 7695   0.257   0.602   1.543
 2266SOL     OW 7696   5.943   6.649   0.954
 2266SOL    HW1 7697   5.956   6.578   1.024
 2266SOL    HW2 7698   5.929   6.737   0.998
 2267SOL     OW 7699   5.523   1.988   5.619
 2267SOL    HW1 7700   5.482   1.913   5.567
 2267SOL    HW2 7701   5.455   2.060   5.633
 2268SOL     OW 7702   6.263   5.553   0.290
 2268SOL    HW1 7703   6.215   5.636   0.319
 2268SOL    HW2 7704   6.264   5.488   0.366
 2269SOL     OW 7705   0.114   5.471   5.168
 2269SOL    HW1 7706   0.154   5.398   5.112
 2269SOL    HW2 7707   0.140   5.560   5.130
 2270SOL     OW 7708   4.155   3.479   1.808
 2270SOL    HW1 7709   4.114   3.391   1.832
 2270SOL    HW2 7710   4.249   3.465   1.777
 2271SOL     OW 7711   5.678   4.315   2.835
 2271SOL    HW1 7712   5.731   4.384   2.884
 2271SOL    HW2 7713   5.675   4.338   2.737
 2272SOL     OW 7714   5.372   2.081   6.247
 2272SOL    HW1 7715   5.377   1.982   6.260
 2272SOL    HW2 7716   5.347   2.124   6.334
 2273SOL     OW 7717   1.618   1.720   3.471
 2273SOL    HW1 7718   1.550   1.652   3.442
 2273SOL    HW2 7719   1.702   1.708   3.417
 2274SOL     OW 7720   1.811   3.625   3.601
 2274SOL    HW1 7721   1.834   3.694   3.670
 2274SOL    HW2 7722   1.844   3.536   3.630
 2275SOL     OW 7723   4.996   6.232   3.623
 2275SOL    HW1 7724   4.918   6.178   3.654
 2275SOL    HW2 7725   5.079   6.200   3.670
 2276SOL     OW 7726   4.896   5.015   1.198
 2276SOL    HW1 7727   4.947   4.929   1.196
 2276SOL    HW2 7728   4.932   5.074   1.271
 2277SOL     OW 7729   3.029   3.957   0.287
 2277SOL    HW1 7730   2.976   3.881   0.325
 2277SOL    HW2 7731   2.988   4.044   0.316
 2278SOL     OW 7732   5.744   6.286   1.187
 2278SOL    HW1 7733   5.679   6.331   1.126
 2278SOL    HW2 7734   5.835   6.324   1.173
 2279SOL     OW 7735   5.709   4.301   4.587
 2279SOL    HW1 7736   5.687   4.375   4.649
 2279SOL    HW2 7737   5.770   4.236   4.632
 2280SOL     OW 7738   5.698   6.853   6.131
 2280SOL    HW1 7739   5.701   6.839   6.032
 2280SOL    HW2 7740   5.762   6.925   6.157
 2281SOL     OW 7741   3.665   3.112   0.790
 2281SOL    HW1 7742   3.590   3.047   0.802
 2281SOL    HW2 7743   3.665   3.178   0.864
 2282SOL     OW 7744   3.740   5.239   3.169
 2282SOL    HW1 7745   3.681   5.234   3.088
 2282SOL    HW2 7746   3.767   5.334   3.184
 2283SOL     OW 7747   6.979   3.710   2.921
 2283SOL    HW1 7748   6.991   3.776   2.847
 2283SOL    HW2 7749   6.959   3.759   3.006
 2284SOL     OW 7750   2.289   2.780   1.996
 2284SOL    HW1 7751   2.300   2.746   1.902
 2284SOL    HW2 7752   2.285   2.879   1.995
 2285SOL     OW 7753   2.417   4.508   0.218
 2285SOL    HW1 7754   2.384   4.416   0.236
 2285SOL    HW2 7755   2.467   4.542   0.297
 2286SOL     OW 7756   6.026   6.586   4.458
 2286SOL    HW1 7757   6.125   6.599   4.472
 2286SOL    HW2 7758   5.994   6.509   4.514
 2287SOL     OW 7759   2.018   3.071   1.811
 2287SOL    HW1 7760   1.987   2.976   1.806
 2287SOL    HW2 7761   2.073   3.092   1.731
 2288SOL     OW 7762   0.482   6.503   4.068
 2288SOL    HW1 7763   0.581   6.501   4.084
 2288SOL    HW2 7764   0.434   6.477   4.152
 2289SOL     OW 7765   4.682   2.638   1.297
 2289SOL    HW1 7766   4.690   2.734   1.324
 2289SOL    HW2 7767   4.677   2.581   1.379
 2290SOL     OW 7768   3.311   3.384   3.280
 2290SOL    HW1 7769   3.233   3.438   3.249
 2290SOL    HW2 7770   3.343   3.417   3.369
 2291SOL     OW 7771   2.227   2.423   6.863
 2291SOL    HW1 7772   2.145   2.393   6.913
 2291SOL    HW2 7773   2.268   2.501   6.911
 2292SOL     OW 7774   4.404   2.127   2.730
 2292SOL    HW1 7775   4.354   2.043   2.712
 2292SOL    HW2 7776   4.496   2.121   2.692
 2293SOL     OW 7777   6.340   1.887   0.109
 2293SOL    HW1 7778   6.338   1.981   0.144
 2293SOL    HW2 7779   6.347   1.889   0.009
 2294SOL     OW 7780   0.315   1.756   5.710
 2294SOL    HW1 7781   0.317   1.661   5.680
 2294SOL    HW2 7782   0.235   1.771   5.768
 2295SOL     OW 7783   5.980   6.417   1.118
 2295SOL    HW1 7784   6.066   6.394   1.074
 2295SOL    HW2 7785   5.996   6.486   1.189
 2296SOL     OW 7786   2.977   5.790   4.313
 2296SOL    HW1 7787   2.917   5.870   4.309
 2296SOL    HW2 7788   2.969   5.747   4.403
 2297SOL     OW 7789   4.192   4.380   5.422
 2297SOL    HW1 7790   4.214   4.383   5.324
 2297SOL    HW2 7791   4.096   4.356   5.435
 2298SOL     OW 7792   4.153   3.596   4.500
 2298SOL    HW1 7793   4.147   3.515   4.441
 2298SOL    HW2 7794   4.069   3.604   4.554
 2299SOL     OW 7795   5.451   3.566   4.846
 2299SOL    HW1 7796   5.407   3.606   4.766
 2299SOL    HW2 7797   5.411   3.605   4.929
 2300SOL     OW 7798   4.486   6.543   2.382
 2300SOL    HW1 7799   4.468   6.588   2.295
 2300SOL    HW2 7800   4.408   6.484   2.406
 2301SOL     OW 7801   3.915   3.204   4.364
 2301SOL    HW1 7802   4.005   3.246   4.362
 2301SOL    HW2 7803   3.880   3.204   4.457
 2302SOL     OW 7804   4.172   2.420   0.646
 2302SOL    HW1 7805   4.074   2.405   0.652
 2302SOL    HW2 7806   4.194   2.474   0.565
 2303SOL     OW 7807   3.714   2.380   0.244
 2303SOL    HW1 7808   3.644   2.332   0.191
 2303SOL    HW2 7809   3.799   2.383   0.191
 2304SOL     OW 7810   5.385   5.991   2.052
 2304SOL    HW1 7811   5.316   5.989   2.125
 2304SOL    HW2 7812   5.396   5.899   2.014
 2305SOL     OW 7813   2.165   1.074   5.333
 2305SOL    HW1 7814   2.251   1.126   5.336
 2305SOL    HW2 7815   2.106   1.113   5.262
 2306SOL     OW 7816   1.886   5.097   4.029
 2306SOL    HW1 7817   1.964   5.102   4.092
 2306SOL    HW2 7818   1.878   5.184   3.980
 2307SOL     OW 7819   0.089   3.500   6.109
 2307SOL    HW1 7820   0.107   3.572   6.041
 2307SOL    HW2 7821   0.092   3.411   6.065
 2308SOL     OW 7822   2.196   4.717   1.766
 2308SOL    HW1 7823   2.244   4.754   1.686
 2308SOL    HW2 7824   2.240   4.751   1.849
 2309SOL     OW 7825   2.266   6.631   5.592
 2309SOL    HW1 7826   2.176   6.590   5.609
 2309SOL    HW2 7827   2.324   6.620   5.673
 2310SOL     OW 7828   4.708   6.752   1.316
 2310SOL    HW1 7829   4.776   6.682   1.292
 2310SOL    HW2 7830   4.619   6.726   1.279
 2311SOL     OW 7831   2.862   5.905   1.444
 2311SOL    HW1 7832   2.938   5.842   1.426
 2311SOL    HW2 7833   2.862   5.931   1.540
 2312SOL     OW 7834   3.162   4.892   2.865
 2312SOL    HW1 7835   3.076   4.848   2.838
 2312SOL    HW2 7836   3.167   4.897   2.964
 2313SOL     OW 7837   4.405   5.885   1.708
 2313SOL    HW1 7838   4.367   5.793   1.698
 2313SOL    HW2 7839   4.390   5.937   1.623
 2314SOL     OW 7840   2.092   5.398   4.134
 2314SOL    HW1 7841   2.143   5.387   4.048
 2314SOL    HW2 7842   2.030   5.476   4.125
 2315SOL     OW 7843   4.377   3.036   6.446
 2315SOL    HW1 7844   4.317   3.106   6.486
 2315SOL    HW2 7845   4.325   2.982   6.380
 2316SOL     OW 7846   5.570   3.471   2.508
 2316SOL    HW1 7847   5.538   3.477   2.602
 2316SOL    HW2 7848   5.665   3.441   2.507
 2317SOL     OW 7849   1.061   4.765   3.983
 2317SOL    HW1 7850   1.015   4.801   3.902
 2317SOL    HW2 7851   1.146   4.720   3.956
 2318SOL     OW 7852   6.940   1.487   3.467
 2318SOL    HW1 7853   6.982   1.403   3.502
 2318SOL    HW2 7854   6.967   1.564   3.525
 2319SOL     OW 7855   0.875   4.077   3.900
 2319SOL    HW1 7856   0.907   3.989   3.864
 2319SOL    HW2 7857   0.953   4.137   3.917
 2320SOL     OW 7858   6.345   4.247   4.905
 2320SOL    HW1 7859   6.358   4.193   4.823
 2320SOL    HW2 7860   6.339   4.344   4.881
 2321SOL     OW 7861   2.580   6.087   5.302
 2321SOL    HW1 7862   2.595   6.182   5.274
 2321SOL    HW2 7863   2.653   6.059   5.364
 2322SOL     OW 7864   2.712   0.297   5.884
 2322SOL    HW1 7865   2.776   0.326   5.955
 2322SOL    HW2 7866   2.619   0.301   5.920
 2323SOL     OW 7867   5.211   5.000   2.063
 2323SOL    HW1 7868   5.301   4.965   2.036
 2323SOL    HW2 7869   5.219   5.052   2.147
 2324SOL     OW 7870   6.574   5.204   3.591
 2324SOL    HW1 7871   6.530   5.260   3.661
 2324SOL    HW2 7872   6.514   5.128   3.566
 2325SOL     OW 7873   6.636   3.244   0.758
 2325SOL    HW1 7874   6.620   3.189   0.839
 2325SOL    HW2 7875   6.717   3.301   0.771
 2326SOL     OW 7876   1.761   5.078   6.957
 2326SOL    HW1 7877   1.815   5.105   6.877
 2326SOL    HW2 7878   1.817   5.085   0.014
 2327SOL     OW 7879   5.435   2.571   5.234
 2327SOL    HW1 7880   5.361   2.578   5.166
 2327SOL    HW2 7881   5.416   2.495   5.295
 2328SOL     OW 7882   4.958   6.498   3.500
 2328SOL    HW1 7883   4.859   6.495   3.485
 2328SOL    HW2 7884   4.984   6.423   3.561
 2329SOL     OW 7885   6.952   5.989   3.718
 2329SOL    HW1 7886   0.026   5.985   3.705
 2329SOL    HW2 7887   6.909   6.018   3.632
 2330SOL     OW 7888   0.537   3.828   2.678
 2330SOL    HW1 7889   0.523   3.743   2.627
 2330SOL    HW2 7890   0.634   3.838   2.700
 2331SOL     OW 7891   1.044   4.561   5.348
 2331SOL    HW1 7892   1.034   4.496   5.423
 2331SOL    HW2 7893   1.022   4.653   5.382
 2332SOL     OW 7894   5.653   2.881   4.731
 2332SOL    HW1 7895   5.650   2.973   4.772
 2332SOL    HW2 7896   5.710   2.882   4.649
 2333SOL     OW 7897   1.180   5.432   4.267
 2333SOL    HW1 7898   1.225   5.472   4.347
 2333SOL    HW2 7899   1.200   5.488   4.186
 2334SOL     OW 7900   2.770   0.191   0.439
 2334SOL    HW1 7901   2.717   0.238   0.368
 2334SOL    HW2 7902   2.713   0.176   0.519
 2335SOL     OW 7903   5.093   0.156   3.912
 2335SOL    HW1 7904   5.186   0.129   3.938
 2335SOL    HW2 7905   5.079   0.253   3.933
 2336SOL     OW 7906   4.580   1.306   6.426
 2336SOL    HW1 7907   4.618   1.225   6.382
 2336SOL    HW2 7908   4.528   1.359   6.359
 2337SOL     OW 7909   5.650   0.510   2.679
 2337SOL    HW1 7910   5.583   0.576   2.646
 2337SOL    HW2 7911   5.728   0.508   2.617
 2338SOL     OW 7912   1.090   6.886   6.306
 2338SOL    HW1 7913   1.141   6.964   6.342
 2338SOL    HW2 7914   1.134   6.801   6.336
 2339SOL     OW 7915   3.655   4.382   0.302
 2339SOL    HW1 7916   3.728   4.377   0.233
 2339SOL    HW2 7917   3.603   4.297   0.301
 2340SOL     OW 7918   3.398   5.100   4.835
 2340SOL    HW1 7919   3.362   5.188   4.868
 2340SOL    HW2 7920   3.359   5.026   4.889
 2341SOL     OW 7921   5.878   5.316   0.131
 2341SOL    HW1 7922   5.820   5.261   0.190
 2341SOL    HW2 7923   5.944   5.257   0.085
 2342SOL     OW 7924   6.432   0.199   5.142
 2342SOL    HW1 7925   6.495   0.213   5.065
 2342SOL    HW2 7926   6.415   0.101   5.155
 2343SOL     OW 7927   1.156   6.727   0.419
 2343SOL    HW1 7928   1.255   6.731   0.425
 2343SOL    HW2 7929   1.121   6.663   0.488
 2344SOL     OW 7930   1.776   1.787   2.543
 2344SOL    HW1 7931   1.754   1.707   2.599
 2344SOL    HW2 7932   1.839   1.846   2.592
 2345SOL     OW 7933   2.216   1.605   3.946
 2345SOL    HW1 7934   2.133   1.550   3.936
 2345SOL    HW2 7935   2.291   1.563   3.895
 2346SOL     OW 7936   4.769   3.516   5.873
 2346SOL    HW1 7937   4.682   3.515   5.922
 2346SOL    HW2 7938   4.805   3.423   5.867
 2347SOL     OW 7939   1.263   3.041   1.136
 2347SOL    HW1 7940   1.326   3.070   1.208
 2347SOL    HW2 7941   1.298   2.960   1.091
 2348SOL     OW 7942   2.610   6.513   2.341
 2348SOL    HW1 7943   2.548   6.491   2.416
 2348SOL    HW2 7944   2.682   6.574   2.375
 2349SOL     OW 7945   4.781   5.680   5.978
 2349SOL    HW1 7946   4.870   5.720   5.957
 2349SOL    HW2 7947   4.719   5.694   5.900
 2350SOL     OW 7948   2.399   6.470   5.337
 2350SOL    HW1 7949   2.382   6.448   5.240
 2350SOL    HW2 7950   2.331   6.537   5.368
 2351SOL     OW 7951   2.333   5.414   4.288
 2351SOL    HW1 7952   2.367   5.507   4.302
 2351SOL    HW2 7953   2.259   5.416   4.220
 2352SOL     OW 7954   0.270   3.358   2.133
 2352SOL    HW1 7955   0.255   3.260   2.124
 2352SOL    HW2 7956   0.252   3.387   2.227
 2353SOL     OW 7957   2.584   4.301   6.312
 2353SOL    HW1 7958   2.513   4.356   6.269
 2353SOL    HW2 7959   2.555   4.205   6.314
 2354SOL     OW 7960   3.925   2.705   0.854
 2354SOL    HW1 7961   3.959   2.628   0.800
 2354SOL    HW2 7962   3.825   2.705   0.853
 2355SOL     OW 7963   0.731   6.932   1.004
 2355SOL    HW1 7964   0.667   6.978   0.942
 2355SOL    HW2 7965   0.689   6.847   1.037
 2356SOL     OW 7966   2.797   5.305   3.294
 2356SOL    HW1 7967   2.800   5.324   3.392
 2356SOL    HW2 7968   2.792   5.391   3.243
 2357SOL     OW 7969   6.773   4.429   1.215
 2357SOL    HW1 7970   6.808   4.456   1.125
 2357SOL    HW2 7971   6.686   4.474   1.233
 2358SOL     OW 7972   3.964   1.352   5.703
 2358SOL    HW1 7973   3.921   1.434   5.743
 2358SOL    HW2 7974   3.898   1.306   5.645
 2359SOL     OW 7975   1.405   1.576   5.481
 2359SOL    HW1 7976   1.408   1.510   5.556
 2359SOL    HW2 7977   1.461   1.543   5.406
 2360SOL     OW 7978   4.340   4.363   0.409
 2360SOL    HW1 7979   4.394   4.447   0.400
 2360SOL    HW2 7980   4.381   4.290   0.354
 2361SOL     OW 7981   3.968   6.091   1.884
 2361SOL    HW1 7982   3.900   6.121   1.816
 2361SOL    HW2 7983   4.057   6.131   1.861
 2362SOL     OW 7984   3.758   6.160   3.788
 2362SOL    HW1 7985   3.848   6.139   3.750
 2362SOL    HW2 7986   3.763   6.162   3.887
 2363SOL     OW 7987   2.774   4.146   0.817
 2363SOL    HW1 7988   2.855   4.204   0.828
 2363SOL    HW2 7989   2.787   4.086   0.738
 2364SOL     OW 7990   4.347   1.685   2.491
 2364SOL    HW1 7991   4.381   1.751   2.424
 2364SOL    HW2 7992   4.304   1.734   2.567
 2365SOL     OW 7993   4.859   3.319   3.438
 2365SOL    HW1 7994   4.881   3.331   3.535
 2365SOL    HW2 7995   4.854   3.221   3.418
 2366SOL     OW 7996   2.624   4.703   5.129
 2366SOL    HW1 7997   2.589   4.616   5.164
 2366SOL    HW2 7998   2.720   4.691   5.102
 2367SOL     OW 7999   6.663   4.720   6.031
 2367SOL    HW1 8000   6.648   4.791   6.100
 2367SOL    HW2 8001   6.731   4.655   6.065
 2368SOL     OW 8002   5.386   6.633   4.010
 2368SOL    HW1 8003   5.344   6.542   4.008
 2368SOL    HW2 8004   5.415   6.655   4.103
 2369SOL     OW 8005   3.118   1.875   4.689
 2369SOL    HW1 8006   3.060   1.882   4.771
 2369SOL    HW2 8007   3.144   1.779   4.676
 2370SOL     OW 8008   5.678   2.636   1.141
 2370SOL    HW1 8009   5.679   2.540   1.114
 2370SOL    HW2 8010   5.636   2.645   1.231
 2371SOL     OW 8011   0.650   6.948   3.057
 2371SOL    HW1 8012   0.711   6.872   3.035
 2371SOL    HW2 8013   0.575   6.915   3.115
 2372SOL     OW 8014   6.413   1.211   5.950
 2372SOL    HW1 8015   6.480   1.165   5.892
 2372SOL    HW2 8016   6.385   1.297   5.908
 2373SOL     OW 8017   5.951   5.857   6.432
 2373SOL    HW1 8018   5.856   5.851   6.464
 2373SOL    HW2 8019   5.954   5.841   6.334
 2374SOL     OW 8020   5.906   6.078   1.975
 2374SOL    HW1 8021   5.952   6.133   2.045
 2374SOL    HW2 8022   5.883   6.137   1.897
 2375SOL     OW 8023   0.950   0.372   4.421
 2375SOL    HW1 8024   0.911   0.280   4.421
 2375SOL    HW2 8025   1.037   0.372   4.372
 2376SOL     OW 8026   5.993   1.476   3.235
 2376SOL    HW1 8027   5.899   1.486   3.202
 2376SOL    HW2 8028   6.051   1.443   3.161
 2377SOL     OW 8029   4.516   4.970   5.483
 2377SOL    HW1 8030   4.528   5.069   5.487
 2377SOL    HW2 8031   4.434   4.944   5.533
 2378SOL     OW 8032   6.879   1.127   0.592
 2378SOL    HW1 8033   6.919   1.186   0.521
 2378SOL    HW2 8034   6.811   1.180   0.644
 2379SOL     OW 8035   6.799   5.239   0.935
 2379SOL    HW1 8036   6.884   5.185   0.931
 2379SOL    HW2 8037   6.725   5.187   0.894
 2380SOL     OW 8038   4.843   4.726   4.995
 2380SOL    HW1 8039   4.876   4.666   4.921
 2380SOL    HW2 8040   4.889   4.700   5.080
 2381SOL     OW 8041   2.117   4.661   4.863
 2381SOL    HW1 8042   2.080   4.638   4.953
 2381SOL    HW2 8043   2.188   4.595   4.838
 2382SOL     OW 8044   0.742   6.131   2.495
 2382SOL    HW1 8045   0.737   6.093   2.402
 2382SOL    HW2 8046   0.673   6.087   2.552
 2383SOL     OW 8047   5.697   5.652   5.361
 2383SOL    HW1 8048   5.748   5.579   5.317
 2383SOL    HW2 8049   5.622   5.613   5.415
 2384SOL     OW 8050   0.823   1.882   2.290
 2384SOL    HW1 8051   0.920   1.874   2.316
 2384SOL    HW2 8052   0.812   1.852   2.195
 2385SOL     OW 8053   0.569   2.168   1.192
 2385SOL    HW1 8054   0.659   2.125   1.190
 2385SOL    HW2 8055   0.576   2.256   1.240
 2386SOL     OW 8056   4.901   6.316   3.992
 2386SOL    HW1 8057   4.838   6.241   3.971
 2386SOL    HW2 8058   4.931   6.308   4.087
 2387SOL     OW 8059   1.488   1.946   4.163
 2387SOL    HW1 8060   1.444   1.928   4.075
 2387SOL    HW2 8061   1.474   1.868   4.224
 2388SOL     OW 8062   0.034   2.137   5.603
 2388SOL    HW1 8063   6.994   2.061   5.606
 2388SOL    HW2 8064   0.000   2.208   5.541
 2389SOL     OW 8065   5.254   4.615   4.305
 2389SOL    HW1 8066   5.183   4.565   4.353
 2389SOL    HW2 8067   5.231   4.619   4.207
 2390SOL     OW 8068   4.305   4.159   5.789
 2390SOL    HW1 8069   4.282   4.246   5.746
 2390SOL    HW2 8070   4.282   4.084   5.728
 2391SOL     OW 8071   3.521   4.044   6.273
 2391SOL    HW1 8072   3.439   3.997   6.242
 2391SOL    HW2 8073   3.510   4.143   6.263
 2392SOL     OW 8074   3.972   5.117   5.522
 2392SOL    HW1 8075   3.877   5.088   5.518
 2392SOL    HW2 8076   3.976   5.214   5.547
 2393SOL     OW 8077   3.199   5.170   1.606
 2393SOL    HW1 8078   3.282   5.222   1.623
 2393SOL    HW2 8079   3.152   5.152   1.692
 2394SOL     OW 8080   1.212   2.662   3.586
 2394SOL    HW1 8081   1.182   2.724   3.659
 2394SOL    HW2 8082   1.312   2.659   3.584
 2395SOL     OW 8083   0.127   1.919   4.507
 2395SOL    HW1 8084   0.064   1.990   4.476
 2395SOL    HW2 8085   0.193   1.898   4.435
 2396SOL     OW 8086   6.777   1.295   5.277
 2396SOL    HW1 8087   6.698   1.238   5.297
 2396SOL    HW2 8088   6.856   1.261   5.328
 2397SOL     OW 8089   0.511   4.742   5.839
 2397SOL    HW1 8090   0.431   4.802   5.847
 2397SOL    HW2 8091   0.586   4.778   5.894
 2398SOL     OW 8092   3.237   6.134   3.359
 2398SOL    HW1 8093   3.252   6.042   3.323
 2398SOL    HW2 8094   3.171   6.131   3.434
 2399SOL     OW 8095   3.010   2.095   4.188
 2399SOL    HW1 8096   2.971   2.004   4.199
 2399SOL    HW2 8097   2.950   2.150   4.130
 2400SOL     OW 8098   0.580   4.457   0.897
 2400SOL    HW1 8099   0.522   4.400   0.839
 2400SOL    HW2 8100   0.528   4.536   0.929
 2401SOL     OW 8101   2.920   6.818   5.993
 2401SOL    HW1 8102   2.942   6.840   5.898
 2401SOL    HW2 8103   2.825   6.842   6.012
 2402SOL     OW 8104   1.181   4.260   2.638
 2402SOL    HW1 8105   1.275   4.244   2.608
 2402SOL    HW2 8106   1.133   4.317   2.571
 2403SOL     OW 8107   3.945   3.907   3.065
 2403SOL    HW1 8108   3.923   3.942   2.974
 2403SOL    HW2 8109   3.917   3.974   3.134
 2404SOL     OW 8110   6.296   1.893   0.551
 2404SOL    HW1 8111   6.374   1.954   0.535
 2404SOL    HW2 8112   6.326   1.812   0.601
 2405SOL     OW 8113   2.086   3.311   0.757
 2405SOL    HW1 8114   2.043   3.221   0.768
 2405SOL    HW2 8115   2.170   3.301   0.704
 2406SOL     OW 8116   2.179   6.484   4.783
 2406SOL    HW1 8117   2.144   6.416   4.848
 2406SOL    HW2 8118   2.278   6.489   4.790
 2407SOL     OW 8119   3.489   1.271   3.758
 2407SOL    HW1 8120   3.570   1.292   3.704
 2407SOL    HW2 8121   3.407   1.301   3.709
 2408SOL     OW 8122   3.264   5.620   5.044
 2408SOL    HW1 8123   3.316   5.667   4.972
 2408SOL    HW2 8124   3.175   5.664   5.054
 2409SOL     OW 8125   1.644   3.021   1.730
 2409SOL    HW1 8126   1.670   3.056   1.820
 2409SOL    HW2 8127   1.627   3.098   1.668
 2410SOL     OW 8128   0.883   3.648   5.163
 2410SOL    HW1 8129   0.839   3.723   5.212
 2410SOL    HW2 8130   0.905   3.575   5.227
 2411SOL     OW 8131   2.918   4.178   0.404
 2411SOL    HW1 8132   2.955   4.267   0.376
 2411SOL    HW2 8133   2.820   4.175   0.385
 2412SOL     OW 8134   3.965   1.779   6.901
 2412SOL    HW1 8135   3.889   1.842   6.919
 2412SOL    HW2 8136   4.051   1.830   6.900
 2413SOL     OW 8137   6.832   2.935   0.102
 2413SOL    HW1 8138   6.742   2.904   0.071
 2413SOL    HW2 8139   6.893   2.857   0.111
 2414SOL     OW 8140   6.201   2.373   4.418
 2414SOL    HW1 8141   6.154   2.353   4.332
 2414SOL    HW2 8142   6.272   2.305   4.434
 2415SOL     OW 8143   2.590   5.529   1.014
 2415SOL    HW1 8144   2.583   5.628   1.029
 2415SOL    HW2 8145   2.601   5.482   1.102
 2416SOL     OW 8146   6.716   3.518   2.479
 2416SOL    HW1 8147   6.617   3.513   2.495
 2416SOL    HW2 8148   6.735   3.506   2.382
 2417SOL     OW 8149   3.133   3.281   1.538
 2417SOL    HW1 8150   3.057   3.317   1.483
 2417SOL    HW2 8151   3.219   3.315   1.502
 2418SOL     OW 8152   4.594   3.886   5.774
 2418SOL    HW1 8153   4.575   3.826   5.851
 2418SOL    HW2 8154   4.579   3.837   5.688
 2419SOL     OW 8155   1.539   6.542   4.477
 2419SOL    HW1 8156   1.594   6.593   4.543
 2419SOL    HW2 8157   1.457   6.594   4.454
 2420SOL     OW 8158   1.427   4.288   2.481
 2420SOL    HW1 8159   1.479   4.361   2.525
 2420SOL    HW2 8160   1.488   4.235   2.422
 2421SOL     OW 8161   2.613   6.383   4.305
 2421SOL    HW1 8162   2.656   6.333   4.231
 2421SOL    HW2 8163   2.548   6.324   4.353
 2422SOL     OW 8164   4.391   6.276   6.936
 2422SOL    HW1 8165   4.332   6.217   6.880
 2422SOL    HW2 8166   4.454   6.219   6.989
 2423SOL     OW 8167   2.323   5.191   2.548
 2423SOL    HW1 8168   2.377   5.155   2.624
 2423SOL    HW2 8169   2.252   5.252   2.583
 2424SOL     OW 8170   5.541   1.255   5.892
 2424SOL    HW1 8171   5.461   1.208   5.854
 2424SOL    HW2 8172   5.598   1.290   5.817
 2425SOL     OW 8173   5.259   5.683   5.189
 2425SOL    HW1 8174   5.260   5.752   5.261
 2425SOL    HW2 8175   5.282   5.594   5.227
 2426SOL     OW 8176   1.987   4.516   6.114
 2426SOL    HW1 8177   1.895   4.557   6.108
 2426SOL    HW2 8178   2.027   4.537   6.203
 2427SOL     OW 8179   4.991   0.849   0.361
 2427SOL    HW1 8180   4.912   0.909   0.369
 2427SOL    HW2 8181   5.070   0.890   0.407
 2428SOL     OW 8182   0.255   0.672   3.597
 2428SOL    HW1 8183   0.215   0.585   3.569
 2428SOL    HW2 8184   0.340   0.688   3.546
 2429SOL     OW 8185   5.112   5.523   1.597
 2429SOL    HW1 8186   5.061   5.501   1.680
 2429SOL    HW2 8187   5.053   5.513   1.517
 2430SOL     OW 8188   6.162   2.177   6.509
 2430SOL    HW1 8189   6.148   2.269   6.474
 2430SOL    HW2 8190   6.121   2.170   6.600
 2431SOL     OW 8191   6.851   2.321   1.488
 2431SOL    HW1 8192   6.753   2.337   1.475
 2431SOL    HW2 8193   6.898   2.408   1.498
 2432SOL     OW 8194   3.508   5.295   2.792
 2432SOL    HW1 8195   3.510   5.201   2.826
 2432SOL    HW2 8196   3.442   5.303   2.718
 2433SOL     OW 8197   6.206   4.576   6.313
 2433SOL    HW1 8198   6.274   4.508   6.284
 2433SOL    HW2 8199   6.186   4.564   6.410
 2434SOL     OW 8200   4.656   1.525   3.103
 2434SOL    HW1 8201   4.650   1.441   3.158
 2434SOL    HW2 8202   4.749   1.561   3.106
 2435SOL     OW 8203   5.757   6.788   6.807
 2435SOL    HW1 8204   5.826   6.814   6.739
 2435SOL    HW2 8205   5.726   6.694   6.789
 2436SOL     OW 8206   2.120   1.895   2.126
 2436SOL    HW1 8207   2.205   1.928   2.084
 2436SOL    HW2 8208   2.132   1.891   2.226
 2437SOL     OW 8209   7.020   4.556   3.163
 2437SOL    HW1 8210   0.070   4.550   3.097
 2437SOL    HW2 8211   0.021   4.617   3.238
 2438SOL     OW 8212   3.372   1.803   5.096
 2438SOL    HW1 8213   3.291   1.745   5.093
 2438SOL    HW2 8214   3.412   1.808   5.004
 2439SOL     OW 8215   0.674   6.002   0.802
 2439SOL    HW1 8216   0.703   6.010   0.897
 2439SOL    HW2 8217   0.653   6.093   0.766
 2440SOL     OW 8218   4.897   1.039   5.121
 2440SOL    HW1 8219   4.904   1.138   5.110
 2440SOL    HW2 8220   4.862   1.018   5.212
 2441SOL     OW 8221   5.895   0.417   0.138
 2441SOL    HW1 8222   5.851   0.327   0.130
 2441SOL    HW2 8223   5.979   0.417   0.084
 2442SOL     OW 8224   5.136   3.330   2.107
 2442SOL    HW1 8225   5.167   3.278   2.027
 2442SOL    HW2 8226   5.069   3.275   2.158
 2443SOL     OW 8227   1.439   2.095   0.840
 2443SOL    HW1 8228   1.454   2.130   0.932
 2443SOL    HW2 8229   1.344   2.065   0.830
 2444SOL     OW 8230   4.046   5.757   1.539
 2444SOL    HW1 8231   4.033   5.856   1.542
 2444SOL    HW2 8232   3.958   5.711   1.543
 2445SOL     OW 8233   6.893   2.612   0.918
 2445SOL    HW1 8234   6.849   2.600   0.830
 2445SOL    HW2 8235   6.936   2.703   0.922
 2446SOL     OW 8236   1.857   4.618   1.117
 2446SOL    HW1 8237   1.808   4.644   1.201
 2446SOL    HW2 8238   1.900   4.529   1.131
 2447SOL     OW 8239   3.419   0.040   0.844
 2447SOL    HW1 8240   3.322   0.017   0.849
 2447SOL    HW2 8241   3.462   7.015   0.769
 2448SOL     OW 8242   6.108   1.351   3.659
 2448SOL    HW1 8243   6.126   1.450   3.662
 2448SOL    HW2 8244   6.029   1.330   3.716
 2449SOL     OW 8245   1.794   4.443   1.647
 2449SOL    HW1 8246   1.739   4.462   1.566
 2449SOL    HW2 8247   1.739   4.457   1.729
 2450SOL     OW 8248   1.667   6.254   5.979
 2450SOL    HW1 8249   1.724   6.333   5.957
 2450SOL    HW2 8250   1.631   6.215   5.895
 2451SOL     OW 8251   0.632   0.052   4.860
 2451SOL    HW1 8252   0.669   0.102   4.782
 2451SOL    HW2 8253   0.623   0.114   4.938
 2452SOL     OW 8254   3.001   1.833   4.200
 2452SOL    HW1 8255   2.962   1.773   4.270
 2452SOL    HW2 8256   3.101   1.837   4.211
 2453SOL     OW 8257   1.229   1.439   6.878
 2453SOL    HW1 8258   1.207   1.501   6.802
 2453SOL    HW2 8259   1.196   1.478   6.964
 2454SOL     OW 8260   3.535   5.820   1.013
 2454SOL    HW1 8261   3.541   5.765   1.096
 2454SOL    HW2 8262   3.518   5.761   0.934
 2455SOL     OW 8263   4.059   1.212   0.223
 2455SOL    HW1 8264   4.097   1.168   0.142
 2455SOL    HW2 8265   4.100   1.303   0.234
 2456SOL     OW 8266   0.912   4.547   6.747
 2456SOL    HW1 8267   1.004   4.580   6.765
 2456SOL    HW2 8268   0.846   4.601   6.801
 2457SOL     OW 8269   5.594   2.140   5.315
 2457SOL    HW1 8270   5.613   2.210   5.384
 2457SOL    HW2 8271   5.503   2.101   5.331
 2458SOL     OW 8272   1.372   6.838   1.901
 2458SOL    HW1 8273   1.446   6.901   1.876
 2458SOL    HW2 8274   1.286   6.888   1.910
 2459SOL     OW 8275   2.436   5.943   1.151
 2459SOL    HW1 8276   2.518   5.903   1.108
 2459SOL    HW2 8277   2.391   6.004   1.086
 2460SOL     OW 8278   1.506   0.714   5.938
 2460SOL    HW1 8279   1.488   0.810   5.962
 2460SOL    HW2 8280   1.441   0.684   5.868
 2461SOL     OW 8281   3.629   1.065   4.466
 2461SOL    HW1 8282   3.709   1.028   4.419
 2461SOL    HW2 8283   3.546   1.043   4.414
 2462SOL     OW 8284   0.160   5.067   1.112
 2462SOL    HW1 8285   0.200   5.158   1.108
 2462SOL    HW2 8286   0.094   5.063   1.187
 2463SOL     OW 8287   0.007   1.252   6.305
 2463SOL    HW1 8288   0.069   1.189   6.258
 2463SOL    HW2 8289   6.937   1.230   6.282
 2464SOL     OW 8290   0.898   1.765   3.370
 2464SOL    HW1 8291   0.981   1.782   3.423
 2464SOL    HW2 8292   0.837   1.705   3.422
 2465SOL     OW 8293   1.041   4.912   5.754
 2465SOL    HW1 8294   1.006   4.908   5.661
 2465SOL    HW2 8295   1.002   4.992   5.801
 2466SOL     OW 8296   1.122   2.465   2.040
 2466SOL    HW1 8297   1.218   2.440   2.045
 2466SOL    HW2 8298   1.092   2.466   1.944
 2467SOL     OW 8299   4.795   1.626   5.942
 2467SOL    HW1 8300   4.834   1.718   5.939
 2467SOL    HW2 8301   4.861   1.563   5.984
 2468SOL     OW 8302   3.551   6.797   5.777
 2468SOL    HW1 8303   3.480   6.850   5.823
 2468SOL    HW2 8304   3.584   6.848   5.697
 2469SOL     OW 8305   3.422   3.009   5.360
 2469SOL    HW1 8306   3.413   3.029   5.458
 2469SOL    HW2 8307   3.519   3.009   5.335
 2470SOL     OW 8308   3.507   5.001   0.130
 2470SOL    HW1 8309   3.459   5.088   0.142
 2470SOL    HW2 8310   3.468   4.932   0.192
 2471SOL     OW 8311   4.352   6.300   1.352
 2471SOL    HW1 8312   4.421   6.237   1.387
 2471SOL    HW2 8313   4.357   6.386   1.404
 2472SOL     OW 8314   4.676   1.714   4.346
 2472SOL    HW1 8315   4.707   1.804   4.379
 2472SOL    HW2 8316   4.583   1.722   4.310
 2473SOL     OW 8317   0.324   4.734   4.860
 2473SOL    HW1 8318   0.388   4.733   4.937
 2473SOL    HW2 8319   0.345   4.658   4.798
 2474SOL     OW 8320   0.764   5.601   1.612
 2474SOL    HW1 8321   0.839   5.604   1.679
 2474SOL    HW2 8322   0.787   5.660   1.534
 2475SOL     OW 8323   4.947   0.218   0.838
 2475SOL    HW1 8324   4.929   0.202   0.740
 2475SOL    HW2 8325   5.045   0.231   0.852
 2476SOL     OW 8326   6.007   0.392   0.604
 2476SOL    HW1 8327   5.911   0.414   0.623
 2476SOL    HW2 8328   6.023   0.296   0.627
 2477SOL     OW 8329   3.583   0.675   3.313
 2477SOL    HW1 8330   3.594   0.692   3.411
 2477SOL    HW2 8331   3.486   0.679   3.290
 2478SOL     OW 8332   4.095   1.792   3.319
 2478SOL    HW1 8333   4.182   1.765   3.278
 2478SOL    HW2 8334   4.045   1.852   3.255
 2479SOL     OW 8335   0.851   3.028   0.618
 2479SOL    HW1 8336   0.892   3.096   0.678
 2479SOL    HW2 8337   0.815   2.953   0.673
 2480SOL     OW 8338   3.271   2.340   1.126
 2480SOL    HW1 8339   3.348   2.385   1.171
 2480SOL    HW2 8340   3.294   2.321   1.030
 2481SOL     OW 8341   3.380   0.826   1.473
 2481SOL    HW1 8342   3.391   0.876   1.559
 2481SOL    HW2 8343   3.304   0.866   1.421
 2482SOL     OW 8344   5.497   3.520   6.950
 2482SOL    HW1 8345   5.411   3.492   6.992
 2482SOL    HW2 8346   5.509   3.619   6.962
 2483SOL     OW 8347   0.836   2.354   0.475
 2483SOL    HW1 8348   0.884   2.358   0.387
 2483SOL    HW2 8349   0.864   2.272   0.525
 2484SOL     OW 8350   5.003   1.562   2.798
 2484SOL    HW1 8351   4.982   1.641   2.741
 2484SOL    HW2 8352   4.918   1.523   2.835
 2485SOL     OW 8353   5.051   2.388   6.196
 2485SOL    HW1 8354   5.123   2.337   6.149
 2485SOL    HW2 8355   4.962   2.359   6.161
 2486SOL     OW 8356   0.110   4.346   5.948
 2486SOL    HW1 8357   0.205   4.356   5.979
 2486SOL    HW2 8358   0.049   4.359   6.026
 2487SOL     OW 8359   4.895   6.310   0.631
 2487SOL    HW1 8360   4.801   6.306   0.666
 2487SOL    HW2 8361   4.955   6.255   0.690
 2488SOL     OW 8362   6.667   4.540   2.176
 2488SOL    HW1 8363   6.765   4.545   2.198
 2488SOL    HW2 8364   6.646   4.605   2.103
 2489SOL     OW 8365   0.157   6.161   4.035
 2489SOL    HW1 8366   0.070   6.192   4.073
 2489SOL    HW2 8367   0.149   6.066   4.005
 2490SOL     OW 8368   1.909   6.071   2.375
 2490SOL    HW1 8369   1.824   6.024   2.350
 2490SOL    HW2 8370   1.965   6.012   2.433
 2491SOL     OW 8371   4.129   4.553   1.654
 2491SOL    HW1 8372   4.078   4.514   1.577
 2491SOL    HW2 8373   4.197   4.487   1.686
 2492SOL     OW 8374   5.234   3.300   0.758
 2492SOL    HW1 8375   5.200   3.230   0.821
 2492SOL    HW2 8376   5.168   3.312   0.683
 2493SOL     OW 8377   6.481   6.517   1.332
 2493SOL    HW1 8378   6.488   6.592   1.398
 2493SOL    HW2 8379   6.403   6.459   1.355
 2494SOL     OW 8380   5.933   2.532   1.672
 2494SOL    HW1 8381   6.028   2.535   1.642
 2494SOL    HW2 8382   5.880   2.473   1.612
 2495SOL     OW 8383   5.452   5.634   3.465
 2495SOL    HW1 8384   5.454   5.652   3.563
 2495SOL    HW2 8385   5.396   5.553   3.448
 2496SOL     OW 8386   0.158   3.897   6.845
 2496SOL    HW1 8387   0.075   3.942   6.879
 2496SOL    HW2 8388   0.134   3.836   6.769
 2497SOL     OW 8389   0.138   0.721   1.162
 2497SOL    HW1 8390   0.046   0.717   1.121
 2497SOL    HW2 8391   0.201   0.763   1.097
 2498SOL     OW 8392   3.078   2.959   5.873
 2498SOL    HW1 8393   3.120   3.046   5.848
 2498SOL    HW2 8394   3.016   2.973   5.951
 2499SOL     OW 8395   6.026   3.284   1.299
 2499SOL    HW1 8396   5.997   3.237   1.216
 2499SOL    HW2 8397   6.059   3.376   1.275
 2500SOL     OW 8398   3.394   3.673   6.002
 2500SOL    HW1 8399   3.426   3.580   6.021
 2500SOL    HW2 8400   3.372   3.681   5.905
 2501SOL     OW 8401   5.731   5.761   6.735
 2501SOL    HW1 8402   5.764   5.819   6.810
 2501SOL    HW2 8403   5.707   5.671   6.771
 2502SOL     OW 8404   2.367   6.058   5.000
 2502SOL    HW1 8405   2.402   5.976   5.045
 2502SOL    HW2 8406   2.269   6.065   5.016
 2503SOL     OW 8407   2.990   6.423   5.794
 2503SOL    HW1 8408   2.958   6.353   5.729
 2503SOL    HW2 8409   2.924   6.431   5.869
 2504SOL     OW 8410   3.222   5.432   2.944
 2504SOL    HW1 8411   3.127   5.412   2.921
 2504SOL    HW2 8412   3.274   5.449   2.860
 2505SOL     OW 8413   0.535   5.818   3.125
 2505SOL    HW1 8414   0.529   5.914   3.154
 2505SOL    HW2 8415   0.607   5.809   3.056
 2506SOL     OW 8416   6.047   3.852   6.235
 2506SOL    HW1 8417   6.134   3.887   6.200
 2506SOL    HW2 8418   5.972   3.885   6.177
 2507SOL     OW 8419   6.950   3.152   0.187
 2507SOL    HW1 8420   6.953   3.228   0.122
 2507SOL    HW2 8421   6.922   3.069   0.139
 2508SOL     OW 8422   2.799   2.295   4.942
 2508SOL    HW1 8423   2.892   2.290   4.903
 2508SOL    HW2 8424   2.805   2.305   5.041
 2509SOL     OW 8425   6.836   4.154   0.180
 2509SOL    HW1 8426   6.800   4.243   0.153
 2509SOL    HW2 8427   6.792   4.082   0.126
 2510SOL     OW 8428   3.795   3.990   1.530
 2510SOL    HW1 8429   3.866   3.922   1.550
 2510SOL    HW2 8430   3.707   3.957   1.563
 2511SOL     OW 8431   2.345   1.191   5.042
 2511SOL    HW1 8432   2.265   1.228   5.088
 2511SOL    HW2 8433   2.386   1.119   5.098
 2512SOL     OW 8434   3.713   4.450   5.345
 2512SOL    HW1 8435   3.793   4.506   5.324
 2512SOL    HW2 8436   3.711   4.371   5.284
 2513SOL     OW 8437   2.222   6.351   5.932
 2513SOL    HW1 8438   2.279   6.379   6.010
 2513SOL    HW2 8439   2.258   6.266   5.894
 2514SOL     OW 8440   0.982   3.666   4.198
 2514SOL    HW1 8441   0.933   3.650   4.113
 2514SOL    HW2 8442   0.944   3.608   4.270
 2515SOL     OW 8443   2.304   0.355   1.504
 2515SOL    HW1 8444   2.296   0.259   1.477
 2515SOL    HW2 8445   2.287   0.413   1.424
 2516SOL     OW 8446   5.069   1.202   3.232
 2516SOL    HW1 8447   5.009   1.256   3.172
 2516SOL    HW2 8448   5.161   1.199   3.193
 2517SOL     OW 8449   2.175   0.426   5.700
 2517SOL    HW1 8450   2.183   0.525   5.698
 2517SOL    HW2 8451   2.256   0.386   5.743
 2518SOL     OW 8452   2.079   5.660   1.037
 2518SOL    HW1 8453   2.097   5.728   1.109
 2518SOL    HW2 8454   2.041   5.577   1.079
 2519SOL     OW 8455   3.564   0.949   1.235
 2519SOL    HW1 8456   3.534   0.898   1.316
 2519SOL    HW2 8457   3.581   1.044   1.261
 2520SOL     OW 8458   3.189   1.789   0.038
 2520SOL    HW1 8459   3.255   1.862   0.020
 2520SOL    HW2 8460   3.160   1.748   6.977
 2521SOL     OW 8461   4.050   1.916   5.216
 2521SOL    HW1 8462   4.027   1.871   5.302
 2521SOL    HW2 8463   4.129   1.975   5.229
 2522SOL     OW 8464   1.169   1.394   5.193
 2522SOL    HW1 8465   1.092   1.417   5.252
 2522SOL    HW2 8466   1.195   1.474   5.140
 2523SOL     OW 8467   1.684   4.340   1.036
 2523SOL    HW1 8468   1.754   4.371   1.099
 2523SOL    HW2 8469   1.725   4.285   0.963
 2524SOL     OW 8470   0.178   6.866   4.684
 2524SOL    HW1 8471   0.137   6.957   4.691
 2524SOL    HW2 8472   0.183   6.825   4.775
 2525SOL     OW 8473   1.402   3.035   4.826
 2525SOL    HW1 8474   1.320   3.092   4.835
 2525SOL    HW2 8475   1.476   3.074   4.882
 2526SOL     OW 8476   1.892   4.805   6.927
 2526SOL    HW1 8477   1.836   4.767   6.853
 2526SOL    HW2 8478   1.878   4.904   6.932
 2527SOL     OW 8479   5.449   5.787   5.651
 2527SOL    HW1 8480   5.412   5.694   5.656
 2527SOL    HW2 8481   5.478   5.815   5.742
 2528SOL     OW 8482   5.535   3.864   5.447
 2528SOL    HW1 8483   5.520   3.946   5.391
 2528SOL    HW2 8484   5.610   3.880   5.511
 2529SOL     OW 8485   0.585   0.452   6.542
 2529SOL    HW1 8486   0.673   0.415   6.570
 2529SOL    HW2 8487   0.559   0.526   6.604
 2530SOL     OW 8488   2.119   5.930   5.681
 2530SOL    HW1 8489   2.019   5.931   5.672
 2530SOL    HW2 8490   2.160   5.889   5.600
 2531SOL     OW 8491   5.317   5.539   5.699
 2531SOL    HW1 8492   5.293   5.523   5.795
 2531SOL    HW2 8493   5.237   5.519   5.642
 2532SOL     OW 8494   0.208   6.091   0.826
 2532SOL    HW1 8495   0.238   6.080   0.732
 2532SOL    HW2 8496   0.205   6.001   0.871
 2533SOL     OW 8497   4.514   1.221   3.645
 2533SOL    HW1 8498   4.481   1.147   3.587
 2533SOL    HW2 8499   4.593   1.189   3.698
 2534SOL     OW 8500   4.905   1.592   1.697
 2534SOL    HW1 8501   4.862   1.621   1.783
 2534SOL    HW2 8502   4.994   1.551   1.717
 2535SOL     OW 8503   3.176   2.614   0.106
 2535SOL    HW1 8504   3.201   2.596   0.011
 2535SOL    HW2 8505   3.128   2.534   0.143
 2536SOL     OW 8506   1.431   0.968   6.061
 2536SOL    HW1 8507   1.361   0.919   6.111
 2536SOL    HW2 8508   1.399   1.061   6.041
 2537SOL     OW 8509   3.416   6.827   6.249
 2537SOL    HW1 8510   3.434   6.848   6.153
 2537SOL    HW2 8511   3.469   6.746   6.276
 2538SOL     OW 8512   0.308   3.943   4.127
 2538SOL    HW1 8513   0.258   3.908   4.206
 2538SOL    HW2 8514   0.250   4.004   4.074
 2539SOL     OW 8515   5.780   0.707   3.690
 2539SOL    HW1 8516   5.783   0.664   3.599
 2539SOL    HW2 8517   5.710   0.777   3.691
 2540SOL     OW 8518   4.495   1.980   3.057
 2540SOL    HW1 8519   4.556   1.985   2.977
 2540SOL    HW2 8520   4.431   2.057   3.054
 2541SOL     OW 8521   2.401   6.958   5.756
 2541SOL    HW1 8522   2.344   6.980   5.677
 2541SOL    HW2 8523   2.497   6.975   5.734
 2542SOL     OW 8524   3.022   4.213   6.796
 2542SOL    HW1 8525   2.925   4.201   6.815
 2542SOL    HW2 8526   3.072   4.131   6.825
 2543SOL     OW 8527   1.077   1.142   4.044
 2543SOL    HW1 8528   1.076   1.141   3.944
 2543SOL    HW2 8529   1.171   1.137   4.076
 2544SOL     OW 8530   0.464   5.833   0.800
 2544SOL    HW1 8531   0.543   5.894   0.811
 2544SOL    HW2 8532   0.496   5.742   0.775
 2545SOL     OW 8533   1.504   0.063   2.435
 2545SOL    HW1 8534   1.552   0.113   2.508
 2545SOL    HW2 8535   1.558   0.067   2.351
 2546SOL     OW 8536   6.682   1.651   0.753
 2546SOL    HW1 8537   6.683   1.633   0.852
 2546SOL    HW2 8538   6.740   1.584   0.707
 2547SOL     OW 8539   0.443   3.490   6.736
 2547SOL    HW1 8540   0.400   3.521   6.821
 2547SOL    HW2 8541   0.501   3.563   6.699
 2548SOL     OW 8542   0.012   6.948   4.291
 2548SOL    HW1 8543   0.023   0.010   4.339
 2548SOL    HW2 8544   0.099   6.922   4.249
 2549SOL     OW 8545   0.977   0.834   1.485
 2549SOL    HW1 8546   1.014   0.834   1.578
 2549SOL    HW2 8547   1.050   0.856   1.420
 2550SOL     OW 8548   6.250   6.706   0.464
 2550SOL    HW1 8549   6.285   6.666   0.549
 2550SOL    HW2 8550   6.325   6.746   0.412
 2551SOL     OW 8551   3.305   4.824   0.627
 2551SOL    HW1 8552   3.303   4.726   0.647
 2551SOL    HW2 8553   3.397   4.850   0.597
 2552SOL     OW 8554   2.397   5.420   5.088
 2552SOL    HW1 8555   2.429   5.336   5.131
 2552SOL    HW2 8556   2.456   5.441   5.009
 2553SOL     OW 8557   3.973   3.597   5.866
 2553SOL    HW1 8558   3.992   3.633   5.775
 2553SOL    HW2 8559   3.951   3.672   5.928
 2554SOL     OW 8560   2.228   0.998   0.119
 2554SOL    HW1 8561   2.152   1.062   0.118
 2554SOL    HW2 8562   2.213   0.928   0.190
 2555SOL     OW 8563   5.332   2.548   4.272
 2555SOL    HW1 8564   5.341   2.479   4.344
 2555SOL    HW2 8565   5.236   2.559   4.248
 2556SOL     OW 8566   3.775   5.933   0.233
 2556SOL    HW1 8567   3.855   5.954   0.176
 2556SOL    HW2 8568   3.729   5.852   0.196
 2557SOL     OW 8569   1.864   3.421   6.829
 2557SOL    HW1 8570   1.857   3.520   6.814
 2557SOL    HW2 8571   1.786   3.376   6.787
 2558SOL     OW 8572   5.253   1.063   5.362
 2558SOL    HW1 8573   5.313   1.136   5.331
 2558SOL    HW2 8574   5.162   1.075   5.323
 2559SOL     OW 8575   1.281   4.182   5.690
 2559SOL    HW1 8576   1.352   4.214   5.753
 2559SOL    HW2 8577   1.241   4.097   5.725
 2560SOL     OW 8578   0.034   2.648   5.932
 2560SOL    HW1 8579   0.065   2.636   6.026
 2560SOL    HW2 8580   0.072   2.732   5.894
 2561SOL     OW 8581   2.961   5.184   5.266
 2561SOL    HW1 8582   2.895   5.135   5.210
 2561SOL    HW2 8583   3.053   5.148   5.248
 2562SOL     OW 8584   2.582   4.416   1.168
 2562SOL    HW1 8585   2.586   4.317   1.151
 2562SOL    HW2 8586   2.670   4.446   1.206
 2563SOL     OW 8587   3.015   1.209   0.563
 2563SOL    HW1 8588   2.982   1.160   0.482
 2563SOL    HW2 8589   3.083   1.153   0.610
 2564SOL     OW 8590   1.365   5.169   0.964
 2564SOL    HW1 8591   1.454   5.164   0.918
 2564SOL    HW2 8592   1.329   5.077   0.977
 2565SOL     OW 8593   0.796   0.799   0.463
 2565SOL    HW1 8594   0.850   0.765   0.386
 2565SOL    HW2 8595   0.709   0.834   0.430
 2566SOL     OW 8596   2.284   6.683   1.650
 2566SOL    HW1 8597   2.271   6.597   1.699
 2566SOL    HW2 8598   2.241   6.678   1.560
 2567SOL     OW 8599   1.325   0.138   0.819
 2567SOL    HW1 8600   1.418   0.172   0.804
 2567SOL    HW2 8601   1.301   0.148   0.915
 2568SOL     OW 8602   4.529   2.767   6.988
 2568SOL    HW1 8603   4.443   2.723   7.014
 2568SOL    HW2 8604   4.526   2.792   6.891
 2569SOL     OW 8605   3.509   1.196   3.290
 2569SOL    HW1 8606   3.486   1.189   3.193
 2569SOL    HW2 8607   3.432   1.234   3.341
 2570SOL     OW 8608   6.100   0.964   5.905
 2570SOL    HW1 8609   6.186   0.952   5.954
 2570SOL    HW2 8610   6.027   0.916   5.954
 2571SOL     OW 8611   1.372   4.907   3.950
 2571SOL    HW1 8612   1.404   4.869   3.864
 2571SOL    HW2 8613   1.302   4.848   3.990
 2572SOL     OW 8614   2.891   4.829   2.787
 2572SOL    HW1 8615   2.862   4.807   2.880
 2572SOL    HW2 8616   2.890   4.928   2.774
 2573SOL     OW 8617   0.809   1.930   0.798
 2573SOL    HW1 8618   0.729   1.912   0.855
 2573SOL    HW2 8619   0.859   1.845   0.781
 2574SOL     OW 8620   5.495   3.381   0.813
 2574SOL    HW1 8621   5.564   3.321   0.771
 2574SOL    HW2 8622   5.404   3.343   0.796
 2575SOL     OW 8623   6.024   5.846   6.728
 2575SOL    HW1 8624   5.938   5.867   6.774
 2575SOL    HW2 8625   6.017   5.870   6.631
 2576SOL     OW 8626   4.459   6.366   4.803
 2576SOL    HW1 8627   4.406   6.288   4.769
 2576SOL    HW2 8628   4.397   6.442   4.823
 2577SOL     OW 8629   2.703   4.733   2.295
 2577SOL    HW1 8630   2.737   4.692   2.380
 2577SOL    HW2 8631   2.740   4.825   2.286
 2578SOL     OW 8632   4.091   1.303   4.029
 2578SOL    HW1 8633   4.162   1.314   4.099
 2578SOL    HW2 8634   4.011   1.359   4.052
 2579SOL     OW 8635   0.241   6.394   3.876
 2579SOL    HW1 8636   0.214   6.303   3.907
 2579SOL    HW2 8637   0.214   6.462   3.944
 2580SOL     OW 8638   2.217   4.750   0.135
 2580SOL    HW1 8639   2.281   4.699   0.194
 2580SOL    HW2 8640   2.175   4.688   0.070
 2581SOL     OW 8641   2.566   6.009   6.639
 2581SOL    HW1 8642   2.603   6.087   6.690
 2581SOL    HW2 8643   2.505   6.043   6.568
 2582SOL     OW 8644   0.166   3.968   1.344
 2582SOL    HW1 8645   0.205   3.968   1.252
 2582SOL    HW2 8646   0.120   4.056   1.361
 2583SOL     OW 8647   0.360   0.373   0.547
 2583SOL    HW1 8648   0.330   0.417   0.632
 2583SOL    HW2 8649   0.307   0.410   0.470
 2584SOL     OW 8650   4.115   5.107   5.830
 2584SOL    HW1 8651   4.176   5.070   5.900
 2584SOL    HW2 8652   4.080   5.032   5.774
 2585SOL     OW 8653   3.156   5.004   6.872
 2585SOL    HW1 8654   3.232   5.067   6.886
 2585SOL    HW2 8655   3.093   5.009   6.949
 2586SOL     OW 8656   2.769   1.229   5.721
 2586SOL    HW1 8657   2.846   1.266   5.669
 2586SOL    HW2 8658   2.754   1.284   5.803
 2587SOL     OW 8659   0.971   1.258   3.055
 2587SOL    HW1 8660   1.015   1.348   3.054
 2587SOL    HW2 8661   0.872   1.270   3.059
 2588SOL     OW 8662   3.928   2.309   5.598
 2588SOL    HW1 8663   4.006   2.341   5.653
 2588SOL    HW2 8664   3.858   2.271   5.659
 2589SOL     OW 8665   0.796   6.520   6.877
 2589SOL    HW1 8666   0.874   6.459   6.894
 2589SOL    HW2 8667   0.770   6.566   6.962
 2590SOL     OW 8668   2.892   5.114   0.467
 2590SOL    HW1 8669   2.855   5.049   0.401
 2590SOL    HW2 8670   2.931   5.192   0.419
 2591SOL     OW 8671   6.295   5.649   3.487
 2591SOL    HW1 8672   6.278   5.740   3.525
 2591SOL    HW2 8673   6.385   5.617   3.517
 2592SOL     OW 8674   2.420   4.139   6.734
 2592SOL    HW1 8675   2.507   4.181   6.707
 2592SOL    HW2 8676   2.387   4.080   6.660
 2593SOL     OW 8677   3.236   5.707   1.133
 2593SOL    HW1 8678   3.231   5.608   1.146
 2593SOL    HW2 8679   3.166   5.735   1.068
 2594SOL     OW 8680   2.476   4.358   5.930
 2594SOL    HW1 8681   2.558   4.359   5.872
 2594SOL    HW2 8682   2.396   4.340   5.873
 2595SOL     OW 8683   0.766   1.331   4.368
 2595SOL    HW1 8684   0.721   1.418   4.386
 2595SOL    HW2 8685   0.702   1.256   4.383
 2596SOL     OW 8686   1.898   3.028   1.101
 2596SOL    HW1 8687   1.991   3.024   1.137
 2596SOL    HW2 8688   1.870   3.123   1.091
 2597SOL     OW 8689   0.464   5.084   6.131
 2597SOL    HW1 8690   0.509   5.105   6.044
 2597SOL    HW2 8691   0.367   5.065   6.114
 2598SOL     OW 8692   5.995   1.527   1.729
 2598SOL    HW1 8693   6.045   1.573   1.656
 2598SOL    HW2 8694   6.011   1.429   1.724
 2599SOL     OW 8695   2.503   6.328   1.769
 2599SOL    HW1 8696   2.556   6.304   1.850
 2599SOL    HW2 8697   2.419   6.375   1.796
 2600SOL     OW 8698   6.408   3.707   4.835
 2600SOL    HW1 8699   6.447   3.753   4.755
 2600SOL    HW2 8700   6.459   3.734   4.917
 2601SOL     OW 8701   1.541   1.543   2.013
 2601SOL    HW1 8702   1.618   1.586   1.967
 2601SOL    HW2 8703   1.461   1.604   2.010
 2602SOL     OW 8704   2.133   4.434   4.165
 2602SOL    HW1 8705   2.173   4.503   4.225
 2602SOL    HW2 8706   2.182   4.347   4.176
 2603SOL     OW 8707   2.861   1.013   2.052
 2603SOL    HW1 8708   2.893   1.030   1.958
 2603SOL    HW2 8709   2.769   1.050   2.062
 2604SOL     OW 8710   5.317   1.791   1.589
 2604SOL    HW1 8711   5.287   1.787   1.494
 2604SOL    HW2 8712   5.242   1.765   1.649
 2605SOL     OW 8713   1.235   3.815   2.015
 2605SOL    HW1 8714   1.192   3.727   2.036
 2605SOL    HW2 8715   1.279   3.851   2.098
 2606SOL     OW 8716   5.572   4.408   1.460
 2606SOL    HW1 8717   5.486   4.377   1.501
 2606SOL    HW2 8718   5.564   4.403   1.360
 2607SOL     OW 8719   1.633   2.760   1.362
 2607SOL    HW1 8720   1.641   2.780   1.459
 2607SOL    HW2 8721   1.606   2.664   1.350
 2608SOL     OW 8722   2.203   6.320   6.638
 2608SOL    HW1 8723   2.198   6.249   6.709
 2608SOL    HW2 8724   2.120   6.318   6.583
 2609SOL     OW 8725   0.698   1.160   0.980
 2609SOL    HW1 8726   0.651   1.206   0.904
 2609SOL    HW2 8727   0.707   1.224   1.056
 2610SOL     OW 8728   0.955   5.070   4.642
 2610SOL    HW1 8729   0.877   5.128   4.621
 2610SOL    HW2 8730   0.934   4.975   4.616
 2611SOL     OW 8731   4.814   6.440   6.992
 2611SOL    HW1 8732   4.862   6.502   0.029
 2611SOL    HW2 8733   4.771   6.367   0.020
 2612SOL     OW 8734   5.237   0.384   4.353
 2612SOL    HW1 8735   5.140   0.363   4.336
 2612SOL    HW2 8736   5.268   0.454   4.290
 2613SOL     OW 8737   0.775   5.872   6.550
 2613SOL    HW1 8738   0.820   5.945   6.600
 2613SOL    HW2 8739   0.676   5.880   6.561
 2614SOL     OW 8740   5.968   1.257   6.033
 2614SOL    HW1 8741   6.001   1.232   5.941
 2614SOL    HW2 8742   5.869   1.240   6.038
 2615SOL     OW 8743   1.110   3.534   1.064
 2615SOL    HW1 8744   1.095   3.470   1.139
 2615SOL    HW2 8745   1.033   3.532   1.001
 2616SOL     OW 8746   1.509   0.811   5.051
 2616SOL    HW1 8747   1.582   0.842   4.990
 2616SOL    HW2 8748   1.442   0.884   5.062
 2617SOL     OW 8749   5.281   0.321   0.519
 2617SOL    HW1 8750   5.323   0.246   0.467
 2617SOL    HW2 8751   5.257   0.288   0.611
 2618SOL     OW 8752   1.633   5.834   5.894
 2618SOL    HW1 8753   1.606   5.845   5.798
 2618SOL    HW2 8754   1.604   5.914   5.946
 2619SOL     OW 8755   4.449   1.880   1.752
 2619SOL    HW1 8756   4.492   1.951   1.807
 2619SOL    HW2 8757   4.364   1.915   1.711
 2620SOL     OW 8758   6.508   5.790   1.590
 2620SOL    HW1 8759   6.503   5.692   1.605
 2620SOL    HW2 8760   6.425   5.834   1.624
 2621SOL     OW 8761   0.702   5.780   2.898
 2621SOL    HW1 8762   0.798   5.781   2.927
 2621SOL    HW2 8763   0.672   5.874   2.881
 2622SOL     OW 8764   2.950   3.103   6.108
 2622SOL    HW1 8765   3.011   3.181   6.093
 2622SOL    HW2 8766   2.890   3.122   6.186
 2623SOL     OW 8767   0.249   6.867   4.189
 2623SOL    HW1 8768   0.326   6.925   4.164
 2623SOL    HW2 8769   0.267   6.825   4.278
 2624SOL     OW 8770   6.631   2.024   4.376
 2624SOL    HW1 8771   6.578   2.050   4.457
 2624SOL    HW2 8772   6.724   2.000   4.403
 2625SOL     OW 8773   1.799   5.403   5.595
 2625SOL    HW1 8774   1.724   5.353   5.639
 2625SOL    HW2 8775   1.868   5.427   5.663
 2626SOL     OW 8776   6.502   6.375   5.414
 2626SOL    HW1 8777   6.464   6.394   5.323
 2626SOL    HW2 8778   6.592   6.333   5.403
 2627SOL     OW 8779   1.020   6.961   5.862
 2627SOL    HW1 8780   1.090   0.005   5.882
 2627SOL    HW2 8781   1.032   6.883   5.924
 2628SOL     OW 8782   1.441   3.817   2.988
 2628SOL    HW1 8783   1.379   3.813   2.910
 2628SOL    HW2 8784   1.534   3.796   2.958
 2629SOL     OW 8785   3.329   4.054   3.331
 2629SOL    HW1 8786   3.395   3.989   3.294
 2629SOL    HW2 8787   3.271   4.088   3.257
 2630SOL     OW 8788   3.855   1.482   3.033
 2630SOL    HW1 8789   3.919   1.465   2.958
 2630SOL    HW2 8790   3.894   1.450   3.119
 2631SOL     OW 8791   5.695   0.554   7.011
 2631SOL    HW1 8792   5.762   0.522   0.053
 2631SOL    HW2 8793   5.603   0.526   0.015
 2632SOL     OW 8794   5.653   4.878   2.196
 2632SOL    HW1 8795   5.639   4.830   2.282
 2632SOL    HW2 8796   5.734   4.842   2.150
 2633SOL     OW 8797   6.860   2.634   5.195
 2633SOL    HW1 8798   6.955   2.619   5.222
 2633SOL    HW2 8799   6.820   2.548   5.163
 2634SOL     OW 8800   6.446   6.943   4.937
 2634SOL    HW1 8801   6.533   6.894   4.937
 2634SOL    HW2 8802   6.418   6.960   5.032
 2635SOL     OW 8803   5.112   5.496   3.915
 2635SOL    HW1 8804   5.023   5.473   3.876
 2635SOL    HW2 8805   5.161   5.412   3.939
 2636SOL     OW 8806   3.954   0.414   5.760
 2636SOL    HW1 8807   3.986   0.431   5.667
 2636SOL    HW2 8808   4.032   0.403   5.821
 2637SOL     OW 8809   1.227   1.531   2.859
 2637SOL    HW1 8810   1.202   1.613   2.809
 2637SOL    HW2 8811   1.284   1.555   2.938
 2638SOL     OW 8812   1.177   0.511   4.241
 2638SOL    HW1 8813   1.117   0.572   4.293
 2638SOL    HW2 8814   1.268   0.510   4.282
 2639SOL     OW 8815   4.725   5.044   4.438
 2639SOL    HW1 8816   4.778   5.098   4.373
 2639SOL    HW2 8817   4.658   4.988   4.389
 2640SOL     OW 8818   0.851   6.855   4.346
 2640SOL    HW1 8819   0.763   6.809   4.332
 2640SOL    HW2 8820   0.882   6.839   4.439
 2641SOL     OW 8821   5.033   2.590   0.146
 2641SOL    HW1 8822   4.940   2.615   0.174
 2641SOL    HW2 8823   5.097   2.615   0.219
 2642SOL     OW 8824   0.201   1.504   3.888
 2642SOL    HW1 8825   0.149   1.552   3.958
 2642SOL    HW2 8826   0.216   1.565   3.810
 2643SOL     OW 8827   1.130   4.249   3.345
 2643SOL    HW1 8828   1.070   4.259   3.425
 2643SOL    HW2 8829   1.084   4.289   3.265
 2644SOL     OW 8830   4.962   5.682   4.817
 2644SOL    HW1 8831   4.865   5.658   4.808
 2644SOL    HW2 8832   4.979   5.768   4.769
 2645SOL     OW 8833   4.316   5.135   3.648
 2645SOL    HW1 8834   4.326   5.184   3.562
 2645SOL    HW2 8835   4.407   5.116   3.686
 2646SOL     OW 8836   0.447   3.632   5.866
 2646SOL    HW1 8837   0.452   3.537   5.896
 2646SOL    HW2 8838   0.512   3.646   5.791
 2647SOL     OW 8839   5.184   6.942   2.006
 2647SOL    HW1 8840   5.184   6.858   1.952
 2647SOL    HW2 8841   5.268   6.993   1.988
 2648SOL     OW 8842   0.472   0.460   4.287
 2648SOL    HW1 8843   0.435   0.529   4.225
 2648SOL    HW2 8844   0.571   0.464   4.286
 2649SOL     OW 8845   4.867   2.602   1.998
 2649SOL    HW1 8846   4.880   2.700   2.008
 2649SOL    HW2 8847   4.946   2.553   2.036
 2650SOL     OW 8848   3.377   5.942   5.154
 2650SOL    HW1 8849   3.343   5.904   5.068
 2650SOL    HW2 8850   3.415   6.033   5.138
 2651SOL     OW 8851   4.361   1.773   5.441
 2651SOL    HW1 8852   4.363   1.705   5.514
 2651SOL    HW2 8853   4.374   1.729   5.353
 2652SOL     OW 8854   5.050   3.415   5.405
 2652SOL    HW1 8855   5.094   3.476   5.471
 2652SOL    HW2 8856   4.975   3.366   5.450
 2653SOL     OW 8857   3.326   6.353   6.634
 2653SOL    HW1 8858   3.369   6.438   6.664
 2653SOL    HW2 8859   3.314   6.292   6.712
 2654SOL     OW 8860   5.129   0.637   0.271
 2654SOL    HW1 8861   5.068   0.716   0.287
 2654SOL    HW2 8862   5.168   0.643   0.180
 2655SOL     OW 8863   5.061   6.182   2.806
 2655SOL    HW1 8864   5.012   6.225   2.882
 2655SOL    HW2 8865   5.133   6.123   2.842
 2656SOL     OW 8866   3.561   5.589   3.799
 2656SOL    HW1 8867   3.559   5.510   3.860
 2656SOL    HW2 8868   3.627   5.574   3.726
 2657SOL     OW 8869   2.554   3.510   0.423
 2657SOL    HW1 8870   2.501   3.442   0.374
 2657SOL    HW2 8871   2.495   3.561   0.485
 2658SOL     OW 8872   4.161   4.534   5.915
 2658SOL    HW1 8873   4.114   4.461   5.864
 2658SOL    HW2 8874   4.257   4.508   5.928
 2659SOL     OW 8875   5.807   2.092   4.784
 2659SOL    HW1 8876   5.783   2.028   4.857
 2659SOL    HW2 8877   5.820   2.041   4.698
 2660SOL     OW 8878   1.328   1.744   1.099
 2660SOL    HW1 8879   1.388   1.681   1.148
 2660SOL    HW2 8880   1.300   1.702   1.012
 2661SOL     OW 8881   1.521   0.839   1.363
 2661SOL    HW1 8882   1.467   0.878   1.288
 2661SOL    HW2 8883   1.618   0.854   1.345
 2662SOL     OW 8884   3.104   0.802   2.981
 2662SOL    HW1 8885   3.140   0.889   3.013
 2662SOL    HW2 8886   3.179   0.747   2.944
 2663SOL     OW 8887   3.809   6.696   6.408
 2663SOL    HW1 8888   3.839   6.603   6.388
 2663SOL    HW2 8889   3.712   6.706   6.384
 2664SOL     OW 8890   4.035   2.777   5.604
 2664SOL    HW1 8891   4.003   2.725   5.525
 2664SOL    HW2 8892   3.957   2.801   5.662
 2665SOL     OW 8893   2.173   3.985   5.279
 2665SOL    HW1 8894   2.107   4.060   5.282
 2665SOL    HW2 8895   2.259   4.018   5.240
 2666SOL     OW 8896   2.315   4.079   2.133
 2666SOL    HW1 8897   2.403   4.102   2.092
 2666SOL    HW2 8898   2.260   4.028   2.067
 2667SOL     OW 8899   5.743   3.696   3.974
 2667SOL    HW1 8900   5.653   3.654   3.962
 2667SOL    HW2 8901   5.745   3.747   4.060
 2668SOL     OW 8902   5.718   1.434   4.287
 2668SOL    HW1 8903   5.765   1.490   4.355
 2668SOL    HW2 8904   5.707   1.486   4.202
 2669SOL     OW 8905   2.334   0.456   0.543
 2669SOL    HW1 8906   2.266   0.503   0.599
 2669SOL    HW2 8907   2.290   0.421   0.460
 2670SOL     OW 8908   6.907   1.285   5.634
 2670SOL    HW1 8909   6.974   1.280   5.708
 2670SOL    HW2 8910   6.898   1.380   5.603
 2671SOL     OW 8911   4.186   5.469   5.885
 2671SOL    HW1 8912   4.259   5.528   5.919
 2671SOL    HW2 8913   4.224   5.387   5.845
 2672SOL     OW 8914   4.242   0.852   2.011
 2672SOL    HW1 8915   4.173   0.854   1.938
 2672SOL    HW2 8916   4.196   0.854   2.099
 2673SOL     OW 8917   5.012   0.124   2.539
 2673SOL    HW1 8918   4.963   0.040   2.516
 2673SOL    HW2 8919   4.969   0.202   2.492
 2674SOL     OW 8920   1.190   5.513   3.133
 2674SOL    HW1 8921   1.133   5.439   3.097
 2674SOL    HW2 8922   1.143   5.557   3.210
 2675SOL     OW 8923   6.188   0.128   4.160
 2675SOL    HW1 8924   6.223   0.158   4.071
 2675SOL    HW2 8925   6.228   0.039   4.183
 2676SOL     OW 8926   3.447   3.843   3.041
 2676SOL    HW1 8927   3.436   3.827   3.139
 2676SOL    HW2 8928   3.434   3.940   3.021
 2677SOL     OW 8929   2.237   5.076   1.584
 2677SOL    HW1 8930   2.323   5.025   1.588
 2677SOL    HW2 8931   2.238   5.149   1.653
 2678SOL     OW 8932   5.648   2.543   2.684
 2678SOL    HW1 8933   5.570   2.600   2.711
 2678SOL    HW2 8934   5.653   2.463   2.743
 2679SOL     OW 8935   2.183   5.165   3.322
 2679SOL    HW1 8936   2.175   5.264   3.333
 2679SOL    HW2 8937   2.221   5.145   3.232
 2680SOL     OW 8938   1.424   1.967   6.836
 2680SOL    HW1 8939   1.432   2.062   6.864
 2680SOL    HW2 8940   1.474   1.954   6.750
 2681SOL     OW 8941   1.452   2.698   5.206
 2681SOL    HW1 8942   1.471   2.635   5.282
 2681SOL    HW2 8943   1.534   2.711   5.151
 2682SOL     OW 8944   4.983   4.139   1.702
 2682SOL    HW1 8945   5.060   4.154   1.763
 2682SOL    HW2 8946   4.903   4.110   1.754
 2683SOL     OW 8947   2.006   4.053   2.544
 2683SOL    HW1 8948   1.951   3.969   2.548
 2683SOL    HW2 8949   2.092   4.034   2.496
 2684SOL     OW 8950   5.583   6.176   1.955
 2684SOL    HW1 8951   5.517   6.100   1.959
 2684SOL    HW2 8952   5.670   6.142   1.918
 2685SOL     OW 8953   0.374   5.690   4.953
 2685SOL    HW1 8954   0.466   5.720   4.928
 2685SOL    HW2 8955   0.322   5.767   4.989
 2686SOL     OW 8956   1.186   1.507   4.837
 2686SOL    HW1 8957   1.157   1.417   4.806
 2686SOL    HW2 8958   1.182   1.572   4.761
 2687SOL     OW 8959   4.151   1.458   2.164
 2687SOL    HW1 8960   4.115   1.402   2.239
 2687SOL    HW2 8961   4.098   1.543   2.158
 2688SOL     OW 8962   3.409   3.061   5.917
 2688SOL    HW1 8963   3.382   3.058   6.013
 2688SOL    HW2 8964   3.465   2.981   5.895
 2689SOL     OW 8965   0.769   4.262   3.124
 2689SOL    HW1 8966   0.869   4.270   3.118
 2689SOL    HW2 8967   0.744   4.239   3.218
 2690SOL     OW 8968   3.237   1.549   5.993
 2690SOL    HW1 8969   3.208   1.616   5.925
 2690SOL    HW2 8970   3.335   1.532   5.984
 2691SOL     OW 8971   0.244   4.562   3.734
 2691SOL    HW1 8972   0.183   4.495   3.775
 2691SOL    HW2 8973   0.335   4.554   3.775
 2692SOL     OW 8974   2.944   5.593   2.554
 2692SOL    HW1 8975   3.027   5.636   2.589
 2692SOL    HW2 8976   2.878   5.665   2.528
 2693SOL     OW 8977   1.390   5.855   3.972
 2693SOL    HW1 8978   1.427   5.946   3.954
 2693SOL    HW2 8979   1.312   5.838   3.912
 2694SOL     OW 8980   3.214   6.587   4.270
 2694SOL    HW1 8981   3.274   6.642   4.213
 2694SOL    HW2 8982   3.214   6.492   4.237
 2695SOL     OW 8983   6.522   6.272   3.217
 2695SOL    HW1 8984   6.570   6.319   3.143
 2695SOL    HW2 8985   6.581   6.267   3.297
 2696SOL     OW 8986   4.925   4.131   5.603
 2696SOL    HW1 8987   4.968   4.041   5.610
 2696SOL    HW2 8988   4.837   4.129   5.650
 2697SOL     OW 8989   3.901   2.411   0.642
 2697SOL    HW1 8990   3.896   2.405   0.741
 2697SOL    HW2 8991   3.824   2.464   0.608
 2698SOL     OW 8992   1.575   4.439   6.330
 2698SOL    HW1 8993   1.539   4.497   6.256
 2698SOL    HW2 8994   1.500   4.383   6.367
 2699SOL     OW 8995   3.572   5.835   2.056
 2699SOL    HW1 8996   3.492   5.891   2.075
 2699SOL    HW2 8997   3.560   5.745   2.098
 2700SOL     OW 8998   2.691   1.906   1.635
 2700SOL    HW1 8999   2.770   1.967   1.626
 2700SOL    HW2 9000   2.621   1.950   1.691
 2701SOL     OW 9001   5.228   2.812   4.570
 2701SOL    HW1 9002   5.143   2.778   4.529
 2701SOL    HW2 9003   5.224   2.912   4.576
 2702SOL     OW 9004   2.481   2.050   4.869
 2702SOL    HW1 9005   2.477   2.147   4.894
 2702SOL    HW2 9006   2.575   2.017   4.880
 2703SOL     OW 9007   1.289   6.670   2.449
 2703SOL    HW1 9008   1.275   6.696   2.353
 2703SOL    HW2 9009   1.311   6.751   2.503
 2704SOL     OW 9010   6.235   6.248   3.269
 2704SOL    HW1 9011   6.170   6.260   3.194
 2704SOL    HW2 9012   6.327   6.238   3.232
 2705SOL     OW 9013   0.226   0.443   4.840
 2705SOL    HW1 9014   0.166   0.402   4.908
 2705SOL    HW2 9015   0.317   0.455   4.878
 2706SOL     OW 9016   6.545   4.633   4.242
 2706SOL    HW1 9017   6.471   4.651   4.306
 2706SOL    HW2 9018   6.563   4.535   4.236
 2707SOL     OW 9019   4.147   0.391   3.110
 2707SOL    HW1 9020   4.092   0.466   3.073
 2707SOL    HW2 9021   4.212   0.360   3.041
 2708SOL     OW 9022   5.254   2.769   6.963
 2708SOL    HW1 9023   5.346   2.761   7.001
 2708SOL    HW2 9024   5.191   2.802   0.009
 2709SOL     OW 9025   5.416   0.404   4.946
 2709SOL    HW1 9026   5.459   0.489   4.976
 2709SOL    HW2 9027   5.318   0.418   4.933
 2710SOL     OW 9028   1.597   2.889   4.046
 2710SOL    HW1 9029   1.534   2.815   4.070
 2710SOL    HW2 9030   1.619   2.942   4.128
 2711SOL     OW 9031   3.573   2.135   3.282
 2711SOL    HW1 9032   3.620   2.153   3.369
 2711SOL    HW2 9033   3.637   2.148   3.206
 2712SOL     OW 9034   3.841   5.481   2.486
 2712SOL    HW1 9035   3.938   5.463   2.465
 2712SOL    HW2 9036   3.807   5.410   2.547
 2713SOL     OW 9037   3.935   4.777   6.628
 2713SOL    HW1 9038   3.933   4.720   6.710
 2713SOL    HW2 9039   3.982   4.728   6.555
 2714SOL     OW 9040   3.154   4.154   0.148
 2714SOL    HW1 9041   3.109   4.227   0.198
 2714SOL    HW2 9042   3.125   4.065   0.184
 2715SOL     OW 9043   4.974   1.241   1.128
 2715SOL    HW1 9044   4.955   1.146   1.150
 2715SOL    HW2 9045   5.072   1.254   1.115
 2716SOL     OW 9046   4.108   1.847   2.864
 2716SOL    HW1 9047   4.057   1.761   2.866
 2716SOL    HW2 9048   4.097   1.890   2.774
 2717SOL     OW 9049   0.909   1.247   2.715
 2717SOL    HW1 9050   0.960   1.277   2.634
 2717SOL    HW2 9051   0.855   1.324   2.750
 2718SOL     OW 9052   0.303   0.255   5.967
 2718SOL    HW1 9053   0.359   0.308   5.903
 2718SOL    HW2 9054   0.290   0.162   5.933
 2719SOL     OW 9055   1.715   3.900   1.872
 2719SOL    HW1 9056   1.626   3.857   1.888
 2719SOL    HW2 9057   1.734   3.966   1.945
 2720SOL     OW 9058   1.070   6.824   5.154
 2720SOL    HW1 9059   1.073   6.839   5.253
 2720SOL    HW2 9060   0.980   6.792   5.127
 2721SOL     OW 9061   2.825   5.496   1.847
 2721SOL    HW1 9062   2.742   5.530   1.889
 2721SOL    HW2 9063   2.803   5.421   1.784
 2722SOL     OW 9064   4.230   5.256   6.751
 2722SOL    HW1 9065   4.306   5.191   6.743
 2722SOL    HW2 9066   4.264   5.349   6.737
 2723SOL     OW 9067   3.134   6.545   0.689
 2723SOL    HW1 9068   3.157   6.478   0.761
 2723SOL    HW2 9069   3.186   6.524   0.607
 2724SOL     OW 9070   0.880   5.795   0.819
 2724SOL    HW1 9071   0.942   5.873   0.817
 2724SOL    HW2 9072   0.795   5.819   0.773
 2725SOL     OW 9073   5.488   3.296   4.697
 2725SOL    HW1 9074   5.456   3.366   4.761
 2725SOL    HW2 9075   5.533   3.222   4.747
 2726SOL     OW 9076   0.445   1.780   1.433
 2726SOL    HW1 9077   0.443   1.837   1.350
 2726SOL    HW2 9078   0.487   1.692   1.412
 2727SOL     OW 9079   2.230   3.973   4.597
 2727SOL    HW1 9080   2.162   4.013   4.536
 2727SOL    HW2 9081   2.231   3.873   4.586
 2728SOL     OW 9082   5.571   5.355   6.533
 2728SOL    HW1 9083   5.521   5.328   6.451
 2728SOL    HW2 9084   5.651   5.298   6.544
 2729SOL     OW 9085   5.351   5.951   6.195
 2729SOL    HW1 9086   5.436   5.901   6.181
 2729SOL    HW2 9087   5.306   5.966   6.107
 2730SOL     OW 9088   0.599   5.931   2.027
 2730SOL    HW1 9089   0.695   5.934   1.996
 2730SOL    HW2 9090   0.546   5.873   1.964
 2731SOL     OW 9091   3.050   3.182   3.770
 2731SOL    HW1 9092   3.085   3.089   3.782
 2731SOL    HW2 9093   3.116   3.248   3.806
 2732SOL     OW 9094   5.438   1.361   1.697
 2732SOL    HW1 9095   5.457   1.339   1.601
 2732SOL    HW2 9096   5.482   1.448   1.720
 2733SOL     OW 9097   0.641   0.436   5.773
 2733SOL    HW1 9098   0.592   0.384   5.704
 2733SOL    HW2 9099   0.728   0.467   5.735
 2734SOL     OW 9100   3.258   6.009   1.747
 2734SOL    HW1 9101   3.224   5.916   1.741
 2734SOL    HW2 9102   3.181   6.073   1.750
 2735SOL     OW 9103   1.034   2.142   1.264
 2735SOL    HW1 9104   0.967   2.069   1.270
 2735SOL    HW2 9105   1.126   2.103   1.256
 2736SOL     OW 9106   4.540   5.651   3.326
 2736SOL    HW1 9107   4.505   5.711   3.255
 2736SOL    HW2 9108   4.562   5.562   3.287
 2737SOL     OW 9109   2.774   1.965   6.334
 2737SOL    HW1 9110   2.868   1.944   6.359
 2737SOL    HW2 9111   2.772   2.007   6.243
 2738SOL     OW 9112   5.754   0.205   1.471
 2738SOL    HW1 9113   5.828   0.140   1.451
 2738SOL    HW2 9114   5.694   0.167   1.542
 2739SOL     OW 9115   0.623   5.571   2.116
 2739SOL    HW1 9116   0.614   5.634   2.194
 2739SOL    HW2 9117   0.537   5.569   2.065
 2740SOL     OW 9118   6.765   6.164   2.774
 2740SOL    HW1 9119   6.751   6.110   2.857
 2740SOL    HW2 9120   6.856   6.145   2.737
 2741SOL     OW 9121   1.300   2.477   4.200
 2741SOL    HW1 9122   1.216   2.526   4.177
 2741SOL    HW2 9123   1.276   2.392   4.247
 2742SOL     OW 9124   3.315   4.747   1.749
 2742SOL    HW1 9125   3.397   4.707   1.789
 2742SOL    HW2 9126   3.265   4.796   1.820
 2743SOL     OW 9127   6.371   4.615   2.247
 2743SOL    HW1 9128   6.290   4.584   2.196
 2743SOL    HW2 9129   6.428   4.536   2.270
 2744SOL     OW 9130   3.710   3.838   2.897
 2744SOL    HW1 9131   3.619   3.857   2.934
 2744SOL    HW2 9132   3.759   3.924   2.883
 2745SOL     OW 9133   6.827   0.995   5.621
 2745SOL    HW1 9134   6.831   1.086   5.663
 2745SOL    HW2 9135   6.751   0.993   5.555
 2746SOL     OW 9136   1.207   0.933   3.545
 2746SOL    HW1 9137   1.194   0.861   3.477
 2746SOL    HW2 9138   1.119   0.960   3.582
 2747SOL     OW 9139   3.766   5.941   1.099
 2747SOL    HW1 9140   3.683   5.893   1.070
 2747SOL    HW2 9141   3.806   5.988   1.020
 2748SOL     OW 9142   4.440   6.711   1.292
 2748SOL    HW1 9143   4.414   6.807   1.287
 2748SOL    HW2 9144   4.395   6.660   1.218
 2749SOL     OW 9145   2.311   3.411   0.611
 2749SOL    HW1 9146   2.354   3.338   0.557
 2749SOL    HW2 9147   2.383   3.469   0.651
 2750SOL     OW 9148   2.177   5.491   2.577
 2750SOL    HW1 9149   2.264   5.530   2.547
 2750SOL    HW2 9150   2.164   5.508   2.674
 2751SOL     OW 9151   1.315   2.757   1.523
 2751SOL    HW1 9152   1.388   2.766   1.591
 2751SOL    HW2 9153   1.273   2.847   1.508
 2752SOL     OW 9154   3.939   4.660   5.755
 2752SOL    HW1 9155   3.966   4.569   5.786
 2752SOL    HW2 9156   3.843   4.676   5.779
 2753SOL     OW 9157   6.069   6.451   5.178
 2753SOL    HW1 9158   6.028   6.376   5.229
 2753SOL    HW2 9159   6.016   6.467   5.094
 2754SOL     OW 9160   0.347   6.335   6.283
 2754SOL    HW1 9161   0.397   6.374   6.206
 2754SOL    HW2 9162   0.394   6.252   6.315
 2755SOL     OW 9163   2.729   6.516   3.409
 2755SOL    HW1 9164   2.754   6.613   3.402
 2755SOL    HW2 9165   2.705   6.482   3.318
 2756SOL     OW 9166   5.390   6.570   0.474
 2756SOL    HW1 9167   5.367   6.543   0.380
 2756SOL    HW2 9168   5.440   6.657   0.472
 2757SOL     OW 9169   0.600   4.765   1.706
 2757SOL    HW1 9170   0.517   4.793   1.754
 2757SOL    HW2 9171   0.605   4.811   1.618
 2758SOL     OW 9172   5.194   0.650   5.949
 2758SOL    HW1 9173   5.241   0.566   5.976
 2758SOL    HW2 9174   5.150   0.691   6.029
 2759SOL     OW 9175   5.641   6.439   4.116
 2759SOL    HW1 9176   5.664   6.427   4.019
 2759SOL    HW2 9177   5.545   6.418   4.131
 2760SOL     OW 9178   1.973   5.038   2.189
 2760SOL    HW1 9179   1.928   5.102   2.252
 2760SOL    HW2 9180   1.906   4.972   2.156
 2761SOL     OW 9181   1.418   5.733   3.465
 2761SOL    HW1 9182   1.417   5.802   3.537
 2761SOL    HW2 9183   1.395   5.776   3.378
 2762SOL     OW 9184   1.307   6.554   5.441
 2762SOL    HW1 9185   1.285   6.544   5.344
 2762SOL    HW2 9186   1.346   6.645   5.458
 2763SOL     OW 9187   5.898   2.379   3.767
 2763SOL    HW1 9188   5.949   2.447   3.715
 2763SOL    HW2 9189   5.861   2.310   3.704
 2764SOL     OW 9190   5.589   0.196   0.911
 2764SOL    HW1 9191   5.569   0.175   1.007
 2764SOL    HW2 9192   5.621   0.290   0.903
 2765SOL     OW 9193   5.769   1.315   1.891
 2765SOL    HW1 9194   5.720   1.397   1.862
 2765SOL    HW2 9195   5.821   1.278   1.814
 2766SOL     OW 9196   5.573   1.551   1.290
 2766SOL    HW1 9197   5.625   1.632   1.267
 2766SOL    HW2 9198   5.531   1.512   1.208
 2767SOL     OW 9199   5.866   3.975   6.063
 2767SOL    HW1 9200   5.899   4.023   5.982
 2767SOL    HW2 9201   5.766   3.985   6.070
 2768SOL     OW 9202   4.695   1.174   6.925
 2768SOL    HW1 9203   4.777   1.120   6.943
 2768SOL    HW2 9204   4.686   1.189   6.827
 2769SOL     OW 9205   6.743   4.017   2.514
 2769SOL    HW1 9206   6.648   3.993   2.537
 2769SOL    HW2 9207   6.805   3.962   2.570
 2770SOL     OW 9208   1.507   5.176   1.979
 2770SOL    HW1 9209   1.426   5.122   1.958
 2770SOL    HW2 9210   1.494   5.270   1.947
 2771SOL     OW 9211   5.460   2.152   1.185
 2771SOL    HW1 9212   5.480   2.079   1.120
 2771SOL    HW2 9213   5.517   2.232   1.164
 2772SOL     OW 9214   4.551   2.673   0.348
 2772SOL    HW1 9215   4.601   2.615   0.283
 2772SOL    HW2 9216   4.615   2.712   0.414
 2773SOL     OW 9217   4.574   3.830   6.094
 2773SOL    HW1 9218   4.485   3.872   6.110
 2773SOL    HW2 9219   4.645   3.901   6.100
 2774SOL     OW 9220   5.924   2.945   1.930
 2774SOL    HW1 9221   5.976   2.863   1.906
 2774SOL    HW2 9222   5.986   3.023   1.941
 2775SOL     OW 9223   0.034   5.353   1.365
 2775SOL    HW1 9224   6.968   5.310   1.362
 2775SOL    HW2 9225   0.029   5.437   1.419
 2776SOL     OW 9226   3.751   6.338   5.623
 2776SOL    HW1 9227   3.813   6.323   5.700
 2776SOL    HW2 9228   3.728   6.250   5.581
 2777SOL     OW 9229   3.199   1.274   2.388
 2777SOL    HW1 9230   3.146   1.216   2.326
 2777SOL    HW2 9231   3.241   1.348   2.336
 2778SOL     OW 9232   2.392   1.924   5.491
 2778SOL    HW1 9233   2.483   1.924   5.531
 2778SOL    HW2 9234   2.333   1.863   5.544
 2779SOL     OW 9235   5.100   0.121   0.093
 2779SOL    HW1 9236   5.106   0.193   0.162
 2779SOL    HW2 9237   5.010   0.122   0.050
 2780SOL     OW 9238   4.632   5.414   6.238
 2780SOL    HW1 9239   4.675   5.328   6.267
 2780SOL    HW2 9240   4.693   5.490   6.257
 2781SOL     OW 9241   6.072   4.572   1.746
 2781SOL    HW1 9242   6.110   4.664   1.735
 2781SOL    HW2 9243   6.062   4.552   1.844
 2782SOL     OW 9244   3.125   2.633   6.807
 2782SOL    HW1 9245   3.041   2.582   6.826
 2782SOL    HW2 9246   3.138   2.641   6.709
 2783SOL     OW 9247   6.715   4.277   5.410
 2783SOL    HW1 9248   6.628   4.227   5.412
 2783SOL    HW2 9249   6.701   4.368   5.371
 2784SOL     OW 9250   1.878   2.991   1.467
 2784SOL    HW1 9251   1.875   3.081   1.510
 2784SOL    HW2 9252   1.824   2.992   1.383
 2785SOL     OW 9253   6.543   1.038   0.060
 2785SOL    HW1 9254   6.454   0.994   0.048
 2785SOL    HW2 9255   6.557   1.058   0.157
 2786SOL     OW 9256   4.248   6.260   0.615
 2786SOL    HW1 9257   4.275   6.348   0.576
 2786SOL    HW2 9258   4.189   6.212   0.550
 2787SOL     OW 9259   1.788   3.485   6.241
 2787SOL    HW1 9260   1.820   3.553   6.175
 2787SOL    HW2 9261   1.820   3.394   6.213
 2788SOL     OW 9262   2.647   4.166   0.364
 2788SOL    HW1 9263   2.621   4.213   0.448
 2788SOL    HW2 9264   2.608   4.074   0.364
 2789SOL     OW 9265   1.246   1.595   3.608
 2789SOL    HW1 9266   1.209   1.684   3.584
 2789SOL    HW2 9267   1.308   1.564   3.535
 2790SOL     OW 9268   3.413   5.044   3.169
 2790SOL    HW1 9269   3.415   5.008   3.262
 2790SOL    HW2 9270   3.338   5.110   3.160
 2791SOL     OW 9271   1.603   4.121   5.347
 2791SOL    HW1 9272   1.686   4.165   5.311
 2791SOL    HW2 9273   1.583   4.039   5.295
 2792SOL     OW 9274   1.261   0.965   4.890
 2792SOL    HW1 9275   1.212   1.041   4.934
 2792SOL    HW2 9276   1.268   0.888   4.954
 2793SOL     OW 9277   5.106   1.385   2.595
 2793SOL    HW1 9278   5.050   1.433   2.663
 2793SOL    HW2 9279   5.107   1.437   2.510
 2794SOL     OW 9280   0.502   2.251   6.973
 2794SOL    HW1 9281   0.503   2.326   6.908
 2794SOL    HW2 9282   0.552   2.277   0.031
 2795SOL     OW 9283   3.269   3.995   1.275
 2795SOL    HW1 9284   3.239   3.921   1.216
 2795SOL    HW2 9285   3.198   4.015   1.343
 2796SOL     OW 9286   6.160   3.738   2.613
 2796SOL    HW1 9287   6.072   3.746   2.660
 2796SOL    HW2 9288   6.227   3.796   2.659
 2797SOL     OW 9289   5.108   5.362   4.736
 2797SOL    HW1 9290   5.117   5.282   4.796
 2797SOL    HW2 9291   5.014   5.369   4.704
 2798SOL     OW 9292   0.863   4.032   3.525
 2798SOL    HW1 9293   0.803   4.060   3.449
 2798SOL    HW2 9294   0.881   4.110   3.584
 2799SOL     OW 9295   0.255   5.540   6.501
 2799SOL    HW1 9296   0.240   5.592   6.585
 2799SOL    HW2 9297   0.259   5.604   6.424
 2800SOL     OW 9298   4.408   4.922   6.904
 2800SOL    HW1 9299   4.317   4.898   6.872
 2800SOL    HW2 9300   4.452   4.982   6.837
 2801SOL     OW 9301   4.983   5.405   2.147
 2801SOL    HW1 9302   4.940   5.477   2.092
 2801SOL    HW2 9303   4.956   5.316   2.110
 2802SOL     OW 9304   3.691   1.774   5.918
 2802SOL    HW1 9305   3.667   1.697   5.977
 2802SOL    HW2 9306   3.636   1.854   5.944
 2803SOL     OW 9307   2.554   6.304   6.333
 2803SOL    HW1 9308   2.629   6.362   6.363
 2803SOL    HW2 9309   2.590   6.220   6.292
 2804SOL     OW 9310   6.707   4.744   3.427
 2804SOL    HW1 9311   6.627   4.775   3.376
 2804SOL    HW2 9312   6.763   4.822   3.452
 2805SOL     OW 9313   5.169   3.397   1.080
 2805SOL    HW1 9314   5.119   3.459   1.020
 2805SOL    HW2 9315   5.116   3.314   1.095
 2806SOL     OW 9316   6.167   5.239   3.083
 2806SOL    HW1 9317   6.221   5.233   2.999
 2806SOL    HW2 9318   6.074   5.268   3.061
 2807SOL     OW 9319   4.580   4.557   3.564
 2807SOL    HW1 9320   4.649   4.561   3.491
 2807SOL    HW2 9321   4.574   4.464   3.599
 2808SOL     OW 9322   5.346   1.331   3.319
 2808SOL    HW1 9323   5.373   1.422   3.289
 2808SOL    HW2 9324   5.350   1.267   3.242
 2809SOL     OW 9325   6.448   2.426   1.088
 2809SOL    HW1 9326   6.381   2.367   1.043
 2809SOL    HW2 9327   6.466   2.505   1.031
 2810SOL     OW 9328   2.746   6.748   5.530
 2810SOL    HW1 9329   2.700   6.725   5.616
 2810SOL    HW2 9330   2.775   6.664   5.484
 2811SOL     OW 9331   0.550   0.881   2.798
 2811SOL    HW1 9332   0.475   0.923   2.747
 2811SOL    HW2 9333   0.638   0.914   2.762
 2812SOL     OW 9334   5.033   3.518   2.515
 2812SOL    HW1 9335   4.997   3.610   2.502
 2812SOL    HW2 9336   5.124   3.512   2.473
 2813SOL     OW 9337   5.888   0.026   5.380
 2813SOL    HW1 9338   5.851   0.095   5.442
 2813SOL    HW2 9339   5.818   0.001   5.313
 2814SOL     OW 9340   4.060   4.351   5.744
 2814SOL    HW1 9341   3.961   4.355   5.759
 2814SOL    HW2 9342   4.079   4.319   5.651
 2815SOL     OW 9343   6.525   1.257   4.325
 2815SOL    HW1 9344   6.537   1.164   4.361
 2815SOL    HW2 9345   6.486   1.315   4.396
 2816SOL     OW 9346   5.950   6.732   3.575
 2816SOL    HW1 9347   5.857   6.718   3.542
 2816SOL    HW2 9348   5.976   6.828   3.562
 2817SOL     OW 9349   1.655   1.176   1.272
 2817SOL    HW1 9350   1.689   1.082   1.269
 2817SOL    HW2 9351   1.601   1.189   1.355
 2818SOL     OW 9352   6.846   4.953   6.243
 2818SOL    HW1 9353   6.752   4.928   6.224
 2818SOL    HW2 9354   6.861   5.049   6.217
 2819SOL     OW 9355   0.112   2.366   0.277
 2819SOL    HW1 9356   0.021   2.407   0.265
 2819SOL    HW2 9357   0.139   2.321   0.192
 2820SOL     OW 9358   0.105   2.234   2.515
 2820SOL    HW1 9359   0.192   2.187   2.497
 2820SOL    HW2 9360   0.094   2.246   2.614
 2821SOL     OW 9361   2.309   4.243   5.728
 2821SOL    HW1 9362   2.233   4.179   5.722
 2821SOL    HW2 9363   2.298   4.314   5.659
 2822SOL     OW 9364   4.678   2.549   0.143
 2822SOL    HW1 9365   4.716   2.458   0.160
 2822SOL    HW2 9366   4.644   2.555   0.049
 2823SOL     OW 9367   2.535   6.684   2.644
 2823SOL    HW1 9368   2.465   6.753   2.624
 2823SOL    HW2 9369   2.497   6.593   2.630
 2824SOL     OW 9370   2.452   1.421   5.187
 2824SOL    HW1 9371   2.363   1.382   5.164
 2824SOL    HW2 9372   2.441   1.487   5.262
 2825SOL     OW 9373   6.831   6.788   1.078
 2825SOL    HW1 9374   6.794   6.698   1.098
 2825SOL    HW2 9375   6.855   6.834   1.164
 2826SOL     OW 9376   5.461   1.847   5.385
 2826SOL    HW1 9377   5.363   1.830   5.376
 2826SOL    HW2 9378   5.503   1.775   5.441
 2827SOL     OW 9379   6.387   1.318   4.828
 2827SOL    HW1 9380   6.447   1.279   4.898
 2827SOL    HW2 9381   6.381   1.417   4.841
 2828SOL     OW 9382   3.782   0.967   6.261
 2828SOL    HW1 9383   3.718   1.043   6.272
 2828SOL    HW2 9384   3.732   0.880   6.265
 2829SOL     OW 9385   3.845   5.505   6.472
 2829SOL    HW1 9386   3.764   5.447   6.477
 2829SOL    HW2 9387   3.820   5.596   6.440
 2830SOL     OW 9388   5.771   3.430   6.364
 2830SOL    HW1 9389   5.753   3.476   6.277
 2830SOL    HW2 9390   5.832   3.487   6.420
 2831SOL     OW 9391   5.605   6.435   4.438
 2831SOL    HW1 9392   5.617   6.379   4.357
 2831SOL    HW2 9393   5.527   6.403   4.491
 2832SOL     OW 9394   6.958   1.475   1.394
 2832SOL    HW1 9395   6.914   1.388   1.370
 2832SOL    HW2 9396   0.025   1.478   1.354
 2833SOL     OW 9397   5.959   1.992   2.029
 2833SOL    HW1 9398   6.019   2.067   2.058
 2833SOL    HW2 9399   5.913   1.954   2.108
 2834SOL     OW 9400   3.242   1.485   6.674
 2834SOL    HW1 9401   3.167   1.423   6.651
 2834SOL    HW2 9402   3.292   1.448   6.753
 2835SOL     OW 9403   0.438   6.875   1.878
 2835SOL    HW1 9404   0.366   6.940   1.853
 2835SOL    HW2 9405   0.503   6.867   1.802
 2836SOL     OW 9406   6.838   6.997   1.720
 2836SOL    HW1 9407   6.914   6.966   1.663
 2836SOL    HW2 9408   6.756   6.945   1.698
 2837SOL     OW 9409   5.438   3.038   2.988
 2837SOL    HW1 9410   5.537   3.047   2.994
 2837SOL    HW2 9411   5.400   3.020   3.079
 2838SOL     OW 9412   2.528   4.542   1.809
 2838SOL    HW1 9413   2.495   4.635   1.791
 2838SOL    HW2 9414   2.619   4.547   1.851
 2839SOL     OW 9415   5.907   1.441   2.081
 2839SOL    HW1 9416   5.874   1.392   2.000
 2839SOL    HW2 9417   5.895   1.539   2.067
 2840SOL     OW 9418   0.264   1.341   4.727
 2840SOL    HW1 9419   0.250   1.347   4.826
 2840SOL    HW2 9420   0.362   1.342   4.707
 2841SOL     OW 9421   0.767   6.431   0.385
 2841SOL    HW1 9422   0.691   6.391   0.436
 2841SOL    HW2 9423   0.769   6.394   0.293
 2842SOL     OW 9424   6.808   3.375   3.702
 2842SOL    HW1 9425   6.832   3.402   3.608
 2842SOL    HW2 9426   6.890   3.375   3.758
 2843SOL     OW 9427   3.343   1.344   4.093
 2843SOL    HW1 9428   3.325   1.261   4.039
 2843SOL    HW2 9429   3.413   1.399   4.046
 2844SOL     OW 9430   1.101   4.066   0.168
 2844SOL    HW1 9431   1.064   4.027   0.253
 2844SOL    HW2 9432   1.036   4.133   0.132
 2845SOL     OW 9433   0.670   3.939   0.239
 2845SOL    HW1 9434   0.754   3.936   0.292
 2845SOL    HW2 9435   0.678   4.010   0.168
 2846SOL     OW 9436   4.942   1.624   6.752
 2846SOL    HW1 9437   4.851   1.637   6.792
 2846SOL    HW2 9438   4.979   1.713   6.725
 2847SOL     OW 9439   5.916   3.886   3.837
 2847SOL    HW1 9440   5.920   3.955   3.909
 2847SOL    HW2 9441   5.886   3.799   3.876
 2848SOL     OW 9442   0.321   4.402   5.468
 2848SOL    HW1 9443   0.273   4.484   5.499
 2848SOL    HW2 9444   0.318   4.332   5.540
 2849SOL     OW 9445   3.485   0.943   0.534
 2849SOL    HW1 9446   3.541   1.025   0.547
 2849SOL    HW2 9447   3.496   0.910   0.441
 2850SOL     OW 9448   3.080   0.395   1.445
 2850SOL    HW1 9449   3.176   0.391   1.417
 2850SOL    HW2 9450   3.033   0.468   1.396
 2851SOL     OW 9451   1.352   4.819   5.182
 2851SOL    HW1 9452   1.337   4.748   5.251
 2851SOL    HW2 9453   1.334   4.908   5.222
 2852SOL     OW 9454   5.802   3.423   6.672
 2852SOL    HW1 9455   5.856   3.496   6.629
 2852SOL    HW2 9456   5.848   3.393   6.756
 2853SOL     OW 9457   3.093   2.627   0.713
 2853SOL    HW1 9458   3.006   2.581   0.727
 2853SOL    HW2 9459   3.144   2.630   0.799
 2854SOL     OW 9460   2.618   0.860   4.076
 2854SOL    HW1 9461   2.568   0.888   4.158
 2854SOL    HW2 9462   2.673   0.779   4.097
 2855SOL     OW 9463   2.283   0.555   5.991
 2855SOL    HW1 9464   2.224   0.635   6.004
 2855SOL    HW2 9465   2.248   0.480   6.047
 2856SOL     OW 9466   2.248   2.694   5.780
 2856SOL    HW1 9467   2.344   2.712   5.804
 2856SOL    HW2 9468   2.231   2.725   5.686
 2857SOL     OW 9469   2.910   1.674   1.485
 2857SOL    HW1 9470   2.931   1.593   1.429
 2857SOL    HW2 9471   2.819   1.665   1.524
 2858SOL     OW 9472   6.631   2.635   2.204
 2858SOL    HW1 9473   6.554   2.573   2.190
 2858SOL    HW2 9474   6.660   2.630   2.300
 2859SOL     OW 9475   4.983   0.988   1.000
 2859SOL    HW1 9476   5.040   0.937   1.065
 2859SOL    HW2 9477   5.040   1.024   0.927
 2860SOL     OW 9478   4.053   1.773   1.601
 2860SOL    HW1 9479   4.079   1.818   1.686
 2860SOL    HW2 9480   3.957   1.792   1.582
 2861SOL     OW 9481   4.439   5.554   5.634
 2861SOL    HW1 9482   4.448   5.465   5.679
 2861SOL    HW2 9483   4.361   5.551   5.572
 2862SOL     OW 9484   5.696   2.141   3.769
 2862SOL    HW1 9485   5.755   2.074   3.814
 2862SOL    HW2 9486   5.686   2.222   3.827
 2863SOL     OW 9487   6.451   2.135   0.216
 2863SOL    HW1 9488   6.461   2.146   0.315
 2863SOL    HW2 9489   6.524   2.076   0.182
 2864SOL     OW 9490   3.878   0.600   1.010
 2864SOL    HW1 9491   3.896   0.568   1.104
 2864SOL    HW2 9492   3.957   0.579   0.953
 2865SOL     OW 9493   4.594   4.248   5.259
 2865SOL    HW1 9494   4.498   4.274   5.242
 2865SOL    HW2 9495   4.636   4.220   5.173
 2866SOL     OW 9496   6.613   6.280   6.653
 2866SOL    HW1 9497   6.602   6.296   6.555
 2866SOL    HW2 9498   6.701   6.234   6.670
 2867SOL     OW 9499   6.166   4.323   2.345
 2867SOL    HW1 9500   6.149   4.274   2.430
 2867SOL    HW2 9501   6.265   4.328   2.329
 2868SOL     OW 9502   0.220   3.888   5.515
 2868SOL    HW1 9503   0.151   3.956   5.540
 2868SOL    HW2 9504   0.238   3.829   5.593
 2869SOL     OW 9505   6.768   0.770   2.408
 2869SOL    HW1 9506   6.721   0.755   2.321
 2869SOL    HW2 9507   6.701   0.797   2.477
 2870SOL     OW 9508   6.654   2.092   3.605
 2870SOL    HW1 9509   6.660   1.993   3.618
 2870SOL    HW2 9510   6.557   2.119   3.609
 2871SOL     OW 9511   2.006   2.023   6.395
 2871SOL    HW1 9512   2.031   1.979   6.481
 2871SOL    HW2 9513   2.072   1.999   6.324
 2872SOL     OW 9514   2.725   1.571   3.912
 2872SOL    HW1 9515   2.759   1.499   3.972
 2872SOL    HW2 9516   2.769   1.658   3.937
 2873SOL     OW 9517   0.414   5.647   2.608
 2873SOL    HW1 9518   0.503   5.678   2.574
 2873SOL    HW2 9519   0.422   5.623   2.705
 2874SOL     OW 9520   5.046   4.192   2.202
 2874SOL    HW1 9521   5.072   4.116   2.143
 2874SOL    HW2 9522   4.970   4.242   2.159
 2875SOL     OW 9523   3.918   6.617   5.898
 2875SOL    HW1 9524   3.901   6.525   5.862
 2875SOL    HW2 9525   3.952   6.611   5.992
 2876SOL     OW 9526   1.021   0.807   1.759
 2876SOL    HW1 9527   0.942   0.862   1.789
 2876SOL    HW2 9528   1.010   0.713   1.790
 2877SOL     OW 9529   3.216   2.848   5.285
 2877SOL    HW1 9530   3.134   2.898   5.312
 2877SOL    HW2 9531   3.295   2.910   5.289
 2878SOL     OW 9532   2.493   4.826   4.917
 2878SOL    HW1 9533   2.440   4.906   4.945
 2878SOL    HW2 9534   2.530   4.780   4.998
 2879SOL     OW 9535   5.242   5.418   7.022
 2879SOL    HW1 9536   5.268   5.437   6.927
 2879SOL    HW2 9537   5.286   5.485   0.058
 2880SOL     OW 9538   6.862   6.031   0.533
 2880SOL    HW1 9539   6.858   6.054   0.435
 2880SOL    HW2 9540   6.868   6.116   0.586
 2881SOL     OW 9541   6.453   6.169   1.170
 2881SOL    HW1 9542   6.431   6.124   1.084
 2881SOL    HW2 9543   6.533   6.126   1.211
 2882SOL     OW 9544   0.641   3.431   2.639
 2882SOL    HW1 9545   0.543   3.408   2.636
 2882SOL    HW2 9546   0.695   3.348   2.627
 2883SOL     OW 9547   3.383   6.755   3.563
 2883SOL    HW1 9548   3.343   6.826   3.504
 2883SOL    HW2 9549   3.427   6.686   3.505
 2884SOL     OW 9550   0.817   6.969   3.360
 2884SOL    HW1 9551   0.855   6.876   3.355
 2884SOL    HW2 9552   0.717   6.963   3.368
 2885SOL     OW 9553   0.320   2.375   2.928
 2885SOL    HW1 9554   0.273   2.397   2.843
 2885SOL    HW2 9555   0.373   2.292   2.917
 2886SOL     OW 9556   2.000   2.649   6.972
 2886SOL    HW1 9557   1.909   2.686   6.954
 2886SOL    HW2 9558   2.069   2.718   6.952
 2887SOL     OW 9559   2.707   6.988   5.173
 2887SOL    HW1 9560   2.746   6.948   5.090
 2887SOL    HW2 9561   2.695   6.917   5.242
 2888SOL     OW 9562   6.986   4.575   6.463
 2888SOL    HW1 9563   6.902   4.574   6.516
 2888SOL    HW2 9564   0.016   4.655   6.488
 2889SOL     OW 9565   1.901   0.667   1.601
 2889SOL    HW1 9566   1.876   0.648   1.506
 2889SOL    HW2 9567   1.844   0.612   1.662
 2890SOL     OW 9568   3.313   0.469   1.342
 2890SOL    HW1 9569   3.353   0.419   1.266
 2890SOL    HW2 9570   3.263   0.548   1.307
 2891SOL     OW 9571   2.182   4.752   3.610
 2891SOL    HW1 9572   2.194   4.655   3.590
 2891SOL    HW2 9573   2.251   4.805   3.561
 2892SOL     OW 9574   3.849   3.848   6.674
 2892SOL    HW1 9575   3.939   3.887   6.653
 2892SOL    HW2 9576   3.828   3.862   6.770
 2893SOL     OW 9577   2.107   6.644   6.038
 2893SOL    HW1 9578   2.124   6.625   6.135
 2893SOL    HW2 9579   2.043   6.576   6.001
 2894SOL     OW 9580   2.513   2.743   6.851
 2894SOL    HW1 9581   2.577   2.801   6.902
 2894SOL    HW2 9582   2.422   2.749   6.893
 2895SOL     OW 9583   3.781   3.087   6.663
 2895SOL    HW1 9584   3.801   3.001   6.711
 2895SOL    HW2 9585   3.688   3.117   6.684
 2896SOL     OW 9586   2.652   5.371   0.380
 2896SOL    HW1 9587   2.628   5.287   0.430
 2896SOL    HW2 9588   2.750   5.372   0.363
 2897SOL     OW 9589   2.324   6.660   3.884
 2897SOL    HW1 9590   2.407   6.667   3.941
 2897SOL    HW2 9591   2.350   6.641   3.790
 2898SOL     OW 9592   4.280   5.330   2.605
 2898SOL    HW1 9593   4.281   5.270   2.685
 2898SOL    HW2 9594   4.230   5.414   2.627
 2899SOL     OW 9595   6.838   0.481   6.345
 2899SOL    HW1 9596   6.747   0.457   6.380
 2899SOL    HW2 9597   6.878   0.553   6.403
 2900SOL     OW 9598   1.266   4.793   5.860
 2900SOL    HW1 9599   1.313   4.773   5.774
 2900SOL    HW2 9600   1.186   4.851   5.841
 2901SOL     OW 9601   2.481   0.823   2.289
 2901SOL    HW1 9602   2.445   0.828   2.382
 2901SOL    HW2 9603   2.423   0.876   2.228
 2902SOL     OW 9604   5.170   6.089   0.425
 2902SOL    HW1 9605   5.147   6.128   0.336
 2902SOL    HW2 9606   5.088   6.084   0.482
 2903SOL     OW 9607   3.279   0.760   2.295
 2903SOL    HW1 9608   3.224   0.773   2.377
 2903SOL    HW2 9609   3.375   0.747   2.321
 2904SOL     OW 9610   2.386   3.390   5.363
 2904SOL    HW1 9611   2.421   3.299   5.385
 2904SOL    HW2 9612   2.327   3.384   5.282
 2905SOL     OW 9613   1.280   0.958   2.528
 2905SOL    HW1 9614   1.372   0.996   2.538
 2905SOL    HW2 9615   1.227   1.015   2.464
 2906SOL     OW 9616   5.162   5.295   1.922
 2906SOL    HW1 9617   5.151   5.210   1.871
 2906SOL    HW2 9618   5.173   5.275   2.019
 2907SOL     OW 9619   0.108   1.569   5.049
 2907SOL    HW1 9620   0.177   1.497   5.048
 2907SOL    HW2 9621   0.046   1.557   4.972
 2908SOL     OW 9622   3.749   6.671   4.591
 2908SOL    HW1 9623   3.743   6.573   4.569
 2908SOL    HW2 9624   3.771   6.722   4.508
 2909SOL     OW 9625   0.695   5.154   4.459
 2909SOL    HW1 9626   0.730   5.115   4.374
 2909SOL    HW2 9627   0.733   5.245   4.473
 2910SOL     OW 9628   2.832   6.501   5.427
 2910SOL    HW1 9629   2.765   6.442   5.382
 2910SOL    HW2 9630   2.918   6.450   5.439
 2911SOL     OW 9631   2.545   5.207   3.195
 2911SOL    HW1 9632   2.625   5.253   3.234
 2911SOL    HW2 9633   2.573   5.149   3.119
 2912SOL     OW 9634   2.910   5.619   0.192
 2912SOL    HW1 9635   2.890   5.646   0.286
 2912SOL    HW2 9636   2.985   5.675   0.156
 2913SOL     OW 9637   1.375   3.475   2.158
 2913SOL    HW1 9638   1.377   3.476   2.058
 2913SOL    HW2 9639   1.425   3.554   2.193
 2914SOL     OW 9640   5.446   4.631   5.816
 2914SOL    HW1 9641   5.385   4.696   5.771
 2914SOL    HW2 9642   5.531   4.622   5.764
 2915SOL     OW 9643   4.255   1.327   4.242
 2915SOL    HW1 9644   4.338   1.274   4.260
 2915SOL    HW2 9645   4.198   1.329   4.325
 2916SOL     OW 9646   6.383   4.335   5.515
 2916SOL    HW1 9647   6.325   4.282   5.577
 2916SOL    HW2 9648   6.421   4.275   5.445
 2917SOL     OW 9649   4.197   0.205   0.827
 2917SOL    HW1 9650   4.110   0.161   0.806
 2917SOL    HW2 9651   4.232   0.249   0.744
 2918SOL     OW 9652   0.400   3.614   3.281
 2918SOL    HW1 9653   0.390   3.693   3.342
 2918SOL    HW2 9654   0.450   3.642   3.198
 2919SOL     OW 9655   6.232   6.924   6.910
 2919SOL    HW1 9656   6.283   6.874   6.840
 2919SOL    HW2 9657   6.244   7.022   6.897
 2920SOL     OW 9658   3.688   2.004   2.579
 2920SOL    HW1 9659   3.695   1.992   2.480
 2920SOL    HW2 9660   3.754   2.073   2.609
 2921SOL     OW 9661   0.167   1.341   2.304
 2921SOL    HW1 9662   0.157   1.324   2.206
 2921SOL    HW2 9663   0.081   1.376   2.341
 2922SOL     OW 9664   5.234   6.714   5.690
 2922SOL    HW1 9665   5.150   6.690   5.739
 2922SOL    HW2 9666   5.215   6.787   5.625
 2923SOL     OW 9667   6.937   5.072   2.511
 2923SOL    HW1 9668   6.954   5.059   2.609
 2923SOL    HW2 9669   6.877   4.999   2.477
 2924SOL     OW 9670   1.129   1.340   5.751
 2924SOL    HW1 9671   1.127   1.248   5.712
 2924SOL    HW2 9672   1.128   1.407   5.676
 2925SOL     OW 9673   5.660   2.469   2.189
 2925SOL    HW1 9674   5.654   2.569   2.197
 2925SOL    HW2 9675   5.732   2.445   2.124
 2926SOL     OW 9676   0.224   1.820   4.944
 2926SOL    HW1 9677   0.189   1.736   4.985
 2926SOL    HW2 9678   0.221   1.894   5.011
 2927SOL     OW 9679   1.153   2.560   2.293
 2927SOL    HW1 9680   1.154   2.549   2.194
 2927SOL    HW2 9681   1.242   2.533   2.330
 2928SOL     OW 9682   6.771   0.625   6.753
 2928SOL    HW1 9683   6.709   0.582   6.819
 2928SOL    HW2 9684   6.737   0.716   6.730
 2929SOL     OW 9685   0.377   0.768   6.193
 2929SOL    HW1 9686   0.376   0.668   6.186
 2929SOL    HW2 9687   0.362   0.795   6.287
 2930SOL     OW 9688   5.075   0.637   4.731
 2930SOL    HW1 9689   5.138   0.596   4.665
 2930SOL    HW2 9690   5.128   0.693   4.796
 2931SOL     OW 9691   4.637   6.079   6.518
 2931SOL    HW1 9692   4.695   5.999   6.531
 2931SOL    HW2 9693   4.688   6.151   6.471
 2932SOL     OW 9694   1.279   4.282   1.799
 2932SOL    HW1 9695   1.294   4.350   1.870
 2932SOL    HW2 9696   1.199   4.307   1.745
 2933SOL     OW 9697   5.469   2.509   3.997
 2933SOL    HW1 9698   5.384   2.533   3.949
 2933SOL    HW2 9699   5.460   2.533   4.094
 2934SOL     OW 9700   3.835   6.964   0.213
 2934SOL    HW1 9701   3.877   0.028   0.194
 2934SOL    HW2 9702   3.812   6.919   0.127
 2935SOL     OW 9703   6.573   3.329   1.164
 2935SOL    HW1 9704   6.644   3.308   1.231
 2935SOL    HW2 9705   6.493   3.366   1.211
 2936SOL     OW 9706   4.820   5.853   0.534
 2936SOL    HW1 9707   4.853   5.762   0.560
 2936SOL    HW2 9708   4.736   5.844   0.480
 2937SOL     OW 9709   3.367   5.394   1.136
 2937SOL    HW1 9710   3.279   5.414   1.092
 2937SOL    HW2 9711   3.385   5.296   1.131
 2938SOL     OW 9712   5.019   5.270   5.213
 2938SOL    HW1 9713   4.920   5.252   5.221
 2938SOL    HW2 9714   5.034   5.347   5.151
 2939SOL     OW 9715   5.772   0.083   4.882
 2939SOL    HW1 9716   5.770   0.141   4.800
 2939SOL    HW2 9717   5.797   7.015   4.857
 2940SOL     OW 9718   5.237   6.841   5.136
 2940SOL    HW1 9719   5.321   6.878   5.097
 2940SOL    HW2 9720   5.160   6.899   5.110
 2941SOL     OW 9721   1.429   2.262   5.066
 2941SOL    HW1 9722   1.415   2.330   5.138
 2941SOL    HW2 9723   1.441   2.172   5.108
 2942SOL     OW 9724   3.162   0.244   2.577
 2942SOL    HW1 9725   3.111   0.307   2.518
 2942SOL    HW2 9726   3.107   0.221   2.657
 2943SOL     OW 9727   5.691   2.946   2.666
 2943SOL    HW1 9728   5.706   2.996   2.581
 2943SOL    HW2 9729   5.599   2.906   2.665
 2944SOL     OW 9730   3.271   5.154   5.855
 2944SOL    HW1 9731   3.361   5.156   5.899
 2944SOL    HW2 9732   3.204   5.114   5.918
 2945SOL     OW 9733   3.999   3.107   3.281
 2945SOL    HW1 9734   3.942   3.064   3.211
 2945SOL    HW2 9735   4.058   3.175   3.238
 2946SOL     OW 9736   6.687   6.043   5.633
 2946SOL    HW1 9737   6.618   6.099   5.678
 2946SOL    HW2 9738   6.769   6.040   5.690
 2947SOL     OW 9739   6.601   3.835   6.338
 2947SOL    HW1 9740   6.622   3.864   6.244
 2947SOL    HW2 9741   6.515   3.878   6.367
 2948SOL     OW 9742   6.651   3.368   5.564
 2948SOL    HW1 9743   6.561   3.329   5.546
 2948SOL    HW2 9744   6.711   3.352   5.486
 2949SOL     OW 9745   1.602   6.536   0.984
 2949SOL    HW1 9746   1.671   6.468   1.009
 2949SOL    HW2 9747   1.520   6.489   0.949
 2950SOL     OW 9748   5.653   3.563   4.269
 2950SOL    HW1 9749   5.655   3.496   4.194
 2950SOL    HW2 9750   5.646   3.655   4.230
 2951SOL     OW 9751   7.017   2.136   0.024
 2951SOL    HW1 9752   6.966   2.163   6.968
 2951SOL    HW2 9753   0.078   2.187   0.028
 2952SOL     OW 9754   0.833   4.636   2.755
 2952SOL    HW1 9755   0.913   4.577   2.765
 2952SOL    HW2 9756   0.848   4.721   2.807
 2953SOL     OW 9757   4.824   2.412   2.275
 2953SOL    HW1 9758   4.834   2.350   2.197
 2953SOL    HW2 9759   4.778   2.496   2.246
 2954SOL     OW 9760   0.689   6.317   1.883
 2954SOL    HW1 9761   0.606   6.262   1.876
 2954SOL    HW2 9762   0.670   6.398   1.939
 2955SOL     OW 9763   0.534   3.330   0.449
 2955SOL    HW1 9764   0.500   3.423   0.436
 2955SOL    HW2 9765   0.569   3.295   0.363
 2956SOL     OW 9766   0.350   5.788   2.899
 2956SOL    HW1 9767   0.319   5.693   2.907
 2956SOL    HW2 9768   0.406   5.813   2.978
 2957SOL     OW 9769   0.611   3.965   0.785
 2957SOL    HW1 9770   0.641   4.007   0.870
 2957SOL    HW2 9771   0.526   4.009   0.754
 2958SOL     OW 9772   1.526   4.602   6.102
 2958SOL    HW1 9773   1.558   4.697   6.101
 2958SOL    HW2 9774   1.568   4.552   6.027
 2959SOL     OW 9775   5.525   4.806   6.023
 2959SOL    HW1 9776   5.519   4.732   5.956
 2959SOL    HW2 9777   5.454   4.874   6.004
 2960SOL     OW 9778   2.850   1.363   0.331
 2960SOL    HW1 9779   2.806   1.331   0.415
 2960SOL    HW2 9780   2.931   1.418   0.355
 2961SOL     OW 9781   5.717   3.686   4.814
 2961SOL    HW1 9782   5.678   3.595   4.830
 2961SOL    HW2 9783   5.735   3.730   4.903
 2962SOL     OW 9784   4.648   1.449   3.815
 2962SOL    HW1 9785   4.568   1.459   3.875
 2962SOL    HW2 9786   4.634   1.372   3.753
 2963SOL     OW 9787   1.897   1.683   6.056
 2963SOL    HW1 9788   1.964   1.656   5.986
 2963SOL    HW2 9789   1.816   1.721   6.011
 2964SOL     OW 9790   1.568   7.017   1.869
 2964SOL    HW1 9791   1.651   0.048   1.874
 2964SOL    HW2 9792   1.564   6.974   1.779
 2965SOL     OW 9793   0.547   0.813   5.005
 2965SOL    HW1 9794   0.619   0.877   4.981
 2965SOL    HW2 9795   0.490   0.795   4.924
 2966SOL     OW 9796   5.382   4.197   3.520
 2966SOL    HW1 9797   5.464   4.254   3.531
 2966SOL    HW2 9798   5.382   4.125   3.589
 2967SOL     OW 9799   5.958   2.552   3.266
 2967SOL    HW1 9800   5.990   2.632   3.315
 2967SOL    HW2 9801   5.860   2.538   3.285
 2968SOL     OW 9802   1.065   4.046   5.028
 2968SOL    HW1 9803   1.059   4.071   5.125
 2968SOL    HW2 9804   1.132   4.105   4.983
 2969SOL     OW 9805   5.556   1.886   4.735
 2969SOL    HW1 9806   5.468   1.863   4.776
 2969SOL    HW2 9807   5.628   1.877   4.804
 2970SOL     OW 9808   1.233   4.646   6.691
 2970SOL    HW1 9809   1.226   4.559   6.739
 2970SOL    HW2 9810   1.326   4.682   6.701
 2971SOL     OW 9811   5.990   3.160   3.899
 2971SOL    HW1 9812   6.086   3.136   3.910
 2971SOL    HW2 9813   5.937   3.078   3.874
 2972SOL     OW 9814   6.278   3.693   6.627
 2972SOL    HW1 9815   6.262   3.673   6.530
 2972SOL    HW2 9816   6.364   3.650   6.656
 2973SOL     OW 9817   5.597   0.855   4.016
 2973SOL    HW1 9818   5.588   0.882   4.112
 2973SOL    HW2 9819   5.632   0.761   4.011
 2974SOL     OW 9820   5.810   4.508   2.982
 2974SOL    HW1 9821   5.894   4.551   3.014
 2974SOL    HW2 9822   5.748   4.494   3.059
 2975SOL     OW 9823   0.878   1.613   5.132
 2975SOL    HW1 9824   0.905   1.684   5.066
 2975SOL    HW2 9825   0.783   1.586   5.115
 2976SOL     OW 9826   3.830   1.173   2.702
 2976SOL    HW1 9827   3.810   1.106   2.630
 2976SOL    HW2 9828   3.799   1.137   2.790
 2977SOL     OW 9829   2.891   0.109   4.289
 2977SOL    HW1 9830   2.980   0.065   4.277
 2977SOL    HW2 9831   2.878   0.131   4.386
 2978SOL     OW 9832   4.843   5.170   0.273
 2978SOL    HW1 9833   4.883   5.078   0.276
 2978SOL    HW2 9834   4.914   5.237   0.251
 2979SOL     OW 9835   3.006   0.306   3.443
 2979SOL    HW1 9836   2.976   0.264   3.357
 2979SOL    HW2 9837   3.076   0.374   3.423
 2980SOL     OW 9838   0.628   6.678   4.327
 2980SOL    HW1 9839   0.548   6.629   4.363
 2980SOL    HW2 9840   0.671   6.622   4.256
 2981SOL     OW 9841   1.492   1.123   5.673
 2981SOL    HW1 9842   1.410   1.091   5.720
 2981SOL    HW2 9843   1.569   1.062   5.694
 2982SOL     OW 9844   4.339   5.982   2.675
 2982SOL    HW1 9845   4.428   6.028   2.661
 2982SOL    HW2 9846   4.352   5.883   2.672
 2983SOL     OW 9847   0.577   0.830   4.354
 2983SOL    HW1 9848   0.595   0.749   4.410
 2983SOL    HW2 9849   0.479   0.842   4.344
 2984SOL     OW 9850   6.238   5.418   1.378
 2984SOL    HW1 9851   6.266   5.508   1.343
 2984SOL    HW2 9852   6.284   5.346   1.326
 2985SOL     OW 9853   0.514   1.876   4.357
 2985SOL    HW1 9854   0.470   1.788   4.378
 2985SOL    HW2 9855   0.485   1.944   4.424
 2986SOL     OW 9856   2.136   3.937   5.570
 2986SOL    HW1 9857   2.192   3.937   5.488
 2986SOL    HW2 9858   2.048   3.981   5.551
 2987SOL     OW 9859   4.862   1.247   4.477
 2987SOL    HW1 9860   4.804   1.167   4.464
 2987SOL    HW2 9861   4.829   1.322   4.420
 2988SOL     OW 9862   1.255   0.178   1.839
 2988SOL    HW1 9863   1.342   0.206   1.799
 2988SOL    HW2 9864   1.231   0.087   1.805
 2989SOL     OW 9865   6.870   4.739   1.241
 2989SOL    HW1 9866   6.872   4.737   1.141
 2989SOL    HW2 9867   6.775   4.733   1.273
 2990SOL     OW 9868   3.498   0.514   2.861
 2990SOL    HW1 9869   3.593   0.511   2.891
 2990SOL    HW2 9870   3.495   0.521   2.761
 2991SOL     OW 9871   0.185   3.937   0.444
 2991SOL    HW1 9872   0.200   3.968   0.350
 2991SOL    HW2 9873   0.146   3.844   0.442
 2992SOL     OW 9874   3.497   5.518   6.453
 2992SOL    HW1 9875   3.534   5.426   6.444
 2992SOL    HW2 9876   3.521   5.572   6.372
 2993SOL     OW 9877   2.089   4.409   1.933
 2993SOL    HW1 9878   2.011   4.352   1.906
 2993SOL    HW2 9879   2.056   4.484   1.991
 2994SOL     OW 9880   5.006   0.529   6.947
 2994SOL    HW1 9881   5.019   0.471   6.866
 2994SOL    HW2 9882   5.096   0.556   6.983
 2995SOL     OW 9883   1.267   1.928   0.211
 2995SOL    HW1 9884   1.242   2.020   0.180
 2995SOL    HW2 9885   1.308   1.878   0.135
 2996SOL     OW 9886   2.742   5.409   5.499
 2996SOL    HW1 9887   2.759   5.492   5.445
 2996SOL    HW2 9888   2.763   5.329   5.444
 2997SOL     OW 9889   5.177   6.061   1.794
 2997SOL    HW1 9890   5.273   6.040   1.812
 2997SOL    HW2 9891   5.149   6.141   1.846
 2998SOL     OW 9892   5.084   6.046   4.055
 2998SOL    HW1 9893   5.159   6.001   4.103
 2998SOL    HW2 9894   5.035   5.980   3.999
 2999SOL     OW 9895   3.421   6.209   3.740
 2999SOL    HW1 9896   3.421   6.147   3.819
 2999SOL    HW2 9897   3.345   6.185   3.679
 3000SOL     OW 9898   1.626   3.724   5.468
 3000SOL    HW1 9899   1.578   3.670   5.538
 3000SOL    HW2 9900   1.633   3.670   5.384
 3001SOL     OW 9901   4.715   0.504   5.673
 3001SOL    HW1 9902   4.772   0.582   5.697
 3001SOL    HW2 9903   4.620   0.523   5.700
 3002SOL     OW 9904   4.445   0.248   5.102
 3002SOL    HW1 9905   4.436   0.180   5.029
 3002SOL    HW2 9906   4.356   0.290   5.120
 3003SOL     OW 9907   2.540   6.528   5.912
 3003SOL    HW1 9908   2.458   6.585   5.919
 3003SOL    HW2 9909   2.521   6.449   5.853
 3004SOL     OW 9910   6.119   3.931   3.616
 3004SOL    HW1 9911   6.045   3.936   3.683
 3004SOL    HW2 9912   6.087   3.884   3.534
 3005SOL     OW 9913   3.532   2.883   1.503
 3005SOL    HW1 9914   3.465   2.888   1.577
 3005SOL    HW2 9915   3.595   2.807   1.519
 3006SOL     OW 9916   5.716   1.326   1.138
 3006SOL    HW1 9917   5.750   1.418   1.117
 3006SOL    HW2 9918   5.769   1.288   1.214
 3007SOL     OW 9919   5.604   5.163   2.482
 3007SOL    HW1 9920   5.647   5.075   2.504
 3007SOL    HW2 9921   5.588   5.168   2.384
 3008SOL     OW 9922   3.472   0.005   5.962
 3008SOL    HW1 9923   3.484   0.074   5.890
 3008SOL    HW2 9924   3.386   6.981   5.947
 3009SOL     OW 9925   0.712   0.426   2.557
 3009SOL    HW1 9926   0.626   0.477   2.557
 3009SOL    HW2 9927   0.765   0.451   2.638
 3010SOL     OW 9928   4.391   5.792   3.120
 3010SOL    HW1 9929   4.329   5.715   3.137
 3010SOL    HW2 9930   4.344   5.862   3.066
 3011SOL     OW 9931   6.069   0.993   6.683
 3011SOL    HW1 9932   6.058   1.033   6.774
 3011SOL    HW2 9933   6.031   1.055   6.614
 3012SOL     OW 9934   6.941   3.462   4.077
 3012SOL    HW1 9935   6.861   3.513   4.046
 3012SOL    HW2 9936   6.930   3.365   4.053
 3013SOL     OW 9937   6.164   5.955   2.372
 3013SOL    HW1 9938   6.143   5.892   2.447
 3013SOL    HW2 9939   6.114   5.927   2.290
 3014SOL     OW 9940   5.425   1.631   3.872
 3014SOL    HW1 9941   5.371   1.654   3.791
 3014SOL    HW2 9942   5.401   1.694   3.947
 3015SOL     OW 9943   2.310   2.309   0.815
 3015SOL    HW1 9944   2.290   2.246   0.890
 3015SOL    HW2 9945   2.362   2.387   0.850
 3016SOL     OW 9946   3.401   5.721   4.183
 3016SOL    HW1 9947   3.302   5.712   4.172
 3016SOL    HW2 9948   3.448   5.658   4.120
 3017SOL     OW 9949   0.864   5.461   1.240
 3017SOL    HW1 9950   0.800   5.403   1.190
 3017SOL    HW2 9951   0.915   5.518   1.175
 3018SOL     OW 9952   3.993   0.319   6.608
 3018SOL    HW1 9953   3.991   0.411   6.568
 3018SOL    HW2 9954   4.000   0.251   6.535
 3019SOL     OW 9955   3.429   6.310   1.007
 3019SOL    HW1 9956   3.521   6.313   0.967
 3019SOL    HW2 9957   3.404   6.215   1.026
 3020SOL     OW 9958   3.276   3.533   2.083
 3020SOL    HW1 9959   3.317   3.456   2.131
 3020SOL    HW2 9960   3.331   3.556   2.003
 3021SOL     OW 9961   1.908   1.982   6.860
 3021SOL    HW1 9962   1.983   2.008   6.799
 3021SOL    HW2 9963   1.946   1.951   6.947
 3022SOL     OW 9964   3.606   6.145   2.919
 3022SOL    HW1 9965   3.579   6.081   2.991
 3022SOL    HW2 9966   3.642   6.229   2.961
 3023SOL     OW 9967   3.557   5.929   3.641
 3023SOL    HW1 9968   3.581   6.016   3.686
 3023SOL    HW2 9969   3.525   5.864   3.710
 3024SOL     OW 9970   3.185   0.689   6.639
 3024SOL    HW1 9971   3.200   0.642   6.726
 3024SOL    HW2 9972   3.111   0.757   6.651
 3025SOL     OW 9973   2.904   3.180   0.694
 3025SOL    HW1 9974   2.941   3.214   0.780
 3025SOL    HW2 9975   2.811   3.215   0.682
 3026SOL     OW 9976   1.576   3.522   1.105
 3026SOL    HW1 9977   1.547   3.570   1.187
 3026SOL    HW2 9978   1.537   3.567   1.024
 3027SOL     OW 9979   3.878   0.929   2.354
 3027SOL    HW1 9980   3.813   0.950   2.427
 3027SOL    HW2 9981   3.907   1.013   2.309
 3028SOL     OW 9982   1.345   4.910   0.198
 3028SOL    HW1 9983   1.412   4.845   0.235
 3028SOL    HW2 9984   1.379   4.945   0.110
 3029SOL     OW 9985   6.048   4.859   5.276
 3029SOL    HW1 9986   6.025   4.815   5.189
 3029SOL    HW2 9987   6.135   4.823   5.309
 3030SOL     OW 9988   0.984   0.822   5.580
 3030SOL    HW1 9989   0.931   0.897   5.619
 3030SOL    HW2 9990   0.958   0.736   5.625
 3031SOL     OW 9991   0.801   3.305   0.305
 3031SOL    HW1 9992   0.723   3.311   0.243
 3031SOL    HW2 9993   0.841   3.213   0.299
 3032SOL     OW 9994   5.101   0.323   6.749
 3032SOL    HW1 9995   5.057   0.342   6.661
 3032SOL    HW2 9996   5.095   0.225   6.769
 3033SOL     OW 9997   0.811   3.669   0.107
 3033SOL    HW1 9998   0.764   3.606   0.045
 3033SOL    HW2 9999   0.820   3.758   0.063
 3034SOL     OW10000   2.336   6.380   3.700
 3034SOL    HW110001   2.282   6.367   3.783
 3034SOL    HW210002   2.299   6.456   3.648
 3035SOL     OW10003   6.733   1.480   0.353
 3035SOL    HW110004   6.782   1.553   0.305
 3035SOL    HW210005   6.635   1.487   0.332
 3036SOL     OW10006   1.503   3.707   6.938
 3036SOL    HW110007   1.489   3.609   6.929
 3036SOL    HW210008   1.451   3.741   7.017
 3037SOL     OW10009   6.232   5.812   4.503
 3037SOL    HW110010   6.144   5.786   4.543
 3037SOL    HW210011   6.220   5.829   4.405
 3038SOL     OW10012   5.591   0.156   6.355
 3038SOL    HW110013   5.571   0.232   6.293
 3038SOL    HW210014   5.547   0.173   6.443
 3039SOL     OW10015   6.621   4.864   2.439
 3039SOL    HW110016   6.685   4.857   2.362
 3039SOL    HW210017   6.589   4.773   2.464
 3040SOL     OW10018   3.628   3.706   6.238
 3040SOL    HW110019   3.589   3.727   6.148
 3040SOL    HW210020   3.556   3.712   6.308
 3041SOL     OW10021   1.888   2.752   5.637
 3041SOL    HW110022   1.828   2.708   5.703
 3041SOL    HW210023   1.910   2.688   5.564
 3042SOL     OW10024   5.318   0.542   2.132
 3042SOL    HW110025   5.262   0.560   2.051
 3042SOL    HW210026   5.325   0.625   2.187
 3043SOL     OW10027   0.721   5.457   0.344
 3043SOL    HW110028   0.624   5.474   0.359
 3043SOL    HW210029   0.745   5.478   0.249
 3044SOL     OW10030   3.289   4.504   5.568
 3044SOL    HW110031   3.337   4.422   5.599
 3044SOL    HW210032   3.329   4.537   5.483
 3045SOL     OW10033   4.987   1.070   2.522
 3045SOL    HW110034   5.052   1.143   2.542
 3045SOL    HW210035   4.894   1.102   2.539
 3046SOL     OW10036   1.322   3.503   5.382
 3046SOL    HW110037   1.369   3.473   5.299
 3046SOL    HW210038   1.305   3.601   5.377
 3047SOL     OW10039   5.782   4.873   1.754
 3047SOL    HW110040   5.716   4.816   1.803
 3047SOL    HW210041   5.748   4.968   1.751
 3048SOL     OW10042   4.001   3.392   1.582
 3048SOL    HW110043   4.066   3.334   1.534
 3048SOL    HW210044   4.048   3.443   1.654
 3049SOL     OW10045   0.959   0.008   1.529
 3049SOL    HW110046   0.917   0.098   1.517
 3049SOL    HW210047   0.989   7.022   1.623
 3050SOL     OW10048   3.184   6.333   4.128
 3050SOL    HW110049   3.096   6.359   4.086
 3050SOL    HW210050   3.167   6.271   4.205
 3051SOL     OW10051   2.707   5.107   6.765
 3051SOL    HW110052   2.640   5.121   6.692
 3051SOL    HW210053   2.794   5.077   6.725
 3052SOL     OW10054   3.782   0.750   2.963
 3052SOL    HW110055   3.738   0.662   2.951
 3052SOL    HW210056   3.812   0.785   2.874
 3053SOL     OW10057   6.110   0.813   0.232
 3053SOL    HW110058   6.013   0.826   0.215
 3053SOL    HW210059   6.129   0.716   0.247
 3054SOL     OW10060   0.228   3.361   0.294
 3054SOL    HW110061   0.260   3.279   0.341
 3054SOL    HW210062   0.138   3.387   0.330
 3055SOL     OW10063   5.440   0.086   3.689
 3055SOL    HW110064   5.422   0.161   3.625
 3055SOL    HW210065   5.408   0.112   3.780
 3056SOL     OW10066   6.742   0.134   0.135
 3056SOL    HW110067   6.665   0.094   0.183
 3056SOL    HW210068   6.715   0.158   0.042
 3057SOL     OW10069   5.331   5.014   2.341
 3057SOL    HW110070   5.265   4.951   2.383
 3057SOL    HW210071   5.421   5.000   2.383
 3058SOL     OW10072   6.304   5.667   1.291
 3058SOL    HW110073   6.293   5.680   1.193
 3058SOL    HW210074   6.399   5.689   1.317
 3059SOL     OW10075   0.948   2.826   4.901
 3059SOL    HW110076   0.909   2.804   4.812
 3059SOL    HW210077   1.048   2.823   4.896
 3060SOL     OW10078   0.560   0.255   0.693
 3060SOL    HW110079   0.576   0.314   0.772
 3060SOL    HW210080   0.474   0.280   0.648
 3061SOL     OW10081   6.948   1.011   4.926
 3061SOL    HW110082   0.021   0.997   4.909
 3061SOL    HW210083   6.935   1.100   4.970
 3062SOL     OW10084   2.605   6.753   1.919
 3062SOL    HW110085   2.650   6.673   1.958
 3062SOL    HW210086   2.600   6.743   1.819
 3063SOL     OW10087   2.005   4.636   2.068
 3063SOL    HW110088   1.964   4.698   2.002
 3063SOL    HW210089   2.053   4.688   2.138
 3064SOL     OW10090   6.291   3.664   3.933
 3064SOL    HW110091   6.206   3.630   3.893
 3064SOL    HW210092   6.271   3.736   3.999
 3065SOL     OW10093   1.931   0.706   6.462
 3065SOL    HW110094   1.839   0.721   6.497
 3065SOL    HW210095   1.929   0.712   6.362
 3066SOL     OW10096   6.114   4.323   0.565
 3066SOL    HW110097   6.096   4.378   0.484
 3066SOL    HW210098   6.112   4.226   0.541
 3067SOL     OW10099   3.776   0.969   4.666
 3067SOL    HW110100   3.706   1.025   4.621
 3067SOL    HW210101   3.805   0.897   4.603
 3068SOL     OW10102   5.968   6.355   0.806
 3068SOL    HW110103   5.968   6.427   0.875
 3068SOL    HW210104   5.958   6.266   0.851
 3069SOL     OW10105   0.397   5.511   1.936
 3069SOL    HW110106   0.297   5.501   1.936
 3069SOL    HW210107   0.428   5.526   1.842
 3070SOL     OW10108   2.326   1.555   2.820
 3070SOL    HW110109   2.264   1.478   2.830
 3070SOL    HW210110   2.396   1.533   2.752
 3071SOL     OW10111   5.905   0.151   3.452
 3071SOL    HW110112   5.936   0.204   3.373
 3071SOL    HW210113   5.978   0.091   3.483
 3072SOL     OW10114   1.008   6.766   1.871
 3072SOL    HW110115   0.965   6.692   1.819
 3072SOL    HW210116   0.983   6.853   1.831
 3073SOL     OW10117   0.702   3.270   5.048
 3073SOL    HW110118   0.789   3.302   5.084
 3073SOL    HW210119   0.710   3.173   5.023
 3074SOL     OW10120   4.696   3.195   0.649
 3074SOL    HW110121   4.734   3.220   0.560
 3074SOL    HW210122   4.596   3.200   0.645
 3075SOL     OW10123   1.714   6.630   1.531
 3075SOL    HW110124   1.698   6.643   1.433
 3075SOL    HW210125   1.684   6.712   1.581
 3076SOL     OW10126   6.490   0.652   4.773
 3076SOL    HW110127   6.472   0.592   4.851
 3076SOL    HW210128   6.453   0.743   4.791
 3077SOL     OW10129   5.735   4.944   3.904
 3077SOL    HW110130   5.700   5.037   3.916
 3077SOL    HW210131   5.768   4.910   3.992
 3078SOL     OW10132   2.100   3.709   2.064
 3078SOL    HW110133   2.131   3.757   2.146
 3078SOL    HW210134   2.153   3.626   2.051
 3079SOL     OW10135   1.181   2.693   4.805
 3079SOL    HW110136   1.228   2.748   4.736
 3079SOL    HW210137   1.248   2.638   4.855
 3080SOL     OW10138   6.356   4.848   1.311
 3080SOL    HW110139   6.263   4.812   1.303
 3080SOL    HW210140   6.382   4.896   1.227
 3081SOL     OW10141   0.531   4.647   6.368
 3081SOL    HW110142   0.451   4.702   6.390
 3081SOL    HW210143   0.546   4.648   6.270
 3082SOL     OW10144   3.560   0.085   3.000
 3082SOL    HW110145   3.655   0.116   2.997
 3082SOL    HW210146   3.553   7.018   2.960
 3083SOL     OW10147   3.517   0.399   2.350
 3083SOL    HW110148   3.569   0.338   2.409
 3083SOL    HW210149   3.576   0.433   2.276
 3084SOL     OW10150   4.554   4.856   3.882
 3084SOL    HW110151   4.514   4.765   3.882
 3084SOL    HW210152   4.635   4.857   3.940
 3085SOL     OW10153   6.981   5.120   3.186
 3085SOL    HW110154   6.973   5.021   3.190
 3085SOL    HW210155   6.998   5.156   3.278
 3086SOL     OW10156   4.427   0.814   2.252
 3086SOL    HW110157   4.444   0.716   2.260
 3086SOL    HW210158   4.328   0.831   2.260
 3087SOL     OW10159   6.340   4.162   3.301
 3087SOL    HW110160   6.347   4.071   3.260
 3087SOL    HW210161   6.318   4.153   3.398
 3088SOL     OW10162   2.565   5.051   5.448
 3088SOL    HW110163   2.637   4.987   5.419
 3088SOL    HW210164   2.518   5.014   5.528
 3089SOL     OW10165   1.262   2.621   7.013
 3089SOL    HW110166   1.256   2.542   0.049
 3089SOL    HW210167   1.276   2.589   6.919
 3090SOL     OW10168   1.690   1.832   1.415
 3090SOL    HW110169   1.726   1.866   1.502
 3090SOL    HW210170   1.636   1.749   1.431
 3091SOL     OW10171   3.323   0.228   0.456
 3091SOL    HW110172   3.301   0.158   0.388
 3091SOL    HW210173   3.287   0.316   0.426
 3092SOL     OW10174   5.364   6.938   0.214
 3092SOL    HW110175   5.269   6.924   0.188
 3092SOL    HW210176   5.424   6.889   0.151
 3093SOL     OW10177   5.918   5.199   5.778
 3093SOL    HW110178   5.936   5.284   5.827
 3093SOL    HW210179   5.877   5.132   5.840
 3094SOL     OW10180   3.026   5.683   5.156
 3094SOL    HW110181   3.062   5.732   5.237
 3094SOL    HW210182   3.023   5.585   5.176
 3095SOL     OW10183   2.164   4.464   4.535
 3095SOL    HW110184   2.224   4.391   4.503
 3095SOL    HW210185   2.175   4.476   4.634
 3096SOL     OW10186   6.389   0.094   4.725
 3096SOL    HW110187   6.410   0.005   4.766
 3096SOL    HW210188   6.406   0.090   4.627
 3097SOL     OW10189   0.690   2.687   0.602
 3097SOL    HW110190   0.708   2.738   0.686
 3097SOL    HW210191   0.663   2.593   0.625
 3098SOL     OW10192   2.448   3.952   0.778
 3098SOL    HW110193   2.544   3.954   0.752
 3098SOL    HW210194   2.422   4.040   0.818
 3099SOL     OW10195   6.874   5.874   4.763
 3099SOL    HW110196   6.832   5.822   4.689
 3099SOL    HW210197   6.965   5.904   4.734
 3100SOL     OW10198   6.768   6.840   4.994
 3100SOL    HW110199   6.842   6.781   5.026
 3100SOL    HW210200   6.803   6.901   4.922
 3101SOL     OW10201   4.704   5.968   5.643
 3101SOL    HW110202   4.629   6.030   5.668
 3101SOL    HW210203   4.737   5.992   5.552
 3102SOL     OW10204   1.417   4.522   1.209
 3102SOL    HW110205   1.394   4.525   1.112
 3102SOL    HW210206   1.401   4.429   1.244
 3103SOL     OW10207   3.297   2.286   0.823
 3103SOL    HW110208   3.343   2.272   0.735
 3103SOL    HW210209   3.205   2.247   0.820
 3104SOL     OW10210   5.352   6.356   4.178
 3104SOL    HW110211   5.315   6.322   4.265
 3104SOL    HW210212   5.281   6.406   4.129
 3105SOL     OW10213   5.543   5.887   3.395
 3105SOL    HW110214   5.491   5.966   3.426
 3105SOL    HW210215   5.507   5.804   3.437
 3106SOL     OW10216   6.839   2.460   2.742
 3106SOL    HW110217   6.793   2.375   2.716
 3106SOL    HW210218   6.880   2.502   2.661
 3107SOL     OW10219   3.088   0.603   4.017
 3107SOL    HW110220   3.168   0.631   3.964
 3107SOL    HW210221   3.116   0.577   4.109
 3108SOL     OW10222   2.070   0.635   4.681
 3108SOL    HW110223   2.163   0.602   4.669
 3108SOL    HW210224   2.036   0.608   4.771
 3109SOL     OW10225   5.054   6.040   2.551
 3109SOL    HW110226   5.074   6.106   2.623
 3109SOL    HW210227   5.135   6.030   2.492
 3110SOL     OW10228   0.085   3.122   3.414
 3110SOL    HW110229   7.020   3.140   3.452
 3110SOL    HW210230   0.076   3.093   3.319
 3111SOL     OW10231   6.059   5.428   3.943
 3111SOL    HW110232   6.011   5.515   3.946
 3111SOL    HW210233   6.112   5.421   3.858
 3112SOL     OW10234   4.417   2.910   6.131
 3112SOL    HW110235   4.474   2.992   6.123
 3112SOL    HW210236   4.441   2.846   6.058
 3113SOL     OW10237   2.687   6.607   3.962
 3113SOL    HW110238   2.627   6.576   3.888
 3113SOL    HW210239   2.775   6.636   3.923
 3114SOL     OW10240   5.461   3.978   6.685
 3114SOL    HW110241   5.522   3.902   6.662
 3114SOL    HW210242   5.422   4.017   6.601
 3115SOL     OW10243   3.633   3.911   0.828
 3115SOL    HW110244   3.663   3.914   0.733
 3115SOL    HW210245   3.585   3.996   0.851
 3116SOL     OW10246   6.337   2.610   6.113
 3116SOL    HW110247   6.393   2.528   6.119
 3116SOL    HW210248   6.384   2.679   6.057
 3117SOL     OW10249   4.268   3.466   5.505
 3117SOL    HW110250   4.340   3.428   5.446
 3117SOL    HW210251   4.276   3.426   5.597
 3118SOL     OW10252   6.334   4.856   6.794
 3118SOL    HW110253   6.359   4.871   6.698
 3118SOL    HW210254   6.292   4.939   6.830
 3119SOL     OW10255   2.049   4.472   5.367
 3119SOL    HW110256   2.062   4.419   5.283
 3119SOL    HW210257   1.953   4.468   5.394
 3120SOL     OW10258   1.802   5.682   4.610
 3120SOL    HW110259   1.714   5.723   4.630
 3120SOL    HW210260   1.843   5.647   4.695
 3121SOL     OW10261   0.376   1.837   2.155
 3121SOL    HW110262   0.352   1.911   2.091
 3121SOL    HW210263   0.293   1.799   2.195
 3122SOL     OW10264   3.188   5.547   6.462
 3122SOL    HW110265   3.285   5.544   6.487
 3122SOL    HW210266   3.144   5.464   6.495
 3123SOL     OW10267   3.629   6.396   3.764
 3123SOL    HW110268   3.675   6.308   3.759
 3123SOL    HW210269   3.530   6.382   3.776
 3124SOL     OW10270   4.849   0.651   5.252
 3124SOL    HW110271   4.942   0.635   5.220
 3124SOL    HW210272   4.817   0.570   5.302
 3125SOL     OW10273   6.325   1.863   5.641
 3125SOL    HW110274   6.264   1.784   5.626
 3125SOL    HW210275   6.364   1.857   5.733
 3126SOL     OW10276   5.334   4.560   6.050
 3126SOL    HW110277   5.264   4.631   6.059
 3126SOL    HW210278   5.370   4.560   5.957
 3127SOL     OW10279   1.595   1.356   3.630
 3127SOL    HW110280   1.652   1.278   3.606
 3127SOL    HW210281   1.653   1.432   3.661
 3128SOL     OW10282   1.997   0.752   0.447
 3128SOL    HW110283   1.981   0.814   0.524
 3128SOL    HW210284   2.088   0.769   0.409
 3129SOL     OW10285   0.362   4.096   5.304
 3129SOL    HW110286   0.414   4.091   5.390
 3129SOL    HW210287   0.314   4.010   5.290
 3130SOL     OW10288   2.393   4.332   2.738
 3130SOL    HW110289   2.401   4.342   2.639
 3130SOL    HW210290   2.311   4.279   2.760
 3131SOL     OW10291   0.785   3.166   2.860
 3131SOL    HW110292   0.772   3.163   2.761
 3131SOL    HW210293   0.846   3.092   2.887
 3132SOL     OW10294   5.147   5.787   5.646
 3132SOL    HW110295   5.239   5.750   5.658
 3132SOL    HW210296   5.124   5.789   5.549
 3133SOL     OW10297   2.089   1.851   3.985
 3133SOL    HW110298   2.166   1.898   4.028
 3133SOL    HW210299   2.119   1.764   3.946
 3134SOL     OW10300   4.745   3.275   1.527
 3134SOL    HW110301   4.706   3.193   1.568
 3134SOL    HW210302   4.816   3.313   1.587
 3135SOL     OW10303   4.182   1.912   4.131
 3135SOL    HW110304   4.165   1.939   4.226
 3135SOL    HW210305   4.129   1.971   4.069
 3136SOL     OW10306   5.556   5.810   6.081
 3136SOL    HW110307   5.591   5.724   6.044
 3136SOL    HW210308   5.629   5.856   6.132
 3137SOL     OW10309   5.084   1.883   4.061
 3137SOL    HW110310   5.127   1.850   3.976
 3137SOL    HW210311   4.986   1.897   4.046
 3138SOL     OW10312   6.036   1.827   4.572
 3138SOL    HW110313   6.107   1.767   4.534
 3138SOL    HW210314   6.043   1.918   4.529
 3139SOL     OW10315   4.935   6.253   5.596
 3139SOL    HW110316   4.869   6.295   5.659
 3139SOL    HW210317   5.028   6.273   5.626
 3140SOL     OW10318   6.847   6.496   6.464
 3140SOL    HW110319   6.929   6.458   6.420
 3140SOL    HW210320   6.862   6.593   6.483
 3141SOL     OW10321   0.539   6.445   0.142
 3141SOL    HW110322   0.514   6.441   0.238
 3141SOL    HW210323   0.619   6.504   0.130
 3142SOL     OW10324   4.761   6.212   6.792
 3142SOL    HW110325   4.718   6.168   6.713
 3142SOL    HW210326   4.828   6.149   6.832
 3143SOL     OW10327   0.163   1.911   6.611
 3143SOL    HW110328   0.142   1.996   6.661
 3143SOL    HW210329   0.261   1.908   6.591
 3144SOL     OW10330   1.851   3.695   0.220
 3144SOL    HW110331   1.936   3.689   0.273
 3144SOL    HW210332   1.792   3.766   0.259
 3145SOL     OW10333   2.968   5.876   2.826
 3145SOL    HW110334   2.874   5.846   2.809
 3145SOL    HW210335   3.029   5.835   2.758
 3146SOL     OW10336   1.438   7.014   3.159
 3146SOL    HW110337   1.470   0.031   3.074
 3146SOL    HW210338   1.463   0.046   3.237
 3147SOL     OW10339   4.548   4.660   1.047
 3147SOL    HW110340   4.529   4.579   1.103
 3147SOL    HW210341   4.534   4.638   0.951
 3148SOL     OW10342   3.908   5.597   3.892
 3148SOL    HW110343   3.816   5.608   3.855
 3148SOL    HW210344   3.975   5.614   3.820
 3149SOL     OW10345   3.083   0.402   5.500
 3149SOL    HW110346   3.028   0.326   5.464
 3149SOL    HW210347   3.037   0.489   5.480
 3150SOL     OW10348   5.226   0.103   4.938
 3150SOL    HW110349   5.286   0.153   5.000
 3150SOL    HW210350   5.281   0.044   4.879
 3151SOL     OW10351   4.716   1.119   6.259
 3151SOL    HW110352   4.776   1.175   6.203
 3151SOL    HW210353   4.771   1.063   6.321
 3152SOL     OW10354   0.555   5.192   1.750
 3152SOL    HW110355   0.461   5.164   1.732
 3152SOL    HW210356   0.594   5.231   1.666
 3153SOL     OW10357   6.247   3.810   1.985
 3153SOL    HW110358   6.189   3.839   1.909
 3153SOL    HW210359   6.312   3.882   2.007
 3154SOL     OW10360   6.073   2.573   6.182
 3154SOL    HW110361   6.166   2.557   6.151
 3154SOL    HW210362   6.009   2.536   6.114
 3155SOL     OW10363   6.398   5.201   1.250
 3155SOL    HW110364   6.425   5.107   1.226
 3155SOL    HW210365   6.475   5.246   1.296
 3156SOL     OW10366   4.017   3.869   3.407
 3156SOL    HW110367   3.983   3.941   3.345
 3156SOL    HW210368   4.024   3.905   3.500
 3157SOL     OW10369   2.089   3.662   4.824
 3157SOL    HW110370   2.150   3.690   4.898
 3157SOL    HW210371   2.014   3.607   4.860
 3158SOL     OW10372   4.776   6.631   1.741
 3158SOL    HW110373   4.728   6.593   1.662
 3158SOL    HW210374   4.768   6.569   1.818
 3159SOL     OW10375   4.882   5.541   6.321
 3159SOL    HW110376   4.898   5.483   6.400
 3159SOL    HW210377   4.893   5.487   6.237
 3160SOL     OW10378   5.182   3.791   6.149
 3160SOL    HW110379   5.223   3.703   6.173
 3160SOL    HW210380   5.124   3.823   6.225
 3161SOL     OW10381   1.908   0.585   2.686
 3161SOL    HW110382   1.828   0.530   2.709
 3161SOL    HW210383   1.982   0.565   2.751
 3162SOL     OW10384   0.511   5.677   6.819
 3162SOL    HW110385   0.505   5.653   6.722
 3162SOL    HW210386   0.445   5.749   6.840
 3163SOL     OW10387   3.794   3.042   6.932
 3163SOL    HW110388   3.751   2.960   6.893
 3163SOL    HW210389   3.833   3.020   7.022
 3164SOL     OW10390   5.205   4.060   0.851
 3164SOL    HW110391   5.289   4.040   0.800
 3164SOL    HW210392   5.228   4.080   0.947
 3165SOL     OW10393   0.781   0.269   1.890
 3165SOL    HW110394   0.729   0.275   1.975
 3165SOL    HW210395   0.878   0.263   1.911
 3166SOL     OW10396   4.456   3.184   6.022
 3166SOL    HW110397   4.549   3.167   5.989
 3166SOL    HW210398   4.460   3.244   6.102
 3167SOL     OW10399   0.399   4.495   1.566
 3167SOL    HW110400   0.358   4.498   1.656
 3167SOL    HW210401   0.471   4.564   1.559
 3168SOL     OW10402   5.684   2.667   0.653
 3168SOL    HW110403   5.730   2.694   0.737
 3168SOL    HW210404   5.611   2.732   0.632
 3169SOL     OW10405   0.945   2.377   5.620
 3169SOL    HW110406   1.015   2.355   5.552
 3169SOL    HW210407   0.867   2.316   5.607
 3170SOL     OW10408   4.193   0.688   6.074
 3170SOL    HW110409   4.127   0.625   6.114
 3170SOL    HW210410   4.145   0.763   6.028
 3171SOL     OW10411   6.507   6.903   1.776
 3171SOL    HW110412   6.547   6.836   1.839
 3171SOL    HW210413   6.508   6.994   1.819
 3172SOL     OW10414   6.061   6.828   4.929
 3172SOL    HW110415   6.071   6.793   5.022
 3172SOL    HW210416   5.996   6.771   4.879
 3173SOL     OW10417   2.436   0.166   1.850
 3173SOL    HW110418   2.468   0.172   1.945
 3173SOL    HW210419   2.397   0.075   1.835
 3174SOL     OW10420   2.945   2.581   5.827
 3174SOL    HW110421   2.947   2.665   5.774
 3174SOL    HW210422   3.033   2.569   5.873
 3175SOL     OW10423   1.003   6.457   0.510
 3175SOL    HW110424   0.993   6.489   0.604
 3175SOL    HW210425   0.913   6.438   0.471
 3176SOL     OW10426   1.344   4.178   6.835
 3176SOL    HW110427   1.304   4.099   6.789
 3176SOL    HW210428   1.368   4.153   6.929
 3177SOL     OW10429   5.519   5.489   5.522
 3177SOL    HW110430   5.444   5.482   5.588
 3177SOL    HW210431   5.592   5.427   5.548
 3178SOL     OW10432   0.338   4.484   2.357
 3178SOL    HW110433   0.417   4.423   2.346
 3178SOL    HW210434   0.369   4.574   2.388
 3179SOL     OW10435   1.853   1.819   2.100
 3179SOL    HW110436   1.831   1.758   2.023
 3179SOL    HW210437   1.949   1.847   2.095
 3180SOL     OW10438   5.731   0.203   5.519
 3180SOL    HW110439   5.682   0.154   5.447
 3180SOL    HW210440   5.681   0.286   5.544
 3181SOL     OW10441   1.032   1.080   3.773
 3181SOL    HW110442   0.954   1.025   3.743
 3181SOL    HW210443   1.111   1.020   3.787
 3182SOL     OW10444   0.803   6.051   5.655
 3182SOL    HW110445   0.806   6.017   5.749
 3182SOL    HW210446   0.858   5.992   5.597
 3183SOL     OW10447   4.748   4.741   1.702
 3183SOL    HW110448   4.677   4.733   1.631
 3183SOL    HW210449   4.779   4.650   1.728
 3184SOL     OW10450   2.640   1.959   2.768
 3184SOL    HW110451   2.711   1.901   2.808
 3184SOL    HW210452   2.565   1.901   2.736
 3185SOL     OW10453   0.106   6.856   5.432
 3185SOL    HW110454   0.078   6.935   5.488
 3185SOL    HW210455   0.160   6.888   5.354
 3186SOL     OW10456   3.434   1.084   3.049
 3186SOL    HW110457   3.444   1.095   2.950
 3186SOL    HW210458   3.517   1.041   3.086
 3187SOL     OW10459   3.463   4.718   0.178
 3187SOL    HW110460   3.510   4.678   0.100
 3187SOL    HW210461   3.385   4.772   0.146
 3188SOL     OW10462   3.809   5.752   3.270
 3188SOL    HW110463   3.840   5.808   3.193
 3188SOL    HW210464   3.714   5.775   3.291
 3189SOL     OW10465   1.518   0.518   3.424
 3189SOL    HW110466   1.434   0.464   3.412
 3189SOL    HW210467   1.511   0.573   3.507
 3190SOL     OW10468   1.597   5.945   1.978
 3190SOL    HW110469   1.504   5.976   1.960
 3190SOL    HW210470   1.626   5.978   2.068
 3191SOL     OW10471   3.893   0.315   0.609
 3191SOL    HW110472   3.813   0.328   0.668
 3191SOL    HW210473   3.920   0.402   0.569
 3192SOL     OW10474   0.337   2.938   2.222
 3192SOL    HW110475   0.433   2.915   2.206
 3192SOL    HW210476   0.317   2.929   2.319
 3193SOL     OW10477   4.284   2.164   6.048
 3193SOL    HW110478   4.349   2.218   6.102
 3193SOL    HW210479   4.238   2.099   6.108
 3194SOL     OW10480   1.240   3.327   5.830
 3194SOL    HW110481   1.231   3.334   5.930
 3194SOL    HW210482   1.186   3.249   5.797
 3195SOL     OW10483   1.185   3.044   3.739
 3195SOL    HW110484   1.121   3.090   3.677
 3195SOL    HW210485   1.139   3.020   3.824
 3196SOL     OW10486   0.135   0.166   4.815
 3196SOL    HW110487   0.129   0.155   4.914
 3196SOL    HW210488   0.215   0.220   4.792
 3197SOL     OW10489   1.287   4.631   3.848
 3197SOL    HW110490   1.378   4.588   3.843
 3197SOL    HW210491   1.232   4.600   3.771
 3198SOL     OW10492   0.556   2.165   6.139
 3198SOL    HW110493   0.652   2.192   6.133
 3198SOL    HW210494   0.548   2.066   6.124
 3199SOL     OW10495   4.600   1.711   2.339
 3199SOL    HW110496   4.677   1.649   2.327
 3199SOL    HW210497   4.536   1.700   2.262
 3200SOL     OW10498   6.539   2.429   0.257
 3200SOL    HW110499   6.562   2.335   0.231
 3200SOL    HW210500   6.481   2.470   0.187
 3201SOL     OW10501   5.128   3.972   3.803
 3201SOL    HW110502   5.047   3.952   3.748
 3201SOL    HW210503   5.114   4.057   3.853
 3202SOL     OW10504   1.620   4.445   1.884
 3202SOL    HW110505   1.540   4.446   1.944
 3202SOL    HW210506   1.703   4.435   1.939
 3203SOL     OW10507   6.683   0.739   1.160
 3203SOL    HW110508   6.698   0.803   1.084
 3203SOL    HW210509   6.680   0.645   1.123
 3204SOL     OW10510   6.872   5.682   1.825
 3204SOL    HW110511   6.947   5.619   1.807
 3204SOL    HW210512   6.807   5.640   1.888
 3205SOL     OW10513   0.578   3.922   4.995
 3205SOL    HW110514   0.484   3.889   5.004
 3205SOL    HW210515   0.624   3.873   4.921
 3206SOL     OW10516   1.081   6.757   6.032
 3206SOL    HW110517   1.111   6.661   6.024
 3206SOL    HW210518   1.087   6.786   6.127
 3207SOL     OW10519   0.746   0.963   4.886
 3207SOL    HW110520   0.833   0.943   4.931
 3207SOL    HW210521   0.748   0.927   4.792
 3208SOL     OW10522   4.709   5.698   4.987
 3208SOL    HW110523   4.729   5.789   4.951
 3208SOL    HW210524   4.756   5.685   5.074
 3209SOL     OW10525   2.293   0.515   4.055
 3209SOL    HW110526   2.227   0.588   4.037
 3209SOL    HW210527   2.310   0.508   4.153
 3210SOL     OW10528   6.381   4.545   2.649
 3210SOL    HW110529   6.374   4.615   2.577
 3210SOL    HW210530   6.444   4.577   2.720
 3211SOL     OW10531   2.066   4.503   1.633
 3211SOL    HW110532   2.114   4.568   1.692
 3211SOL    HW210533   1.975   4.484   1.672
 3212SOL     OW10534   5.268   2.388   6.833
 3212SOL    HW110535   5.249   2.384   6.931
 3212SOL    HW210536   5.350   2.333   6.813
 3213SOL     OW10537   5.760   5.714   2.395
 3213SOL    HW110538   5.711   5.737   2.479
 3213SOL    HW210539   5.738   5.781   2.324
 3214SOL     OW10540   4.003   5.605   6.686
 3214SOL    HW110541   3.956   5.551   6.617
 3214SOL    HW210542   3.938   5.634   6.757
 3215SOL     OW10543   5.917   2.289   6.274
 3215SOL    HW110544   5.991   2.315   6.336
 3215SOL    HW210545   5.855   2.367   6.262
 3216SOL     OW10546   5.531   6.942   2.731
 3216SOL    HW110547   5.544   0.009   2.767
 3216SOL    HW210548   5.557   6.875   2.801
 3217SOL     OW10549   6.919   4.337   2.458
 3217SOL    HW110550   6.925   4.376   2.366
 3217SOL    HW210551   6.826   4.349   2.493
 3218SOL     OW10552   3.913   0.736   3.742
 3218SOL    HW110553   3.859   0.820   3.745
 3218SOL    HW210554   3.900   0.691   3.654
 3219SOL     OW10555   0.479   0.533   3.166
 3219SOL    HW110556   0.394   0.482   3.179
 3219SOL    HW210557   0.462   0.615   3.112
 3220SOL     OW10558   0.206   4.458   5.227
 3220SOL    HW110559   0.106   4.453   5.223
 3220SOL    HW210560   0.236   4.438   5.321
 3221SOL     OW10561   2.900   6.896   3.579
 3221SOL    HW110562   2.953   6.980   3.568
 3221SOL    HW210563   2.957   6.818   3.554
 3222SOL     OW10564   5.977   2.552   2.992
 3222SOL    HW110565   5.931   2.627   2.945
 3222SOL    HW210566   5.945   2.548   3.086
 3223SOL     OW10567   2.199   5.032   6.128
 3223SOL    HW110568   2.154   5.025   6.038
 3223SOL    HW210569   2.159   4.964   6.190
 3224SOL     OW10570   4.398   4.638   0.454
 3224SOL    HW110571   4.314   4.690   0.465
 3224SOL    HW210572   4.419   4.629   0.356
 3225SOL     OW10573   2.489   3.628   0.704
 3225SOL    HW110574   2.583   3.656   0.685
 3225SOL    HW210575   2.453   3.682   0.781
 3226SOL     OW10576   1.253   0.622   3.777
 3226SOL    HW110577   1.319   0.599   3.848
 3226SOL    HW210578   1.301   0.648   3.693
 3227SOL     OW10579   3.306   0.989   5.544
 3227SOL    HW110580   3.310   1.057   5.618
 3227SOL    HW210581   3.357   1.022   5.465
 3228SOL     OW10582   5.654   3.894   4.657
 3228SOL    HW110583   5.660   3.813   4.715
 3228SOL    HW210584   5.561   3.931   4.661
 3229SOL     OW10585   4.249   1.518   5.259
 3229SOL    HW110586   4.288   1.441   5.308
 3229SOL    HW210587   4.172   1.555   5.310
 3230SOL     OW10588   1.096   0.402   3.836
 3230SOL    HW110589   1.154   0.478   3.806
 3230SOL    HW210590   1.031   0.434   3.905
 3231SOL     OW10591   6.056   6.305   0.532
 3231SOL    HW110592   5.990   6.363   0.579
 3231SOL    HW210593   6.102   6.358   0.460
 3232SOL     OW10594   2.910   4.803   4.622
 3232SOL    HW110595   2.848   4.837   4.693
 3232SOL    HW210596   2.872   4.720   4.581
 3233SOL     OW10597   0.339   4.065   1.674
 3233SOL    HW110598   0.354   3.968   1.653
 3233SOL    HW210599   0.301   4.073   1.766
 3234SOL     OW10600   0.347   1.659   6.214
 3234SOL    HW110601   0.423   1.723   6.219
 3234SOL    HW210602   0.355   1.591   6.287
 3235SOL     OW10603   5.266   6.949   2.852
 3235SOL    HW110604   5.364   6.946   2.830
 3235SOL    HW210605   5.225   0.005   2.812
 3236SOL     OW10606   0.662   3.217   2.324
 3236SOL    HW110607   0.758   3.244   2.320
 3236SOL    HW210608   0.605   3.284   2.276
 3237SOL     OW10609   3.101   0.044   4.794
 3237SOL    HW110610   3.088   0.120   4.730
 3237SOL    HW210611   3.114   6.984   4.744
 3238SOL     OW10612   7.013   5.858   6.014
 3238SOL    HW110613   6.965   5.848   6.101
 3238SOL    HW210614   0.075   5.905   6.030
 3239SOL     OW10615   6.314   6.981   5.171
 3239SOL    HW110616   6.226   6.935   5.159
 3239SOL    HW210617   6.334   6.990   5.268
 3240SOL     OW10618   1.392   0.412   4.874
 3240SOL    HW110619   1.362   0.466   4.796
 3240SOL    HW210620   1.471   0.456   4.917
 3241SOL     OW10621   4.659   0.876   3.623
 3241SOL    HW110622   4.695   0.828   3.543
 3241SOL    HW210623   4.720   0.952   3.647
 3242SOL     OW10624   3.924   6.591   0.138
 3242SOL    HW110625   3.857   6.612   0.209
 3242SOL    HW210626   4.010   6.562   0.179
 3243SOL     OW10627   4.312   4.998   0.785
 3243SOL    HW110628   4.231   5.000   0.727
 3243SOL    HW210629   4.394   4.995   0.728
 3244SOL     OW10630   3.069   6.234   6.684
 3244SOL    HW110631   3.074   6.141   6.720
 3244SOL    HW210632   3.153   6.253   6.632
 3245SOL     OW10633   3.454   2.214   6.768
 3245SOL    HW110634   3.444   2.115   6.765
 3245SOL    HW210635   3.363   2.257   6.767
 3246SOL     OW10636   5.649   6.047   2.962
 3246SOL    HW110637   5.668   6.030   2.865
 3246SOL    HW210638   5.718   6.108   2.999
 3247SOL     OW10639   0.719   2.629   4.033
 3247SOL    HW110640   0.778   2.588   3.963
 3247SOL    HW210641   0.753   2.602   4.124
 3248SOL     OW10642   6.301   3.195   1.662
 3248SOL    HW110643   6.341   3.170   1.574
 3248SOL    HW210644   6.306   3.294   1.673
 3249SOL     OW10645   2.289   4.647   5.226
 3249SOL    HW110646   2.269   4.676   5.319
 3249SOL    HW210647   2.345   4.716   5.181
 3250SOL     OW10648   4.944   6.679   2.348
 3250SOL    HW110649   4.885   6.675   2.428
 3250SOL    HW210650   4.987   6.769   2.342
 3251SOL     OW10651   3.797   1.736   3.119
 3251SOL    HW110652   3.877   1.796   3.106
 3251SOL    HW210653   3.807   1.656   3.060
 3252SOL     OW10654   3.019   1.096   2.275
 3252SOL    HW110655   3.051   1.007   2.306
 3252SOL    HW210656   2.978   1.087   2.184
 3253SOL     OW10657   5.288   2.811   0.803
 3253SOL    HW110658   5.364   2.830   0.865
 3253SOL    HW210659   5.318   2.823   0.708
 3254SOL     OW10660   4.913   4.195   3.124
 3254SOL    HW110661   4.991   4.216   3.183
 3254SOL    HW210662   4.885   4.278   3.075
 3255SOL     OW10663   4.562   5.500   0.339
 3255SOL    HW110664   4.525   5.417   0.295
 3255SOL    HW210665   4.645   5.528   0.291
 3256SOL     OW10666   5.304   6.610   5.275
 3256SOL    HW110667   5.397   6.630   5.245
 3256SOL    HW210668   5.244   6.684   5.247
 3257SOL     OW10669   1.812   2.774   1.132
 3257SOL    HW110670   1.758   2.759   1.215
 3257SOL    HW210671   1.846   2.869   1.132
 3258SOL     OW10672   5.463   6.455   2.230
 3258SOL    HW110673   5.430   6.549   2.229
 3258SOL    HW210674   5.433   6.409   2.146
 3259SOL     OW10675   4.324   0.014   4.129
 3259SOL    HW110676   4.377   6.995   4.201
 3259SOL    HW210677   4.386   0.049   4.059
 3260SOL     OW10678   1.991   2.378   0.015
 3260SOL    HW110679   1.894   2.356   7.024
 3260SOL    HW210680   2.002   2.477   0.018
 3261SOL     OW10681   4.405   6.967   1.223
 3261SOL    HW110682   4.406   6.959   1.124
 3261SOL    HW210683   4.363   0.029   1.249
 3262SOL     OW10684   3.817   1.854   3.451
 3262SOL    HW110685   3.906   1.886   3.485
 3262SOL    HW210686   3.796   1.899   3.365
 3263SOL     OW10687   3.851   6.596   1.460
 3263SOL    HW110688   3.850   6.652   1.544
 3263SOL    HW210689   3.837   6.656   1.381
 3264SOL     OW10690   5.675   4.834   6.940
 3264SOL    HW110691   5.698   4.907   7.004
 3264SOL    HW210692   5.603   4.776   6.978
 3265SOL     OW10693   5.009   0.784   6.166
 3265SOL    HW110694   5.064   0.851   6.215
 3265SOL    HW210695   4.949   0.831   6.101
 3266SOL     OW10696   1.181   1.231   6.259
 3266SOL    HW110697   1.243   1.215   6.335
 3266SOL    HW210698   1.154   1.327   6.256
 3267SOL     OW10699   3.083   2.136   0.809
 3267SOL    HW110700   3.101   2.046   0.770
 3267SOL    HW210701   3.088   2.131   0.909
 3268SOL     OW10702   1.167   4.423   6.242
 3268SOL    HW110703   1.203   4.489   6.175
 3268SOL    HW210704   1.164   4.466   6.332
 3269SOL     OW10705   4.154   4.064   1.315
 3269SOL    HW110706   4.169   4.015   1.229
 3269SOL    HW210707   4.218   4.031   1.383
 3270SOL     OW10708   0.600   6.363   4.318
 3270SOL    HW110709   0.665   6.328   4.250
 3270SOL    HW210710   0.603   6.306   4.400
 3271SOL     OW10711   5.973   1.869   1.199
 3271SOL    HW110712   6.011   1.946   1.249
 3271SOL    HW210713   5.976   1.888   1.101
 3272SOL     OW10714   4.689   0.150   0.561
 3272SOL    HW110715   4.701   0.249   0.573
 3272SOL    HW210716   4.628   0.115   0.632
 3273SOL     OW10717   0.114   6.351   2.167
 3273SOL    HW110718   0.129   6.442   2.128
 3273SOL    HW210719   0.035   6.309   2.124
 3274SOL     OW10720   3.120   2.075   5.776
 3274SOL    HW110721   3.155   2.159   5.818
 3274SOL    HW210722   3.048   2.036   5.835
 3275SOL     OW10723   2.752   0.574   6.339
 3275SOL    HW110724   2.842   0.600   6.374
 3275SOL    HW210725   2.687   0.648   6.355
 3276SOL     OW10726   3.366   6.578   0.558
 3276SOL    HW110727   3.463   6.558   0.566
 3276SOL    HW210728   3.342   6.656   0.617
 3277SOL     OW10729   0.448   6.222   4.891
 3277SOL    HW110730   0.498   6.304   4.920
 3277SOL    HW210731   0.487   6.142   4.937
 3278SOL     OW10732   0.999   0.601   6.001
 3278SOL    HW110733   0.958   0.659   6.071
 3278SOL    HW210734   1.002   0.506   6.034
 3279SOL     OW10735   1.042   0.104   0.767
 3279SOL    HW110736   1.141   0.093   0.773
 3279SOL    HW210737   1.009   0.153   0.848
 3280SOL     OW10738   2.287   4.649   6.028
 3280SOL    HW110739   2.263   4.571   6.086
 3280SOL    HW210740   2.208   4.676   5.974
 3281SOL     OW10741   2.309   5.622   0.881
 3281SOL    HW110742   2.274   5.631   0.788
 3281SOL    HW210743   2.243   5.660   0.946
 3282SOL     OW10744   2.631   5.541   3.536
 3282SOL    HW110745   2.703   5.472   3.550
 3282SOL    HW210746   2.545   5.507   3.574
 3283SOL     OW10747   2.160   0.791   3.430
 3283SOL    HW110748   2.162   0.875   3.377
 3283SOL    HW210749   2.249   0.776   3.473
 3284SOL     OW10750   0.176   4.750   6.709
 3284SOL    HW110751   0.259   4.699   6.730
 3284SOL    HW210752   0.109   4.734   6.781
 3285SOL     OW10753   0.934   1.422   4.144
 3285SOL    HW110754   0.910   1.419   4.240
 3285SOL    HW210755   1.029   1.392   4.132
 3286SOL     OW10756   3.567   3.573   4.674
 3286SOL    HW110757   3.630   3.627   4.618
 3286SOL    HW210758   3.509   3.635   4.727
 3287SOL     OW10759   1.441   5.411   1.069
 3287SOL    HW110760   1.433   5.331   1.009
 3287SOL    HW210761   1.381   5.484   1.037
 3288SOL     OW10762   6.990   5.966   6.470
 3288SOL    HW110763   0.065   5.972   6.462
 3288SOL    HW210764   6.949   5.957   6.379
 3289SOL     OW10765   1.374   6.259   4.707
 3289SOL    HW110766   1.384   6.261   4.806
 3289SOL    HW210767   1.458   6.226   4.665
 3290SOL     OW10768   6.565   5.068   1.641
 3290SOL    HW110769   6.659   5.071   1.607
 3290SOL    HW210770   6.566   5.061   1.741
 3291SOL     OW10771   1.991   6.658   0.616
 3291SOL    HW110772   2.065   6.715   0.652
 3291SOL    HW210773   1.904   6.708   0.625
 3292SOL     OW10774   0.482   6.371   5.765
 3292SOL    HW110775   0.483   6.397   5.862
 3292SOL    HW210776   0.576   6.356   5.735
 3293SOL     OW10777   0.121   1.179   2.551
 3293SOL    HW110778   0.154   1.204   2.642
 3293SOL    HW210779   0.149   1.248   2.485
 3294SOL     OW10780   0.178   0.813   0.016
 3294SOL    HW110781   0.259   0.777   0.062
 3294SOL    HW210782   0.102   0.819   0.081
 3295SOL     OW10783   1.729   2.743   6.977
 3295SOL    HW110784   1.651   2.755   0.013
 3295SOL    HW210785   1.735   2.820   6.914
 3296SOL     OW10786   1.901   0.081   2.727
 3296SOL    HW110787   1.969   0.142   2.687
 3296SOL    HW210788   1.947   0.009   2.780
 3297SOL     OW10789   3.191   2.592   6.516
 3297SOL    HW110790   3.218   2.497   6.497
 3297SOL    HW210791   3.153   2.633   6.433
 3298SOL     OW10792   6.222   3.319   3.017
 3298SOL    HW110793   6.310   3.273   3.002
 3298SOL    HW210794   6.204   3.323   3.115
 3299SOL     OW10795   1.975   6.864   5.305
 3299SOL    HW110796   1.901   6.897   5.363
 3299SOL    HW210797   2.058   6.855   5.359
 3300SOL     OW10798   6.554   6.894   4.557
 3300SOL    HW110799   6.651   6.875   4.572
 3300SOL    HW210800   6.500   6.848   4.627
 3301SOL     OW10801   0.781   3.685   3.103
 3301SOL    HW110802   0.810   3.597   3.065
 3301SOL    HW210803   0.860   3.732   3.142
 3302SOL     OW10804   1.039   4.323   3.600
 3302SOL    HW110805   1.055   4.311   3.698
 3302SOL    HW210806   0.980   4.402   3.585
 3303SOL     OW10807   4.071   3.669   3.063
 3303SOL    HW110808   4.100   3.631   3.151
 3303SOL    HW210809   4.054   3.767   3.073
 3304SOL     OW10810   0.097   6.645   4.352
 3304SOL    HW110811   0.031   6.606   4.417
 3304SOL    HW210812   0.062   6.732   4.317
 3305SOL     OW10813   1.829   0.996   2.428
 3305SOL    HW110814   1.857   0.979   2.522
 3305SOL    HW210815   1.868   0.926   2.368
 3306SOL     OW10816   1.477   4.217   3.356
 3306SOL    HW110817   1.567   4.199   3.315
 3306SOL    HW210818   1.406   4.181   3.296
 3307SOL     OW10819   6.934   5.705   6.540
 3307SOL    HW110820   6.961   5.694   6.636
 3307SOL    HW210821   6.935   5.802   6.516
 3308SOL     OW10822   4.587   6.369   0.587
 3308SOL    HW110823   4.556   6.375   0.492
 3308SOL    HW210824   4.568   6.455   0.634
 3309SOL     OW10825   0.118   4.959   3.413
 3309SOL    HW110826   0.174   4.922   3.340
 3309SOL    HW210827   0.027   4.917   3.412
 3310SOL     OW10828   0.952   5.622   1.825
 3310SOL    HW110829   0.938   5.567   1.907
 3310SOL    HW210830   1.041   5.601   1.785
 3311SOL     OW10831   4.521   6.622   0.657
 3311SOL    HW110832   4.577   6.603   0.738
 3311SOL    HW210833   4.478   6.712   0.666
 3312SOL     OW10834   3.464   3.897   0.016
 3312SOL    HW110835   3.378   3.931   7.003
 3312SOL    HW210836   3.458   3.894   0.115
 3313SOL     OW10837   6.634   5.748   3.774
 3313SOL    HW110838   6.637   5.776   3.678
 3313SOL    HW210839   6.669   5.822   3.832
 3314SOL     OW10840   1.473   3.450   5.128
 3314SOL    HW110841   1.510   3.522   5.069
 3314SOL    HW210842   1.539   3.427   5.198
 3315SOL     OW10843   0.550   1.969   3.521
 3315SOL    HW110844   0.605   1.895   3.561
 3315SOL    HW210845   0.453   1.947   3.528
 3316SOL     OW10846   4.705   1.719   6.833
 3316SOL    HW110847   4.620   1.672   6.860
 3316SOL    HW210848   4.682   1.802   6.783
 3317SOL     OW10849   4.301   2.782   0.869
 3317SOL    HW110850   4.324   2.704   0.811
 3317SOL    HW210851   4.229   2.836   0.825
 3318SOL     OW10852   2.271   5.380   5.753
 3318SOL    HW110853   2.306   5.381   5.847
 3318SOL    HW210854   2.294   5.466   5.708
 3319SOL     OW10855   0.431   5.438   5.052
 3319SOL    HW110856   0.398   5.380   4.978
 3319SOL    HW210857   0.414   5.534   5.030
 3320SOL     OW10858   0.025   0.774   6.112
 3320SOL    HW110859   0.079   0.695   6.081
 3320SOL    HW210860   0.018   0.840   6.037
 3321SOL     OW10861   3.743   3.741   3.307
 3321SOL    HW110862   3.840   3.754   3.327
 3321SOL    HW210863   3.729   3.740   3.208
 3322SOL     OW10864   4.198   1.686   0.417
 3322SOL    HW110865   4.233   1.779   0.405
 3322SOL    HW210866   4.108   1.689   0.460
 3323SOL     OW10867   2.143   5.187   0.022
 3323SOL    HW110868   2.141   5.102   6.994
 3323SOL    HW210869   2.182   5.169   0.112
 3324SOL     OW10870   0.723   2.285   0.886
 3324SOL    HW110871   0.774   2.254   0.806
 3324SOL    HW210872   0.786   2.327   0.952
 3325SOL     OW10873   1.222   3.049   0.691
 3325SOL    HW110874   1.255   3.112   0.760
 3325SOL    HW210875   1.150   2.991   0.730
 3326SOL     OW10876   6.071   1.616   1.207
 3326SOL    HW110877   6.023   1.703   1.206
 3326SOL    HW210878   6.121   1.606   1.293
 3327SOL     OW10879   3.236   6.100   2.417
 3327SOL    HW110880   3.196   6.117   2.327
 3327SOL    HW210881   3.277   6.184   2.452
 3328SOL     OW10882   4.621   0.942   2.414
 3328SOL    HW110883   4.657   1.024   2.458
 3328SOL    HW210884   4.615   0.956   2.316
 3329SOL     OW10885   5.125   0.317   5.417
 3329SOL    HW110886   5.115   0.383   5.492
 3329SOL    HW210887   5.077   0.233   5.439
 3330SOL     OW10888   6.481   5.560   2.805
 3330SOL    HW110889   6.413   5.633   2.804
 3330SOL    HW210890   6.551   5.580   2.874
 3331SOL     OW10891   2.103   3.529   2.896
 3331SOL    HW110892   2.125   3.499   2.988
 3331SOL    HW210893   2.052   3.457   2.849
 3332SOL     OW10894   4.034   5.382   1.088
 3332SOL    HW110895   4.027   5.451   1.161
 3332SOL    HW210896   4.085   5.303   1.122
 3333SOL     OW10897   3.507   3.276   1.714
 3333SOL    HW110898   3.598   3.236   1.724
 3333SOL    HW210899   3.515   3.364   1.666
 3334SOL     OW10900   1.717   2.698   2.317
 3334SOL    HW110901   1.704   2.693   2.416
 3334SOL    HW210902   1.812   2.676   2.295
 3335SOL     OW10903   3.955   4.645   5.290
 3335SOL    HW110904   3.925   4.717   5.228
 3335SOL    HW210905   4.054   4.652   5.304
 3336SOL     OW10906   4.641   6.174   3.954
 3336SOL    HW110907   4.592   6.246   4.004
 3336SOL    HW210908   4.575   6.112   3.912
 3337SOL     OW10909   3.648   3.684   3.556
 3337SOL    HW110910   3.585   3.610   3.531
 3337SOL    HW210911   3.669   3.738   3.475
 3338SOL     OW10912   2.585   1.833   1.361
 3338SOL    HW110913   2.609   1.758   1.422
 3338SOL    HW210914   2.668   1.875   1.325
 3339SOL     OW10915   1.888   7.015   5.803
 3339SOL    HW110916   1.933   0.073   5.768
 3339SOL    HW210917   1.937   6.982   5.884
 3340SOL     OW10918   4.116   0.651   4.242
 3340SOL    HW110919   4.151   0.704   4.166
 3340SOL    HW210920   4.056   0.579   4.208
 3341SOL     OW10921   1.389   4.527   2.963
 3341SOL    HW110922   1.465   4.576   3.004
 3341SOL    HW210923   1.424   4.452   2.907
 3342SOL     OW10924   0.317   0.593   2.615
 3342SOL    HW110925   0.353   0.569   2.706
 3342SOL    HW210926   0.390   0.583   2.547
 3343SOL     OW10927   4.922   5.003   6.187
 3343SOL    HW110928   4.945   4.938   6.259
 3343SOL    HW210929   4.896   4.954   6.104
 3344SOL     OW10930   0.551   3.195   3.180
 3344SOL    HW110931   0.572   3.249   3.098
 3344SOL    HW210932   0.602   3.109   3.177
 3345SOL     OW10933   6.839   4.568   0.138
 3345SOL    HW110934   6.749   4.605   0.157
 3345SOL    HW210935   6.881   4.537   0.223
 3346SOL     OW10936   1.948   1.090   6.984
 3346SOL    HW110937   1.949   1.002   6.935
 3346SOL    HW210938   1.944   1.072   0.058
 3347SOL     OW10939   0.051   3.534   6.744
 3347SOL    HW110940   0.130   3.547   6.685
 3347SOL    HW210941   6.992   3.543   6.690
 3348SOL     OW10942   3.887   3.763   6.264
 3348SOL    HW110943   3.922   3.694   6.328
 3348SOL    HW210944   3.789   3.749   6.250
 3349SOL     OW10945   2.146   4.937   3.942
 3349SOL    HW110946   2.075   5.002   3.971
 3349SOL    HW210947   2.186   4.894   4.023
 3350SOL     OW10948   0.540   4.410   5.303
 3350SOL    HW110949   0.505   4.360   5.224
 3350SOL    HW210950   0.465   4.433   5.364
 3351SOL     OW10951   5.278   0.955   1.393
 3351SOL    HW110952   5.373   0.972   1.421
 3351SOL    HW210953   5.238   0.884   1.450
 3352SOL     OW10954   5.695   2.167   6.484
 3352SOL    HW110955   5.712   2.070   6.471
 3352SOL    HW210956   5.691   2.213   6.396
 3353SOL     OW10957   2.940   0.188   1.565
 3353SOL    HW110958   3.008   0.253   1.532
 3353SOL    HW210959   2.925   0.117   1.495
 3354SOL     OW10960   3.423   3.771   6.414
 3354SOL    HW110961   3.359   3.718   6.470
 3354SOL    HW210962   3.371   3.833   6.355
 3355SOL     OW10963   2.150   0.746   5.060
 3355SOL    HW110964   2.144   0.780   5.154
 3355SOL    HW210965   2.109   0.813   4.998
 3356SOL     OW10966   1.846   6.906   5.546
 3356SOL    HW110967   1.868   6.961   5.627
 3356SOL    HW210968   1.868   6.810   5.564
 3357SOL     OW10969   2.701   3.441   1.687
 3357SOL    HW110970   2.672   3.400   1.773
 3357SOL    HW210971   2.710   3.540   1.697
 3358SOL     OW10972   0.046   1.050   1.522
 3358SOL    HW110973   0.075   0.973   1.579
 3358SOL    HW210974   0.082   1.038   1.429
 3359SOL     OW10975   6.412   6.407   4.048
 3359SOL    HW110976   6.449   6.326   4.003
 3359SOL    HW210977   6.400   6.480   3.981
 3360SOL     OW10978   0.385   3.694   5.189
 3360SOL    HW110979   0.373   3.698   5.090
 3360SOL    HW210980   0.433   3.611   5.214
 3361SOL     OW10981   6.957   0.992   4.549
 3361SOL    HW110982   6.913   0.954   4.631
 3361SOL    HW210983   6.978   0.918   4.485
 3362SOL     OW10984   3.632   1.327   3.975
 3362SOL    HW110985   3.578   1.322   3.891
 3362SOL    HW210986   3.625   1.240   4.024
 3363SOL     OW10987   6.080   3.589   0.282
 3363SOL    HW110988   6.015   3.665   0.278
 3363SOL    HW210989   6.147   3.598   0.208
 3364SOL     OW10990   2.064   3.806   3.703
 3364SOL    HW110991   2.092   3.738   3.770
 3364SOL    HW210992   2.015   3.880   3.749
 3365SOL     OW10993   2.221   3.998   4.026
 3365SOL    HW110994   2.229   3.917   4.084
 3365SOL    HW210995   2.202   3.970   3.932
 3366SOL     OW10996   6.009   3.927   4.292
 3366SOL    HW110997   5.978   4.012   4.251
 3366SOL    HW210998   5.955   3.909   4.375
 3367SOL     OW10999   3.812   3.328   4.095
 3367SOL    HW111000   3.717   3.298   4.106
 3367SOL    HW211001   3.871   3.278   4.158
 3368SOL     OW11002   1.291   5.927   1.363
 3368SOL    HW111003   1.223   5.950   1.433
 3368SOL    HW211004   1.380   5.912   1.406
 3369SOL     OW11005   4.512   2.888   1.039
 3369SOL    HW111006   4.428   2.873   0.987
 3369SOL    HW211007   4.489   2.914   1.133
 3370SOL     OW11008   0.643   6.038   2.889
 3370SOL    HW111009   0.583   6.052   2.811
 3370SOL    HW211010   0.653   6.124   2.940
 3371SOL     OW11011   1.466   2.700   3.496
 3371SOL    HW111012   1.564   2.688   3.512
 3371SOL    HW211013   1.444   2.675   3.402
 3372SOL     OW11014   6.431   4.269   1.740
 3372SOL    HW111015   6.366   4.253   1.815
 3372SOL    HW211016   6.524   4.265   1.776
 3373SOL     OW11017   6.889   2.608   1.621
 3373SOL    HW111018   6.833   2.664   1.560
 3373SOL    HW211019   6.981   2.647   1.628
 3374SOL     OW11020   0.417   0.681   4.130
 3374SOL    HW111021   0.392   0.672   4.033
 3374SOL    HW211022   0.474   0.762   4.141
 3375SOL     OW11023   6.311   5.317   5.896
 3375SOL    HW111024   6.259   5.285   5.817
 3375SOL    HW211025   6.393   5.262   5.906
 3376SOL     OW11026   2.745   3.909   5.288
 3376SOL    HW111027   2.730   4.008   5.293
 3376SOL    HW211028   2.658   3.862   5.296
 3377SOL     OW11029   6.235   4.419   3.225
 3377SOL    HW111030   6.318   4.467   3.252
 3377SOL    HW211031   6.248   4.320   3.235
 3378SOL     OW11032   1.150   6.258   0.994
 3378SOL    HW111033   1.190   6.249   1.085
 3378SOL    HW211034   1.217   6.296   0.930
 3379SOL     OW11035   6.673   4.581   3.646
 3379SOL    HW111036   6.677   4.643   3.568
 3379SOL    HW211037   6.699   4.489   3.617
 3380SOL     OW11038   3.404   4.660   6.212
 3380SOL    HW111039   3.412   4.580   6.272
 3380SOL    HW211040   3.491   4.675   6.165
 3381SOL     OW11041   1.702   3.764   0.562
 3381SOL    HW111042   1.686   3.804   0.472
 3381SOL    HW211043   1.742   3.674   0.552
 3382SOL     OW11044   0.052   2.764   1.410
 3382SOL    HW111045   0.031   2.667   1.413
 3382SOL    HW211046   0.151   2.777   1.424
 3383SOL     OW11047   5.377   5.614   0.140
 3383SOL    HW111048   5.362   5.678   0.215
 3383SOL    HW211049   5.424   5.661   0.065
 3384SOL     OW11050   2.718   4.388   6.939
 3384SOL    HW111051   2.620   4.410   6.940
 3384SOL    HW211052   2.771   4.472   6.929
 3385SOL     OW11053   0.457   2.425   4.245
 3385SOL    HW111054   0.357   2.427   4.237
 3385SOL    HW211055   0.482   2.407   4.341
 3386SOL     OW11056   0.221   4.617   5.779
 3386SOL    HW111057   0.218   4.626   5.679
 3386SOL    HW211058   0.167   4.690   5.820
 3387SOL     OW11059   6.428   0.506   3.347
 3387SOL    HW111060   6.397   0.533   3.256
 3387SOL    HW211061   6.489   0.576   3.384
 3388SOL     OW11062   6.797   3.219   1.341
 3388SOL    HW111063   6.798   3.136   1.396
 3388SOL    HW211064   6.874   3.218   1.277
 3389SOL     OW11065   6.118   5.809   0.361
 3389SOL    HW111066   6.069   5.770   0.439
 3389SOL    HW211067   6.089   5.903   0.347
 3390SOL     OW11068   3.923   6.796   5.697
 3390SOL    HW111069   3.887   6.879   5.741
 3390SOL    HW211070   3.914   6.719   5.761
 3391SOL     OW11071   5.701   3.146   4.372
 3391SOL    HW111072   5.689   3.238   4.409
 3391SOL    HW211073   5.612   3.104   4.356
 3392SOL     OW11074   4.335   6.249   5.511
 3392SOL    HW111075   4.374   6.192   5.584
 3392SOL    HW211076   4.378   6.339   5.513
 3393SOL     OW11077   4.977   5.751   0.914
 3393SOL    HW111078   5.074   5.777   0.916
 3393SOL    HW211079   4.922   5.829   0.886
 3394SOL     OW11080   2.833   5.320   1.629
 3394SOL    HW111081   2.816   5.391   1.561
 3394SOL    HW211082   2.841   5.231   1.584
 3395SOL     OW11083   2.680   7.018   3.728
 3395SOL    HW111084   2.597   6.964   3.713
 3395SOL    HW211085   2.742   7.005   3.651
 3396SOL     OW11086   4.824   1.906   4.490
 3396SOL    HW111087   4.901   1.861   4.535
 3396SOL    HW211088   4.777   1.966   4.554
 3397SOL     OW11089   1.918   6.214   0.479
 3397SOL    HW111090   1.961   6.140   0.428
 3397SOL    HW211091   1.827   6.231   0.444
 3398SOL     OW11092   6.948   2.307   3.889
 3398SOL    HW111093   6.927   2.387   3.832
 3398SOL    HW211094   0.021   2.289   3.885
 3399SOL     OW11095   6.390   5.882   2.152
 3399SOL    HW111096   6.449   5.846   2.079
 3399SOL    HW211097   6.308   5.825   2.159
 3400SOL     OW11098   5.102   1.688   6.128
 3400SOL    HW111099   5.197   1.660   6.144
 3400SOL    HW211100   5.094   1.787   6.139
 3401SOL     OW11101   6.894   3.208   5.543
 3401SOL    HW111102   6.873   3.225   5.447
 3401SOL    HW211103   6.834   3.137   5.578
 3402SOL     OW11104   6.382   3.418   1.321
 3402SOL    HW111105   6.296   3.447   1.279
 3402SOL    HW211106   6.392   3.460   1.411
 3403SOL     OW11107   4.822   6.693   6.784
 3403SOL    HW111108   4.733   6.726   6.752
 3403SOL    HW211109   4.837   6.724   6.878
 3404SOL     OW11110   5.236   4.300   5.185
 3404SOL    HW111111   5.284   4.244   5.119
 3404SOL    HW211112   5.143   4.264   5.198
 3405SOL     OW11113   5.067   5.734   6.012
 3405SOL    HW111114   5.065   5.778   5.922
 3405SOL    HW211115   5.136   5.661   6.012
 3406SOL     OW11116   2.496   4.806   1.771
 3406SOL    HW111117   2.561   4.852   1.833
 3406SOL    HW211118   2.493   4.856   1.684
 3407SOL     OW11119   1.351   3.775   0.179
 3407SOL    HW111120   1.255   3.752   0.168
 3407SOL    HW211121   1.401   3.695   0.212
 3408SOL     OW11122   4.898   1.925   3.748
 3408SOL    HW111123   4.904   1.960   3.655
 3408SOL    HW211124   4.980   1.871   3.768
 3409SOL     OW11125   4.371   0.248   0.584
 3409SOL    HW111126   4.432   0.201   0.647
 3409SOL    HW211127   4.368   0.346   0.606
 3410SOL     OW11128   5.507   0.438   2.967
 3410SOL    HW111129   5.409   0.455   2.971
 3410SOL    HW211130   5.544   0.476   2.882
 3411SOL     OW11131   6.268   2.339   0.454
 3411SOL    HW111132   6.305   2.326   0.546
 3411SOL    HW211133   6.299   2.427   0.417
 3412SOL     OW11134   5.754   3.087   1.323
 3412SOL    HW111135   5.797   3.153   1.262
 3412SOL    HW211136   5.743   3.127   1.414
 3413SOL     OW11137   0.354   3.185   6.016
 3413SOL    HW111138   0.395   3.273   6.039
 3413SOL    HW211139   0.413   3.112   6.049
 3414SOL     OW11140   3.133   4.182   0.802
 3414SOL    HW111141   3.226   4.211   0.777
 3414SOL    HW211142   3.127   4.171   0.901
 3415SOL     OW11143   2.195   1.943   5.791
 3415SOL    HW111144   2.193   1.857   5.741
 3415SOL    HW211145   2.266   1.939   5.862
 3416SOL     OW11146   6.249   0.410   6.564
 3416SOL    HW111147   6.211   0.489   6.516
 3416SOL    HW211148   6.347   0.403   6.542
 3417SOL     OW11149   6.320   7.002   3.143
 3417SOL    HW111150   6.259   6.971   3.215
 3417SOL    HW211151   6.335   6.928   3.077
 3418SOL     OW11152   4.995   4.568   0.750
 3418SOL    HW111153   5.075   4.509   0.767
 3418SOL    HW211154   4.912   4.513   0.758
 3419SOL     OW11155   2.498   6.127   5.677
 3419SOL    HW111156   2.521   6.036   5.711
 3419SOL    HW211157   2.404   6.126   5.641
 3420SOL     OW11158   4.458   2.385   2.799
 3420SOL    HW111159   4.436   2.293   2.767
 3420SOL    HW211160   4.510   2.433   2.728
 3421SOL     OW11161   6.560   2.526   3.210
 3421SOL    HW111162   6.582   2.516   3.307
 3421SOL    HW211163   6.475   2.577   3.200
 3422SOL     OW11164   2.414   6.701   1.007
 3422SOL    HW111165   2.415   6.668   1.101
 3422SOL    HW211166   2.395   6.799   1.006
 3423SOL     OW11167   1.253   4.608   6.057
 3423SOL    HW111168   1.224   4.677   5.990
 3423SOL    HW211169   1.348   4.626   6.084
 3424SOL     OW11170   4.298   0.567   1.913
 3424SOL    HW111171   4.338   0.504   1.980
 3424SOL    HW211172   4.292   0.658   1.953
 3425SOL     OW11173   5.742   3.251   0.758
 3425SOL    HW111174   5.823   3.225   0.705
 3425SOL    HW211175   5.736   3.194   0.839
 3426SOL     OW11176   5.543   2.801   0.049
 3426SOL    HW111177   5.571   2.810   6.978
 3426SOL    HW211178   5.595   2.728   0.092
 3427SOL     OW11179   1.562   2.466   0.655
 3427SOL    HW111180   1.523   2.392   0.600
 3427SOL    HW211181   1.612   2.428   0.732
 3428SOL     OW11182   4.785   6.387   5.787
 3428SOL    HW111183   4.690   6.409   5.766
 3428SOL    HW211184   4.827   6.461   5.839
 3429SOL     OW11185   6.200   0.167   0.705
 3429SOL    HW111186   6.294   0.135   0.710
 3429SOL    HW211187   6.144   0.098   0.659
 3430SOL     OW11188   2.262   4.696   5.622
 3430SOL    HW111189   2.223   4.767   5.562
 3430SOL    HW211190   2.281   4.614   5.568
 3431SOL     OW11191   1.609   5.159   3.117
 3431SOL    HW111192   1.533   5.133   3.176
 3431SOL    HW211193   1.620   5.259   3.119
 3432SOL     OW11194   1.337   3.823   0.664
 3432SOL    HW111195   1.425   3.860   0.692
 3432SOL    HW211196   1.264   3.888   0.685
 3433SOL     OW11197   2.512   1.798   6.692
 3433SOL    HW111198   2.514   1.866   6.766
 3433SOL    HW211199   2.606   1.780   6.662
 3434SOL     OW11200   2.994   2.497   1.050
 3434SOL    HW111201   2.948   2.410   1.069
 3434SOL    HW211202   3.093   2.481   1.044
 3435SOL     OW11203   2.015   0.772   1.088
 3435SOL    HW111204   2.089   0.738   1.029
 3435SOL    HW211205   2.054   0.804   1.174
 3436SOL     OW11206   3.234   6.276   6.393
 3436SOL    HW111207   3.247   6.332   6.475
 3436SOL    HW211208   3.196   6.333   6.320
 3437SOL     OW11209   1.134   0.155   6.701
 3437SOL    HW111210   1.048   0.157   6.753
 3437SOL    HW211211   1.145   0.241   6.651
 3438SOL     OW11212   1.493   3.792   1.266
 3438SOL    HW111213   1.473   3.869   1.205
 3438SOL    HW211214   1.415   3.730   1.268
 3439SOL     OW11215   2.531   5.214   2.041
 3439SOL    HW111216   2.493   5.295   1.996
 3439SOL    HW211217   2.494   5.208   2.134
 3440SOL     OW11218   3.761   3.742   4.809
 3440SOL    HW111219   3.805   3.830   4.791
 3440SOL    HW211220   3.661   3.754   4.806
 3441SOL     OW11221   5.185   4.790   6.104
 3441SOL    HW111222   5.176   4.800   6.203
 3441SOL    HW211223   5.229   4.872   6.067
 3442SOL     OW11224   3.338   3.248   1.048
 3442SOL    HW111225   3.437   3.254   1.063
 3442SOL    HW211226   3.315   3.157   1.013
 3443SOL     OW11227   1.371   6.140   2.391
 3443SOL    HW111228   1.308   6.186   2.454
 3443SOL    HW211229   1.445   6.202   2.367
 3444SOL     OW11230   6.518   4.019   6.804
 3444SOL    HW111231   6.494   4.102   6.854
 3444SOL    HW211232   6.467   3.941   6.841
 3445SOL     OW11233   6.008   4.355   3.528
 3445SOL    HW111234   5.994   4.433   3.466
 3445SOL    HW211235   6.071   4.290   3.485
 3446SOL     OW11236   5.118   0.869   1.192
 3446SOL    HW111237   5.153   0.802   1.126
 3446SOL    HW211238   5.195   0.908   1.243
 3447SOL     OW11239   5.373   1.098   6.695
 3447SOL    HW111240   5.463   1.071   6.660
 3447SOL    HW211241   5.359   1.196   6.678
 3448SOL     OW11242   1.489   6.155   5.148
 3448SOL    HW111243   1.567   6.215   5.165
 3448SOL    HW211244   1.426   6.200   5.085
 3449SOL     OW11245   6.756   4.320   5.664
 3449SOL    HW111246   6.839   4.376   5.658
 3449SOL    HW211247   6.731   4.287   5.573
 3450SOL     OW11248   2.248   6.450   1.838
 3450SOL    HW111249   2.209   6.386   1.772
 3450SOL    HW211250   2.244   6.410   1.929
 3451SOL     OW11251   1.989   1.080   1.437
 3451SOL    HW111252   1.996   1.080   1.536
 3451SOL    HW211253   2.068   1.128   1.398
 3452SOL     OW11254   4.633   0.702   4.628
 3452SOL    HW111255   4.648   0.620   4.572
 3452SOL    HW211256   4.542   0.698   4.670
 3453SOL     OW11257   4.817   6.254   6.358
 3453SOL    HW111258   4.786   6.188   6.289
 3453SOL    HW211259   4.892   6.215   6.410
 3454SOL     OW11260   0.637   2.845   1.583
 3454SOL    HW111261   0.608   2.928   1.631
 3454SOL    HW211262   0.608   2.850   1.487
 3455SOL     OW11263   0.577   2.966   5.384
 3455SOL    HW111264   0.567   2.954   5.483
 3455SOL    HW211265   0.488   2.989   5.344
 3456SOL     OW11266   5.327   4.575   2.933
 3456SOL    HW111267   5.230   4.566   2.956
 3456SOL    HW211268   5.340   4.551   2.837
 3457SOL     OW11269   3.938   4.930   5.725
 3457SOL    HW111270   3.963   4.838   5.756
 3457SOL    HW211271   3.914   4.927   5.628
 3458SOL     OW11272   4.093   1.182   2.613
 3458SOL    HW111273   4.001   1.190   2.651
 3458SOL    HW211274   4.153   1.248   2.657
 3459SOL     OW11275   4.878   6.324   2.978
 3459SOL    HW111276   4.824   6.245   2.949
 3459SOL    HW211277   4.836   6.407   2.940
 3460SOL     OW11278   4.152   1.742   5.035
 3460SOL    HW111279   4.085   1.799   5.082
 3460SOL    HW211280   4.228   1.722   5.097
 3461SOL     OW11281   6.017   5.485   5.093
 3461SOL    HW111282   6.009   5.554   5.165
 3461SOL    HW211283   6.083   5.517   5.025
 3462SOL     OW11284   1.895   3.869   6.478
 3462SOL    HW111285   1.868   3.901   6.569
 3462SOL    HW211286   1.989   3.899   6.459
 3463SOL     OW11287   5.971   3.841   1.147
 3463SOL    HW111288   5.951   3.909   1.077
 3463SOL    HW211289   6.068   3.845   1.171
 3464SOL     OW11290   0.180   4.961   6.148
 3464SOL    HW111291   0.194   4.962   6.247
 3464SOL    HW211292   0.103   5.019   6.124
 3465SOL     OW11293   1.797   0.756   0.942
 3465SOL    HW111294   1.877   0.763   1.001
 3465SOL    HW211295   1.734   0.831   0.964
 3466SOL     OW11296   6.513   3.932   5.700
 3466SOL    HW111297   6.544   4.010   5.755
 3466SOL    HW211298   6.516   3.849   5.755
 3467SOL     OW11299   2.136   1.904   0.029
 3467SOL    HW111300   2.138   1.839   6.978
 3467SOL    HW211301   2.216   1.963   0.025
 3468SOL     OW11302   3.531   0.015   4.023
 3468SOL    HW111303   3.565   0.108   4.005
 3468SOL    HW211304   3.435   0.008   3.996
 3469SOL     OW11305   5.180   2.399   2.968
 3469SOL    HW111306   5.225   2.470   3.023
 3469SOL    HW211307   5.117   2.442   2.903
 3470SOL     OW11308   0.208   5.332   1.143
 3470SOL    HW111309   0.268   5.411   1.129
 3470SOL    HW211310   0.140   5.354   1.213
 3471SOL     OW11311   3.968   6.373   4.944
 3471SOL    HW111312   3.960   6.316   5.026
 3471SOL    HW211313   3.891   6.437   4.940
 3472SOL     OW11314   3.395   1.473   5.191
 3472SOL    HW111315   3.466   1.538   5.216
 3472SOL    HW211316   3.390   1.401   5.261
 3473SOL     OW11317   5.415   0.820   5.894
 3473SOL    HW111318   5.340   0.769   5.852
 3473SOL    HW211319   5.431   0.904   5.842
 3474SOL     OW11320   4.593   5.532   1.061
 3474SOL    HW111321   4.498   5.527   1.029
 3474SOL    HW211322   4.618   5.627   1.075
 3475SOL     OW11323   1.520   5.970   4.816
 3475SOL    HW111324   1.565   5.935   4.898
 3475SOL    HW211325   1.589   5.995   4.748
 3476SOL     OW11326   4.957   0.894   4.167
 3476SOL    HW111327   4.970   0.895   4.266
 3476SOL    HW211328   5.030   0.840   4.125
 3477SOL     OW11329   4.157   6.226   1.743
 3477SOL    HW111330   4.104   6.276   1.675
 3477SOL    HW211331   4.250   6.261   1.746
 3478SOL     OW11332   4.107   4.522   0.369
 3478SOL    HW111333   4.105   4.530   0.269
 3478SOL    HW211334   4.178   4.456   0.395
 3479SOL     OW11335   1.120   0.627   2.254
 3479SOL    HW111336   1.193   0.605   2.319
 3479SOL    HW211337   1.044   0.563   2.267
 3480SOL     OW11338   1.338   1.293   3.050
 3480SOL    HW111339   1.285   1.331   3.126
 3480SOL    HW211340   1.281   1.229   2.999
 3481SOL     OW11341   2.016   6.535   0.157
 3481SOL    HW111342   1.998   6.590   0.075
 3481SOL    HW211343   1.997   6.589   0.239
 3482SOL     OW11344   0.348   2.313   0.413
 3482SOL    HW111345   0.421   2.358   0.362
 3482SOL    HW211346   0.260   2.331   0.368
 3483SOL     OW11347   2.981   6.736   1.403
 3483SOL    HW111348   3.075   6.710   1.382
 3483SOL    HW211349   2.920   6.698   1.333
 3484SOL     OW11350   3.564   3.808   3.798
 3484SOL    HW111351   3.584   3.743   3.725
 3484SOL    HW211352   3.499   3.876   3.765
 3485SOL     OW11353   1.043   2.485   4.882
 3485SOL    HW111354   0.974   2.449   4.819
 3485SOL    HW211355   1.092   2.560   4.838
 3486SOL     OW11356   4.378   1.785   2.157
 3486SOL    HW111357   4.288   1.764   2.197
 3486SOL    HW211358   4.373   1.873   2.110
 3487SOL     OW11359   6.717   0.587   0.343
 3487SOL    HW111360   6.794   0.545   0.392
 3487SOL    HW211361   6.749   0.621   0.255
 3488SOL     OW11362   5.800   3.376   3.786
 3488SOL    HW111363   5.820   3.461   3.835
 3488SOL    HW211364   5.886   3.335   3.753
 3489SOL     OW11365   3.120   0.011   1.049
 3489SOL    HW111366   3.043   0.063   1.088
 3489SOL    HW211367   3.196   0.011   1.114
 3490SOL     OW11368   4.388   3.728   0.359
 3490SOL    HW111369   4.446   3.687   0.429
 3490SOL    HW211370   4.390   3.672   0.276
 3491SOL     OW11371   0.540   3.152   4.669
 3491SOL    HW111372   0.547   3.245   4.633
 3491SOL    HW211373   0.560   3.086   4.596
 3492SOL     OW11374   6.296   4.891   6.511
 3492SOL    HW111375   6.225   4.824   6.489
 3492SOL    HW211376   6.378   4.870   6.457
 3493SOL     OW11377   6.830   4.553   0.665
 3493SOL    HW111378   6.856   4.596   0.751
 3493SOL    HW211379   6.756   4.487   0.681
 3494SOL     OW11380   3.230   0.398   0.678
 3494SOL    HW111381   3.131   0.417   0.680
 3494SOL    HW211382   3.245   0.307   0.639
 3495SOL     OW11383   5.128   4.886   0.489
 3495SOL    HW111384   5.187   4.816   0.448
 3495SOL    HW211385   5.068   4.844   0.556
 3496SOL     OW11386   2.041   3.461   1.256
 3496SOL    HW111387   2.088   3.462   1.168
 3496SOL    HW211388   2.109   3.463   1.330
 3497SOL     OW11389   4.589   0.036   3.427
 3497SOL    HW111390   4.522   0.053   3.355
 3497SOL    HW211391   4.677   0.012   3.385
 3498SOL     OW11392   2.400   1.393   1.831
 3498SOL    HW111393   2.382   1.490   1.847
 3498SOL    HW211394   2.392   1.373   1.734
 3499SOL     OW11395   6.598   3.216   3.771
 3499SOL    HW111396   6.522   3.281   3.784
 3499SOL    HW211397   6.684   3.266   3.767
 3500SOL     OW11398   6.736   3.348   0.496
 3500SOL    HW111399   6.726   3.374   0.592
 3500SOL    HW211400   6.797   3.269   0.489
 3501SOL     OW11401   1.292   4.687   4.228
 3501SOL    HW111402   1.354   4.761   4.252
 3501SOL    HW211403   1.225   4.674   4.301
 3502SOL     OW11404   0.600   3.295   1.637
 3502SOL    HW111405   0.549   3.381   1.639
 3502SOL    HW211406   0.662   3.291   1.714
 3503SOL     OW11407   4.999   6.231   4.250
 3503SOL    HW111408   4.906   6.194   4.254
 3503SOL    HW211409   5.051   6.183   4.180
 3504SOL     OW11410   2.062   3.421   1.812
 3504SOL    HW111411   2.123   3.437   1.890
 3504SOL    HW211412   2.116   3.394   1.733
 3505SOL     OW11413   5.498   5.253   4.836
 3505SOL    HW111414   5.490   5.164   4.881
 3505SOL    HW211415   5.412   5.275   4.789
 3506SOL     OW11416   4.831   5.437   2.405
 3506SOL    HW111417   4.924   5.443   2.368
 3506SOL    HW211418   4.814   5.344   2.438
 3507SOL     OW11419   1.094   0.360   6.175
 3507SOL    HW111420   1.072   0.326   6.266
 3507SOL    HW211421   1.022   0.334   6.111
 3508SOL     OW11422   6.061   2.910   0.009
 3508SOL    HW111423   6.027   2.869   6.949
 3508SOL    HW211424   6.019   2.864   0.087
 3509SOL     OW11425   6.572   6.680   0.578
 3509SOL    HW111426   6.630   6.599   0.568
 3509SOL    HW211427   6.494   6.658   0.638
 3510SOL     OW11428   1.919   3.215   2.197
 3510SOL    HW111429   2.007   3.209   2.150
 3510SOL    HW211430   1.852   3.157   2.150
 3511SOL     OW11431   0.642   1.485   5.570
 3511SOL    HW111432   0.694   1.546   5.511
 3511SOL    HW211433   0.550   1.473   5.533
 3512SOL     OW11434   2.835   3.520   0.950
 3512SOL    HW111435   2.898   3.444   0.932
 3512SOL    HW211436   2.818   3.569   0.864
 3513SOL     OW11437   6.017   4.713   1.288
 3513SOL    HW111438   6.081   4.667   1.349
 3513SOL    HW211439   5.931   4.662   1.285
 3514SOL     OW11440   0.808   6.091   1.511
 3514SOL    HW111441   0.835   6.165   1.572
 3514SOL    HW211442   0.765   6.018   1.565
 3515SOL     OW11443   2.597   6.089   3.892
 3515SOL    HW111444   2.510   6.044   3.914
 3515SOL    HW211445   2.585   6.148   3.813
 3516SOL     OW11446   3.048   1.181   1.032
 3516SOL    HW111447   2.964   1.220   1.069
 3516SOL    HW211448   3.121   1.249   1.035
 3517SOL     OW11449   0.973   1.097   6.114
 3517SOL    HW111450   1.034   1.128   6.186
 3517SOL    HW211451   0.911   1.028   6.150
 3518SOL     OW11452   4.280   2.828   5.733
 3518SOL    HW111453   4.257   2.920   5.764
 3518SOL    HW211454   4.196   2.778   5.714
 3519SOL     OW11455   2.061   6.222   0.160
 3519SOL    HW111456   2.062   6.321   0.170
 3519SOL    HW211457   2.014   6.197   0.075
 3520SOL     OW11458   4.252   5.652   0.712
 3520SOL    HW111459   4.235   5.629   0.807
 3520SOL    HW211460   4.330   5.716   0.706
 3521SOL     OW11461   5.986   2.403   0.466
 3521SOL    HW111462   6.079   2.371   0.484
 3521SOL    HW211463   5.941   2.342   0.401
 3522SOL     OW11464   3.052   4.968   2.446
 3522SOL    HW111465   3.149   4.976   2.425
 3522SOL    HW211466   3.040   4.924   2.534
 3523SOL     OW11467   2.541   4.725   5.976
 3523SOL    HW111468   2.457   4.673   5.983
 3523SOL    HW211469   2.552   4.759   5.882
 3524SOL     OW11470   2.339   0.169   0.860
 3524SOL    HW111471   2.312   0.075   0.878
 3524SOL    HW211472   2.432   0.171   0.824
 3525SOL     OW11473   0.986   2.991   2.991
 3525SOL    HW111474   1.060   3.023   2.932
 3525SOL    HW211475   1.014   2.907   3.037
 3526SOL     OW11476   2.510   1.064   2.486
 3526SOL    HW111477   2.608   1.071   2.466
 3526SOL    HW211478   2.490   0.973   2.523
 3527SOL     OW11479   4.993   2.853   5.796
 3527SOL    HW111480   4.990   2.782   5.726
 3527SOL    HW211481   4.942   2.933   5.765
 3528SOL     OW11482   0.003   0.111   4.602
 3528SOL    HW111483   0.040   0.149   4.517
 3528SOL    HW211484   0.064   0.131   4.678
 3529SOL     OW11485   3.553   6.247   5.978
 3529SOL    HW111486   3.596   6.201   6.055
 3529SOL    HW211487   3.469   6.293   6.008
 3530SOL     OW11488   1.736   5.976   3.347
 3530SOL    HW111489   1.764   5.994   3.253
 3530SOL    HW211490   1.721   6.062   3.395
 3531SOL     OW11491   4.676   3.993   6.917
 3531SOL    HW111492   4.736   3.961   6.844
 3531SOL    HW211493   4.730   4.039   6.987
 3532SOL     OW11494   1.712   0.308   6.769
 3532SOL    HW111495   1.673   0.249   6.839
 3532SOL    HW211496   1.685   0.275   6.679
 3533SOL     OW11497   1.532   1.458   2.844
 3533SOL    HW111498   1.527   1.542   2.789
 3533SOL    HW211499   1.450   1.451   2.901
 3534SOL     OW11500   5.452   1.018   4.233
 3534SOL    HW111501   5.484   1.071   4.311
 3534SOL    HW211502   5.392   1.075   4.177
 3535SOL     OW11503   4.481   5.649   6.508
 3535SOL    HW111504   4.571   5.659   6.464
 3535SOL    HW211505   4.423   5.589   6.453
 3536SOL     OW11506   1.031   4.314   3.064
 3536SOL    HW111507   1.036   4.272   2.974
 3536SOL    HW211508   1.030   4.413   3.055
 3537SOL     OW11509   2.562   4.706   0.681
 3537SOL    HW111510   2.606   4.739   0.764
 3537SOL    HW211511   2.466   4.686   0.700
 3538SOL     OW11512   3.001   0.683   4.790
 3538SOL    HW111513   3.079   0.636   4.749
 3538SOL    HW211514   3.007   0.781   4.772
 3539SOL     OW11515   5.274   5.601   6.235
 3539SOL    HW111516   5.317   5.595   6.325
 3539SOL    HW211517   5.244   5.695   6.218
 3540SOL     OW11518   2.943   3.664   6.372
 3540SOL    HW111519   2.845   3.656   6.351
 3540SOL    HW211520   2.996   3.650   6.288
 3541SOL     OW11521   2.633   2.707   1.392
 3541SOL    HW111522   2.610   2.749   1.480
 3541SOL    HW211523   2.554   2.656   1.358
 3542SOL     OW11524   5.619   2.269   6.069
 3542SOL    HW111525   5.564   2.352   6.056
 3542SOL    HW211526   5.577   2.212   6.139
 3543SOL     OW11527   0.575   2.502   3.299
 3543SOL    HW111528   0.553   2.457   3.385
 3543SOL    HW211529   0.666   2.542   3.304
 3544SOL     OW11530   2.834   4.445   6.270
 3544SOL    HW111531   2.749   4.394   6.263
 3544SOL    HW211532   2.850   4.471   6.365
 3545SOL     OW11533   3.521   6.521   1.208
 3545SOL    HW111534   3.557   6.467   1.284
 3545SOL    HW211535   3.460   6.464   1.153
 3546SOL     OW11536   0.367   4.145   3.299
 3546SOL    HW111537   0.326   4.065   3.256
 3546SOL    HW211538   0.336   4.228   3.252
 3547SOL     OW11539   0.954   4.368   5.526
 3547SOL    HW111540   0.887   4.408   5.588
 3547SOL    HW211541   0.942   4.268   5.524
 3548SOL     OW11542   5.842   0.709   5.220
 3548SOL    HW111543   5.791   0.633   5.260
 3548SOL    HW211544   5.865   0.687   5.125
 3549SOL     OW11545   2.763   6.497   0.227
 3549SOL    HW111546   2.827   6.452   0.289
 3549SOL    HW211547   2.690   6.539   0.281
 3550SOL     OW11548   5.588   0.822   5.360
 3550SOL    HW111549   5.603   0.851   5.265
 3550SOL    HW211550   5.490   0.820   5.379
 3551SOL     OW11551   4.134   1.901   4.408
 3551SOL    HW111552   4.220   1.871   4.450
 3551SOL    HW211553   4.108   1.990   4.445
 3552SOL     OW11554   0.548   6.703   2.784
 3552SOL    HW111555   0.516   6.643   2.710
 3552SOL    HW211556   0.594   6.782   2.744
 3553SOL     OW11557   5.006   5.651   0.078
 3553SOL    HW111558   5.093   5.698   0.098
 3553SOL    HW211559   5.005   5.623   7.007
 3554SOL     OW11560   5.494   2.790   0.994
 3554SOL    HW111561   5.541   2.718   1.046
 3554SOL    HW211562   5.429   2.837   1.053
 3555SOL     OW11563   2.674   2.033   5.142
 3555SOL    HW111564   2.748   1.967   5.158
 3555SOL    HW211565   2.713   2.123   5.126
 3556SOL     OW11566   5.411   1.070   5.739
 3556SOL    HW111567   5.429   1.054   5.642
 3556SOL    HW211568   5.318   1.104   5.750
 3557SOL     OW11569   6.491   1.013   0.966
 3557SOL    HW111570   6.451   0.955   1.037
 3557SOL    HW211571   6.498   1.107   1.000
 3558SOL     OW11572   3.539   6.505   2.072
 3558SOL    HW111573   3.612   6.574   2.067
 3558SOL    HW211574   3.575   6.422   2.113
 3559SOL     OW11575   4.807   6.142   5.371
 3559SOL    HW111576   4.787   6.220   5.311
 3559SOL    HW211577   4.863   6.173   5.448
 3560SOL     OW11578   2.050   5.232   4.444
 3560SOL    HW111579   2.032   5.133   4.438
 3560SOL    HW211580   2.124   5.256   4.381
 3561SOL     OW11581   4.894   3.850   5.366
 3561SOL    HW111582   4.827   3.788   5.408
 3561SOL    HW211583   4.849   3.937   5.343
 3562SOL     OW11584   1.807   1.372   5.816
 3562SOL    HW111585   1.838   1.467   5.812
 3562SOL    HW211586   1.771   1.344   5.727
 3563SOL     OW11587   6.462   2.710   5.044
 3563SOL    HW111588   6.476   2.760   4.959
 3563SOL    HW211589   6.364   2.702   5.062
 3564SOL     OW11590   6.132   4.140   2.139
 3564SOL    HW111591   6.105   4.213   2.201
 3564SOL    HW211592   6.098   4.052   2.174
 3565SOL     OW11593   3.946   5.874   3.053
 3565SOL    HW111594   3.969   5.968   3.077
 3565SOL    HW211595   4.027   5.826   3.021
 3566SOL     OW11596   1.320   0.447   5.644
 3566SOL    HW111597   1.279   0.356   5.655
 3566SOL    HW211598   1.310   0.498   5.729
 3567SOL     OW11599   0.214   3.816   6.249
 3567SOL    HW111600   0.228   3.811   6.348
 3567SOL    HW211601   0.293   3.776   6.202
 3568SOL     OW11602   6.156   3.717   5.788
 3568SOL    HW111603   6.178   3.802   5.834
 3568SOL    HW211604   6.095   3.735   5.710
 3569SOL     OW11605   1.690   1.421   5.231
 3569SOL    HW111606   1.739   1.386   5.151
 3569SOL    HW211607   1.600   1.377   5.237
 3570SOL     OW11608   6.605   1.833   3.548
 3570SOL    HW111609   6.561   1.849   3.460
 3570SOL    HW211610   6.624   1.736   3.559
 3571SOL     OW11611   6.223   6.363   5.768
 3571SOL    HW111612   6.223   6.403   5.676
 3571SOL    HW211613   6.228   6.435   5.836
 3572SOL     OW11614   5.970   5.192   4.518
 3572SOL    HW111615   5.914   5.274   4.507
 3572SOL    HW211616   5.916   5.111   4.493
 3573SOL     OW11617   1.244   2.745   2.833
 3573SOL    HW111618   1.308   2.808   2.790
 3573SOL    HW211619   1.156   2.749   2.785
 3574SOL     OW11620   7.007   3.590   0.663
 3574SOL    HW111621   0.002   3.645   0.744
 3574SOL    HW211622   6.942   3.637   0.604
 3575SOL     OW11623   6.095   4.870   2.176
 3575SOL    HW111624   6.169   4.848   2.113
 3575SOL    HW211625   6.080   4.969   2.178
 3576SOL     OW11626   0.410   1.399   5.850
 3576SOL    HW111627   0.372   1.361   5.766
 3576SOL    HW211628   0.506   1.372   5.859
 3577SOL     OW11629   1.231   3.096   0.191
 3577SOL    HW111630   1.226   3.174   0.254
 3577SOL    HW211631   1.195   3.014   0.236
 3578SOL     OW11632   3.432   5.109   0.788
 3578SOL    HW111633   3.510   5.153   0.744
 3578SOL    HW211634   3.403   5.030   0.733
 3579SOL     OW11635   6.875   4.228   4.470
 3579SOL    HW111636   6.877   4.317   4.424
 3579SOL    HW211637   6.958   4.177   4.447
 3580SOL     OW11638   6.387   2.036   2.375
 3580SOL    HW111639   6.294   1.999   2.366
 3580SOL    HW211640   6.453   1.963   2.365
 3581SOL     OW11641   0.182   0.215   2.715
 3581SOL    HW111642   0.092   0.255   2.729
 3581SOL    HW211643   0.232   0.268   2.646
 3582SOL     OW11644   1.356   0.274   6.223
 3582SOL    HW111645   1.421   0.347   6.243
 3582SOL    HW211646   1.275   0.313   6.178
 3583SOL     OW11647   1.102   5.327   0.441
 3583SOL    HW111648   1.122   5.282   0.354
 3583SOL    HW211649   1.133   5.422   0.438
 3584SOL     OW11650   5.084   5.715   6.627
 3584SOL    HW111651   5.158   5.770   6.588
 3584SOL    HW211652   5.105   5.618   6.616
 3585SOL     OW11653   3.217   4.974   4.174
 3585SOL    HW111654   3.261   5.037   4.110
 3585SOL    HW211655   3.287   4.920   4.221
 3586SOL     OW11656   0.303   3.140   5.739
 3586SOL    HW111657   0.322   3.155   5.836
 3586SOL    HW211658   0.327   3.222   5.688
 3587SOL     OW11659   4.307   6.617   6.700
 3587SOL    HW111660   4.300   6.685   6.773
 3587SOL    HW211661   4.321   6.662   6.613
 3588SOL     OW11662   1.110   1.736   6.000
 3588SOL    HW111663   1.080   1.721   5.906
 3588SOL    HW211664   1.195   1.685   6.016
 3589SOL     OW11665   3.119   0.902   5.360
 3589SOL    HW111666   3.195   0.934   5.417
 3589SOL    HW211667   3.050   0.974   5.353
 3590SOL     OW11668   1.952   5.374   6.431
 3590SOL    HW111669   1.860   5.349   6.463
 3590SOL    HW211670   2.019   5.310   6.469
 3591SOL     OW11671   4.976   2.388   5.761
 3591SOL    HW111672   5.037   2.309   5.755
 3591SOL    HW211673   4.891   2.362   5.807
 3592SOL     OW11674   5.012   3.215   2.443
 3592SOL    HW111675   4.944   3.247   2.509
 3592SOL    HW211676   4.979   3.233   2.351
 3593SOL     OW11677   1.387   6.330   3.826
 3593SOL    HW111678   1.431   6.259   3.771
 3593SOL    HW211679   1.297   6.350   3.788
 3594SOL     OW11680   2.885   1.559   4.274
 3594SOL    HW111681   2.805   1.615   4.255
 3594SOL    HW211682   2.868   1.465   4.242
 3595SOL     OW11683   2.840   5.997   6.376
 3595SOL    HW111684   2.834   5.936   6.454
 3595SOL    HW211685   2.926   5.982   6.327
 3596SOL     OW11686   6.352   1.941   2.782
 3596SOL    HW111687   6.399   1.891   2.708
 3596SOL    HW211688   6.353   2.039   2.762
 3597SOL     OW11689   3.142   5.713   3.718
 3597SOL    HW111690   3.214   5.677   3.776
 3597SOL    HW211691   3.107   5.798   3.757
 3598SOL     OW11692   1.265   6.869   6.686
 3598SOL    HW111693   1.212   6.788   6.712
 3598SOL    HW211694   1.352   6.840   6.645
 3599SOL     OW11695   0.396   1.813   4.739
 3599SOL    HW111696   0.349   1.869   4.671
 3599SOL    HW211697   0.344   1.815   4.825
 3600SOL     OW11698   5.874   2.054   0.476
 3600SOL    HW111699   5.970   2.058   0.503
 3600SOL    HW211700   5.862   2.104   0.390
 3601SOL     OW11701   6.972   3.861   6.223
 3601SOL    HW111702   6.944   3.882   6.317
 3601SOL    HW211703   0.046   3.851   6.219
 3602SOL     OW11704   2.085   0.724   6.866
 3602SOL    HW111705   1.998   0.771   6.851
 3602SOL    HW211706   2.067   0.627   6.887
 3603SOL     OW11707   4.175   4.750   3.771
 3603SOL    HW111708   4.198   4.793   3.684
 3603SOL    HW211709   4.077   4.763   3.789
 3604SOL     OW11710   0.396   2.645   2.900
 3604SOL    HW111711   0.392   2.714   2.972
 3604SOL    HW211712   0.355   2.560   2.934
 3605SOL     OW11713   5.527   3.262   6.276
 3605SOL    HW111714   5.476   3.324   6.336
 3605SOL    HW211715   5.613   3.306   6.249
 3606SOL     OW11716   0.678   4.200   5.429
 3606SOL    HW111717   0.705   4.169   5.338
 3606SOL    HW211718   0.632   4.289   5.421
 3607SOL     OW11719   5.353   6.924   0.542
 3607SOL    HW111720   5.281   6.978   0.498
 3607SOL    HW211721   5.434   6.924   0.484
 3608SOL     OW11722   0.418   2.352   2.083
 3608SOL    HW111723   0.361   2.417   2.133
 3608SOL    HW211724   0.514   2.368   2.107
 3609SOL     OW11725   6.753   0.678   4.556
 3609SOL    HW111726   6.687   0.618   4.602
 3609SOL    HW211727   6.773   0.756   4.614
 3610SOL     OW11728   1.465   6.550   5.794
 3610SOL    HW111729   1.539   6.584   5.852
 3610SOL    HW211730   1.403   6.626   5.773
 3611SOL     OW11731   3.780   5.368   5.649
 3611SOL    HW111732   3.820   5.293   5.703
 3611SOL    HW211733   3.683   5.349   5.634
 3612SOL     OW11734   1.405   6.867   0.756
 3612SOL    HW111735   1.378   6.938   0.821
 3612SOL    HW211736   1.345   6.788   0.766
 3613SOL     OW11737   5.707   5.100   6.617
 3613SOL    HW111738   5.788   5.061   6.573
 3613SOL    HW211739   5.664   5.031   6.675
 3614SOL     OW11740   3.997   3.125   3.548
 3614SOL    HW111741   4.006   3.128   3.449
 3614SOL    HW211742   3.925   3.060   3.573
 3615SOL     OW11743   5.826   5.771   5.702
 3615SOL    HW111744   5.895   5.698   5.703
 3615SOL    HW211745   5.768   5.760   5.622
 3616SOL     OW11746   6.931   2.017   5.046
 3616SOL    HW111747   6.915   2.114   5.033
 3616SOL    HW211748   6.994   1.984   4.975
 3617SOL     OW11749   6.829   1.394   6.438
 3617SOL    HW111750   6.844   1.376   6.535
 3617SOL    HW211751   6.917   1.396   6.390
 3618SOL     OW11752   2.102   2.028   6.672
 3618SOL    HW111753   2.163   2.104   6.649
 3618SOL    HW211754   2.142   1.942   6.640
 3619SOL     OW11755   5.557   2.207   4.172
 3619SOL    HW111756   5.588   2.222   4.078
 3619SOL    HW211757   5.457   2.210   4.174
 3620SOL     OW11758   5.762   0.251   4.667
 3620SOL    HW111759   5.823   0.314   4.619
 3620SOL    HW211760   5.668   0.280   4.655
 3621SOL     OW11761   2.323   3.623   5.751
 3621SOL    HW111762   2.387   3.585   5.818
 3621SOL    HW211763   2.243   3.660   5.797
 3622SOL     OW11764   0.964   2.293   2.155
 3622SOL    HW111765   0.956   2.322   2.250
 3622SOL    HW211766   1.020   2.358   2.104
 3623SOL     OW11767   5.170   4.970   3.447
 3623SOL    HW111768   5.197   5.021   3.365
 3623SOL    HW211769   5.100   5.022   3.497
 3624SOL     OW11770   2.645   6.866   3.046
 3624SOL    HW111771   2.712   6.792   3.061
 3624SOL    HW211772   2.638   6.921   3.129
 3625SOL     OW11773   6.171   3.145   5.132
 3625SOL    HW111774   6.116   3.064   5.111
 3625SOL    HW211775   6.266   3.118   5.149
 3626SOL     OW11776   1.897   3.834   5.250
 3626SOL    HW111777   1.837   3.810   5.174
 3626SOL    HW211778   1.846   3.886   5.318
 3627SOL     OW11779   3.087   3.696   3.818
 3627SOL    HW111780   3.160   3.636   3.851
 3627SOL    HW211781   2.998   3.660   3.846
 3628SOL     OW11782   1.985   5.673   2.525
 3628SOL    HW111783   1.982   5.688   2.426
 3628SOL    HW211784   2.055   5.606   2.547
 3629SOL     OW11785   5.959   1.638   5.049
 3629SOL    HW111786   6.045   1.659   5.095
 3629SOL    HW211787   5.883   1.650   5.113
 3630SOL     OW11788   6.318   1.963   4.330
 3630SOL    HW111789   6.314   1.880   4.386
 3630SOL    HW211790   6.408   2.006   4.340
 3631SOL     OW11791   2.776   0.403   4.967
 3631SOL    HW111792   2.720   0.372   5.045
 3631SOL    HW211793   2.827   0.484   4.995
 3632SOL     OW11794   5.197   1.009   0.588
 3632SOL    HW111795   5.244   0.953   0.656
 3632SOL    HW211796   5.253   1.013   0.505
 3633SOL     OW11797   2.483   2.764   5.918
 3633SOL    HW111798   2.527   2.852   5.937
 3633SOL    HW211799   2.554   2.694   5.907
 3634SOL     OW11800   2.092   6.017   5.045
 3634SOL    HW111801   2.054   6.043   5.134
 3634SOL    HW211802   2.047   5.934   5.012
 3635SOL     OW11803   2.738   1.748   5.915
 3635SOL    HW111804   2.722   1.651   5.896
 3635SOL    HW211805   2.747   1.762   6.014
 3636SOL     OW11806   0.492   5.415   5.980
 3636SOL    HW111807   0.525   5.509   5.985
 3636SOL    HW211808   0.524   5.363   6.059
 3637SOL     OW11809   5.556   0.991   1.405
 3637SOL    HW111810   5.555   1.080   1.450
 3637SOL    HW211811   5.591   0.922   1.468
 3638SOL     OW11812   6.922   4.396   4.228
 3638SOL    HW111813   6.937   4.489   4.194
 3638SOL    HW211814   6.997   4.337   4.198
 3639SOL     OW11815   2.307   4.739   1.044
 3639SOL    HW111816   2.301   4.639   1.045
 3639SOL    HW211817   2.221   4.777   1.011
 3640SOL     OW11818   3.557   5.495   1.514
 3640SOL    HW111819   3.504   5.522   1.594
 3640SOL    HW211820   3.502   5.435   1.456
 3641SOL     OW11821   3.402   1.073   5.031
 3641SOL    HW111822   3.323   1.012   5.036
 3641SOL    HW211823   3.472   1.032   4.972
 3642SOL     OW11824   5.014   0.554   4.236
 3642SOL    HW111825   5.069   0.636   4.226
 3642SOL    HW211826   5.023   0.498   4.153
 3643SOL     OW11827   2.421   5.062   5.011
 3643SOL    HW111828   2.324   5.085   5.010
 3643SOL    HW211829   2.466   5.108   5.087
 3644SOL     OW11830   6.667   1.972   0.926
 3644SOL    HW111831   6.672   2.009   1.019
 3644SOL    HW211832   6.746   2.004   0.874
 3645SOL     OW11833   4.414   1.700   3.517
 3645SOL    HW111834   4.384   1.614   3.476
 3645SOL    HW211835   4.472   1.681   3.596
 3646SOL     OW11836   0.303   4.915   5.882
 3646SOL    HW111837   0.284   4.888   5.977
 3646SOL    HW211838   0.335   5.010   5.881
 3647SOL     OW11839   1.433   2.669   0.810
 3647SOL    HW111840   1.456   2.577   0.781
 3647SOL    HW211841   1.460   2.734   0.739
 3648SOL     OW11842   3.278   5.137   2.029
 3648SOL    HW111843   3.338   5.074   2.078
 3648SOL    HW211844   3.273   5.224   2.078
 3649SOL     OW11845   4.373   3.731   0.917
 3649SOL    HW111846   4.345   3.653   0.971
 3649SOL    HW211847   4.338   3.721   0.823
 3650SOL     OW11848   0.153   5.927   1.095
 3650SOL    HW111849   0.084   5.855   1.087
 3650SOL    HW211850   0.108   6.014   1.111
 3651SOL     OW11851   0.315   5.823   2.391
 3651SOL    HW111852   0.308   5.752   2.461
 3651SOL    HW211853   0.229   5.873   2.386
 3652SOL     OW11854   4.745   5.952   3.369
 3652SOL    HW111855   4.837   5.914   3.360
 3652SOL    HW211856   4.700   5.910   3.448
 3653SOL     OW11857   6.605   1.760   3.126
 3653SOL    HW111858   6.604   1.661   3.120
 3653SOL    HW211859   6.561   1.789   3.211
 3654SOL     OW11860   1.646   6.435   0.626
 3654SOL    HW111861   1.723   6.410   0.685
 3654SOL    HW211862   1.616   6.528   0.648
 3655SOL     OW11863   1.729   0.350   4.505
 3655SOL    HW111864   1.657   0.320   4.567
 3655SOL    HW211865   1.712   0.444   4.477
 3656SOL     OW11866   2.105   2.569   2.100
 3656SOL    HW111867   2.136   2.662   2.078
 3656SOL    HW211868   2.171   2.525   2.161
 3657SOL     OW11869   3.910   5.705   1.065
 3657SOL    HW111870   3.920   5.665   0.973
 3657SOL    HW211871   3.856   5.789   1.059
 3658SOL     OW11872   1.075   5.544   5.365
 3658SOL    HW111873   1.108   5.481   5.294
 3658SOL    HW211874   1.045   5.629   5.322
 3659SOL     OW11875   2.878   4.908   0.286
 3659SOL    HW111876   2.958   4.876   0.335
 3659SOL    HW211877   2.803   4.842   0.297
 3660SOL     OW11878   4.750   6.049   1.867
 3660SOL    HW111879   4.801   6.128   1.832
 3660SOL    HW211880   4.758   5.973   1.802
 3661SOL     OW11881   4.923   1.537   0.581
 3661SOL    HW111882   4.933   1.553   0.679
 3661SOL    HW211883   4.960   1.614   0.530
 3662SOL     OW11884   3.504   0.236   5.219
 3662SOL    HW111885   3.576   0.167   5.210
 3662SOL    HW211886   3.415   0.192   5.211
 3663SOL     OW11887   1.565   2.009   0.434
 3663SOL    HW111888   1.521   1.936   0.382
 3663SOL    HW211889   1.628   1.971   0.501
 3664SOL     OW11890   5.285   1.591   0.690
 3664SOL    HW111891   5.346   1.520   0.724
 3664SOL    HW211892   5.249   1.644   0.767
 3665SOL     OW11893   0.273   6.893   5.221
 3665SOL    HW111894   0.260   6.983   5.178
 3665SOL    HW211895   0.348   6.898   5.286
 3666SOL     OW11896   1.833   3.955   4.168
 3666SOL    HW111897   1.907   3.900   4.207
 3666SOL    HW211898   1.858   4.052   4.172
 3667SOL     OW11899   6.736   1.099   6.620
 3667SOL    HW111900   6.720   1.171   6.687
 3667SOL    HW211901   6.799   1.132   6.550
 3668SOL     OW11902   1.443   6.875   2.841
 3668SOL    HW111903   1.520   6.812   2.855
 3668SOL    HW211904   1.471   6.968   2.863
 3669SOL     OW11905   6.202   1.866   4.085
 3669SOL    HW111906   6.225   1.890   4.179
 3669SOL    HW211907   6.198   1.766   4.077
 3670SOL     OW11908   2.387   5.579   6.593
 3670SOL    HW111909   2.294   5.614   6.583
 3670SOL    HW211910   2.434   5.631   6.665
 3671SOL     OW11911   0.632   0.175   3.273
 3671SOL    HW111912   0.699   0.108   3.242
 3671SOL    HW211913   0.542   0.155   3.234
 3672SOL     OW11914   6.205   2.162   0.062
 3672SOL    HW111915   6.234   2.163   6.991
 3672SOL    HW211916   6.282   2.189   0.120
 3673SOL     OW11917   4.282   1.114   0.026
 3673SOL    HW111918   4.316   1.122   6.957
 3673SOL    HW211919   4.201   1.055   0.027
 3674SOL     OW11920   0.554   6.740   6.911
 3674SOL    HW111921   0.527   6.759   7.005
 3674SOL    HW211922   0.493   6.672   6.871
 3675SOL     OW11923   1.621   2.489   5.708
 3675SOL    HW111924   1.586   2.541   5.787
 3675SOL    HW211925   1.711   2.452   5.730
 3676SOL     OW11926   3.633   5.013   4.165
 3676SOL    HW111927   3.684   4.952   4.227
 3676SOL    HW211928   3.594   5.088   4.218
 3677SOL     OW11929   6.815   6.356   3.120
 3677SOL    HW111930   6.805   6.386   3.025
 3677SOL    HW211931   6.864   6.426   3.172
 3678SOL     OW11932   1.466   2.161   3.881
 3678SOL    HW111933   1.566   2.164   3.889
 3678SOL    HW211934   1.427   2.240   3.929
 3679SOL     OW11935   0.357   0.959   2.170
 3679SOL    HW111936   0.284   0.948   2.237
 3679SOL    HW211937   0.442   0.921   2.207
 3680SOL     OW11938   6.293   3.167   3.661
 3680SOL    HW111939   6.306   3.254   3.613
 3680SOL    HW211940   6.281   3.094   3.594
 3681SOL     OW11941   0.755   6.980   5.890
 3681SOL    HW111942   0.720   6.953   5.800
 3681SOL    HW211943   0.855   6.972   5.890
 3682SOL     OW11944   6.772   1.987   5.452
 3682SOL    HW111945   6.732   1.934   5.526
 3682SOL    HW211946   6.703   2.003   5.381
 3683SOL     OW11947   5.992   6.357   4.598
 3683SOL    HW111948   5.924   6.284   4.585
 3683SOL    HW211949   6.051   6.334   4.675
 3684SOL     OW11950   1.797   3.324   1.871
 3684SOL    HW111951   1.774   3.239   1.919
 3684SOL    HW211952   1.896   3.331   1.861
 3685SOL     OW11953   6.057   6.278   6.120
 3685SOL    HW111954   6.090   6.298   6.212
 3685SOL    HW211955   6.108   6.200   6.083
 3686SOL     OW11956   6.564   5.109   1.920
 3686SOL    HW111957   6.635   5.090   1.987
 3686SOL    HW211958   6.477   5.073   1.954
 3687SOL     OW11959   2.617   0.093   6.744
 3687SOL    HW111960   2.708   0.133   6.737
 3687SOL    HW211961   2.557   0.133   6.674
 3688SOL     OW11962   1.085   3.683   0.130
 3688SOL    HW111963   1.097   3.647   0.037
 3688SOL    HW211964   0.989   3.679   0.155
 3689SOL     OW11965   2.104   1.559   5.353
 3689SOL    HW111966   2.180   1.615   5.320
 3689SOL    HW211967   2.024   1.617   5.369
 3690SOL     OW11968   5.832   0.504   5.819
 3690SOL    HW111969   5.839   0.516   5.720
 3690SOL    HW211970   5.755   0.557   5.855
 3691SOL     OW11971   2.995   3.912   6.905
 3691SOL    HW111972   2.909   3.957   6.930
 3691SOL    HW211973   3.005   3.828   6.958
 3692SOL     OW11974   1.044   6.078   4.970
 3692SOL    HW111975   0.955   6.043   4.938
 3692SOL    HW211976   1.115   6.053   4.904
 3693SOL     OW11977   2.849   2.278   3.583
 3693SOL    HW111978   2.867   2.228   3.667
 3693SOL    HW211979   2.915   2.251   3.513
 3694SOL     OW11980   1.057   6.414   3.444
 3694SOL    HW111981   1.019   6.340   3.387
 3694SOL    HW211982   1.139   6.451   3.400
 3695SOL     OW11983   1.600   1.977   2.414
 3695SOL    HW111984   1.561   2.028   2.490
 3695SOL    HW211985   1.657   1.903   2.448
 3696SOL     OW11986   4.595   6.490   5.428
 3696SOL    HW111987   4.661   6.472   5.355
 3696SOL    HW211988   4.612   6.427   5.504
 3697SOL     OW11989   6.789   6.823   3.536
 3697SOL    HW111990   6.858   6.751   3.538
 3697SOL    HW211991   6.718   6.804   3.603
 3698SOL     OW11992   3.216   0.151   5.895
 3698SOL    HW111993   3.298   0.157   5.839
 3698SOL    HW211994   3.149   0.218   5.864
 3699SOL     OW11995   6.564   3.725   2.249
 3699SOL    HW111996   6.655   3.739   2.210
 3699SOL    HW211997   6.535   3.808   2.296
 3700SOL     OW11998   6.151   0.348   4.310
 3700SOL    HW111999   6.082   0.360   4.382
 3700SOL    HW212000   6.139   0.258   4.267
 3701SOL     OW12001   0.057   0.933   4.009
 3701SOL    HW112002   0.025   0.843   4.040
 3701SOL    HW212003   0.051   0.998   4.085
 3702SOL     OW12004   3.714   0.434   1.307
 3702SOL    HW112005   3.651   0.501   1.347
 3702SOL    HW212006   3.681   0.342   1.327
 3703SOL     OW12007   4.048   4.636   6.166
 3703SOL    HW112008   4.092   4.598   6.084
 3703SOL    HW212009   3.990   4.713   6.140
 3704SOL     OW12010   2.807   1.084   2.489
 3704SOL    HW112011   2.900   1.054   2.468
 3704SOL    HW212012   2.792   1.078   2.588
 3705SOL     OW12013   5.031   0.290   3.552
 3705SOL    HW112014   5.101   0.318   3.486
 3705SOL    HW212015   5.044   0.194   3.575
 3706SOL     OW12016   1.612   3.323   4.136
 3706SOL    HW112017   1.667   3.240   4.126
 3706SOL    HW212018   1.563   3.320   4.223
 3707SOL     OW12019   5.129   2.155   5.805
 3707SOL    HW112020   5.189   2.190   5.876
 3707SOL    HW212021   5.122   2.056   5.812
 3708SOL     OW12022   6.063   0.718   6.696
 3708SOL    HW112023   6.071   0.817   6.688
 3708SOL    HW212024   6.097   0.675   6.613
 3709SOL     OW12025   3.906   0.881   5.979
 3709SOL    HW112026   3.834   0.878   6.048
 3709SOL    HW212027   3.935   0.976   5.965
 3710SOL     OW12028   6.360   5.239   0.468
 3710SOL    HW112029   6.295   5.231   0.544
 3710SOL    HW212030   6.342   5.168   0.401
 3711SOL     OW12031   0.307   6.226   2.027
 3711SOL    HW112032   0.389   6.226   2.084
 3711SOL    HW212033   0.235   6.278   2.073
 3712SOL     OW12034   0.470   6.491   6.507
 3712SOL    HW112035   0.567   6.511   6.497
 3712SOL    HW212036   0.435   6.450   6.423
 3713SOL     OW12037   2.725   5.977   4.924
 3713SOL    HW112038   2.630   5.953   4.902
 3713SOL    HW212039   2.784   5.898   4.909
 3714SOL     OW12040   4.223   6.866   4.425
 3714SOL    HW112041   4.163   6.789   4.403
 3714SOL    HW212042   4.273   6.846   4.509
 3715SOL     OW12043   5.030   4.857   4.092
 3715SOL    HW112044   5.080   4.943   4.102
 3715SOL    HW212045   4.994   4.829   4.181
 3716SOL     OW12046   6.789   0.317   4.486
 3716SOL    HW112047   6.846   0.257   4.542
 3716SOL    HW212048   6.730   0.371   4.546
 3717SOL     OW12049   6.244   5.562   0.598
 3717SOL    HW112050   6.225   5.468   0.626
 3717SOL    HW212051   6.163   5.618   0.614
 3718SOL     OW12052   1.057   6.656   0.175
 3718SOL    HW112053   1.110   6.686   0.254
 3718SOL    HW212054   1.100   6.576   0.134
 3719SOL     OW12055   4.994   4.929   0.245
 3719SOL    HW112056   4.982   4.842   0.197
 3719SOL    HW212057   5.027   4.911   0.338
 3720SOL     OW12058   6.867   1.618   6.199
 3720SOL    HW112059   6.788   1.566   6.231
 3720SOL    HW212060   6.872   1.705   6.248
 3721SOL     OW12061   5.800   4.576   0.146
 3721SOL    HW112062   5.769   4.659   0.193
 3721SOL    HW212063   5.722   4.514   0.134
 3722SOL     OW12064   0.040   5.661   2.578
 3722SOL    HW112065   0.087   5.597   2.517
 3722SOL    HW212066   6.993   5.708   2.528
 3723SOL     OW12067   5.391   6.759   1.598
 3723SOL    HW112068   5.324   6.833   1.603
 3723SOL    HW212069   5.482   6.797   1.580
 3724SOL     OW12070   0.880   5.425   0.578
 3724SOL    HW112071   0.939   5.348   0.550
 3724SOL    HW212072   0.846   5.472   0.496
 3725SOL     OW12073   6.802   6.027   6.659
 3725SOL    HW112074   6.847   6.020   6.748
 3725SOL    HW212075   6.869   6.013   6.586
 3726SOL     OW12076   5.560   3.831   2.091
 3726SOL    HW112077   5.612   3.776   2.156
 3726SOL    HW212078   5.574   3.928   2.111
 3727SOL     OW12079   1.331   2.974   5.184
 3727SOL    HW112080   1.425   3.008   5.192
 3727SOL    HW212081   1.332   2.880   5.152
 3728SOL     OW12082   2.214   3.242   0.127
 3728SOL    HW112083   2.187   3.157   0.082
 3728SOL    HW212084   2.152   3.315   0.098
 3729SOL     OW12085   1.064   1.852   3.748
 3729SOL    HW112086   0.970   1.867   3.780
 3729SOL    HW212087   1.096   1.764   3.782
 3730SOL     OW12088   2.856   0.941   6.931
 3730SOL    HW112089   2.891   0.861   6.979
 3730SOL    HW212090   2.933   0.994   6.894
 3731SOL     OW12091   4.375   0.930   0.861
 3731SOL    HW112092   4.414   0.979   0.939
 3731SOL    HW212093   4.416   0.965   0.776
 3732SOL     OW12094   1.874   3.569   5.652
 3732SOL    HW112095   1.922   3.603   5.571
 3732SOL    HW212096   1.799   3.509   5.623
 3733SOL     OW12097   2.542   4.048   1.347
 3733SOL    HW112098   2.545   3.948   1.349
 3733SOL    HW212099   2.564   4.084   1.437
 3734SOL     OW12100   4.233   1.411   2.691
 3734SOL    HW112101   4.282   1.446   2.771
 3734SOL    HW212102   4.291   1.422   2.610
 3735SOL     OW12103   2.121   2.398   2.894
 3735SOL    HW112104   2.168   2.401   2.805
 3735SOL    HW212105   2.160   2.467   2.955
 3736SOL     OW12106   6.547   2.676   0.957
 3736SOL    HW112107   6.544   2.748   1.026
 3736SOL    HW212108   6.616   2.699   0.888
 3737SOL     OW12109   5.172   0.234   3.017
 3737SOL    HW112110   5.199   0.329   2.999
 3737SOL    HW212111   5.195   0.177   2.938
 3738SOL     OW12112   6.055   6.132   3.758
 3738SOL    HW112113   6.074   6.199   3.830
 3738SOL    HW212114   6.008   6.177   3.682
 3739SOL     OW12115   1.004   3.783   2.314
 3739SOL    HW112116   1.026   3.756   2.408
 3739SOL    HW212117   0.908   3.764   2.295
 3740SOL     OW12118   5.025   1.387   6.642
 3740SOL    HW112119   5.012   1.486   6.633
 3740SOL    HW212120   4.978   1.355   6.725
 3741SOL     OW12121   4.518   3.286   1.071
 3741SOL    HW112122   4.526   3.380   1.037
 3741SOL    HW212123   4.515   3.286   1.171
 3742SOL     OW12124   3.922   2.228   5.920
 3742SOL    HW112125   4.007   2.190   5.883
 3742SOL    HW212126   3.850   2.221   5.851
 3743SOL     OW12127   6.720   5.076   0.238
 3743SOL    HW112128   6.640   5.045   0.289
 3743SOL    HW212129   6.769   4.997   0.201
 3744SOL     OW12130   0.062   4.821   3.922
 3744SOL    HW112131   0.125   4.749   3.951
 3744SOL    HW212132   0.107   4.880   3.855
 3745SOL     OW12133   3.419   5.619   2.543
 3745SOL    HW112134   3.467   5.604   2.456
 3745SOL    HW212135   3.484   5.617   2.618
 3746SOL     OW12136   4.476   2.252   1.559
 3746SOL    HW112137   4.539   2.175   1.550
 3746SOL    HW212138   4.409   2.231   1.631
 3747SOL     OW12139   3.250   6.989   7.002
 3747SOL    HW112140   3.299   7.012   0.061
 3747SOL    HW212141   3.274   6.896   6.974
 3748SOL     OW12142   5.968   0.692   1.391
 3748SOL    HW112143   5.913   0.608   1.391
 3748SOL    HW212144   5.945   0.747   1.310
 3749SOL     OW12145   1.344   6.674   4.305
 3749SOL    HW112146   1.251   6.701   4.279
 3749SOL    HW212147   1.406   6.752   4.296
 3750SOL     OW12148   0.147   3.660   0.420
 3750SOL    HW112149   0.105   3.613   0.342
 3750SOL    HW212150   0.096   3.637   0.503
 3751SOL     OW12151   0.271   4.531   3.050
 3751SOL    HW112152   0.366   4.510   3.070
 3751SOL    HW212153   0.215   4.449   3.063
 3752SOL     OW12154   6.356   1.445   5.827
 3752SOL    HW112155   6.304   1.521   5.867
 3752SOL    HW212156   6.333   1.437   5.730
 3753SOL     OW12157   6.486   0.959   3.784
 3753SOL    HW112158   6.417   1.021   3.745
 3753SOL    HW212159   6.577   0.989   3.756
 3754SOL     OW12160   1.769   1.638   1.891
 3754SOL    HW112161   1.732   1.616   1.801
 3754SOL    HW212162   1.828   1.564   1.923
 3755SOL     OW12163   2.818   5.163   4.443
 3755SOL    HW112164   2.766   5.083   4.474
 3755SOL    HW212165   2.758   5.224   4.392
 3756SOL     OW12166   2.706   6.488   6.973
 3756SOL    HW112167   2.700   6.393   6.943
 3756SOL    HW212168   2.698   6.492   0.048
 3757SOL     OW12169   6.521   4.513   1.353
 3757SOL    HW112170   6.482   4.492   1.443
 3757SOL    HW212171   6.577   4.595   1.361
 3758SOL     OW12172   1.984   0.194   3.082
 3758SOL    HW112173   2.000   0.247   2.999
 3758SOL    HW212174   1.901   0.139   3.072
 3759SOL     OW12175   5.178   0.750   4.138
 3759SOL    HW112176   5.201   0.778   4.045
 3759SOL    HW212177   5.251   0.777   4.201
 3760SOL     OW12178   0.147   0.446   3.458
 3760SOL    HW112179   0.196   0.397   3.531
 3760SOL    HW212180   0.187   0.422   3.369
 3761SOL     OW12181   5.582   1.128   3.924
 3761SOL    HW112182   5.653   1.169   3.981
 3761SOL    HW212183   5.591   1.029   3.925
 3762SOL     OW12184   1.000   3.721   2.626
 3762SOL    HW112185   1.049   3.807   2.611
 3762SOL    HW212186   1.048   3.668   2.696
 3763SOL     OW12187   0.094   4.401   0.256
 3763SOL    HW112188   0.020   4.365   0.312
 3763SOL    HW212189   0.097   4.352   0.169
 3764SOL     OW12190   2.105   0.287   2.879
 3764SOL    HW112191   2.094   0.270   2.781
 3764SOL    HW212192   2.174   0.358   2.893
 3765SOL     OW12193   5.980   1.683   1.963
 3765SOL    HW112194   5.977   1.631   1.878
 3765SOL    HW212195   5.939   1.773   1.949
 3766SOL     OW12196   1.524   4.041   2.734
 3766SOL    HW112197   1.479   3.994   2.810
 3766SOL    HW212198   1.623   4.029   2.742
 3767SOL     OW12199   2.695   5.041   6.380
 3767SOL    HW112200   2.627   5.027   6.308
 3767SOL    HW212201   2.653   5.089   6.457
 3768SOL     OW12202   1.747   0.146   5.099
 3768SOL    HW112203   1.826   0.173   5.043
 3768SOL    HW212204   1.744   0.203   5.181
 3769SOL     OW12205   4.826   6.104   4.538
 3769SOL    HW112206   4.902   6.146   4.488
 3769SOL    HW212207   4.749   6.167   4.540
 3770SOL     OW12208   0.689   1.136   0.157
 3770SOL    HW112209   0.611   1.083   0.190
 3770SOL    HW212210   0.725   1.095   0.074
 3771SOL     OW12211   0.722   4.872   0.192
 3771SOL    HW112212   0.628   4.867   0.156
 3771SOL    HW212213   0.746   4.967   0.211
 3772SOL     OW12214   1.451   5.743   0.682
 3772SOL    HW112215   1.495   5.792   0.758
 3772SOL    HW212216   1.455   5.798   0.599
 3773SOL     OW12217   5.827   3.360   5.784
 3773SOL    HW112218   5.841   3.375   5.881
 3773SOL    HW212219   5.730   3.368   5.762
 3774SOL     OW12220   5.384   5.964   1.438
 3774SOL    HW112221   5.404   5.869   1.412
 3774SOL    HW212222   5.302   5.995   1.390
 3775SOL     OW12223   4.252   4.871   3.530
 3775SOL    HW112224   4.350   4.877   3.513
 3775SOL    HW212225   4.210   4.811   3.462
 3776SOL     OW12226   3.228   2.336   6.771
 3776SOL    HW112227   3.198   2.421   6.729
 3776SOL    HW212228   3.174   2.259   6.736
 3777SOL     OW12229   2.995   6.112   4.377
 3777SOL    HW112230   2.917   6.110   4.314
 3777SOL    HW212231   2.993   6.197   4.429
 3778SOL     OW12232   3.069   5.420   5.203
 3778SOL    HW112233   3.162   5.416   5.239
 3778SOL    HW212234   3.021   5.335   5.224
 3779SOL     OW12235   7.003   5.208   0.019
 3779SOL    HW112236   6.910   5.242   0.033
 3779SOL    HW212237   0.019   5.186   0.108
 3780SOL     OW12238   6.678   3.542   1.001
 3780SOL    HW112239   6.724   3.533   1.089
 3780SOL    HW212240   6.591   3.493   1.003
 3781SOL     OW12241   2.203   6.325   5.190
 3781SOL    HW112242   2.181   6.297   5.097
 3781SOL    HW212243   2.196   6.424   5.198
 3782SOL     OW12244   5.061   5.961   1.520
 3782SOL    HW112245   5.127   5.995   1.587
 3782SOL    HW212246   5.103   5.964   1.429
 3783SOL     OW12247   5.905   5.053   5.525
 3783SOL    HW112248   6.001   5.055   5.500
 3783SOL    HW212249   5.882   5.135   5.578
 3784SOL     OW12250   5.613   2.579   3.631
 3784SOL    HW112251   5.688   2.602   3.568
 3784SOL    HW212252   5.580   2.486   3.610
 3785SOL     OW12253   1.076   3.967   4.285
 3785SOL    HW112254   0.986   3.933   4.258
 3785SOL    HW212255   1.100   3.928   4.374
 3786SOL     OW12256   2.502   2.518   4.504
 3786SOL    HW112257   2.575   2.452   4.519
 3786SOL    HW212258   2.428   2.502   4.569
 3787SOL     OW12259   4.476   0.117   2.982
 3787SOL    HW112260   4.475   0.021   2.955
 3787SOL    HW212261   4.482   0.123   3.082
 3788SOL     OW12262   0.275   2.848   5.196
 3788SOL    HW112263   0.212   2.778   5.231
 3788SOL    HW212264   0.369   2.813   5.201
 3789SOL     OW12265   1.826   2.827   2.680
 3789SOL    HW112266   1.777   2.912   2.664
 3789SOL    HW212267   1.859   2.825   2.775
 3790SOL     OW12268   0.333   0.045   0.728
 3790SOL    HW112269   0.416   0.084   0.687
 3790SOL    HW212270   0.265   0.117   0.741
 3791SOL     OW12271   5.668   1.160   6.133
 3791SOL    HW112272   5.614   1.191   6.055
 3791SOL    HW212273   5.644   1.065   6.155
 3792SOL     OW12274   0.787   0.644   3.762
 3792SOL    HW112275   0.706   0.684   3.805
 3792SOL    HW212276   0.843   0.599   3.831
 3793SOL     OW12277   5.830   5.899   6.962
 3793SOL    HW112278   5.882   5.980   6.937
 3793SOL    HW212279   5.888   5.837   7.015
 3794SOL     OW12280   2.036   4.037   0.101
 3794SOL    HW112281   1.957   3.976   0.094
 3794SOL    HW212282   2.105   4.009   0.034
 3795SOL     OW12283   2.844   5.548   1.441
 3795SOL    HW112284   2.782   5.578   1.513
 3795SOL    HW212285   2.936   5.582   1.458
 3796SOL     OW12286   3.961   2.334   6.774
 3796SOL    HW112287   3.985   2.402   6.843
 3796SOL    HW212288   4.044   2.303   6.728
 3797SOL     OW12289   0.613   4.694   3.486
 3797SOL    HW112290   0.627   4.617   3.424
 3797SOL    HW212291   0.651   4.777   3.445
 3798SOL     OW12292   2.222   6.607   3.147
 3798SOL    HW112293   2.203   6.626   3.051
 3798SOL    HW212294   2.226   6.509   3.162
 3799SOL     OW12295   0.056   2.241   2.794
 3799SOL    HW112296   6.996   2.252   2.847
 3799SOL    HW212297   0.098   2.153   2.816
 3800SOL     OW12298   5.735   1.763   2.825
 3800SOL    HW112299   5.648   1.809   2.843
 3800SOL    HW212300   5.796   1.775   2.904
 3801SOL     OW12301   5.408   0.080   1.960
 3801SOL    HW112302   5.411   0.128   1.872
 3801SOL    HW212303   5.410   0.147   2.034
 3802SOL     OW12304   6.140   1.761   2.191
 3802SOL    HW112305   6.093   1.725   2.110
 3802SOL    HW212306   6.116   1.857   2.203
 3803SOL     OW12307   2.932   3.576   4.576
 3803SOL    HW112308   2.909   3.511   4.503
 3803SOL    HW212309   2.979   3.655   4.536
 3804SOL     OW12310   3.442   6.780   4.630
 3804SOL    HW112311   3.400   6.821   4.712
 3804SOL    HW212312   3.534   6.816   4.619
 3805SOL     OW12313   2.135   2.999   0.043
 3805SOL    HW112314   2.104   2.971   6.977
 3805SOL    HW212315   2.149   2.919   0.101
 3806SOL     OW12316   3.629   4.177   6.932
 3806SOL    HW112317   3.552   4.230   6.967
 3806SOL    HW212318   3.688   4.150   7.008
 3807SOL     OW12319   1.539   4.528   3.815
 3807SOL    HW112320   1.547   4.493   3.721
 3807SOL    HW212321   1.617   4.496   3.869
 3808SOL     OW12322   4.403   6.921   5.892
 3808SOL    HW112323   4.323   6.885   5.939
 3808SOL    HW212324   4.415   7.018   5.915
 3809SOL     OW12325   4.867   2.227   1.494
 3809SOL    HW112326   4.838   2.322   1.478
 3809SOL    HW212327   4.821   2.192   1.576
 3810SOL     OW12328   6.688   2.223   2.192
 3810SOL    HW112329   6.727   2.184   2.275
 3810SOL    HW212330   6.761   2.262   2.136
 3811SOL     OW12331   6.546   5.189   4.767
 3811SOL    HW112332   6.519   5.285   4.766
 3811SOL    HW212333   6.632   5.178   4.718
 3812SOL     OW12334   3.764   6.441   7.006
 3812SOL    HW112335   3.765   6.341   6.995
 3812SOL    HW212336   3.840   6.468   0.040
 3813SOL     OW12337   6.591   3.707   0.628
 3813SOL    HW112338   6.576   3.628   0.688
 3813SOL    HW212339   6.688   3.710   0.603
 3814SOL     OW12340   6.971   0.386   4.312
 3814SOL    HW112341   6.885   0.372   4.363
 3814SOL    HW212342   6.955   0.451   4.237
 3815SOL     OW12343   4.728   3.497   0.274
 3815SOL    HW112344   4.823   3.524   0.291
 3815SOL    HW212345   4.701   3.527   0.182
 3816SOL     OW12346   1.299   5.970   6.518
 3816SOL    HW112347   1.383   5.990   6.469
 3816SOL    HW212348   1.224   5.958   6.453
 3817SOL     OW12349   5.304   3.544   2.456
 3817SOL    HW112350   5.379   3.478   2.463
 3817SOL    HW212351   5.337   3.634   2.483
 3818SOL     OW12352   0.268   0.612   1.847
 3818SOL    HW112353   0.264   0.573   1.755
 3818SOL    HW212354   0.361   0.639   1.868
 3819SOL     OW12355   6.133   5.043   3.795
 3819SOL    HW112356   6.066   5.088   3.854
 3819SOL    HW212357   6.086   4.978   3.735
 3820SOL     OW12358   5.496   0.216   4.326
 3820SOL    HW112359   5.425   0.282   4.351
 3820SOL    HW212360   5.485   0.132   4.379
 3821SOL     OW12361   0.566   0.168   7.012
 3821SOL    HW112362   0.582   0.095   6.946
 3821SOL    HW212363   0.502   0.235   6.972
 3822SOL     OW12364   3.665   1.231   0.059
 3822SOL    HW112365   3.732   1.212   0.131
 3822SOL    HW212366   3.657   1.151   7.024
 3823SOL     OW12367   4.968   4.551   6.120
 3823SOL    HW112368   5.030   4.555   6.199
 3823SOL    HW212369   5.016   4.512   6.041
 3824SOL     OW12370   1.771   3.255   0.361
 3824SOL    HW112371   1.844   3.193   0.393
 3824SOL    HW212372   1.803   3.305   0.281
 3825SOL     OW12373   1.691   3.671   6.417
 3825SOL    HW112374   1.733   3.614   6.346
 3825SOL    HW212375   1.741   3.757   6.425
 3826SOL     OW12376   5.496   4.235   2.520
 3826SOL    HW112377   5.436   4.205   2.445
 3826SOL    HW212378   5.591   4.210   2.498
 3827SOL     OW12379   1.299   0.980   1.625
 3827SOL    HW112380   1.266   0.984   1.719
 3827SOL    HW212381   1.373   0.913   1.619
 3828SOL     OW12382   3.809   4.038   4.745
 3828SOL    HW112383   3.894   3.985   4.743
 3828SOL    HW212384   3.781   4.061   4.652
 3829SOL     OW12385   0.085   4.476   2.590
 3829SOL    HW112386   0.013   4.417   2.554
 3829SOL    HW212387   0.173   4.430   2.583
 3830SOL     OW12388   0.463   0.788   4.738
 3830SOL    HW112389   0.549   0.814   4.694
 3830SOL    HW212390   0.401   0.749   4.670
 3831SOL     OW12391   4.732   1.760   3.398
 3831SOL    HW112392   4.633   1.771   3.407
 3831SOL    HW212393   4.758   1.669   3.428
 3832SOL     OW12394   0.879   0.495   2.299
 3832SOL    HW112395   0.846   0.478   2.392
 3832SOL    HW212396   0.808   0.469   2.233
 3833SOL     OW12397   1.253   0.076   6.467
 3833SOL    HW112398   1.191   0.147   6.436
 3833SOL    HW212399   1.228   0.047   6.559
 3834SOL     OW12400   4.785   3.731   1.562
 3834SOL    HW112401   4.785   3.662   1.635
 3834SOL    HW212402   4.756   3.689   1.476
 3835SOL     OW12403   3.703   6.104   5.532
 3835SOL    HW112404   3.770   6.040   5.570
 3835SOL    HW212405   3.642   6.055   5.471
 3836SOL     OW12406   0.312   5.074   6.405
 3836SOL    HW112407   0.305   5.041   6.499
 3836SOL    HW212408   0.397   5.040   6.364
 3837SOL     OW12409   3.962   4.853   5.103
 3837SOL    HW112410   3.919   4.943   5.102
 3837SOL    HW212411   4.035   4.849   5.035
 3838SOL     OW12412   2.152   1.019   3.278
 3838SOL    HW112413   2.097   1.040   3.198
 3838SOL    HW212414   2.244   1.056   3.266
 3839SOL     OW12415   4.359   0.104   3.247
 3839SOL    HW112416   4.259   0.101   3.245
 3839SOL    HW212417   4.390   0.198   3.255
 3840SOL     OW12418   2.554   0.625   0.559
 3840SOL    HW112419   2.531   0.707   0.610
 3840SOL    HW212420   2.478   0.561   0.563
 3841SOL     OW12421   6.108   5.043   4.164
 3841SOL    HW112422   6.149   5.131   4.189
 3841SOL    HW212423   6.038   5.058   4.094
 3842SOL     OW12424   2.461   2.690   5.086
 3842SOL    HW112425   2.471   2.679   5.185
 3842SOL    HW212426   2.428   2.783   5.066
 3843SOL     OW12427   5.127   3.108   0.452
 3843SOL    HW112428   5.105   3.023   0.499
 3843SOL    HW212429   5.216   3.100   0.407
 3844SOL     OW12430   1.306   5.191   0.199
 3844SOL    HW112431   1.290   5.097   0.230
 3844SOL    HW212432   1.387   5.228   0.244
 3845SOL     OW12433   2.269   6.348   0.374
 3845SOL    HW112434   2.234   6.388   0.459
 3845SOL    HW212435   2.248   6.410   0.298
 3846SOL     OW12436   0.868   3.519   4.418
 3846SOL    HW112437   0.804   3.456   4.375
 3846SOL    HW212438   0.828   3.556   4.502
 3847SOL     OW12439   6.212   1.545   5.278
 3847SOL    HW112440   6.198   1.468   5.215
 3847SOL    HW212441   6.139   1.546   5.346
 3848SOL     OW12442   4.852   3.346   2.621
 3848SOL    HW112443   4.836   3.362   2.719
 3848SOL    HW212444   4.921   3.410   2.587
 3849SOL     OW12445   0.233   5.948   5.989
 3849SOL    HW112446   0.224   5.981   5.895
 3849SOL    HW212447   0.299   6.004   6.039
 3850SOL     OW12448   2.949   2.016   1.607
 3850SOL    HW112449   3.030   2.069   1.584
 3850SOL    HW212450   2.915   2.044   1.696
 3851SOL     OW12451   0.079   5.618   3.506
 3851SOL    HW112452   0.106   5.526   3.532
 3851SOL    HW212453   0.031   5.662   3.582
 3852SOL     OW12454   3.021   6.742   4.353
 3852SOL    HW112455   3.097   6.682   4.328
 3852SOL    HW212456   2.951   6.739   4.281
 3853SOL     OW12457   2.024   1.405   3.906
 3853SOL    HW112458   2.042   1.372   3.998
 3853SOL    HW212459   2.037   1.331   3.840
 3854SOL     OW12460   1.844   2.362   2.785
 3854SOL    HW112461   1.913   2.347   2.856
 3854SOL    HW212462   1.884   2.413   2.710
 3855SOL     OW12463   4.757   6.532   0.254
 3855SOL    HW112464   4.760   6.436   0.282
 3855SOL    HW212465   4.684   6.580   0.305
 3856SOL     OW12466   6.970   2.123   6.058
 3856SOL    HW112467   7.021   2.039   6.077
 3856SOL    HW212468   7.015   2.173   5.984
 3857SOL     OW12469   2.448   0.289   5.981
 3857SOL    HW112470   2.499   0.243   6.054
 3857SOL    HW212471   2.400   0.368   6.019
 3858SOL     OW12472   3.578   1.667   5.233
 3858SOL    HW112473   3.668   1.650   5.191
 3858SOL    HW212474   3.541   1.753   5.197
 3859SOL     OW12475   5.336   0.384   1.028
 3859SOL    HW112476   5.392   0.314   1.073
 3859SOL    HW212477   5.284   0.434   1.097
 3860SOL     OW12478   1.917   0.776   4.517
 3860SOL    HW112479   1.980   0.728   4.578
 3860SOL    HW212480   1.934   0.749   4.422
 3861SOL     OW12481   4.487   5.203   2.406
 3861SOL    HW112482   4.522   5.113   2.433
 3861SOL    HW212483   4.410   5.228   2.466
 3862SOL     OW12484   0.362   0.207   4.269
 3862SOL    HW112485   0.398   0.301   4.276
 3862SOL    HW212486   0.413   0.157   4.200
 3863SOL     OW12487   4.276   0.542   6.785
 3863SOL    HW112488   4.235   0.523   6.875
 3863SOL    HW212489   4.375   0.528   6.790
 3864SOL     OW12490   2.398   0.641   4.989
 3864SOL    HW112491   2.412   0.583   5.069
 3864SOL    HW212492   2.314   0.695   5.001
 3865SOL     OW12493   4.793   1.021   0.280
 3865SOL    HW112494   4.703   1.048   0.245
 3865SOL    HW212495   4.843   1.102   0.310
 3866SOL     OW12496   3.383   1.978   6.985
 3866SOL    HW112497   3.452   1.969   6.914
 3866SOL    HW212498   3.422   2.026   0.039
 3867SOL     OW12499   1.284   4.635   3.199
 3867SOL    HW112500   1.295   4.560   3.264
 3867SOL    HW212501   1.327   4.611   3.113
 3868SOL     OW12502   3.789   0.567   6.551
 3868SOL    HW112503   3.763   0.477   6.586
 3868SOL    HW212504   3.775   0.570   6.452
 3869SOL     OW12505   6.827   3.767   3.797
 3869SOL    HW112506   6.780   3.855   3.805
 3869SOL    HW212507   6.919   3.782   3.763
 3870SOL     OW12508   6.605   0.070   3.120
 3870SOL    HW112509   6.518   0.022   3.114
 3870SOL    HW212510   6.675   0.009   3.158
 3871SOL     OW12511   3.070   6.153   3.598
 3871SOL    HW112512   2.993   6.191   3.547
 3871SOL    HW212513   3.043   6.065   3.637
 3872SOL     OW12514   3.273   3.113   4.032
 3872SOL    HW112515   3.230   3.121   4.122
 3872SOL    HW212516   3.369   3.088   4.043
 3873SOL     OW12517   5.056   3.713   0.555
 3873SOL    HW112518   5.039   3.809   0.580
 3873SOL    HW212519   5.147   3.687   0.587
 3874SOL     OW12520   4.341   0.011   0.451
 3874SOL    HW112521   4.339   0.100   0.495
 3874SOL    HW212522   4.247   7.006   0.433
 3875SOL     OW12523   1.841   3.173   4.262
 3875SOL    HW112524   1.904   3.148   4.189
 3875SOL    HW212525   1.873   3.256   4.307
 3876SOL     OW12526   3.741   6.214   0.242
 3876SOL    HW112527   3.756   6.231   0.145
 3876SOL    HW212528   3.767   6.120   0.264
 3877SOL     OW12529   6.750   2.155   0.618
 3877SOL    HW112530   6.701   2.241   0.601
 3877SOL    HW212531   6.843   2.176   0.648
 3878SOL     OW12532   4.824   0.086   4.475
 3878SOL    HW112533   4.882   0.132   4.407
 3878SOL    HW212534   4.814   7.014   4.450
 3879SOL     OW12535   5.681   5.037   0.114
 3879SOL    HW112536   5.659   5.023   0.210
 3879SOL    HW212537   5.601   5.071   0.066
 3880SOL     OW12538   5.083   3.763   4.684
 3880SOL    HW112539   5.158   3.700   4.662
 3880SOL    HW212540   5.010   3.713   4.731
 3881SOL     OW12541   1.254   3.203   0.911
 3881SOL    HW112542   1.342   3.252   0.908
 3881SOL    HW212543   1.245   3.156   0.999
 3882SOL     OW12544   1.640   1.116   0.142
 3882SOL    HW112545   1.544   1.143   0.140
 3882SOL    HW212546   1.695   1.192   0.176
 3883SOL     OW12547   4.663   0.608   2.725
 3883SOL    HW112548   4.697   0.684   2.781
 3883SOL    HW212549   4.681   0.628   2.628
 3884SOL     OW12550   0.779   6.288   2.937
 3884SOL    HW112551   0.692   6.291   2.988
 3884SOL    HW212552   0.852   6.258   2.999
 3885SOL     OW12553   5.849   6.594   3.131
 3885SOL    HW112554   5.896   6.595   3.219
 3885SOL    HW212555   5.751   6.576   3.145
 3886SOL     OW12556   4.612   5.707   5.783
 3886SOL    HW112557   4.636   5.799   5.751
 3886SOL    HW212558   4.558   5.660   5.713
 3887SOL     OW12559   0.754   6.674   0.502
 3887SOL    HW112560   0.834   6.729   0.478
 3887SOL    HW212561   0.758   6.587   0.453
 3888SOL     OW12562   5.803   6.198   4.471
 3888SOL    HW112563   5.741   6.137   4.519
 3888SOL    HW212564   5.841   6.151   4.391
 3889SOL     OW12565   6.342   2.438   6.572
 3889SOL    HW112566   6.305   2.398   6.656
 3889SOL    HW212567   6.267   2.457   6.509
 3890SOL     OW12568   5.421   4.403   4.193
 3890SOL    HW112569   5.358   4.451   4.254
 3890SOL    HW212570   5.490   4.355   4.247
 3891SOL     OW12571   4.868   3.861   3.569
 3891SOL    HW112572   4.830   3.888   3.657
 3891SOL    HW212573   4.883   3.762   3.568
 3892SOL     OW12574   0.488   2.887   1.372
 3892SOL    HW112575   0.406   2.834   1.390
 3892SOL    HW212576   0.464   2.984   1.362
 3893SOL     OW12577   4.324   3.516   1.373
 3893SOL    HW112578   4.400   3.572   1.339
 3893SOL    HW212579   4.237   3.554   1.341
 3894SOL     OW12580   5.350   0.663   6.710
 3894SOL    HW112581   5.444   0.634   6.727
 3894SOL    HW212582   5.334   0.752   6.753
 3895SOL     OW12583   2.047   0.221   4.992
 3895SOL    HW112584   2.125   0.178   5.038
 3895SOL    HW212585   2.055   0.320   4.999
 3896SOL     OW12586   0.667   0.962   6.588
 3896SOL    HW112587   0.606   0.884   6.604
 3896SOL    HW212588   0.635   1.041   6.641
 3897SOL     OW12589   4.211   5.665   2.373
 3897SOL    HW112590   4.156   5.739   2.335
 3897SOL    HW212591   4.303   5.669   2.334
 3898SOL     OW12592   3.688   2.626   7.022
 3898SOL    HW112593   3.636   2.648   0.080
 3898SOL    HW212594   3.673   2.530   6.998
 3899SOL     OW12595   4.701   6.870   6.090
 3899SOL    HW112596   4.647   6.786   6.084
 3899SOL    HW212597   4.744   6.887   6.001
 3900SOL     OW12598   5.564   2.884   3.750
 3900SOL    HW112599   5.580   2.791   3.718
 3900SOL    HW212600   5.575   2.948   3.674
 3901SOL     OW12601   3.516   0.825   6.423
 3901SOL    HW112602   3.556   0.783   6.341
 3901SOL    HW212603   3.580   0.816   6.500
 3902SOL     OW12604   5.898   3.329   1.871
 3902SOL    HW112605   5.989   3.318   1.910
 3902SOL    HW212606   5.900   3.303   1.774
 3903SOL     OW12607   3.667   6.522   0.271
 3903SOL    HW112608   3.710   6.432   0.281
 3903SOL    HW212609   3.589   6.515   0.209
 3904SOL     OW12610   1.558   0.586   6.773
 3904SOL    HW112611   1.485   0.531   6.814
 3904SOL    HW212612   1.640   0.530   6.761
 3905SOL     OW12613   6.819   6.650   5.921
 3905SOL    HW112614   6.870   6.732   5.896
 3905SOL    HW212615   6.795   6.653   6.018
 3906SOL     OW12616   5.734   6.904   5.757
 3906SOL    HW112617   5.800   6.979   5.756
 3906SOL    HW212618   5.766   6.832   5.819
 3907SOL     OW12619   6.281   1.099   4.026
 3907SOL    HW112620   6.338   1.030   4.071
 3907SOL    HW212621   6.195   1.109   4.076
 3908SOL     OW12622   0.799   2.728   6.874
 3908SOL    HW112623   0.828   2.676   6.794
 3908SOL    HW212624   0.841   2.818   6.872
 3909SOL     OW12625   5.560   5.965   4.463
 3909SOL    HW112626   5.604   5.881   4.429
 3909SOL    HW212627   5.530   5.950   4.557
 3910SOL     OW12628   3.479   3.975   2.668
 3910SOL    HW112629   3.574   3.981   2.636
 3910SOL    HW212630   3.425   3.924   2.601
 3911SOL     OW12631   5.853   1.471   5.445
 3911SOL    HW112632   5.826   1.532   5.371
 3911SOL    HW212633   5.865   1.523   5.530
 3912SOL     OW12634   5.760   0.751   4.740
 3912SOL    HW112635   5.709   0.834   4.718
 3912SOL    HW212636   5.733   0.678   4.677
 3913SOL     OW12637   2.387   6.896   6.477
 3913SOL    HW112638   2.433   6.968   6.528
 3913SOL    HW212639   2.289   6.913   6.476
 3914SOL     OW12640   2.742   0.876   1.467
 3914SOL    HW112641   2.818   0.880   1.532
 3914SOL    HW212642   2.656   0.888   1.517
 3915SOL     OW12643   5.304   6.278   1.050
 3915SOL    HW112644   5.259   6.189   1.040
 3915SOL    HW212645   5.328   6.292   1.146
 3916SOL     OW12646   1.225   6.956   3.638
 3916SOL    HW112647   1.187   7.021   3.573
 3916SOL    HW212648   1.158   6.885   3.659
 3917SOL     OW12649   0.402   6.233   6.688
 3917SOL    HW112650   0.457   6.316   6.679
 3917SOL    HW212651   0.322   6.253   6.745
 3918SOL     OW12652   5.474   5.702   1.372
 3918SOL    HW112653   5.399   5.640   1.348
 3918SOL    HW212654   5.522   5.667   1.452
 3919SOL     OW12655   4.766   6.733   0.041
 3919SOL    HW112656   4.699   6.802   0.013
 3919SOL    HW212657   4.735   6.689   0.126
 3920SOL     OW12658   2.790   3.575   0.692
 3920SOL    HW112659   2.766   3.663   0.649
 3920SOL    HW212660   2.864   3.533   0.641
 3921SOL     OW12661   0.064   3.488   0.962
 3921SOL    HW112662   0.140   3.531   0.913
 3921SOL    HW212663   0.043   3.542   1.045
 3922SOL     OW12664   6.969   4.173   1.821
 3922SOL    HW112665   0.011   4.240   1.853
 3922SOL    HW212666   7.014   4.104   1.765
 3923SOL     OW12667   6.602   1.005   0.334
 3923SOL    HW112668   6.677   0.946   0.363
 3923SOL    HW212669   6.552   1.037   0.414
 3924SOL     OW12670   5.303   5.243   3.805
 3924SOL    HW112671   5.351   5.156   3.791
 3924SOL    HW212672   5.369   5.318   3.801
 3925SOL     OW12673   1.825   4.894   1.537
 3925SOL    HW112674   1.752   4.886   1.468
 3925SOL    HW212675   1.789   4.937   1.619
 3926SOL     OW12676   5.344   4.746   2.504
 3926SOL    HW112677   5.321   4.784   2.594
 3926SOL    HW212678   5.423   4.686   2.513
 3927SOL     OW12679   6.622   2.808   5.243
 3927SOL    HW112680   6.544   2.777   5.188
 3927SOL    HW212681   6.702   2.753   5.222
 3928SOL     OW12682   3.659   5.816   6.806
 3928SOL    HW112683   3.568   5.777   6.789
 3928SOL    HW212684   3.699   5.846   6.719
 3929SOL     OW12685   0.259   0.345   4.579
 3929SOL    HW112686   0.267   0.409   4.502
 3929SOL    HW212687   0.240   0.397   4.663
 3930SOL     OW12688   2.967   2.034   4.485
 3930SOL    HW112689   2.986   2.056   4.389
 3930SOL    HW212690   3.053   2.011   4.531
 3931SOL     OW12691   1.390   1.919   1.417
 3931SOL    HW112692   1.404   2.002   1.471
 3931SOL    HW212693   1.437   1.842   1.460
 3932SOL     OW12694   1.248   4.489   3.471
 3932SOL    HW112695   1.329   4.430   3.481
 3932SOL    HW212696   1.167   4.440   3.503
 3933SOL     OW12697   1.934   6.603   6.687
 3933SOL    HW112698   1.943   6.699   6.713
 3933SOL    HW212699   2.014   6.552   6.719
 3934SOL     OW12700   6.578   0.561   6.943
 3934SOL    HW112701   6.552   0.473   6.982
 3934SOL    HW212702   6.496   0.614   6.922
 3935SOL     OW12703   3.416   6.785   6.939
 3935SOL    HW112704   3.400   6.721   7.014
 3935SOL    HW212705   3.409   6.737   6.852
 3936SOL     OW12706   6.530   5.074   5.478
 3936SOL    HW112707   6.498   5.092   5.571
 3936SOL    HW212708   6.551   4.977   5.469
 3937SOL     OW12709   0.334   1.559   2.914
 3937SOL    HW112710   0.408   1.553   2.846
 3937SOL    HW212711   0.314   1.467   2.949
 3938SOL     OW12712   0.465   2.147   2.974
 3938SOL    HW112713   0.534   2.100   2.918
 3938SOL    HW212714   0.498   2.153   3.068
 3939SOL     OW12715   1.946   3.025   3.409
 3939SOL    HW112716   1.962   2.928   3.428
 3939SOL    HW212717   1.858   3.053   3.447
 3940SOL     OW12718   4.952   4.341   1.215
 3940SOL    HW112719   4.954   4.423   1.273
 3940SOL    HW212720   4.894   4.271   1.258
 3941SOL     OW12721   5.657   3.162   5.115
 3941SOL    HW112722   5.637   3.070   5.150
 3941SOL    HW212723   5.755   3.179   5.118
 3942SOL     OW12724   0.403   6.576   6.758
 3942SOL    HW112725   0.309   6.598   6.735
 3942SOL    HW212726   0.448   6.533   6.680
 3943SOL     OW12727   6.988   2.724   3.482
 3943SOL    HW112728   0.051   2.677   3.474
 3943SOL    HW212729   6.951   2.740   3.390
 3944SOL     OW12730   4.830   2.878   4.596
 3944SOL    HW112731   4.874   2.832   4.519
 3944SOL    HW212732   4.744   2.832   4.617
 3945SOL     OW12733   0.322   1.978   6.915
 3945SOL    HW112734   0.399   2.038   6.936
 3945SOL    HW212735   0.260   2.025   6.852
 3946SOL     OW12736   5.542   4.160   4.844
 3946SOL    HW112737   5.537   4.094   4.769
 3946SOL    HW212738   5.637   4.176   4.869
 3947SOL     OW12739   5.319   6.293   0.037
 3947SOL    HW112740   5.320   6.340   6.974
 3947SOL    HW212741   5.265   6.346   0.102
 3948SOL     OW12742   0.238   4.878   2.930
 3948SOL    HW112743   0.202   4.798   2.883
 3948SOL    HW212744   0.245   4.954   2.865
 3949SOL     OW12745   5.431   6.553   3.407
 3949SOL    HW112746   5.387   6.641   3.427
 3949SOL    HW212747   5.512   6.542   3.465
 3950SOL     OW12748   1.836   4.672   0.472
 3950SOL    HW112749   1.875   4.741   0.532
 3950SOL    HW212750   1.858   4.694   0.377
 3951SOL     OW12751   4.526   0.640   1.401
 3951SOL    HW112752   4.545   0.542   1.400
 3951SOL    HW212753   4.453   0.659   1.466
 3952SOL     OW12754   6.761   2.348   1.933
 3952SOL    HW112755   6.842   2.382   1.884
 3952SOL    HW212756   6.763   2.248   1.934
 3953SOL     OW12757   3.953   4.437   1.463
 3953SOL    HW112758   3.955   4.337   1.468
 3953SOL    HW212759   3.996   4.468   1.379
 3954SOL     OW12760   4.237   4.962   5.542
 3954SOL    HW112761   4.226   4.865   5.564
 3954SOL    HW212762   4.150   4.999   5.511
 3955SOL     OW12763   3.179   0.470   5.985
 3955SOL    HW112764   3.158   0.393   6.045
 3955SOL    HW212765   3.263   0.451   5.934
 3956SOL     OW12766   1.587   1.056   2.320
 3956SOL    HW112767   1.686   1.054   2.329
 3956SOL    HW212768   1.545   1.077   2.408
 3957SOL     OW12769   4.492   6.878   4.289
 3957SOL    HW112770   4.418   6.832   4.340
 3957SOL    HW212771   4.579   6.862   4.337
 3958SOL     OW12772   5.399   1.555   4.199
 3958SOL    HW112773   5.347   1.639   4.214
 3958SOL    HW212774   5.478   1.575   4.141
 3959SOL     OW12775   4.850   6.297   0.346
 3959SOL    HW112776   4.867   6.303   0.445
 3959SOL    HW212777   4.866   6.204   0.315
 3960SOL     OW12778   5.073   1.005   6.463
 3960SOL    HW112779   5.103   0.911   6.480
 3960SOL    HW212780   5.126   1.067   6.520
 3961SOL     OW12781   4.745   1.160   2.666
 3961SOL    HW112782   4.686   1.124   2.738
 3961SOL    HW212783   4.713   1.251   2.639
 3962SOL     OW12784   2.392   5.167   6.292
 3962SOL    HW112785   2.334   5.248   6.307
 3962SOL    HW212786   2.336   5.091   6.260
 3963SOL     OW12787   4.629   5.396   2.227
 3963SOL    HW112788   4.709   5.405   2.286
 3963SOL    HW212789   4.570   5.322   2.262
 3964SOL     OW12790   4.509   4.842   3.483
 3964SOL    HW112791   4.585   4.886   3.530
 3964SOL    HW212792   4.511   4.744   3.501
 3965SOL     OW12793   4.866   3.251   4.339
 3965SOL    HW112794   4.897   3.218   4.428
 3965SOL    HW212795   4.813   3.179   4.294
 3966SOL     OW12796   4.033   6.263   6.191
 3966SOL    HW112797   4.132   6.256   6.179
 3966SOL    HW212798   3.988   6.186   6.147
 3967SOL     OW12799   2.154   3.968   1.938
 3967SOL    HW112800   2.111   4.019   1.863
 3967SOL    HW212801   2.104   3.883   1.954
 3968SOL     OW12802   4.123   0.836   0.908
 3968SOL    HW112803   4.083   0.891   0.981
 3968SOL    HW212804   4.221   0.852   0.904
 3969SOL     OW12805   1.417   5.158   2.418
 3969SOL    HW112806   1.459   5.128   2.504
 3969SOL    HW212807   1.481   5.141   2.343
 3970SOL     OW12808   5.041   5.829   3.321
 3970SOL    HW112809   5.111   5.894   3.294
 3970SOL    HW212810   5.045   5.749   3.261
 3971SOL     OW12811   2.923   5.207   4.175
 3971SOL    HW112812   3.020   5.227   4.185
 3971SOL    HW212813   2.883   5.188   4.265
 3972SOL     OW12814   1.671   3.866   0.309
 3972SOL    HW112815   1.675   3.966   0.316
 3972SOL    HW212816   1.579   3.838   0.284
 3973SOL     OW12817   1.241   5.706   0.227
 3973SOL    HW112818   1.165   5.769   0.207
 3973SOL    HW212819   1.222   5.657   0.312
 3974SOL     OW12820   2.063   6.916   6.022
 3974SOL    HW112821   2.148   6.968   6.021
 3974SOL    HW212822   2.082   6.820   6.004
 3975SOL     OW12823   5.031   1.473   5.967
 3975SOL    HW112824   5.110   1.420   5.936
 3975SOL    HW212825   5.061   1.544   6.031
 3976SOL     OW12826   1.798   6.113   3.084
 3976SOL    HW112827   1.860   6.190   3.100
 3976SOL    HW212828   1.830   6.061   3.005
 3977SOL     OW12829   1.905   2.664   6.372
 3977SOL    HW112830   1.936   2.705   6.458
 3977SOL    HW212831   1.855   2.732   6.319
 3978SOL     OW12832   5.486   5.271   3.437
 3978SOL    HW112833   5.545   5.200   3.476
 3978SOL    HW212834   5.525   5.305   3.352
 3979SOL     OW12835   4.028   0.631   6.426
 3979SOL    HW112836   3.956   0.625   6.495
 3979SOL    HW212837   4.116   0.607   6.467
 3980SOL     OW12838   5.815   0.032   6.507
 3980SOL    HW112839   5.833   0.089   6.588
 3980SOL    HW212840   5.735   0.067   6.459
 3981SOL     OW12841   4.092   6.246   0.225
 3981SOL    HW112842   4.098   6.183   0.302
 3981SOL    HW212843   4.091   6.194   0.139
 3982SOL     OW12844   2.127   6.208   3.366
 3982SOL    HW112845   2.092   6.285   3.418
 3982SOL    HW212846   2.125   6.126   3.423
 3983SOL     OW12847   4.869   5.049   3.757
 3983SOL    HW112848   4.922   5.024   3.838
 3983SOL    HW212849   4.930   5.075   3.683
 3984SOL     OW12850   6.764   0.919   1.625
 3984SOL    HW112851   6.683   0.978   1.632
 3984SOL    HW212852   6.846   0.973   1.645
 3985SOL     OW12853   2.807   5.240   6.984
 3985SOL    HW112854   2.744   5.198   6.919
 3985SOL    HW212855   2.759   5.310   0.011
 3986SOL     OW12856   5.161   1.803   2.567
 3986SOL    HW112857   5.236   1.759   2.617
 3986SOL    HW212858   5.157   1.900   2.592
 3987SOL     OW12859   3.411   5.092   4.005
 3987SOL    HW112860   3.484   5.056   4.062
 3987SOL    HW212861   3.413   5.046   3.916
 3988SOL     OW12862   3.377   5.193   6.936
 3988SOL    HW112863   3.348   5.265   6.873
 3988SOL    HW212864   3.320   5.196   7.018
 3989SOL     OW12865   6.874   2.355   6.543
 3989SOL    HW112866   6.955   2.325   6.492
 3989SOL    HW212867   6.869   2.455   6.543
 3990SOL     OW12868   4.652   2.709   2.459
 3990SOL    HW112869   4.614   2.730   2.369
 3990SOL    HW212870   4.738   2.757   2.471
 3991SOL     OW12871   0.033   1.634   1.594
 3991SOL    HW112872   7.016   1.592   1.513
 3991SOL    HW212873   0.041   1.733   1.580
 3992SOL     OW12874   3.136   1.611   0.488
 3992SOL    HW112875   3.068   1.677   0.520
 3992SOL    HW212876   3.177   1.643   0.403
 3993SOL     OW12877   1.421   2.913   2.663
 3993SOL    HW112878   1.348   2.938   2.599
 3993SOL    HW212879   1.440   2.991   2.723
 3994SOL     OW12880   2.779   0.379   6.159
 3994SOL    HW112881   2.801   0.294   6.207
 3994SOL    HW212882   2.760   0.451   6.226
 3995SOL     OW12883   2.464   4.068   6.289
 3995SOL    HW112884   2.493   3.977   6.259
 3995SOL    HW212885   2.388   4.099   6.232
 3996SOL     OW12886   0.189   6.782   4.946
 3996SOL    HW112887   0.175   6.790   5.045
 3996SOL    HW212888   0.275   6.825   4.921
 3997SOL     OW12889   5.878   2.138   3.332
 3997SOL    HW112890   5.805   2.187   3.283
 3997SOL    HW212891   5.958   2.131   3.273
 3998SOL     OW12892   3.419   1.050   4.291
 3998SOL    HW112893   3.393   0.953   4.294
 3998SOL    HW212894   3.348   1.105   4.334
 3999SOL     OW12895   5.817   1.766   3.919
 3999SOL    HW112896   5.833   1.805   3.828
 3999SOL    HW212897   5.887   1.697   3.938
 4000SOL     OW12898   2.957   6.461   4.049
 4000SOL    HW112899   2.946   6.497   3.956
 4000SOL    HW212900   3.000   6.530   4.107
 4001SOL     OW12901   2.663   1.714   4.235
 4001SOL    HW112902   2.712   1.775   4.298
 4001SOL    HW212903   2.591   1.766   4.188
 4002SOL     OW12904   3.361   3.490   1.551
 4002SOL    HW112905   3.317   3.580   1.559
 4002SOL    HW212906   3.460   3.502   1.545
 4003SOL     OW12907   3.109   0.247   4.120
 4003SOL    HW112908   3.079   0.250   4.025
 4003SOL    HW212909   3.114   0.152   4.151
 4004SOL     OW12910   6.063   2.075   4.430
 4004SOL    HW112911   6.119   2.052   4.350
 4004SOL    HW212912   5.974   2.108   4.399
 4005SOL     OW12913   4.723   5.186   5.922
 4005SOL    HW112914   4.639   5.194   5.976
 4005SOL    HW212915   4.740   5.090   5.901
 4006SOL     OW12916   3.954   5.011   1.685
 4006SOL    HW112917   3.895   4.984   1.760
 4006SOL    HW212918   3.999   5.098   1.707
 4007SOL     OW12919   0.203   2.998   0.102
 4007SOL    HW112920   0.188   3.080   0.046
 4007SOL    HW212921   0.161   3.010   0.191
 4008SOL     OW12922   2.523   2.323   4.906
 4008SOL    HW112923   2.621   2.310   4.922
 4008SOL    HW212924   2.502   2.421   4.906
 4009SOL     OW12925   4.238   3.081   1.627
 4009SOL    HW112926   4.222   3.154   1.561
 4009SOL    HW212927   4.150   3.048   1.663
 4010SOL     OW12928   2.614   3.084   1.389
 4010SOL    HW112929   2.583   3.001   1.343
 4010SOL    HW212930   2.639   3.063   1.483
 4011SOL     OW12931   1.079   1.767   2.100
 4011SOL    HW112932   1.116   1.860   2.099
 4011SOL    HW212933   1.012   1.757   2.026
 4012SOL     OW12934   6.613   4.270   2.510
 4012SOL    HW112935   6.617   4.286   2.609
 4012SOL    HW212936   6.669   4.191   2.487
 4013SOL     OW12937   3.806   2.117   4.825
 4013SOL    HW112938   3.788   2.213   4.801
 4013SOL    HW212939   3.905   2.104   4.832
 4014SOL     OW12940   6.125   6.624   2.380
 4014SOL    HW112941   6.044   6.565   2.381
 4014SOL    HW212942   6.157   6.636   2.286
 4015SOL     OW12943   4.978   4.139   6.288
 4015SOL    HW112944   4.945   4.158   6.196
 4015SOL    HW212945   5.078   4.142   6.289
 4016SOL     OW12946   2.607   6.042   6.236
 4016SOL    HW112947   2.546   5.962   6.235
 4016SOL    HW212948   2.691   6.019   6.284
 4017SOL     OW12949   6.583   5.690   0.341
 4017SOL    HW112950   6.507   5.755   0.337
 4017SOL    HW212951   6.661   5.733   0.386
 4018SOL     OW12952   4.607   6.252   2.255
 4018SOL    HW112953   4.624   6.202   2.341
 4018SOL    HW212954   4.559   6.337   2.275
 4019SOL     OW12955   4.891   4.361   2.908
 4019SOL    HW112956   4.819   4.341   2.841
 4019SOL    HW212957   4.971   4.304   2.889
 4020SOL     OW12958   4.674   2.777   4.948
 4020SOL    HW112959   4.614   2.760   5.027
 4020SOL    HW212960   4.625   2.756   4.864
 4021SOL     OW12961   3.661   5.302   6.474
 4021SOL    HW112962   3.657   5.293   6.574
 4021SOL    HW212963   3.708   5.223   6.436
 4022SOL     OW12964   4.839   1.888   0.226
 4022SOL    HW112965   4.776   1.966   0.233
 4022SOL    HW212966   4.929   1.915   0.260
 4023SOL     OW12967   6.570   2.272   4.985
 4023SOL    HW112968   6.651   2.281   5.043
 4023SOL    HW212969   6.555   2.176   4.962
 4024SOL     OW12970   4.096   5.504   4.373
 4024SOL    HW112971   4.036   5.431   4.405
 4024SOL    HW212972   4.061   5.542   4.288
 4025SOL     OW12973   0.468   3.880   3.405
 4025SOL    HW112974   0.426   3.895   3.315
 4025SOL    HW212975   0.534   3.953   3.423
 4026SOL     OW12976   4.901   6.989   3.988
 4026SOL    HW112977   4.900   6.920   3.916
 4026SOL    HW212978   4.977   0.027   3.972
 4027SOL     OW12979   3.767   4.578   1.595
 4027SOL    HW112980   3.836   4.517   1.556
 4027SOL    HW212981   3.697   4.598   1.526
 4028SOL     OW12982   1.922   1.987   3.815
 4028SOL    HW112983   1.861   1.921   3.770
 4028SOL    HW212984   1.986   1.938   3.874
 4029SOL     OW12985   1.915   4.125   5.422
 4029SOL    HW112986   1.975   4.191   5.466
 4029SOL    HW212987   1.866   4.169   5.347
 4030SOL     OW12988   0.811   2.002   5.168
 4030SOL    HW112989   0.876   1.957   5.107
 4030SOL    HW212990   0.788   1.941   5.244
 4031SOL     OW12991   4.126   5.976   4.217
 4031SOL    HW112992   4.107   6.001   4.312
 4031SOL    HW212993   4.218   5.937   4.211
 4032SOL     OW12994   5.149   0.065   3.657
 4032SOL    HW112995   5.115   0.096   3.746
 4032SOL    HW212996   5.237   0.020   3.668
 4033SOL     OW12997   3.008   3.189   4.534
 4033SOL    HW112998   2.967   3.212   4.622
 4033SOL    HW212999   3.105   3.167   4.546
 4034SOL     OW13000   6.976   1.716   3.657
 4034SOL    HW113001   6.900   1.683   3.713
 4034SOL    HW213002   6.940   1.776   3.586
 4035SOL     OW13003   0.746   4.124   0.050
 4035SOL    HW113004   0.765   4.168   0.138
 4035SOL    HW213005   0.735   4.195   7.005
 4036SOL     OW13006   6.217   6.557   2.847
 4036SOL    HW113007   6.221   6.654   2.868
 4036SOL    HW213008   6.128   6.536   2.805
 4037SOL     OW13009   1.080   3.317   6.834
 4037SOL    HW113010   0.986   3.291   6.855
 4037SOL    HW213011   1.143   3.257   6.883
 4038SOL     OW13012   4.922   4.916   2.784
 4038SOL    HW113013   4.829   4.947   2.804
 4038SOL    HW213014   4.919   4.836   2.724
 4039SOL     OW13015   5.082   6.430   0.126
 4039SOL    HW113016   5.003   6.375   0.154
 4039SOL    HW213017   5.093   6.506   0.190
 4040SOL     OW13018   3.195   6.593   1.364
 4040SOL    HW113019   3.216   6.527   1.292
 4040SOL    HW213020   3.279   6.636   1.395
 4041SOL     OW13021   1.128   6.365   3.732
 4041SOL    HW113022   1.104   6.377   3.636
 4041SOL    HW213023   1.090   6.279   3.766
 4042SOL     OW13024   5.721   5.156   1.759
 4042SOL    HW113025   5.632   5.153   1.712
 4042SOL    HW213026   5.778   5.227   1.718
 4043SOL     OW13027   5.879   2.278   1.534
 4043SOL    HW113028   5.943   2.247   1.604
 4043SOL    HW213029   5.840   2.199   1.487
 4044SOL     OW13030   5.798   6.917   3.302
 4044SOL    HW113031   5.835   6.995   3.352
 4044SOL    HW213032   5.733   6.950   3.232
 4045SOL     OW13033   2.167   5.977   6.550
 4045SOL    HW113034   2.243   6.013   6.495
 4045SOL    HW213035   2.081   5.989   6.500
 4046SOL     OW13036   0.893   3.122   1.443
 4046SOL    HW113037   0.868   3.058   1.516
 4046SOL    HW213038   0.840   3.101   1.361
 4047SOL     OW13039   2.755   3.701   1.732
 4047SOL    HW113040   2.671   3.756   1.739
 4047SOL    HW213041   2.834   3.761   1.742
 4048SOL     OW13042   4.794   0.451   0.928
 4048SOL    HW113043   4.848   0.371   0.955
 4048SOL    HW213044   4.853   0.517   0.882
 4049SOL     OW13045   4.929   6.724   4.943
 4049SOL    HW113046   4.961   6.806   4.990
 4049SOL    HW213047   4.990   6.647   4.964
 4050SOL     OW13048   1.939   6.989   0.710
 4050SOL    HW113049   1.850   6.969   0.668
 4050SOL    HW213050   2.012   6.957   0.649
 4051SOL     OW13051   3.535   3.931   1.645
 4051SOL    HW113052   3.475   3.975   1.712
 4051SOL    HW213053   3.523   3.976   1.556
 4052SOL     OW13054   0.428   0.702   0.213
 4052SOL    HW113055   0.473   0.698   0.124
 4052SOL    HW213056   0.485   0.752   0.278
 4053SOL     OW13057   3.961   4.912   3.817
 4053SOL    HW113058   3.997   4.998   3.780
 4053SOL    HW213059   3.937   4.925   3.913
 4054SOL     OW13060   3.674   2.510   0.962
 4054SOL    HW113061   3.609   2.524   0.887
 4054SOL    HW213062   3.732   2.431   0.941
 4055SOL     OW13063   3.843   1.553   5.863
 4055SOL    HW113064   3.779   1.628   5.876
 4055SOL    HW213065   3.913   1.556   5.934
 4056SOL     OW13066   3.403   3.730   0.396
 4056SOL    HW113067   3.361   3.821   0.398
 4056SOL    HW213068   3.478   3.727   0.461
 4057SOL     OW13069   4.759   2.922   7.002
 4057SOL    HW113070   4.810   2.862   6.940
 4057SOL    HW213071   4.670   2.881   7.022
 4058SOL     OW13072   1.928   0.825   5.864
 4058SOL    HW113073   2.009   0.778   5.901
 4058SOL    HW213074   1.947   0.855   5.770
 4059SOL     OW13075   0.845   1.597   4.652
 4059SOL    HW113076   0.943   1.578   4.638
 4059SOL    HW213077   0.800   1.515   4.687
 4060SOL     OW13078   4.014   5.090   4.423
 4060SOL    HW113079   4.025   5.130   4.332
 4060SOL    HW213080   3.922   5.052   4.432
 4061SOL     OW13081   3.250   3.052   1.691
 4061SOL    HW113082   3.175   3.088   1.636
 4061SOL    HW213083   3.336   3.095   1.663
 4062SOL     OW13084   2.722   0.730   3.305
 4062SOL    HW113085   2.748   0.730   3.402
 4062SOL    HW213086   2.771   0.658   3.257
 4063SOL     OW13087   2.928   5.102   6.529
 4063SOL    HW113088   3.014   5.109   6.478
 4063SOL    HW213089   2.851   5.114   6.466
 4064SOL     OW13090   6.613   1.212   3.488
 4064SOL    HW113091   6.583   1.299   3.526
 4064SOL    HW213092   6.671   1.165   3.554
 4065SOL     OW13093   6.423   6.184   0.529
 4065SOL    HW113094   6.431   6.086   0.508
 4065SOL    HW213095   6.434   6.237   0.446
 4066SOL     OW13096   6.353   4.121   1.532
 4066SOL    HW113097   6.349   4.177   1.615
 4066SOL    HW213098   6.340   4.025   1.558
 4067SOL     OW13099   6.167   1.260   2.107
 4067SOL    HW113100   6.221   1.268   2.191
 4067SOL    HW213101   6.076   1.299   2.122
 4068SOL     OW13102   6.242   0.420   3.528
 4068SOL    HW113103   6.311   0.477   3.482
 4068SOL    HW213104   6.169   0.478   3.564
 4069SOL     OW13105   5.807   5.157   0.956
 4069SOL    HW113106   5.888   5.099   0.952
 4069SOL    HW213107   5.814   5.218   1.035
 4070SOL     OW13108   1.478   3.614   2.732
 4070SOL    HW113109   1.402   3.639   2.792
 4070SOL    HW213110   1.538   3.550   2.779
 4071SOL     OW13111   1.126   6.979   4.038
 4071SOL    HW113112   1.098   6.913   4.107
 4071SOL    HW213113   1.180   6.933   3.967
 4072SOL     OW13114   1.495   0.210   4.673
 4072SOL    HW113115   1.547   0.153   4.738
 4072SOL    HW213116   1.469   0.296   4.717
 4073SOL     OW13117   2.301   6.057   0.020
 4073SOL    HW113118   2.224   6.119   0.032
 4073SOL    HW213119   2.279   5.968   0.060
 4074SOL     OW13120   1.590   3.872   0.767
 4074SOL    HW113121   1.632   3.887   0.857
 4074SOL    HW213122   1.658   3.833   0.705
 4075SOL     OW13123   4.892   1.447   3.509
 4075SOL    HW113124   4.977   1.473   3.463
 4075SOL    HW213125   4.909   1.438   3.608
 4076SOL     OW13126   1.842   3.522   4.287
 4076SOL    HW113127   1.804   3.531   4.195
 4076SOL    HW213128   1.780   3.565   4.352
 4077SOL     OW13129   3.682   1.151   0.575
 4077SOL    HW113130   3.771   1.107   0.566
 4077SOL    HW213131   3.662   1.203   0.492
 4078SOL     OW13132   6.292   3.868   1.622
 4078SOL    HW113133   6.220   3.815   1.669
 4078SOL    HW213134   6.368   3.884   1.685
 4079SOL     OW13135   0.598   0.806   3.893
 4079SOL    HW113136   0.633   0.851   3.976
 4079SOL    HW213137   0.505   0.837   3.874
 4080SOL     OW13138   2.912   3.067   1.474
 4080SOL    HW113139   2.989   3.039   1.416
 4080SOL    HW213140   2.858   3.137   1.426
 4081SOL     OW13141   2.354   2.274   5.817
 4081SOL    HW113142   2.440   2.274   5.765
 4081SOL    HW213143   2.367   2.325   5.902
 4082SOL     OW13144   1.081   2.694   4.331
 4082SOL    HW113145   1.106   2.790   4.316
 4082SOL    HW213146   1.144   2.653   4.397
 4083SOL     OW13147   5.786   5.217   2.804
 4083SOL    HW113148   5.797   5.249   2.710
 4083SOL    HW213149   5.735   5.131   2.805
 4084SOL     OW13150   5.040   0.605   3.764
 4084SOL    HW113151   5.046   0.613   3.665
 4084SOL    HW213152   4.945   0.584   3.790
 4085SOL     OW13153   3.492   5.053   2.906
 4085SOL    HW113154   3.448   4.992   2.840
 4085SOL    HW213155   3.438   5.055   2.990
 4086SOL     OW13156   5.668   5.571   5.971
 4086SOL    HW113157   5.620   5.483   5.977
 4086SOL    HW213158   5.765   5.555   5.952
 4087SOL     OW13159   2.940   6.885   2.617
 4087SOL    HW113160   2.867   6.888   2.684
 4087SOL    HW213161   3.027   6.864   2.662
 4088SOL     OW13162   0.775   1.660   5.409
 4088SOL    HW113163   0.777   1.652   5.309
 4088SOL    HW213164   0.756   1.754   5.435
 4089SOL     OW13165   0.407   0.218   3.943
 4089SOL    HW113166   0.417   0.314   3.918
 4089SOL    HW213167   0.312   0.200   3.968
 4090SOL     OW13168   3.118   1.236   6.422
 4090SOL    HW113169   3.148   1.307   6.357
 4090SOL    HW213170   3.080   1.159   6.371
 4091SOL     OW13171   2.387   5.878   2.128
 4091SOL    HW113172   2.296   5.864   2.090
 4091SOL    HW213173   2.454   5.885   2.053
 4092SOL     OW13174   5.635   3.032   3.995
 4092SOL    HW113175   5.727   3.028   4.034
 4092SOL    HW213176   5.629   2.966   3.919
 4093SOL     OW13177   3.890   5.174   2.892
 4093SOL    HW113178   3.850   5.083   2.889
 4093SOL    HW213179   3.905   5.200   2.988
 4094SOL     OW13180   6.587   5.389   6.502
 4094SOL    HW113181   6.598   5.437   6.589
 4094SOL    HW213182   6.533   5.306   6.517
 4095SOL     OW13183   0.762   4.691   6.989
 4095SOL    HW113184   0.749   4.720   0.059
 4095SOL    HW213185   0.718   4.758   6.929
 4096SOL     OW13186   1.612   1.001   6.841
 4096SOL    HW113187   1.619   1.065   6.764
 4096SOL    HW213188   1.576   1.048   6.921
 4097SOL     OW13189   0.002   4.734   5.344
 4097SOL    HW113190   7.024   4.652   5.287
 4097SOL    HW213191   0.004   4.815   5.286
 4098SOL     OW13192   2.586   4.626   3.436
 4098SOL    HW113193   2.569   4.658   3.529
 4098SOL    HW213194   2.546   4.535   3.424
 4099SOL     OW13195   4.212   4.712   5.638
 4099SOL    HW113196   4.285   4.699   5.706
 4099SOL    HW213197   4.123   4.707   5.684
 4100SOL     OW13198   1.507   6.637   3.902
 4100SOL    HW113199   1.499   6.618   3.804
 4100SOL    HW213200   1.603   6.654   3.924
 4101SOL     OW13201   6.161   6.484   0.321
 4101SOL    HW113202   6.128   6.481   0.227
 4101SOL    HW213203   6.173   6.580   0.349
 4102SOL     OW13204   1.245   1.029   0.307
 4102SOL    HW113205   1.328   0.976   0.324
 4102SOL    HW213206   1.183   1.020   0.386
 4103SOL     OW13207   1.256   6.589   2.742
 4103SOL    HW113208   1.284   6.683   2.724
 4103SOL    HW213209   1.292   6.560   2.831
 4104SOL     OW13210   1.237   5.912   4.468
 4104SOL    HW113211   1.216   5.988   4.529
 4104SOL    HW213212   1.273   5.948   4.381
 4105SOL     OW13213   4.684   1.320   1.171
 4105SOL    HW113214   4.615   1.379   1.128
 4105SOL    HW213215   4.728   1.264   1.101
 4106SOL     OW13216   0.512   2.114   3.239
 4106SOL    HW113217   0.440   2.061   3.285
 4106SOL    HW213218   0.574   2.152   3.307
 4107SOL     OW13219   0.739   6.333   6.659
 4107SOL    HW113220   0.743   6.410   6.722
 4107SOL    HW213221   0.749   6.365   6.565
 4108SOL     OW13222   6.541   5.609   4.379
 4108SOL    HW113223   6.531   5.689   4.438
 4108SOL    HW213224   6.451   5.566   4.365
 4109SOL     OW13225   6.717   6.807   2.856
 4109SOL    HW113226   6.746   6.801   2.952
 4109SOL    HW213227   6.617   6.801   2.852
 4110SOL     OW13228   4.614   3.816   0.626
 4110SOL    HW113229   4.692   3.812   0.689
 4110SOL    HW213230   4.602   3.727   0.583
 4111SOL     OW13231   6.566   3.893   4.103
 4111SOL    HW113232   6.594   3.798   4.095
 4111SOL    HW213233   6.489   3.901   4.166
 4112SOL     OW13234   4.737   6.371   5.192
 4112SOL    HW113235   4.836   6.357   5.190
 4112SOL    HW213236   4.710   6.425   5.112
 4113SOL     OW13237   4.410   4.934   4.822
 4113SOL    HW113238   4.344   4.998   4.861
 4113SOL    HW213239   4.387   4.917   4.726
 4114SOL     OW13240   0.061   2.004   2.151
 4114SOL    HW113241   0.061   1.904   2.161
 4114SOL    HW213242   7.022   2.030   2.079
 4115SOL     OW13243   3.771   5.948   3.994
 4115SOL    HW113244   3.759   5.850   4.009
 4115SOL    HW213245   3.684   5.988   3.965
 4116SOL     OW13246   5.734   2.939   3.515
 4116SOL    HW113247   5.773   3.016   3.465
 4116SOL    HW213248   5.698   2.872   3.450
 4117SOL     OW13249   1.373   2.394   2.923
 4117SOL    HW113250   1.351   2.305   2.883
 4117SOL    HW213251   1.425   2.380   3.007
 4118SOL     OW13252   0.297   5.716   6.091
 4118SOL    HW113253   0.285   5.810   6.059
 4118SOL    HW213254   0.248   5.654   6.029
 4119SOL     OW13255   1.423   1.060   3.673
 4119SOL    HW113256   1.458   1.109   3.593
 4119SOL    HW213257   1.343   1.006   3.646
 4120SOL     OW13258   1.606   1.198   6.621
 4120SOL    HW113259   1.537   1.173   6.554
 4120SOL    HW213260   1.563   1.244   6.699
 4121SOL     OW13261   6.429   6.579   1.732
 4121SOL    HW113262   6.334   6.555   1.711
 4121SOL    HW213263   6.450   6.668   1.692
 4122SOL     OW13264   6.460   4.520   3.333
 4122SOL    HW113265   6.543   4.533   3.279
 4122SOL    HW213266   6.470   4.441   3.393
 4123SOL     OW13267   4.308   5.331   1.831
 4123SOL    HW113268   4.333   5.361   1.739
 4123SOL    HW213269   4.338   5.399   1.897
 4124SOL     OW13270   6.405   5.886   0.345
 4124SOL    HW113271   6.446   5.921   0.261
 4124SOL    HW213272   6.307   5.874   0.331
 4125SOL     OW13273   5.728   1.554   1.772
 4125SOL    HW113274   5.659   1.562   1.700
 4125SOL    HW213275   5.813   1.520   1.732
 4126SOL     OW13276   1.464   3.099   2.117
 4126SOL    HW113277   1.433   3.115   2.210
 4126SOL    HW213278   1.404   3.147   2.053
 4127SOL     OW13279   3.884   1.417   3.854
 4127SOL    HW113280   3.793   1.406   3.894
 4127SOL    HW213281   3.929   1.496   3.895
 4128SOL     OW13282   0.525   2.726   0.368
 4128SOL    HW113283   0.602   2.722   0.431
 4128SOL    HW213284   0.526   2.813   0.319
 4129SOL     OW13285   2.026   2.302   1.099
 4129SOL    HW113286   2.122   2.279   1.089
 4129SOL    HW213287   2.004   2.380   1.041
 4130SOL     OW13288   5.846   2.703   0.894
 4130SOL    HW113289   5.882   2.650   0.971
 4130SOL    HW213290   5.876   2.798   0.903
 4131SOL     OW13291   4.686   0.328   2.768
 4131SOL    HW113292   4.725   0.420   2.762
 4131SOL    HW213293   4.633   0.309   2.685
 4132SOL     OW13294   6.897   4.612   3.808
 4132SOL    HW113295   6.912   4.708   3.832
 4132SOL    HW213296   6.810   4.603   3.759
 4133SOL     OW13297   5.737   0.158   2.662
 4133SOL    HW113298   5.676   0.185   2.737
 4133SOL    HW213299   5.788   0.077   2.688
 4134SOL     OW13300   1.813   3.317   1.224
 4134SOL    HW113301   1.776   3.311   1.131
 4134SOL    HW213302   1.899   3.367   1.222
 4135SOL     OW13303   0.202   1.512   2.603
 4135SOL    HW113304   0.168   1.489   2.694
 4135SOL    HW213305   0.278   1.576   2.611
 4136SOL     OW13306   1.381   4.668   2.156
 4136SOL    HW113307   1.335   4.736   2.099
 4136SOL    HW213308   1.478   4.691   2.164
 4137SOL     OW13309   1.673   2.319   0.133
 4137SOL    HW113310   1.628   2.384   0.194
 4137SOL    HW213311   1.691   2.363   0.045
 4138SOL     OW13312   4.852   6.729   0.732
 4138SOL    HW113313   4.885   6.666   0.802
 4138SOL    HW213314   4.838   6.819   0.772
 4139SOL     OW13315   2.112   3.254   2.879
 4139SOL    HW113316   2.132   3.160   2.851
 4139SOL    HW213317   2.184   3.286   2.940
 4140SOL     OW13318   2.653   2.191   5.617
 4140SOL    HW113319   2.698   2.142   5.691
 4140SOL    HW213320   2.639   2.286   5.644
 4141SOL     OW13321   4.491   7.021   6.428
 4141SOL    HW113322   4.500   0.059   6.506
 4141SOL    HW213323   4.516   0.044   6.344
 4142SOL     OW13324   6.759   4.566   3.218
 4142SOL    HW113325   6.852   4.554   3.184
 4142SOL    HW213326   6.762   4.602   3.311
 4143SOL     OW13327   5.469   3.236   0.395
 4143SOL    HW113328   5.524   3.198   0.469
 4143SOL    HW213329   5.416   3.164   0.351
 4144SOL     OW13330   6.013   1.669   0.709
 4144SOL    HW113331   6.110   1.650   0.696
 4144SOL    HW213332   5.977   1.717   0.629
 4145SOL     OW13333   0.171   6.792   1.695
 4145SOL    HW113334   0.149   6.875   1.747
 4145SOL    HW213335   0.153   6.712   1.752
 4146SOL     OW13336   4.619   6.224   3.363
 4146SOL    HW113337   4.685   6.274   3.307
 4146SOL    HW213338   4.662   6.142   3.400
 4147SOL     OW13339   5.041   4.398   5.632
 4147SOL    HW113340   5.019   4.314   5.582
 4147SOL    HW213341   5.140   4.413   5.629
 4148SOL     OW13342   2.527   1.356   6.071
 4148SOL    HW113343   2.433   1.364   6.104
 4148SOL    HW213344   2.564   1.266   6.095
 4149SOL     OW13345   2.177   2.607   6.625
 4149SOL    HW113346   2.097   2.667   6.624
 4149SOL    HW213347   2.176   2.551   6.708
 4150SOL     OW13348   6.083   2.145   5.762
 4150SOL    HW113349   6.058   2.145   5.666
 4150SOL    HW213350   6.016   2.093   5.815
 4151SOL     OW13351   2.214   6.419   4.184
 4151SOL    HW113352   2.217   6.354   4.259
 4151SOL    HW213353   2.279   6.493   4.202
 4152SOL     OW13354   2.588   5.259   1.438
 4152SOL    HW113355   2.644   5.290   1.361
 4152SOL    HW213356   2.607   5.162   1.456
 4153SOL     OW13357   6.798   4.919   1.513
 4153SOL    HW113358   6.817   4.874   1.600
 4153SOL    HW213359   6.883   4.957   1.476
 4154SOL     OW13360   0.876   6.133   3.757
 4154SOL    HW113361   0.792   6.166   3.801
 4154SOL    HW213362   0.855   6.102   3.664
 4155SOL     OW13363   0.654   1.674   1.139
 4155SOL    HW113364   0.604   1.719   1.065
 4155SOL    HW213365   0.749   1.660   1.113
 4156SOL     OW13366   6.937   5.628   5.324
 4156SOL    HW113367   6.912   5.575   5.405
 4156SOL    HW213368   6.992   5.571   5.263
 4157SOL     OW13369   6.883   6.149   1.714
 4157SOL    HW113370   6.944   6.167   1.637
 4157SOL    HW213371   6.813   6.084   1.687
 4158SOL     OW13372   1.445   2.833   2.332
 4158SOL    HW113373   1.428   2.765   2.403
 4158SOL    HW213374   1.506   2.795   2.262
 4159SOL     OW13375   3.220   1.635   3.384
 4159SOL    HW113376   3.305   1.587   3.408
 4159SOL    HW213377   3.150   1.617   3.453
 4160SOL     OW13378   6.586   6.514   6.877
 4160SOL    HW113379   6.600   6.562   6.790
 4160SOL    HW213380   6.593   6.416   6.862
 4161SOL     OW13381   3.433   2.549   1.392
 4161SOL    HW113382   3.420   2.526   1.488
 4161SOL    HW213383   3.490   2.479   1.349
 4162SOL     OW13384   5.378   5.725   1.990
 4162SOL    HW113385   5.301   5.691   2.044
 4162SOL    HW213386   5.369   5.693   1.896
 4163SOL     OW13387   3.910   6.466   1.020
 4163SOL    HW113388   3.943   6.485   0.928
 4163SOL    HW213389   3.892   6.553   1.068
 4164SOL     OW13390   6.638   0.434   4.689
 4164SOL    HW113391   6.579   0.506   4.724
 4164SOL    HW213392   6.644   0.360   4.757
 4165SOL     OW13393   4.546   0.999   5.118
 4165SOL    HW113394   4.512   1.016   5.025
 4165SOL    HW213395   4.560   0.900   5.131
 4166SOL     OW13396   6.024   0.991   1.834
 4166SOL    HW113397   5.927   1.013   1.837
 4166SOL    HW213398   6.044   0.940   1.750
 4167SOL     OW13399   3.943   5.368   4.931
 4167SOL    HW113400   3.850   5.378   4.896
 4167SOL    HW213401   3.940   5.338   5.026
 4168SOL     OW13402   5.047   4.113   6.578
 4168SOL    HW113403   4.964   4.130   6.631
 4168SOL    HW213404   5.023   4.102   6.482
 4169SOL     OW13405   4.908   3.547   4.800
 4169SOL    HW113406   4.853   3.531   4.718
 4169SOL    HW213407   4.850   3.536   4.881
 4170SOL     OW13408   6.714   3.615   4.287
 4170SOL    HW113409   6.754   3.545   4.346
 4170SOL    HW213410   6.734   3.593   4.191
 4171SOL     OW13411   0.269   3.252   1.023
 4171SOL    HW113412   0.228   3.316   0.958
 4171SOL    HW213413   0.321   3.183   0.974
 4172SOL     OW13414   2.865   4.717   0.640
 4172SOL    HW113415   2.773   4.736   0.608
 4172SOL    HW213416   2.862   4.688   0.736
 4173SOL     OW13417   4.928   2.866   4.878
 4173SOL    HW113418   4.844   2.825   4.915
 4173SOL    HW213419   4.921   2.871   4.778
 4174SOL     OW13420   4.283   0.426   4.839
 4174SOL    HW113421   4.231   0.384   4.913
 4174SOL    HW213422   4.220   0.475   4.778
 4175SOL     OW13423   1.501   4.514   6.780
 4175SOL    HW113424   1.545   4.587   6.727
 4175SOL    HW213425   1.492   4.544   6.875
 4176SOL     OW13426   5.305   7.003   6.220
 4176SOL    HW113427   5.399   7.020   6.250
 4176SOL    HW213428   5.290   6.904   6.213
 4177SOL     OW13429   4.712   4.240   3.490
 4177SOL    HW113430   4.751   4.330   3.468
 4177SOL    HW213431   4.697   4.189   3.406
 4178SOL     OW13432   4.066   5.309   2.422
 4178SOL    HW113433   4.137   5.318   2.491
 4178SOL    HW213434   4.015   5.224   2.438
 4179SOL     OW13435   5.212   3.084   4.598
 4179SOL    HW113436   5.115   3.105   4.587
 4179SOL    HW213437   5.267   3.145   4.541
 4180SOL     OW13438   5.168   3.877   0.233
 4180SOL    HW113439   5.216   3.790   0.229
 4180SOL    HW213440   5.101   3.882   0.159
 4181SOL     OW13441   4.817   0.439   5.411
 4181SOL    HW113442   4.741   0.383   5.380
 4181SOL    HW213443   4.784   0.508   5.475
 4182SOL     OW13444   6.624   6.606   4.104
 4182SOL    HW113445   6.653   6.591   4.198
 4182SOL    HW213446   6.590   6.520   4.065
 4183SOL     OW13447   3.511   1.771   1.478
 4183SOL    HW113448   3.485   1.803   1.387
 4183SOL    HW213449   3.461   1.822   1.548
 4184SOL     OW13450   3.071   5.340   3.524
 4184SOL    HW113451   3.091   5.360   3.429
 4184SOL    HW213452   3.144   5.376   3.583
 4185SOL     OW13453   6.761   3.741   2.630
 4185SOL    HW113454   6.702   3.732   2.711
 4185SOL    HW213455   6.739   3.669   2.565
 4186SOL     OW13456   1.686   6.271   0.387
 4186SOL    HW113457   1.678   6.354   0.442
 4186SOL    HW213458   1.681   6.294   0.290
 4187SOL     OW13459   1.500   3.547   0.210
 4187SOL    HW113460   1.473   3.475   0.274
 4187SOL    HW213461   1.599   3.552   0.204
 4188SOL     OW13462   4.770   0.084   6.714
 4188SOL    HW113463   4.859   0.049   6.742
 4188SOL    HW213464   4.767   0.091   6.614
 4189SOL     OW13465   5.064   5.226   2.728
 4189SOL    HW113466   4.964   5.215   2.729
 4189SOL    HW213467   5.098   5.228   2.822
 4190SOL     OW13468   0.165   6.657   0.974
 4190SOL    HW113469   0.124   6.674   0.885
 4190SOL    HW213470   0.185   6.559   0.984
 4191SOL     OW13471   4.436   4.473   5.970
 4191SOL    HW113472   4.440   4.464   6.069
 4191SOL    HW213473   4.514   4.426   5.929
 4192SOL     OW13474   0.979   2.772   1.781
 4192SOL    HW113475   0.956   2.816   1.694
 4192SOL    HW213476   1.014   2.680   1.763
 4193SOL     OW13477   6.467   0.629   0.679
 4193SOL    HW113478   6.370   0.623   0.703
 4193SOL    HW213479   6.490   0.556   0.614
 4194SOL     OW13480   4.583   0.727   5.146
 4194SOL    HW113481   4.679   0.726   5.174
 4194SOL    HW213482   4.560   0.640   5.101
 4195SOL     OW13483   4.568   5.513   1.457
 4195SOL    HW113484   4.615   5.429   1.433
 4195SOL    HW213485   4.568   5.524   1.556
 4196SOL     OW13486   6.942   1.959   2.967
 4196SOL    HW113487   6.913   2.047   3.004
 4196SOL    HW213488   7.023   1.972   2.910
 4197SOL     OW13489   3.555   6.589   6.281
 4197SOL    HW113490   3.567   6.583   6.182
 4197SOL    HW213491   3.573   6.499   6.322
 4198SOL     OW13492   6.582   0.735   2.170
 4198SOL    HW113493   6.619   0.752   2.078
 4198SOL    HW213494   6.521   0.656   2.167
 4199SOL     OW13495   1.169   3.908   5.989
 4199SOL    HW113496   1.173   3.939   5.894
 4199SOL    HW213497   1.145   3.984   6.049
 4200SOL     OW13498   4.779   0.899   4.491
 4200SOL    HW113499   4.715   0.852   4.553
 4200SOL    HW213500   4.854   0.837   4.468
 4201SOL     OW13501   5.602   0.037   3.184
 4201SOL    HW113502   5.506   0.016   3.170
 4201SOL    HW213503   5.611   0.129   3.222
 4202SOL     OW13504   4.282   5.125   0.442
 4202SOL    HW113505   4.233   5.041   0.422
 4202SOL    HW213506   4.378   5.104   0.462
 4203SOL     OW13507   6.069   5.485   6.911
 4203SOL    HW113508   6.010   5.538   6.972
 4203SOL    HW213509   6.155   5.465   6.957
 4204SOL     OW13510   3.076   3.476   5.929
 4204SOL    HW113511   3.137   3.532   5.873
 4204SOL    HW213512   3.090   3.380   5.908
 4205SOL     OW13513   3.420   5.694   5.269
 4205SOL    HW113514   3.412   5.785   5.227
 4205SOL    HW213515   3.375   5.627   5.210
 4206SOL     OW13516   1.687   2.094   4.775
 4206SOL    HW113517   1.623   2.171   4.783
 4206SOL    HW213518   1.686   2.060   4.681
 4207SOL     OW13519   1.434   2.849   1.968
 4207SOL    HW113520   1.336   2.870   1.962
 4207SOL    HW213521   1.482   2.925   2.012
 4208SOL     OW13522   2.017   3.530   5.193
 4208SOL    HW113523   1.989   3.549   5.287
 4208SOL    HW213524   2.069   3.608   5.157
 4209SOL     OW13525   0.048   6.128   2.686
 4209SOL    HW113526   0.079   6.033   2.695
 4209SOL    HW213527   0.118   6.181   2.639
 4210SOL     OW13528   4.160   3.646   4.803
 4210SOL    HW113529   4.242   3.608   4.760
 4210SOL    HW213530   4.109   3.573   4.849
 4211SOL     OW13531   3.890   2.318   5.296
 4211SOL    HW113532   3.911   2.297   5.391
 4211SOL    HW213533   3.916   2.412   5.276
 4212SOL     OW13534   0.279   1.553   3.213
 4212SOL    HW113535   0.193   1.561   3.263
 4212SOL    HW213536   0.283   1.624   3.143
 4213SOL     OW13537   3.250   0.427   2.965
 4213SOL    HW113538   3.223   0.439   3.061
 4213SOL    HW213539   3.342   0.463   2.951
 4214SOL     OW13540   0.640   4.798   4.298
 4214SOL    HW113541   0.661   4.746   4.215
 4214SOL    HW213542   0.724   4.836   4.336
 4215SOL     OW13543   4.868   5.921   5.234
 4215SOL    HW113544   4.873   5.956   5.140
 4215SOL    HW213545   4.844   5.995   5.296
 4216SOL     OW13546   2.286   6.826   2.580
 4216SOL    HW113547   2.289   6.884   2.661
 4216SOL    HW213548   2.194   6.828   2.542
 4217SOL     OW13549   1.492   0.362   2.070
 4217SOL    HW113550   1.515   0.399   2.160
 4217SOL    HW213551   1.475   0.437   2.006
 4218SOL     OW13552   3.036   1.200   1.744
 4218SOL    HW113553   2.985   1.286   1.755
 4218SOL    HW213554   2.972   1.124   1.740
 4219SOL     OW13555   3.775   6.445   4.110
 4219SOL    HW113556   3.833   6.482   4.037
 4219SOL    HW213557   3.830   6.435   4.193
 4220SOL     OW13558   4.593   2.001   1.539
 4220SOL    HW113559   4.628   1.942   1.467
 4220SOL    HW213560   4.503   1.969   1.568
 4221SOL     OW13561   6.815   5.485   6.098
 4221SOL    HW113562   6.826   5.556   6.168
 4221SOL    HW213563   6.762   5.409   6.135
 4222SOL     OW13564   4.872   2.004   3.486
 4222SOL    HW113565   4.901   2.058   3.407
 4222SOL    HW213566   4.811   1.930   3.455
 4223SOL     OW13567   4.175   3.927   1.750
 4223SOL    HW113568   4.179   3.852   1.816
 4223SOL    HW213569   4.239   3.999   1.777
 4224SOL     OW13570   5.048   3.869   4.430
 4224SOL    HW113571   4.988   3.815   4.372
 4224SOL    HW213572   5.064   3.821   4.516
 4225SOL     OW13573   0.734   2.780   4.716
 4225SOL    HW113574   0.665   2.762   4.785
 4225SOL    HW213575   0.695   2.837   4.643
 4226SOL     OW13576   1.202   5.454   4.856
 4226SOL    HW113577   1.210   5.354   4.856
 4226SOL    HW213578   1.280   5.493   4.807
 4227SOL     OW13579   5.383   5.307   1.649
 4227SOL    HW113580   5.310   5.306   1.717
 4227SOL    HW213581   5.368   5.233   1.583
 4228SOL     OW13582   0.899   5.863   4.452
 4228SOL    HW113583   0.951   5.807   4.518
 4228SOL    HW213584   0.941   5.954   4.446
 4229SOL     OW13585   5.952   4.860   5.726
 4229SOL    HW113586   5.892   4.915   5.667
 4229SOL    HW213587   5.949   4.765   5.697
 4230SOL     OW13588   1.298   0.698   2.442
 4230SOL    HW113589   1.290   0.787   2.486
 4230SOL    HW213590   1.347   0.707   2.355
 4231SOL     OW13591   5.383   1.318   4.930
 4231SOL    HW113592   5.386   1.362   5.020
 4231SOL    HW213593   5.340   1.228   4.939
 4232SOL     OW13594   2.124   5.128   4.156
 4232SOL    HW113595   2.083   5.218   4.172
 4232SOL    HW213596   2.219   5.138   4.128
 4233SOL     OW13597   5.760   6.263   3.859
 4233SOL    HW113598   5.730   6.348   3.816
 4233SOL    HW213599   5.768   6.191   3.790
 4234SOL     OW13600   1.913   5.607   5.991
 4234SOL    HW113601   1.914   5.563   6.080
 4234SOL    HW213602   1.820   5.635   5.968
 4235SOL     OW13603   6.988   4.707   6.225
 4235SOL    HW113604   6.991   4.633   6.293
 4235SOL    HW213605   6.955   4.791   6.268
 4236SOL     OW13606   0.248   5.093   1.726
 4236SOL    HW113607   0.246   5.061   1.821
 4236SOL    HW213608   0.253   5.015   1.665
 4237SOL     OW13609   6.879   4.052   3.523
 4237SOL    HW113610   6.944   4.121   3.492
 4237SOL    HW213611   6.787   4.077   3.493
 4238SOL     OW13612   1.997   1.058   3.054
 4238SOL    HW113613   1.898   1.055   3.068
 4238SOL    HW213614   2.031   1.150   3.069
 4239SOL     OW13615   3.895   1.098   2.978
 4239SOL    HW113616   3.806   1.110   3.021
 4239SOL    HW213617   3.949   1.032   3.030
 4240SOL     OW13618   0.721   5.197   1.026
 4240SOL    HW113619   0.796   5.133   1.039
 4240SOL    HW213620   0.753   5.277   0.977
 4241SOL     OW13621   6.786   1.642   6.875
 4241SOL    HW113622   6.693   1.624   6.843
 4241SOL    HW213623   6.827   1.556   6.906
 4242SOL     OW13624   2.154   2.254   4.549
 4242SOL    HW113625   2.088   2.247   4.624
 4242SOL    HW213626   2.221   2.325   4.571
 4243SOL     OW13627   5.238   0.869   3.108
 4243SOL    HW113628   5.269   0.854   3.013
 4243SOL    HW213629   5.189   0.788   3.140
 4244SOL     OW13630   3.744   3.684   2.639
 4244SOL    HW113631   3.757   3.748   2.714
 4244SOL    HW213632   3.774   3.727   2.553
 4245SOL     OW13633   6.773   2.612   5.535
 4245SOL    HW113634   6.853   2.563   5.569
 4245SOL    HW213635   6.784   2.630   5.437
 4246SOL     OW13636   0.035   3.884   2.734
 4246SOL    HW113637   0.044   3.982   2.717
 4246SOL    HW213638   0.079   3.834   2.659
 4247SOL     OW13639   6.883   6.291   5.177
 4247SOL    HW113640   6.831   6.333   5.102
 4247SOL    HW213641   6.945   6.222   5.140
 4248SOL     OW13642   1.353   2.376   5.795
 4248SOL    HW113643   1.328   2.449   5.731
 4248SOL    HW213644   1.378   2.294   5.744
 4249SOL     OW13645   6.108   3.109   5.546
 4249SOL    HW113646   6.150   3.052   5.476
 4249SOL    HW213647   6.085   3.053   5.626
 4250SOL     OW13648   6.396   5.115   3.801
 4250SOL    HW113649   6.296   5.108   3.812
 4250SOL    HW213650   6.439   5.032   3.837
 4251SOL     OW13651   6.011   3.909   0.463
 4251SOL    HW113652   5.980   3.890   0.556
 4251SOL    HW213653   5.971   3.842   0.400
 4252SOL     OW13654   6.768   5.924   5.029
 4252SOL    HW113655   6.707   6.003   5.028
 4252SOL    HW213656   6.796   5.902   4.935
 4253SOL     OW13657   4.706   1.076   1.684
 4253SOL    HW113658   4.684   1.003   1.749
 4253SOL    HW213659   4.621   1.111   1.644
 4254SOL     OW13660   1.475   3.427   1.357
 4254SOL    HW113661   1.402   3.473   1.308
 4254SOL    HW213662   1.438   3.350   1.408
 4255SOL     OW13663   6.047   2.630   4.442
 4255SOL    HW113664   6.123   2.567   4.459
 4255SOL    HW213665   6.008   2.658   4.530
 4256SOL     OW13666   1.760   6.768   1.049
 4256SOL    HW113667   1.801   6.776   1.140
 4256SOL    HW213668   1.685   6.702   1.053
 4257SOL     OW13669   3.758   1.812   5.056
 4257SOL    HW113670   3.679   1.873   5.057
 4257SOL    HW213671   3.838   1.861   5.022
 4258SOL     OW13672   6.048   6.440   1.817
 4258SOL    HW113673   6.123   6.379   1.840
 4258SOL    HW213674   6.070   6.490   1.734
 4259SOL     OW13675   2.624   1.543   6.918
 4259SOL    HW113676   2.569   1.495   6.986
 4259SOL    HW213677   2.634   1.639   6.944
 4260SOL     OW13678   4.031   5.771   3.678
 4260SOL    HW113679   3.948   5.811   3.638
 4260SOL    HW213680   4.040   5.803   3.773
 4261SOL     OW13681   2.214   6.361   2.086
 4261SOL    HW113682   2.273   6.397   2.157
 4261SOL    HW213683   2.123   6.342   2.123
 4262SOL     OW13684   2.128   5.184   6.538
 4262SOL    HW113685   2.144   5.087   6.517
 4262SOL    HW213686   2.204   5.219   6.593
 4263SOL     OW13687   2.283   5.652   5.201
 4263SOL    HW113688   2.317   5.565   5.167
 4263SOL    HW213689   2.346   5.725   5.175
 4264SOL     OW13690   0.262   1.698   0.120
 4264SOL    HW113691   0.238   1.661   0.030
 4264SOL    HW213692   0.361   1.690   0.134
 4265SOL     OW13693   6.727   2.051   0.135
 4265SOL    HW113694   6.800   1.983   0.132
 4265SOL    HW213695   6.744   2.122   0.067
 4266SOL     OW13696   2.483   5.554   0.515
 4266SOL    HW113697   2.530   5.498   0.447
 4266SOL    HW213698   2.511   5.526   0.607
 4267SOL     OW13699   2.166   3.782   5.101
 4267SOL    HW113700   2.228   3.834   5.042
 4267SOL    HW213701   2.135   3.840   5.176
 4268SOL     OW13702   1.918   0.397   0.297
 4268SOL    HW113703   1.916   0.441   0.387
 4268SOL    HW213704   1.865   0.312   0.300
 4269SOL     OW13705   3.013   3.144   0.275
 4269SOL    HW113706   3.040   3.101   0.361
 4269SOL    HW213707   3.030   3.081   0.199
 4270SOL     OW13708   3.835   2.944   4.881
 4270SOL    HW113709   3.863   2.849   4.896
 4270SOL    HW213710   3.738   2.954   4.900
 4271SOL     OW13711   0.388   6.589   5.493
 4271SOL    HW113712   0.481   6.554   5.503
 4271SOL    HW213713   0.359   6.580   5.397
 4272SOL     OW13714   6.592   4.815   5.461
 4272SOL    HW113715   6.644   4.739   5.502
 4272SOL    HW213716   6.550   4.785   5.376
 4273SOL     OW13717   4.806   6.697   5.233
 4273SOL    HW113718   4.865   6.632   5.279
 4273SOL    HW213719   4.816   6.687   5.134
 4274SOL     OW13720   1.520   6.989   3.532
 4274SOL    HW113721   1.488   6.897   3.508
 4274SOL    HW213722   1.454   0.006   3.595
 4275SOL     OW13723   0.005   0.878   5.382
 4275SOL    HW113724   6.989   0.874   5.291
 4275SOL    HW213725   6.994   0.957   5.431
 4276SOL     OW13726   2.495   4.852   2.964
 4276SOL    HW113727   2.401   4.821   2.950
 4276SOL    HW213728   2.519   4.844   3.061
 4277SOL     OW13729   6.486   5.526   3.729
 4277SOL    HW113730   6.472   5.476   3.814
 4277SOL    HW213731   6.548   5.603   3.745
 4278SOL     OW13732   6.568   6.155   4.898
 4278SOL    HW113733   6.542   6.251   4.888
 4278SOL    HW213734   6.562   6.128   4.994
 4279SOL     OW13735   3.172   6.483   5.580
 4279SOL    HW113736   3.126   6.430   5.508
 4279SOL    HW213737   3.111   6.491   5.659
 4280SOL     OW13738   6.574   1.825   5.280
 4280SOL    HW113739   6.646   1.773   5.326
 4280SOL    HW213740   6.509   1.762   5.236
 4281SOL     OW13741   1.745   4.995   5.298
 4281SOL    HW113742   1.718   4.909   5.255
 4281SOL    HW213743   1.845   4.999   5.304
 4282SOL     OW13744   2.584   2.545   0.775
 4282SOL    HW113745   2.569   2.605   0.855
 4282SOL    HW213746   2.680   2.519   0.771
 4283SOL     OW13747   1.954   6.982   3.894
 4283SOL    HW113748   1.927   6.906   3.836
 4283SOL    HW213749   1.887   6.995   3.967
 4284SOL     OW13750   5.613   0.963   2.402
 4284SOL    HW113751   5.556   1.020   2.461
 4284SOL    HW213752   5.555   0.901   2.349
 4285SOL     OW13753   0.393   6.799   5.672
 4285SOL    HW113754   0.391   6.759   5.580
 4285SOL    HW213755   0.404   6.727   5.740
 4286SOL     OW13756   4.524   5.756   0.044
 4286SOL    HW113757   4.596   5.825   0.054
 4286SOL    HW213758   4.556   5.683   7.009
 4287SOL     OW13759   5.492   6.922   5.002
 4287SOL    HW113760   5.575   6.871   4.981
 4287SOL    HW213761   5.511   7.020   4.999
 4288SOL     OW13762   0.732   6.725   3.904
 4288SOL    HW113763   0.776   6.812   3.924
 4288SOL    HW213764   0.635   6.741   3.885
 4289SOL     OW13765   5.310   2.344   1.525
 4289SOL    HW113766   5.236   2.351   1.458
 4289SOL    HW213767   5.314   2.252   1.562
 4290SOL     OW13768   2.047   0.057   1.929
 4290SOL    HW113769   2.118   0.012   1.984
 4290SOL    HW213770   2.001   0.126   1.985
 4291SOL     OW13771   5.478   3.072   0.650
 4291SOL    HW113772   5.393   3.119   0.675
 4291SOL    HW213773   5.525   3.043   0.733
 4292SOL     OW13774   6.236   3.968   5.916
 4292SOL    HW113775   6.274   3.888   5.962
 4292SOL    HW213776   6.291   4.048   5.938
 4293SOL     OW13777   6.807   3.792   6.525
 4293SOL    HW113778   6.827   3.694   6.525
 4293SOL    HW213779   6.732   3.811   6.461
 4294SOL     OW13780   3.907   2.535   6.179
 4294SOL    HW113781   3.941   2.591   6.104
 4294SOL    HW213782   3.968   2.545   6.258
 4295SOL     OW13783   3.315   0.262   4.797
 4295SOL    HW113784   3.320   0.171   4.754
 4295SOL    HW213785   3.225   0.274   4.839
 4296SOL     OW13786   2.670   1.660   0.826
 4296SOL    HW113787   2.671   1.586   0.759
 4296SOL    HW213788   2.607   1.638   0.900
 4297SOL     OW13789   4.943   6.750   4.646
 4297SOL    HW113790   4.872   6.820   4.659
 4297SOL    HW213791   4.982   6.725   4.735
 4298SOL     OW13792   1.713   5.914   1.241
 4298SOL    HW113793   1.779   5.951   1.175
 4298SOL    HW213794   1.650   5.852   1.193
 4299SOL     OW13795   0.966   3.186   5.909
 4299SOL    HW113796   0.990   3.171   6.005
 4299SOL    HW213797   0.868   3.171   5.897
 4300SOL     OW13798   3.108   1.085   6.853
 4300SOL    HW113799   3.122   1.089   6.754
 4300SOL    HW213800   3.086   1.177   6.887
 4301SOL     OW13801   1.934   1.579   0.148
 4301SOL    HW113802   1.898   1.545   0.235
 4301SOL    HW213803   2.012   1.639   0.165
 4302SOL     OW13804   1.202   5.985   6.769
 4302SOL    HW113805   1.230   5.961   6.676
 4302SOL    HW213806   1.105   5.961   6.781
 4303SOL     OW13807   6.557   4.174   3.111
 4303SOL    HW113808   6.527   4.254   3.059
 4303SOL    HW213809   6.491   4.155   3.184
 4304SOL     OW13810   3.443   3.575   4.079
 4304SOL    HW113811   3.480   3.483   4.092
 4304SOL    HW213812   3.344   3.574   4.094
 4305SOL     OW13813   6.485   1.076   3.041
 4305SOL    HW113814   6.423   1.058   3.118
 4305SOL    HW213815   6.519   1.169   3.046
 4306SOL     OW13816   0.288   4.127   5.980
 4306SOL    HW113817   0.248   4.035   5.974
 4306SOL    HW213818   0.225   4.194   5.942
 4307SOL     OW13819   4.597   4.350   5.786
 4307SOL    HW113820   4.508   4.337   5.743
 4307SOL    HW213821   4.642   4.431   5.748
 4308SOL     OW13822   5.087   5.861   5.394
 4308SOL    HW113823   5.015   5.865   5.325
 4308SOL    HW213824   5.112   5.954   5.422
 4309SOL     OW13825   1.606   0.688   0.616
 4309SOL    HW113826   1.622   0.778   0.657
 4309SOL    HW213827   1.530   0.695   0.551
 4310SOL     OW13828   1.719   2.625   3.566
 4310SOL    HW113829   1.746   2.705   3.619
 4310SOL    HW213830   1.717   2.545   3.626
 4311SOL     OW13831   1.145   6.100   3.784
 4311SOL    HW113832   1.046   6.100   3.765
 4311SOL    HW213833   1.160   6.108   3.883
 4312SOL     OW13834   1.750   5.999   1.740
 4312SOL    HW113835   1.686   5.973   1.668
 4312SOL    HW213836   1.720   5.959   1.827
 4313SOL     OW13837   5.833   0.797   1.164
 4313SOL    HW113838   5.823   0.893   1.190
 4313SOL    HW213839   5.743   0.755   1.154
 4314SOL     OW13840   4.875   2.888   2.919
 4314SOL    HW113841   4.820   2.965   2.888
 4314SOL    HW213842   4.834   2.802   2.888
 4315SOL     OW13843   2.562   0.222   2.103
 4315SOL    HW113844   2.639   0.244   2.163
 4315SOL    HW213845   2.500   0.158   2.150
 4316SOL     OW13846   4.831   6.999   1.257
 4316SOL    HW113847   4.759   0.043   1.252
 4316SOL    HW213848   4.791   6.911   1.283
 4317SOL     OW13849   3.880   1.523   5.136
 4317SOL    HW113850   3.923   1.596   5.083
 4317SOL    HW213851   3.927   1.513   5.224
 4318SOL     OW13852   1.404   4.228   3.782
 4318SOL    HW113853   1.416   4.162   3.707
 4318SOL    HW213854   1.493   4.248   3.823
 4319SOL     OW13855   2.516   3.269   6.706
 4319SOL    HW113856   2.465   3.213   6.772
 4319SOL    HW213857   2.452   3.314   6.643
 4320SOL     OW13858   1.522   6.503   2.531
 4320SOL    HW113859   1.585   6.482   2.456
 4320SOL    HW213860   1.441   6.550   2.494
 4321SOL     OW13861   6.129   0.838   4.834
 4321SOL    HW113862   6.047   0.787   4.861
 4321SOL    HW213863   6.140   0.831   4.734
 4322SOL     OW13864   0.036   1.026   6.540
 4322SOL    HW113865   0.033   0.953   6.471
 4322SOL    HW213866   0.122   1.075   6.533
 4323SOL     OW13867   5.711   2.740   2.228
 4323SOL    HW113868   5.727   2.716   2.324
 4323SOL    HW213869   5.799   2.753   2.182
 4324SOL     OW13870   5.680   3.773   6.682
 4324SOL    HW113871   5.743   3.756   6.607
 4324SOL    HW213872   5.721   3.745   6.769
 4325SOL     OW13873   2.380   0.604   0.183
 4325SOL    HW113874   2.329   0.525   0.148
 4325SOL    HW213875   2.465   0.615   0.131
 4326SOL     OW13876   6.732   3.555   5.194
 4326SOL    HW113877   6.774   3.639   5.230
 4326SOL    HW213878   6.636   3.574   5.170
 4327SOL     OW13879   5.203   5.561   2.490
 4327SOL    HW113880   5.139   5.624   2.535
 4327SOL    HW213881   5.280   5.613   2.453
 4328SOL     OW13882   4.612   4.728   6.125
 4328SOL    HW113883   4.523   4.764   6.151
 4328SOL    HW213884   4.638   4.763   6.035
 4329SOL     OW13885   3.419   1.849   5.619
 4329SOL    HW113886   3.425   1.936   5.571
 4329SOL    HW213887   3.375   1.862   5.708
 4330SOL     OW13888   2.681   0.565   5.857
 4330SOL    HW113889   2.772   0.601   5.877
 4330SOL    HW213890   2.685   0.465   5.856
 4331SOL     OW13891   5.545   3.477   0.309
 4331SOL    HW113892   5.472   3.538   0.280
 4331SOL    HW213893   5.507   3.388   0.332
 4332SOL     OW13894   5.198   3.613   2.210
 4332SOL    HW113895   5.259   3.592   2.287
 4332SOL    HW213896   5.162   3.528   2.172
 4333SOL     OW13897   5.638   1.534   4.912
 4333SOL    HW113898   5.603   1.501   5.000
 4333SOL    HW213899   5.736   1.518   4.906
 4334SOL     OW13900   3.137   2.040   2.020
 4334SOL    HW113901   3.114   2.086   1.934
 4334SOL    HW213902   3.133   2.106   2.095
 4335SOL     OW13903   2.903   3.560   4.174
 4335SOL    HW113904   2.911   3.479   4.232
 4335SOL    HW213905   2.897   3.642   4.232
 4336SOL     OW13906   1.757   6.020   5.444
 4336SOL    HW113907   1.665   5.991   5.417
 4336SOL    HW213908   1.795   5.955   5.510
 4337SOL     OW13909   0.579   5.133   0.062
 4337SOL    HW113910   0.638   5.181   0.127
 4337SOL    HW213911   0.483   5.148   0.088
 4338SOL     OW13912   6.242   5.910   4.832
 4338SOL    HW113913   6.148   5.931   4.858
 4338SOL    HW213914   6.279   5.985   4.779
 4339SOL     OW13915   6.577   2.508   4.857
 4339SOL    HW113916   6.542   2.572   4.926
 4339SOL    HW213917   6.573   2.415   4.894
 4340SOL     OW13918   6.510   3.311   2.264
 4340SOL    HW113919   6.424   3.361   2.276
 4340SOL    HW213920   6.586   3.377   2.259
 4341SOL     OW13921   1.458   3.752   1.837
 4341SOL    HW113922   1.477   3.655   1.827
 4341SOL    HW213923   1.380   3.765   1.898
 4342SOL     OW13924   0.529   2.982   3.434
 4342SOL    HW113925   0.435   3.014   3.445
 4342SOL    HW213926   0.550   2.973   3.336
 4343SOL     OW13927   3.549   0.990   0.247
 4343SOL    HW113928   3.477   1.060   0.247
 4343SOL    HW213929   3.637   1.034   0.266
 4344SOL     OW13930   1.978   4.928   3.373
 4344SOL    HW113931   2.023   5.015   3.354
 4344SOL    HW213932   1.895   4.920   3.318
 4345SOL     OW13933   1.817   3.015   5.427
 4345SOL    HW113934   1.889   2.957   5.389
 4345SOL    HW213935   1.750   3.037   5.356
 4346SOL     OW13936   2.503   3.072   1.699
 4346SOL    HW113937   2.457   3.142   1.645
 4346SOL    HW213938   2.599   3.097   1.711
 4347SOL     OW13939   6.649   0.158   1.747
 4347SOL    HW113940   6.661   0.239   1.805
 4347SOL    HW213941   6.725   0.095   1.762
 4348SOL     OW13942   0.892   3.636   1.737
 4348SOL    HW113943   0.874   3.566   1.667
 4348SOL    HW213944   0.963   3.698   1.705
 4349SOL     OW13945   0.536   1.514   3.561
 4349SOL    HW113946   0.483   1.431   3.543
 4349SOL    HW213947   0.625   1.507   3.514
 4350SOL     OW13948   5.200   2.469   4.683
 4350SOL    HW113949   5.235   2.379   4.711
 4350SOL    HW213950   5.212   2.480   4.584
 4351SOL     OW13951   2.637   6.100   2.269
 4351SOL    HW113952   2.573   6.120   2.342
 4351SOL    HW213953   2.641   6.002   2.253
 4352SOL     OW13954   0.612   1.989   2.000
 4352SOL    HW113955   0.603   1.892   2.024
 4352SOL    HW213956   0.525   2.036   2.019
 4353SOL     OW13957   2.128   5.888   0.635
 4353SOL    HW113958   2.109   5.915   0.730
 4353SOL    HW213959   2.153   5.791   0.632
 4354SOL     OW13960   1.957   0.138   7.023
 4354SOL    HW113961   2.045   0.131   6.975
 4354SOL    HW213962   1.884   0.155   6.958
 4355SOL     OW13963   4.323   1.020   1.397
 4355SOL    HW113964   4.353   1.114   1.417
 4355SOL    HW213965   4.381   0.981   1.326
 4356SOL     OW13966   4.826   3.991   1.520
 4356SOL    HW113967   4.816   3.894   1.544
 4356SOL    HW213968   4.911   4.026   1.558
 4357SOL     OW13969   6.274   0.924   0.044
 4357SOL    HW113970   6.230   0.894   0.129
 4357SOL    HW213971   6.230   1.007   0.011
 4358SOL     OW13972   0.127   5.816   1.398
 4358SOL    HW113973   0.132   5.893   1.463
 4358SOL    HW213974   0.200   5.825   1.331
 4359SOL     OW13975   1.128   2.444   4.517
 4359SOL    HW113976   1.042   2.456   4.467
 4359SOL    HW213977   1.112   2.387   4.598
 4360SOL     OW13978   0.480   3.958   1.974
 4360SOL    HW113979   0.468   3.891   1.902
 4360SOL    HW213980   0.503   3.912   2.060
 4361SOL     OW13981   4.545   2.422   1.880
 4361SOL    HW113982   4.573   2.440   1.974
 4361SOL    HW213983   4.608   2.468   1.817
 4362SOL     OW13984   6.358   3.548   5.673
 4362SOL    HW113985   6.427   3.583   5.736
 4362SOL    HW213986   6.268   3.585   5.698
 4363SOL     OW13987   5.322   2.336   5.369
 4363SOL    HW113988   5.320   2.298   5.461
 4363SOL    HW213989   5.317   2.262   5.302
 4364SOL     OW13990   3.161   4.129   5.027
 4364SOL    HW113991   3.111   4.202   5.074
 4364SOL    HW213992   3.254   4.124   5.062
 4365SOL     OW13993   4.036   2.179   2.397
 4365SOL    HW113994   4.035   2.140   2.489
 4365SOL    HW213995   4.129   2.207   2.374
 4366SOL     OW13996   6.332   6.950   1.558
 4366SOL    HW113997   6.401   6.928   1.627
 4366SOL    HW213998   6.244   6.914   1.587
 4367SOL     OW13999   0.848   5.548   5.853
 4367SOL    HW114000   0.761   5.598   5.856
 4367SOL    HW214001   0.887   5.556   5.761
 4368SOL     OW14002   5.090   4.718   1.565
 4368SOL    HW114003   5.019   4.780   1.597
 4368SOL    HW214004   5.166   4.771   1.526
 4369SOL     OW14005   4.480   4.491   2.243
 4369SOL    HW114006   4.520   4.421   2.185
 4369SOL    HW214007   4.515   4.581   2.216
 4370SOL     OW14008   5.638   4.372   3.549
 4370SOL    HW114009   5.651   4.402   3.454
 4370SOL    HW214010   5.579   4.437   3.597
 4371SOL     OW14011   6.425   0.533   1.580
 4371SOL    HW114012   6.429   0.602   1.653
 4371SOL    HW214013   6.352   0.557   1.516
 4372SOL     OW14014   4.611   1.160   3.241
 4372SOL    HW114015   4.625   1.226   3.315
 4372SOL    HW214016   4.550   1.199   3.173
 4373SOL     OW14017   6.888   2.642   6.633
 4373SOL    HW114018   6.860   2.688   6.718
 4373SOL    HW214019   6.950   2.702   6.582
 4374SOL     OW14020   1.359   2.127   2.224
 4374SOL    HW114021   1.360   2.030   2.246
 4374SOL    HW214022   1.313   2.178   2.296
 4375SOL     OW14023   2.439   6.573   4.209
 4375SOL    HW114024   2.494   6.494   4.235
 4375SOL    HW214025   2.469   6.653   4.262
 4376SOL     OW14026   6.768   0.156   2.571
 4376SOL    HW114027   6.764   0.215   2.491
 4376SOL    HW214028   6.717   0.072   2.553
 4377SOL     OW14029   5.818   3.683   6.910
 4377SOL    HW114030   5.916   3.701   6.902
 4377SOL    HW214031   5.803   3.586   6.930
 4378SOL     OW14032   2.233   0.495   3.735
 4378SOL    HW114033   2.179   0.578   3.720
 4378SOL    HW214034   2.188   0.418   3.689
 4379SOL     OW14035   2.715   1.338   5.210
 4379SOL    HW114036   2.731   1.268   5.141
 4379SOL    HW214037   2.622   1.373   5.201
 4380SOL     OW14038   1.320   1.269   1.373
 4380SOL    HW114039   1.281   1.334   1.438
 4380SOL    HW214040   1.394   1.218   1.418
 4381SOL     OW14041   0.676   5.469   5.445
 4381SOL    HW114042   0.643   5.499   5.534
 4381SOL    HW214043   0.757   5.411   5.457
 4382SOL     OW14044   0.014   3.341   5.157
 4382SOL    HW114045   0.106   3.325   5.121
 4382SOL    HW214046   7.003   3.256   5.193
 4383SOL     OW14047   5.466   2.701   5.873
 4383SOL    HW114048   5.387   2.747   5.913
 4383SOL    HW214049   5.468   2.718   5.775
 4384SOL     OW14050   0.157   0.035   3.359
 4384SOL    HW114051   0.188   6.968   3.381
 4384SOL    HW214052   0.080   0.060   3.418
 4385SOL     OW14053   5.184   1.846   4.824
 4385SOL    HW114054   5.171   1.791   4.906
 4385SOL    HW214055   5.120   1.816   4.753
 4386SOL     OW14056   1.461   4.130   6.034
 4386SOL    HW114057   1.485   4.089   5.946
 4386SOL    HW214058   1.430   4.224   6.019
 4387SOL     OW14059   6.713   2.907   0.863
 4387SOL    HW114060   6.794   2.966   0.867
 4387SOL    HW214061   6.668   2.906   0.953
 4388SOL     OW14062   5.113   2.003   6.067
 4388SOL    HW114063   5.150   2.095   6.080
 4388SOL    HW214064   5.050   1.982   6.143
 4389SOL     OW14065   0.132   3.771   1.896
 4389SOL    HW114066   0.185   3.727   1.969
 4389SOL    HW214067   0.065   3.834   1.936
 4390SOL     OW14068   5.544   0.101   0.671
 4390SOL    HW114069   5.538   0.158   0.753
 4390SOL    HW214070   5.467   0.037   0.669
 4391SOL     OW14071   1.951   5.587   6.279
 4391SOL    HW114072   1.877   5.649   6.307
 4391SOL    HW214073   1.954   5.509   6.341
 4392SOL     OW14074   1.450   1.519   4.284
 4392SOL    HW114075   1.533   1.566   4.257
 4392SOL    HW214076   1.407   1.477   4.204
 4393SOL     OW14077   5.971   0.022   1.451
 4393SOL    HW114078   5.960   6.968   1.512
 4393SOL    HW214079   6.019   7.017   1.368
 4394SOL     OW14080   1.372   0.231   1.443
 4394SOL    HW114081   1.437   0.219   1.518
 4394SOL    HW214082   1.422   0.254   1.359
 4395SOL     OW14083   2.349   6.741   2.097
 4395SOL    HW114084   2.414   6.728   2.023
 4395SOL    HW214085   2.388   6.800   2.167
 4396SOL     OW14086   1.483   0.892   3.269
 4396SOL    HW114087   1.414   0.944   3.219
 4396SOL    HW214088   1.541   0.843   3.204
 4397SOL     OW14089   2.619   2.418   3.906
 4397SOL    HW114090   2.621   2.461   3.816
 4397SOL    HW214091   2.553   2.465   3.964
 4398SOL     OW14092   2.158   3.916   6.427
 4398SOL    HW114093   2.241   3.945   6.475
 4398SOL    HW214094   2.182   3.851   6.355
 4399SOL     OW14095   2.214   6.543   2.497
 4399SOL    HW114096   2.167   6.631   2.494
 4399SOL    HW214097   2.147   6.469   2.502
 4400SOL     OW14098   1.969   6.562   4.159
 4400SOL    HW114099   2.053   6.509   4.168
 4400SOL    HW214100   1.921   6.564   4.246
 4401SOL     OW14101   3.480   6.347   5.364
 4401SOL    HW114102   3.551   6.304   5.308
 4401SOL    HW214103   3.453   6.285   5.438
 4402SOL     OW14104   1.533   0.917   2.879
 4402SOL    HW114105   1.522   1.011   2.912
 4402SOL    HW214106   1.447   0.885   2.840
 4403SOL     OW14107   0.895   4.996   1.524
 4403SOL    HW114108   0.859   5.028   1.612
 4403SOL    HW214109   0.937   5.072   1.476
 4404SOL     OW14110   1.222   6.067   6.142
 4404SOL    HW114111   1.314   6.034   6.120
 4404SOL    HW214112   1.229   6.142   6.208
 4405SOL     OW14113   2.729   4.878   3.529
 4405SOL    HW114114   2.720   4.781   3.510
 4405SOL    HW214115   2.791   4.891   3.607
 4406SOL     OW14116   6.113   3.518   2.234
 4406SOL    HW114117   6.170   3.586   2.280
 4406SOL    HW214118   6.068   3.560   2.155
 4407SOL     OW14119   6.949   6.281   1.973
 4407SOL    HW114120   6.910   6.243   1.889
 4407SOL    HW214121   6.948   6.381   1.968
 4408SOL     OW14122   4.141   7.006   0.081
 4408SOL    HW114123   4.047   6.993   0.049
 4408SOL    HW214124   4.162   6.936   0.150
 4409SOL     OW14125   3.841   0.759   2.671
 4409SOL    HW114126   3.828   0.671   2.626
 4409SOL    HW214127   3.931   0.796   2.647
 4410SOL     OW14128   0.386   5.760   1.052
 4410SOL    HW114129   0.303   5.809   1.075
 4410SOL    HW214130   0.430   5.803   0.973
 4411SOL     OW14131   3.450   4.513   5.873
 4411SOL    HW114132   3.439   4.518   5.773
 4411SOL    HW214133   3.391   4.441   5.910
 4412SOL     OW14134   4.154   6.638   3.527
 4412SOL    HW114135   4.151   6.541   3.506
 4412SOL    HW214136   4.218   6.684   3.466
 4413SOL     OW14137   3.320   0.115   4.439
 4413SOL    HW114138   3.292   0.210   4.429
 4413SOL    HW214139   3.412   0.103   4.400
 4414SOL     OW14140   5.136   5.051   1.761
 4414SOL    HW114141   5.170   4.982   1.824
 4414SOL    HW214142   5.036   5.051   1.762
 4415SOL     OW14143   3.377   4.040   1.876
 4415SOL    HW114144   3.462   4.082   1.907
 4415SOL    HW214145   3.378   3.942   1.895
 4416SOL     OW14146   3.997   1.655   4.432
 4416SOL    HW114147   3.955   1.634   4.344
 4416SOL    HW214148   4.035   1.747   4.430
 4417SOL     OW14149   0.272   3.718   3.780
 4417SOL    HW114150   0.201   3.731   3.849
 4417SOL    HW214151   0.361   3.740   3.818
 4418SOL     OW14152   6.381   0.558   1.079
 4418SOL    HW114153   6.323   0.501   1.137
 4418SOL    HW214154   6.472   0.517   1.071
 4419SOL     OW14155   6.449   5.717   5.655
 4419SOL    HW114156   6.383   5.790   5.671
 4419SOL    HW214157   6.477   5.678   5.743
 4420SOL     OW14158   3.751   2.113   1.117
 4420SOL    HW114159   3.684   2.157   1.057
 4420SOL    HW214160   3.741   2.148   1.210
 4421SOL     OW14161   1.276   3.037   4.433
 4421SOL    HW114162   1.280   3.037   4.333
 4421SOL    HW214163   1.207   3.103   4.464
 4422SOL     OW14164   0.194   4.844   0.085
 4422SOL    HW114165   0.119   4.876   0.026
 4422SOL    HW214166   0.191   4.893   0.172
 4423SOL     OW14167   5.859   4.292   5.885
 4423SOL    HW114168   5.861   4.312   5.983
 4423SOL    HW214169   5.931   4.226   5.863
 4424SOL     OW14170   4.733   6.162   4.241
 4424SOL    HW114171   4.707   6.174   4.145
 4424SOL    HW214172   4.670   6.098   4.284
 4425SOL     OW14173   1.677   5.477   1.507
 4425SOL    HW114174   1.734   5.427   1.442
 4425SOL    HW214175   1.589   5.429   1.518
 4426SOL     OW14176   0.801   0.132   4.356
 4426SOL    HW114177   0.829   0.036   4.359
 4426SOL    HW214178   0.764   0.154   4.266
 4427SOL     OW14179   3.372   6.410   3.051
 4427SOL    HW114180   3.454   6.454   3.015
 4427SOL    HW214181   3.386   6.386   3.147
 4428SOL     OW14182   5.945   0.887   4.143
 4428SOL    HW114183   6.013   0.829   4.188
 4428SOL    HW214184   5.860   0.886   4.196
 4429SOL     OW14185   2.620   6.113   3.443
 4429SOL    HW114186   2.641   6.124   3.540
 4429SOL    HW214187   2.704   6.121   3.390
 4430SOL     OW14188   4.900   4.782   4.324
 4430SOL    HW114189   4.873   4.686   4.326
 4430SOL    HW214190   4.929   4.811   4.415
 4431SOL     OW14191   3.551   0.650   3.803
 4431SOL    HW114192   3.558   0.718   3.876
 4431SOL    HW214193   3.478   0.585   3.825
 4432SOL     OW14194   1.545   3.412   6.440
 4432SOL    HW114195   1.577   3.496   6.397
 4432SOL    HW214196   1.468   3.433   6.500
 4433SOL     OW14197   1.103   1.231   4.770
 4433SOL    HW114198   1.091   1.214   4.868
 4433SOL    HW214199   1.164   1.162   4.731
 4434SOL     OW14200   6.685   1.548   1.378
 4434SOL    HW114201   6.785   1.550   1.373
 4434SOL    HW214202   6.657   1.480   1.446
 4435SOL     OW14203   2.750   3.549   0.244
 4435SOL    HW114204   2.726   3.501   0.160
 4435SOL    HW214205   2.699   3.509   0.320
 4436SOL     OW14206   4.581   1.722   1.275
 4436SOL    HW114207   4.605   1.672   1.192
 4436SOL    HW214208   4.646   1.700   1.347
 4437SOL     OW14209   6.890   3.823   2.335
 4437SOL    HW114210   6.970   3.776   2.373
 4437SOL    HW214211   6.811   3.806   2.394
 4438SOL     OW14212   4.487   6.708   5.764
 4438SOL    HW114213   4.506   6.728   5.668
 4438SOL    HW214214   4.470   6.793   5.813
 4439SOL     OW14215   2.197   6.987   3.113
 4439SOL    HW114216   2.166   0.056   3.123
 4439SOL    HW214217   2.290   6.985   3.078
 4440SOL     OW14218   2.054   5.147   1.001
 4440SOL    HW114219   1.971   5.093   1.013
 4440SOL    HW214220   2.029   5.239   0.971
 4441SOL     OW14221   0.905   1.486   0.056
 4441SOL    HW114222   0.940   1.557   0.117
 4441SOL    HW214223   0.813   1.459   0.085
 4442SOL     OW14224   1.779   4.640   6.293
 4442SOL    HW114225   1.869   4.629   6.334
 4442SOL    HW214226   1.726   4.556   6.305
 4443SOL     OW14227   0.621   5.118   6.809
 4443SOL    HW114228   0.586   5.095   6.900
 4443SOL    HW214229   0.571   5.196   6.772
 4444SOL     OW14230   5.011   3.981   0.666
 4444SOL    HW114231   5.067   4.021   0.739
 4444SOL    HW214232   4.918   3.966   0.701
 4445SOL     OW14233   0.295   5.850   6.741
 4445SOL    HW114234   0.223   5.782   6.745
 4445SOL    HW214235   0.284   5.916   6.815
 4446SOL     OW14236   5.154   1.138   0.848
 4446SOL    HW114237   5.189   1.181   0.764
 4446SOL    HW214238   5.172   1.198   0.926
 4447SOL     OW14239   5.672   4.754   5.133
 4447SOL    HW114240   5.683   4.820   5.059
 4447SOL    HW214241   5.578   4.757   5.167
 4448SOL     OW14242   2.674   6.527   2.078
 4448SOL    HW114243   2.650   6.526   2.175
 4448SOL    HW214244   2.773   6.526   2.069
 4449SOL     OW14245   3.649   0.783   6.666
 4449SOL    HW114246   3.678   0.853   6.731
 4449SOL    HW214247   3.714   0.706   6.669
 4450SOL     OW14248   3.475   0.521   0.219
 4450SOL    HW114249   3.378   0.515   0.239
 4450SOL    HW214250   3.527   0.487   0.298
 4451SOL     OW14251   4.787   4.781   3.631
 4451SOL    HW114252   4.727   4.703   3.646
 4451SOL    HW214253   4.800   4.831   3.717
 4452SOL     OW14254   5.162   6.470   4.021
 4452SOL    HW114255   5.077   6.424   3.996
 4452SOL    HW214256   5.141   6.558   4.063
 4453SOL     OW14257   0.137   3.411   1.369
 4453SOL    HW114258   0.109   3.417   1.273
 4453SOL    HW214259   0.076   3.348   1.418
 4454SOL     OW14260   1.223   2.184   0.150
 4454SOL    HW114261   1.138   2.176   0.098
 4454SOL    HW214262   1.300   2.195   0.087
 4455SOL     OW14263   6.500   5.843   4.530
 4455SOL    HW114264   6.529   5.868   4.623
 4455SOL    HW214265   6.407   5.874   4.515
 4456SOL     OW14266   1.848   6.664   3.693
 4456SOL    HW114267   1.899   6.630   3.772
 4456SOL    HW214268   1.912   6.687   3.620
 4457SOL     OW14269   1.456   1.830   4.758
 4457SOL    HW114270   1.513   1.897   4.805
 4457SOL    HW214271   1.370   1.819   4.807
 4458SOL     OW14272   2.059   4.014   1.689
 4458SOL    HW114273   2.017   3.925   1.674
 4458SOL    HW214274   1.993   4.086   1.668
 4459SOL     OW14275   1.688   2.673   4.324
 4459SOL    HW114276   1.692   2.772   4.337
 4459SOL    HW214277   1.776   2.632   4.348
 4460SOL     OW14278   0.140   3.634   4.055
 4460SOL    HW114279   0.154   3.699   4.128
 4460SOL    HW214280   0.062   3.574   4.078
 4461SOL     OW14281   2.803   1.274   1.526
 4461SOL    HW114282   2.838   1.182   1.543
 4461SOL    HW214283   2.867   1.324   1.469
 4462SOL     OW14284   6.371   4.068   2.029
 4462SOL    HW114285   6.282   4.092   2.067
 4462SOL    HW214286   6.433   4.146   2.037
 4463SOL     OW14287   6.012   1.745   1.520
 4463SOL    HW114288   6.074   1.801   1.466
 4463SOL    HW214289   6.028   1.762   1.617
 4464SOL     OW14290   0.373   5.572   0.321
 4464SOL    HW114291   0.433   5.527   0.254
 4464SOL    HW214292   0.281   5.533   0.315
 4465SOL     OW14293   2.552   5.820   0.486
 4465SOL    HW114294   2.510   5.730   0.478
 4465SOL    HW214295   2.511   5.870   0.561
 4466SOL     OW14296   1.732   2.180   3.895
 4466SOL    HW114297   1.770   2.094   3.860
 4466SOL    HW214298   1.802   2.229   3.946
 4467SOL     OW14299   3.516   5.709   2.992
 4467SOL    HW114300   3.558   5.619   3.006
 4467SOL    HW214301   3.477   5.714   2.900
 4468SOL     OW14302   1.268   3.212   1.962
 4468SOL    HW114303   1.194   3.242   1.901
 4468SOL    HW214304   1.232   3.201   2.055
 4469SOL     OW14305   2.592   0.119   1.630
 4469SOL    HW114306   2.527   0.155   1.696
 4469SOL    HW214307   2.629   0.193   1.575
 4470SOL     OW14308   1.524   0.476   2.310
 4470SOL    HW114309   1.461   0.419   2.362
 4470SOL    HW214310   1.581   0.530   2.373
 4471SOL     OW14311   2.077   1.854   6.172
 4471SOL    HW114312   1.993   1.849   6.119
 4471SOL    HW214313   2.092   1.767   6.218
 4472SOL     OW14314   1.520   3.019   0.944
 4472SOL    HW114315   1.548   2.975   0.859
 4472SOL    HW214316   1.522   3.119   0.932
 4473SOL     OW14317   0.283   3.193   4.115
 4473SOL    HW114318   0.335   3.200   4.200
 4473SOL    HW214319   0.290   3.278   4.064
 4474SOL     OW14320   3.522   0.630   1.857
 4474SOL    HW114321   3.513   0.674   1.768
 4474SOL    HW214322   3.557   0.696   1.923
 4475SOL     OW14323   0.882   4.047   1.841
 4475SOL    HW114324   0.882   4.017   1.746
 4475SOL    HW214325   0.975   4.070   1.869
 4476SOL     OW14326   5.617   1.447   3.807
 4476SOL    HW114327   5.650   1.454   3.713
 4476SOL    HW214328   5.537   1.505   3.819
 4477SOL     OW14329   2.770   0.177   5.644
 4477SOL    HW114330   2.763   0.232   5.728
 4477SOL    HW214331   2.804   0.234   5.569
 4478SOL     OW14332   1.692   0.230   0.272
 4478SOL    HW114333   1.660   0.136   0.259
 4478SOL    HW214334   1.626   0.294   0.234
 4479SOL     OW14335   0.953   2.686   0.380
 4479SOL    HW114336   0.982   2.648   0.468
 4479SOL    HW214337   0.879   2.751   0.394
 4480SOL     OW14338   6.667   5.765   4.177
 4480SOL    HW114339   6.624   5.756   4.087
 4480SOL    HW214340   6.618   5.710   4.244
 4481SOL     OW14341   2.914   4.953   6.217
 4481SOL    HW114342   2.920   4.853   6.217
 4481SOL    HW214343   2.857   4.983   6.293
 4482SOL     OW14344   3.002   5.383   6.570
 4482SOL    HW114345   3.016   5.384   6.669
 4482SOL    HW214346   2.962   5.295   6.543
 4483SOL     OW14347   6.990   2.396   1.801
 4483SOL    HW114348   6.961   2.465   1.734
 4483SOL    HW214349   0.063   2.379   1.790
 4484SOL     OW14350   2.424   3.043   6.554
 4484SOL    HW114351   2.475   2.956   6.548
 4484SOL    HW214352   2.489   3.119   6.557
 4485SOL     OW14353   5.339   2.382   4.474
 4485SOL    HW114354   5.425   2.377   4.525
 4485SOL    HW214355   5.317   2.292   4.437
 4486SOL     OW14356   5.068   4.937   5.123
 4486SOL    HW114357   4.993   4.970   5.066
 4486SOL    HW214358   5.058   4.973   5.216
 4487SOL     OW14359   1.699   2.443   6.935
 4487SOL    HW114360   1.673   2.538   6.947
 4487SOL    HW214361   1.768   2.435   6.863
 4488SOL     OW14362   0.317   4.560   4.260
 4488SOL    HW114363   0.336   4.583   4.356
 4488SOL    HW214364   0.353   4.469   4.240
 4489SOL     OW14365   4.642   5.406   5.493
 4489SOL    HW114366   4.603   5.319   5.464
 4489SOL    HW214367   4.654   5.465   5.414
 4490SOL     OW14368   5.292   1.844   1.148
 4490SOL    HW114369   5.363   1.908   1.119
 4490SOL    HW214370   5.204   1.873   1.110
 4491SOL     OW14371   1.407   2.992   3.385
 4491SOL    HW114372   1.387   2.964   3.291
 4491SOL    HW214373   1.447   2.916   3.435
 4492SOL     OW14374   5.908   0.347   1.845
 4492SOL    HW114375   5.963   0.364   1.764
 4492SOL    HW214376   5.811   0.350   1.821
 4493SOL     OW14377   5.123   0.673   5.191
 4493SOL    HW114378   5.145   0.606   5.120
 4493SOL    HW214379   5.195   0.673   5.260
 4494SOL     OW14380   0.048   0.343   6.885
 4494SOL    HW114381   6.989   0.342   6.938
 4494SOL    HW214382   0.042   0.274   6.812
 4495SOL     OW14383   3.828   5.961   2.094
 4495SOL    HW114384   3.737   5.921   2.078
 4495SOL    HW214385   3.855   6.015   2.014
 4496SOL     OW14386   3.879   6.047   5.941
 4496SOL    HW114387   3.895   6.003   5.852
 4496SOL    HW214388   3.806   5.999   5.989
 4497SOL     OW14389   4.058   1.687   6.295
 4497SOL    HW114390   3.991   1.697   6.368
 4497SOL    HW214391   4.150   1.686   6.335
 4498SOL     OW14392   0.393   5.182   5.860
 4498SOL    HW114393   0.437   5.266   5.893
 4498SOL    HW214394   0.307   5.206   5.814
 4499SOL     OW14395   5.925   1.777   2.577
 4499SOL    HW114396   6.020   1.768   2.606
 4499SOL    HW214397   5.868   1.798   2.656
 4500SOL     OW14398   3.376   5.225   0.222
 4500SOL    HW114399   3.296   5.173   0.253
 4500SOL    HW214400   3.413   5.278   0.298
 4501SOL     OW14401   5.593   1.675   2.156
 4501SOL    HW114402   5.562   1.762   2.193
 4501SOL    HW214403   5.667   1.639   2.213
 4502SOL     OW14404   0.637   3.457   6.982
 4502SOL    HW114405   0.554   3.468   0.011
 4502SOL    HW214406   0.613   3.443   6.886
 4503SOL     OW14407   2.842   0.039   2.432
 4503SOL    HW114408   2.839   0.009   2.336
 4503SOL    HW214409   2.883   6.992   2.487
 4504SOL     OW14410   0.562   1.752   3.312
 4504SOL    HW114411   0.597   1.831   3.262
 4504SOL    HW214412   0.605   1.749   3.403
 4505SOL     OW14413   5.901   3.797   2.722
 4505SOL    HW114414   5.912   3.836   2.813
 4505SOL    HW214415   5.815   3.746   2.717
 4506SOL     OW14416   5.094   2.933   4.235
 4506SOL    HW114417   5.109   2.881   4.151
 4506SOL    HW214418   5.175   2.988   4.256
 4507SOL     OW14419   6.330   3.423   3.483
 4507SOL    HW114420   6.411   3.373   3.453
 4507SOL    HW214421   6.358   3.508   3.528
 4508SOL     OW14422   0.624   5.027   0.553
 4508SOL    HW114423   0.714   5.003   0.516
 4508SOL    HW214424   0.629   5.028   0.653
 4509SOL     OW14425   4.366   1.974   2.361
 4509SOL    HW114426   4.383   2.072   2.347
 4509SOL    HW214427   4.390   1.924   2.278
 4510SOL     OW14428   4.810   1.470   4.337
 4510SOL    HW114429   4.749   1.549   4.342
 4510SOL    HW214430   4.856   1.469   4.249
 4511SOL     OW14431   0.367   4.542   1.289
 4511SOL    HW114432   0.360   4.508   1.382
 4511SOL    HW214433   0.275   4.551   1.249
 4512SOL     OW14434   3.508   1.984   6.061
 4512SOL    HW114435   3.430   2.010   6.118
 4512SOL    HW214436   3.562   1.915   6.110
 4513SOL     OW14437   1.426   6.274   0.010
 4513SOL    HW114438   1.517   6.267   0.052
 4513SOL    HW214439   1.426   6.225   6.948
 4514SOL     OW14440   3.215   3.584   6.541
 4514SOL    HW114441   3.200   3.582   6.640
 4514SOL    HW214442   3.126   3.586   6.495
 4515SOL     OW14443   4.975   0.047   5.438
 4515SOL    HW114444   4.901   0.047   5.505
 4515SOL    HW214445   4.937   0.049   5.346
 4516SOL     OW14446   3.935   1.806   5.450
 4516SOL    HW114447   3.980   1.847   5.529
 4516SOL    HW214448   3.845   1.848   5.438
 4517SOL     OW14449   4.238   0.456   5.858
 4517SOL    HW114450   4.276   0.549   5.855
 4517SOL    HW214451   4.239   0.423   5.953
 4518SOL     OW14452   1.851   0.164   0.899
 4518SOL    HW114453   1.872   0.086   0.840
 4518SOL    HW214454   1.921   0.172   0.970
 4519SOL     OW14455   5.473   6.450   6.844
 4519SOL    HW114456   5.421   6.532   6.868
 4519SOL    HW214457   5.568   6.462   6.872
 4520SOL     OW14458   4.033   6.675   5.109
 4520SOL    HW114459   3.993   6.719   5.028
 4520SOL    HW214460   4.082   6.592   5.080
 4521SOL     OW14461   4.920   3.151   4.609
 4521SOL    HW114462   4.892   3.056   4.620
 4521SOL    HW214463   4.903   3.201   4.694
 4522SOL     OW14464   4.917   3.570   3.580
 4522SOL    HW114465   4.943   3.497   3.643
 4522SOL    HW214466   4.873   3.530   3.499
 4523SOL     OW14467   0.673   3.468   6.275
 4523SOL    HW114468   0.748   3.445   6.214
 4523SOL    HW214469   0.676   3.409   6.356
 4524SOL     OW14470   0.537   3.439   2.975
 4524SOL    HW114471   0.495   3.527   2.997
 4524SOL    HW214472   0.636   3.445   2.990
 4525SOL     OW14473   1.861   2.414   5.823
 4525SOL    HW114474   1.826   2.321   5.817
 4525SOL    HW214475   1.958   2.415   5.796
 4526SOL     OW14476   0.698   0.123   6.120
 4526SOL    HW114477   0.727   0.076   6.037
 4526SOL    HW214478   0.599   0.130   6.122
 4527SOL     OW14479   6.126   6.801   3.235
 4527SOL    HW114480   6.029   6.793   3.212
 4527SOL    HW214481   6.175   6.721   3.201
 4528SOL     OW14482   3.849   0.862   5.459
 4528SOL    HW114483   3.939   0.905   5.449
 4528SOL    HW214484   3.823   0.862   5.555
 4529SOL     OW14485   2.899   1.101   5.383
 4529SOL    HW114486   2.897   1.019   5.440
 4529SOL    HW214487   2.902   1.182   5.441
 4530SOL     OW14488   2.524   6.261   4.967
 4530SOL    HW114489   2.462   6.194   5.007
 4530SOL    HW214490   2.616   6.222   4.962
 4531SOL     OW14491   1.059   5.354   6.248
 4531SOL    HW114492   1.030   5.395   6.335
 4531SOL    HW214493   1.060   5.255   6.257
 4532SOL     OW14494   5.484   0.762   2.650
 4532SOL    HW114495   5.389   0.766   2.680
 4532SOL    HW214496   5.539   0.828   2.701
 4533SOL     OW14497   2.433   0.509   2.088
 4533SOL    HW114498   2.461   0.569   2.163
 4533SOL    HW214499   2.464   0.416   2.107
 4534SOL     OW14500   4.429   1.367   4.008
 4534SOL    HW114501   4.513   1.315   4.027
 4534SOL    HW214502   4.377   1.379   4.092
 4535SOL     OW14503   3.015   1.465   0.672
 4535SOL    HW114504   3.076   1.533   0.630
 4535SOL    HW214505   3.011   1.384   0.614
 4536SOL     OW14506   2.870   1.505   6.336
 4536SOL    HW114507   2.870   1.420   6.283
 4536SOL    HW214508   2.963   1.540   6.344
 4537SOL     OW14509   3.459   4.062   4.282
 4537SOL    HW114510   3.383   4.090   4.341
 4537SOL    HW214511   3.442   4.093   4.188
 4538SOL     OW14512   6.983   2.209   0.762
 4538SOL    HW114513   6.991   2.181   0.858
 4538SOL    HW214514   0.033   2.271   0.739
 4539SOL     OW14515   1.124   5.824   6.022
 4539SOL    HW114516   1.025   5.816   6.008
 4539SOL    HW214517   1.145   5.914   6.058
 4540SOL     OW14518   0.146   1.304   0.834
 4540SOL    HW114519   0.121   1.217   0.792
 4540SOL    HW214520   0.200   1.287   0.917
 4541SOL     OW14521   4.141   2.130   5.816
 4541SOL    HW114522   4.191   2.102   5.898
 4541SOL    HW214523   4.205   2.145   5.741
 4542SOL     OW14524   0.478   2.864   1.077
 4542SOL    HW114525   0.503   2.851   1.173
 4542SOL    HW214526   0.430   2.782   1.044
 4543SOL     OW14527   3.694   2.000   0.141
 4543SOL    HW114528   3.751   1.998   0.059
 4543SOL    HW214529   3.657   1.909   0.158
 4544SOL     OW14530   5.896   5.186   0.574
 4544SOL    HW114531   5.856   5.236   0.651
 4544SOL    HW214532   5.842   5.203   0.492
 4545SOL     OW14533   1.842   3.332   5.144
 4545SOL    HW114534   1.848   3.285   5.056
 4545SOL    HW214535   1.910   3.405   5.148
 4546SOL     OW14536   2.278   1.332   6.508
 4546SOL    HW114537   2.225   1.257   6.547
 4546SOL    HW214538   2.285   1.406   6.574
 4547SOL     OW14539   6.486   0.291   0.136
 4547SOL    HW114540   6.580   0.321   0.122
 4547SOL    HW214541   6.461   0.302   0.232
 4548SOL     OW14542   2.061   3.033   3.148
 4548SOL    HW114543   2.027   3.018   3.241
 4548SOL    HW214544   1.994   3.088   3.097
 4549SOL     OW14545   5.922   4.042   3.071
 4549SOL    HW114546   5.870   4.083   3.145
 4549SOL    HW214547   5.995   4.105   3.042
 4550SOL     OW14548   0.536   4.380   3.016
 4550SOL    HW114549   0.575   4.450   2.956
 4550SOL    HW214550   0.610   4.331   3.062
 4551SOL     OW14551   0.993   3.523   4.942
 4551SOL    HW114552   0.954   3.566   5.023
 4551SOL    HW214553   1.057   3.451   4.970
 4552SOL     OW14554   5.787   1.047   1.277
 4552SOL    HW114555   5.697   1.018   1.310
 4552SOL    HW214556   5.842   1.080   1.353
 4553SOL     OW14557   5.434   5.126   6.230
 4553SOL    HW114558   5.505   5.188   6.197
 4553SOL    HW214559   5.473   5.064   6.297
 4554SOL     OW14560   0.916   6.250   1.720
 4554SOL    HW114561   0.992   6.234   1.783
 4554SOL    HW214562   0.834   6.275   1.773
 4555SOL     OW14563   0.705   0.994   6.946
 4555SOL    HW114564   0.694   0.895   6.944
 4555SOL    HW214565   0.766   1.022   6.871
 4556SOL     OW14566   6.122   3.216   6.014
 4556SOL    HW114567   6.031   3.254   6.000
 4556SOL    HW214568   6.189   3.270   5.963
 4557SOL     OW14569   6.182   4.828   3.205
 4557SOL    HW114570   6.165   4.837   3.303
 4557SOL    HW214571   6.178   4.732   3.179
 4558SOL     OW14572   7.006   2.837   5.447
 4558SOL    HW114573   6.921   2.883   5.420
 4558SOL    HW214574   0.040   2.902   5.494
 4559SOL     OW14575   0.720   3.141   2.595
 4559SOL    HW114576   0.679   3.141   2.503
 4559SOL    HW214577   0.704   3.052   2.638
 4560SOL     OW14578   6.032   4.506   2.560
 4560SOL    HW114579   6.079   4.456   2.488
 4560SOL    HW214580   6.068   4.479   2.649
 4561SOL     OW14581   4.217   2.205   4.535
 4561SOL    HW114582   4.154   2.199   4.458
 4561SOL    HW214583   4.310   2.189   4.504
 4562SOL     OW14584   2.279   0.745   0.977
 4562SOL    HW114585   2.362   0.700   1.009
 4562SOL    HW214586   2.292   0.844   0.982
 4563SOL     OW14587   0.236   3.165   1.710
 4563SOL    HW114588   0.210   3.162   1.614
 4563SOL    HW214589   0.161   3.132   1.767
 4564SOL     OW14590   0.133   4.358   2.214
 4564SOL    HW114591   0.122   4.259   2.210
 4564SOL    HW214592   0.214   4.381   2.267
 4565SOL     OW14593   1.966   6.828   5.014
 4565SOL    HW114594   1.873   6.799   5.036
 4565SOL    HW214595   2.001   6.887   5.088
 4566SOL     OW14596   6.722   4.532   1.722
 4566SOL    HW114597   6.683   4.479   1.647
 4566SOL    HW214598   6.730   4.474   1.803
 4567SOL     OW14599   0.137   0.345   6.226
 4567SOL    HW114600   0.046   0.352   6.186
 4567SOL    HW214601   0.206   0.361   6.156
 4568SOL     OW14602   0.431   5.645   3.701
 4568SOL    HW114603   0.509   5.583   3.699
 4568SOL    HW214604   0.352   5.598   3.740
 4569SOL     OW14605   2.755   1.286   2.970
 4569SOL    HW114606   2.677   1.240   2.928
 4569SOL    HW214607   2.757   1.381   2.941
 4570SOL     OW14608   6.142   5.212   1.566
 4570SOL    HW114609   6.176   5.118   1.561
 4570SOL    HW214610   6.193   5.269   1.502
 4571SOL     OW14611   3.372   3.074   6.212
 4571SOL    HW114612   3.279   3.057   6.243
 4571SOL    HW214613   3.435   3.016   6.263
 4572SOL     OW14614   2.476   3.379   0.979
 4572SOL    HW114615   2.481   3.461   1.035
 4572SOL    HW214616   2.556   3.373   0.919
 4573SOL     OW14617   1.424   6.332   1.313
 4573SOL    HW114618   1.324   6.329   1.311
 4573SOL    HW214619   1.460   6.268   1.244
 4574SOL     OW14620   6.211   3.130   0.503
 4574SOL    HW114621   6.293   3.150   0.450
 4574SOL    HW214622   6.232   3.136   0.601
 4575SOL     OW14623   6.516   0.505   4.132
 4575SOL    HW114624   6.556   0.568   4.199
 4575SOL    HW214625   6.479   0.557   4.056
 4576SOL     OW14626   2.783   5.005   5.132
 4576SOL    HW114627   2.769   4.957   5.218
 4576SOL    HW214628   2.784   4.940   5.056
 4577SOL     OW14629   2.058   1.469   2.892
 4577SOL    HW114630   2.087   1.564   2.903
 4577SOL    HW214631   1.989   1.464   2.819
 4578SOL     OW14632   1.319   0.757   2.087
 4578SOL    HW114633   1.402   0.790   2.131
 4578SOL    HW214634   1.253   0.730   2.158
 4579SOL     OW14635   4.083   0.175   2.209
 4579SOL    HW114636   4.139   0.219   2.281
 4579SOL    HW214637   4.138   0.106   2.162
 4580SOL     OW14638   6.643   3.119   0.294
 4580SOL    HW114639   6.666   3.149   0.201
 4580SOL    HW214640   6.728   3.098   0.343
 4581SOL     OW14641   3.369   6.854   1.723
 4581SOL    HW114642   3.327   6.909   1.795
 4581SOL    HW214643   3.469   6.856   1.734
 4582SOL     OW14644   6.080   0.662   2.809
 4582SOL    HW114645   6.035   0.588   2.858
 4582SOL    HW214646   6.049   0.664   2.714
 4583SOL     OW14647   2.210   0.048   6.896
 4583SOL    HW114648   2.226   6.989   6.845
 4583SOL    HW214649   2.294   0.075   6.944
 4584SOL     OW14650   1.498   0.379   5.900
 4584SOL    HW114651   1.422   0.423   5.947
 4584SOL    HW214652   1.558   0.449   5.861
 4585SOL     OW14653   1.305   4.167   3.143
 4585SOL    HW114654   1.240   4.214   3.202
 4585SOL    HW214655   1.281   4.182   3.047
 4586SOL     OW14656   5.322   4.695   6.771
 4586SOL    HW114657   5.351   4.700   6.867
 4586SOL    HW214658   5.256   4.620   6.760
 4587SOL     OW14659   3.238   3.785   4.652
 4587SOL    HW114660   3.271   3.746   4.566
 4587SOL    HW214661   3.183   3.867   4.633
 4588SOL     OW14662   2.410   4.024   5.927
 4588SOL    HW114663   2.409   4.123   5.914
 4588SOL    HW214664   2.493   3.998   5.976
 4589SOL     OW14665   5.069   6.450   2.388
 4589SOL    HW114666   5.014   6.532   2.371
 4589SOL    HW214667   5.011   6.369   2.381
 4590SOL     OW14668   3.066   5.154   1.857
 4590SOL    HW114669   2.974   5.190   1.849
 4590SOL    HW214670   3.112   5.197   1.935
 4591SOL     OW14671   2.226   0.357   5.446
 4591SOL    HW114672   2.146   0.304   5.417
 4591SOL    HW214673   2.215   0.383   5.542
 4592SOL     OW14674   2.423   1.658   4.513
 4592SOL    HW114675   2.393   1.738   4.564
 4592SOL    HW214676   2.457   1.687   4.423
 4593SOL     OW14677   0.354   5.853   4.172
 4593SOL    HW114678   0.431   5.825   4.116
 4593SOL    HW214679   0.275   5.871   4.113
 4594SOL     OW14680   2.391   0.263   2.619
 4594SOL    HW114681   2.484   0.234   2.596
 4594SOL    HW214682   2.394   0.351   2.665
 4595SOL     OW14683   4.869   1.307   6.158
 4595SOL    HW114684   4.889   1.346   6.068
 4595SOL    HW214685   4.955   1.290   6.207
 4596SOL     OW14686   0.938   0.880   2.240
 4596SOL    HW114687   0.882   0.871   2.322
 4596SOL    HW214688   0.983   0.794   2.220
 4597SOL     OW14689   3.113   5.757   7.015
 4597SOL    HW114690   3.211   5.741   0.001
 4597SOL    HW214691   3.076   5.695   6.946
 4598SOL     OW14692   1.975   5.653   6.842
 4598SOL    HW114693   1.973   5.698   6.931
 4598SOL    HW214694   1.982   5.554   6.855
 4599SOL     OW14695   1.777   4.728   2.740
 4599SOL    HW114696   1.815   4.748   2.830
 4599SOL    HW214697   1.684   4.763   2.735
 4600SOL     OW14698   6.568   6.489   5.639
 4600SOL    HW114699   6.555   6.447   5.549
 4600SOL    HW214700   6.646   6.447   5.685
 4601SOL     OW14701   0.884   1.078   4.594
 4601SOL    HW114702   0.883   1.094   4.495
 4601SOL    HW214703   0.958   1.131   4.636
 4602SOL     OW14704   3.359   1.261   0.068
 4602SOL    HW114705   3.403   1.183   0.024
 4602SOL    HW214706   3.369   1.342   0.010
 4603SOL     OW14707   4.629   5.803   1.063
 4603SOL    HW114708   4.536   5.842   1.059
 4603SOL    HW214709   4.696   5.874   1.043
 4604SOL     OW14710   5.500   0.016   5.859
 4604SOL    HW114711   5.555   0.044   5.938
 4604SOL    HW214712   5.561   7.012   5.786
 4605SOL     OW14713   2.912   6.792   2.173
 4605SOL    HW114714   2.909   6.803   2.074
 4605SOL    HW214715   2.991   6.842   2.210
 4606SOL     OW14716   6.973   6.555   3.240
 4606SOL    HW114717   6.985   6.600   3.328
 4606SOL    HW214718   7.001   6.617   3.166
 4607SOL     OW14719   1.865   3.137   2.452
 4607SOL    HW114720   1.797   3.064   2.450
 4607SOL    HW214721   1.897   3.156   2.359
 4608SOL     OW14722   6.910   3.503   4.981
 4608SOL    HW114723   6.839   3.474   5.046
 4608SOL    HW214724   6.995   3.456   5.001
 4609SOL     OW14725   4.368   6.151   6.506
 4609SOL    HW114726   4.462   6.122   6.526
 4609SOL    HW214727   4.324   6.084   6.446
 4610SOL     OW14728   5.156   2.362   0.817
 4610SOL    HW114729   5.151   2.326   0.910
 4610SOL    HW214730   5.233   2.426   0.811
 4611SOL     OW14731   1.062   0.304   5.803
 4611SOL    HW114732   1.131   0.247   5.848
 4611SOL    HW214733   0.992   0.330   5.869
 4612SOL     OW14734   1.787   6.515   2.326
 4612SOL    HW114735   1.702   6.524   2.275
 4612SOL    HW214736   1.840   6.600   2.320
 4613SOL     OW14737   1.971   5.086   1.792
 4613SOL    HW114738   2.068   5.078   1.814
 4613SOL    HW214739   1.948   5.181   1.775
 4614SOL     OW14740   6.591   3.465   4.661
 4614SOL    HW114741   6.493   3.446   4.655
 4614SOL    HW214742   6.606   3.546   4.717
 4615SOL     OW14743   1.295   1.999   1.186
 4615SOL    HW114744   1.333   1.975   1.275
 4615SOL    HW214745   1.293   1.918   1.127
 4616SOL     OW14746   6.263   2.918   4.440
 4616SOL    HW114747   6.241   2.951   4.348
 4616SOL    HW214748   6.304   2.993   4.492
 4617SOL     OW14749   0.505   2.284   2.517
 4617SOL    HW114750   0.605   2.291   2.518
 4617SOL    HW214751   0.466   2.374   2.534
 4618SOL     OW14752   2.684   4.306   5.732
 4618SOL    HW114753   2.653   4.221   5.691
 4618SOL    HW214754   2.776   4.294   5.768
 4619SOL     OW14755   3.171   6.069   4.939
 4619SOL    HW114756   3.097   6.057   5.004
 4619SOL    HW214757   3.141   6.127   4.863
 4620SOL     OW14758   0.672   5.693   2.546
 4620SOL    HW114759   0.689   5.689   2.447
 4620SOL    HW214760   0.758   5.712   2.594
 4621SOL     OW14761   5.048   0.490   2.547
 4621SOL    HW114762   5.043   0.581   2.506
 4621SOL    HW214763   5.017   0.421   2.482
 4622SOL     OW14764   4.375   5.892   1.111
 4622SOL    HW114765   4.338   5.895   1.203
 4622SOL    HW214766   4.310   5.847   1.050
 4623SOL     OW14767   2.837   5.120   1.392
 4623SOL    HW114768   2.816   5.054   1.465
 4623SOL    HW214769   2.781   5.101   1.312
 4624SOL     OW14770   4.159   1.022   3.130
 4624SOL    HW114771   4.125   1.006   3.222
 4624SOL    HW214772   4.187   0.935   3.089
 4625SOL     OW14773   1.827   5.364   1.779
 4625SOL    HW114774   1.809   5.380   1.876
 4625SOL    HW214775   1.755   5.407   1.724
 4626SOL     OW14776   3.970   3.800   1.593
 4626SOL    HW114777   4.036   3.843   1.655
 4626SOL    HW214778   4.015   3.780   1.506
 4627SOL     OW14779   6.719   6.513   4.717
 4627SOL    HW114780   6.804   6.556   4.685
 4627SOL    HW214781   6.724   6.414   4.701
 4628SOL     OW14782   4.770   5.044   3.385
 4628SOL    HW114783   4.671   5.035   3.371
 4628SOL    HW214784   4.819   4.990   3.317
 4629SOL     OW14785   2.146   6.078   6.815
 4629SOL    HW114786   2.125   6.019   6.737
 4629SOL    HW214787   2.210   6.032   6.875
 4630SOL     OW14788   1.857   4.161   1.615
 4630SOL    HW114789   1.827   4.256   1.618
 4630SOL    HW214790   1.828   4.119   1.529
 4631SOL     OW14791   0.312   0.801   3.876
 4631SOL    HW114792   0.256   0.848   3.945
 4631SOL    HW214793   0.256   0.736   3.826
 4632SOL     OW14794   3.383   4.894   2.715
 4632SOL    HW114795   3.338   4.867   2.630
 4632SOL    HW214796   3.315   4.914   2.785
 4633SOL     OW14797   5.219   1.436   3.912
 4633SOL    HW114798   5.298   1.493   3.892
 4633SOL    HW214799   5.248   1.351   3.955
 4634SOL     OW14800   3.323   3.275   4.756
 4634SOL    HW114801   3.294   3.191   4.801
 4634SOL    HW214802   3.247   3.340   4.754
 4635SOL     OW14803   5.316   5.811   0.337
 4635SOL    HW114804   5.270   5.849   0.256
 4635SOL    HW214805   5.276   5.850   0.420
 4636SOL     OW14806   2.176   5.865   0.165
 4636SOL    HW114807   2.170   5.927   0.244
 4636SOL    HW214808   2.177   5.770   0.198
 4637SOL     OW14809   1.993   0.225   2.368
 4637SOL    HW114810   2.071   0.199   2.311
 4637SOL    HW214811   1.923   0.154   2.364
 4638SOL     OW14812   3.808   5.124   0.472
 4638SOL    HW114813   3.846   5.216   0.463
 4638SOL    HW214814   3.805   5.079   0.383
 4639SOL     OW14815   1.864   2.071   0.588
 4639SOL    HW114816   1.832   2.166   0.591
 4639SOL    HW214817   1.896   2.050   0.495
 4640SOL     OW14818   6.772   2.942   5.411
 4640SOL    HW114819   6.761   2.938   5.511
 4640SOL    HW214820   6.700   2.888   5.368
 4641SOL     OW14821   0.527   5.638   4.106
 4641SOL    HW114822   0.573   5.567   4.054
 4641SOL    HW214823   0.595   5.694   4.154
 4642SOL     OW14824   1.109   1.872   3.491
 4642SOL    HW114825   1.205   1.897   3.475
 4642SOL    HW214826   1.092   1.867   3.589
 4643SOL     OW14827   0.159   2.137   6.764
 4643SOL    HW114828   0.073   2.187   6.762
 4643SOL    HW214829   0.232   2.194   6.728
 4644SOL     OW14830   1.926   0.769   0.718
 4644SOL    HW114831   1.862   0.766   0.794
 4644SOL    HW214832   1.996   0.698   0.731
 4645SOL     OW14833   1.691   0.907   3.483
 4645SOL    HW114834   1.774   0.916   3.428
 4645SOL    HW214835   1.611   0.920   3.424
 4646SOL     OW14836   2.067   5.274   3.808
 4646SOL    HW114837   1.972   5.298   3.825
 4646SOL    HW214838   2.071   5.196   3.744
 4647SOL     OW14839   1.725   6.789   2.935
 4647SOL    HW114840   1.684   6.710   2.890
 4647SOL    HW214841   1.805   6.820   2.883
 4648SOL     OW14842   3.055   1.487   4.459
 4648SOL    HW114843   3.002   1.439   4.528
 4648SOL    HW214844   2.993   1.526   4.391
 4649SOL     OW14845   6.016   0.605   0.434
 4649SOL    HW114846   5.990   0.581   0.340
 4649SOL    HW214847   6.012   0.523   0.491
 4650SOL     OW14848   5.353   6.585   1.387
 4650SOL    HW114849   5.344   6.644   1.467
 4650SOL    HW214850   5.418   6.512   1.406
 4651SOL     OW14851   6.061   2.963   5.766
 4651SOL    HW114852   6.139   2.903   5.785
 4651SOL    HW214853   6.059   3.037   5.833
 4652SOL     OW14854   0.153   6.291   4.455
 4652SOL    HW114855   0.159   6.338   4.543
 4652SOL    HW214856   0.231   6.317   4.398
 4653SOL     OW14857   5.153   5.918   1.258
 4653SOL    HW114858   5.128   5.822   1.244
 4653SOL    HW214859   5.162   5.963   1.169
 4654SOL     OW14860   0.104   6.531   4.871
 4654SOL    HW114861   0.124   6.629   4.873
 4654SOL    HW214862   0.073   6.501   4.961
 4655SOL     OW14863   4.739   2.691   1.049
 4655SOL    HW114864   4.662   2.719   0.992
 4655SOL    HW214865   4.704   2.659   1.138
 4656SOL     OW14866   0.850   1.147   1.527
 4656SOL    HW114867   0.826   1.094   1.609
 4656SOL    HW214868   0.949   1.142   1.512
 4657SOL     OW14869   5.110   6.907   2.351
 4657SOL    HW114870   5.153   6.839   2.411
 4657SOL    HW214871   5.179   6.974   2.322
 4658SOL     OW14872   2.797   2.337   5.218
 4658SOL    HW114873   2.712   2.377   5.253
 4658SOL    HW214874   2.874   2.395   5.245
 4659SOL     OW14875   3.559   4.662   1.128
 4659SOL    HW114876   3.503   4.744   1.116
 4659SOL    HW214877   3.525   4.589   1.069
 4660SOL     OW14878   1.220   6.338   4.244
 4660SOL    HW114879   1.220   6.242   4.217
 4660SOL    HW214880   1.307   6.381   4.218
 4661SOL     OW14881   2.101   3.478   6.089
 4661SOL    HW114882   2.075   3.471   5.993
 4661SOL    HW214883   2.018   3.487   6.145
 4662SOL     OW14884   2.621   6.761   4.796
 4662SOL    HW114885   2.692   6.777   4.864
 4662SOL    HW214886   2.661   6.767   4.704
 4663SOL     OW14887   0.936   0.106   0.258
 4663SOL    HW114888   0.868   0.169   0.296
 4663SOL    HW214889   0.891   0.043   0.194
 4664SOL     OW14890   6.530   6.617   0.254
 4664SOL    HW114891   6.498   6.616   0.349
 4664SOL    HW214892   6.618   6.664   0.249
 4665SOL     OW14893   2.242   0.990   4.860
 4665SOL    HW114894   2.145   0.973   4.878
 4665SOL    HW214895   2.276   1.059   4.924
 4666SOL     OW14896   1.739   2.149   5.816
 4666SOL    HW114897   1.644   2.154   5.785
 4666SOL    HW214898   1.743   2.100   5.903
 4667SOL     OW14899   6.758   3.678   1.627
 4667SOL    HW114900   6.698   3.742   1.580
 4667SOL    HW214901   6.852   3.692   1.596
 4668SOL     OW14902   4.357   2.439   4.602
 4668SOL    HW114903   4.375   2.434   4.701
 4668SOL    HW214904   4.310   2.356   4.572
 4669SOL     OW14905   5.398   0.135   0.349
 4669SOL    HW114906   5.355   0.206   0.294
 4669SOL    HW214907   5.392   0.047   0.301
 4670SOL     OW14908   0.723   3.439   0.704
 4670SOL    HW114909   0.698   3.536   0.708
 4670SOL    HW214910   0.650   3.388   0.660
 4671SOL     OW14911   0.442   3.848   0.150
 4671SOL    HW114912   0.530   3.868   0.194
 4671SOL    HW214913   0.383   3.928   0.156
 4672SOL     OW14914   3.329   4.085   5.778
 4672SOL    HW114915   3.236   4.057   5.798
 4672SOL    HW214916   3.356   4.160   5.840
 4673SOL     OW14917   5.845   0.532   6.776
 4673SOL    HW114918   5.904   0.612   6.765
 4673SOL    HW214919   5.785   0.545   6.855
 4674SOL     OW14920   0.695   1.826   0.297
 4674SOL    HW114921   0.624   1.758   0.279
 4674SOL    HW214922   0.693   1.852   0.393
 4675SOL     OW14923   3.106   5.906   0.211
 4675SOL    HW114924   3.110   5.850   0.127
 4675SOL    HW214925   3.031   5.971   0.203
 4676SOL     OW14926   0.623   6.259   3.836
 4676SOL    HW114927   0.611   6.225   3.929
 4676SOL    HW214928   0.536   6.297   3.803
 4677SOL     OW14929   4.486   0.476   6.052
 4677SOL    HW114930   4.557   0.464   6.121
 4677SOL    HW214931   4.402   0.432   6.084
 4678SOL     OW14932   1.960   4.855   0.255
 4678SOL    HW114933   2.046   4.835   0.208
 4678SOL    HW214934   1.973   4.850   0.354
 4679SOL     OW14935   2.955   0.832   6.158
 4679SOL    HW114936   2.925   0.775   6.081
 4679SOL    HW214937   3.043   0.799   6.191
 4680SOL     OW14938   1.717   5.315   0.548
 4680SOL    HW114939   1.719   5.216   0.563
 4680SOL    HW214940   1.673   5.334   0.460
 4681SOL     OW14941   6.972   4.988   5.777
 4681SOL    HW114942   0.032   5.034   5.750
 4681SOL    HW214943   6.916   4.972   5.696
 4682SOL     OW14944   4.057   6.550   0.488
 4682SOL    HW114945   4.156   6.535   0.489
 4682SOL    HW214946   4.013   6.480   0.432
 4683SOL     OW14947   5.829   3.860   2.363
 4683SOL    HW114948   5.902   3.899   2.307
 4683SOL    HW214949   5.800   3.773   2.325
 4684SOL     OW14950   1.505   1.842   4.411
 4684SOL    HW114951   1.473   1.809   4.500
 4684SOL    HW214952   1.601   1.868   4.418
 4685SOL     OW14953   5.071   4.995   4.500
 4685SOL    HW114954   5.170   5.006   4.497
 4685SOL    HW214955   5.048   4.909   4.546
 4686SOL     OW14956   4.783   5.200   6.314
 4686SOL    HW114957   4.858   5.251   6.357
 4686SOL    HW214958   4.820   5.126   6.258
 4687SOL     OW14959   6.009   4.623   4.796
 4687SOL    HW114960   6.022   4.654   4.701
 4687SOL    HW214961   5.918   4.582   4.805
 4688SOL     OW14962   0.633   3.073   6.676
 4688SOL    HW114963   0.557   3.139   6.672
 4688SOL    HW214964   0.697   3.100   6.748
 4689SOL     OW14965   6.752   6.226   4.719
 4689SOL    HW114966   6.703   6.179   4.792
 4689SOL    HW214967   6.847   6.195   4.717
 4690SOL     OW14968   1.643   1.352   0.283
 4690SOL    HW114969   1.721   1.409   0.309
 4690SOL    HW214970   1.582   1.405   0.224
 4691SOL     OW14971   2.600   4.773   0.938
 4691SOL    HW114972   2.534   4.779   1.012
 4691SOL    HW214973   2.655   4.690   0.948
 4692SOL     OW14974   0.003   5.253   3.427
 4692SOL    HW114975   6.981   5.217   3.507
 4692SOL    HW214976   0.086   5.302   3.456
 4693SOL     OW14977   0.410   1.309   4.255
 4693SOL    HW114978   0.352   1.269   4.185
 4693SOL    HW214979   0.473   1.239   4.290
 4694SOL     OW14980   1.633   1.320   0.653
 4694SOL    HW114981   1.563   1.248   0.651
 4694SOL    HW214982   1.655   1.342   0.748
 4695SOL     OW14983   3.633   2.829   2.139
 4695SOL    HW114984   3.714   2.777   2.166
 4695SOL    HW214985   3.624   2.828   2.040
 4696SOL     OW14986   6.792   3.173   6.155
 4696SOL    HW114987   6.887   3.176   6.125
 4696SOL    HW214988   6.741   3.247   6.111
 4697SOL     OW14989   1.050   4.410   0.034
 4697SOL    HW114990   0.972   4.369   0.080
 4697SOL    HW214991   1.102   4.466   0.099
 4698SOL     OW14992   5.762   3.691   1.062
 4698SOL    HW114993   5.836   3.743   1.104
 4698SOL    HW214994   5.733   3.618   1.124
 4699SOL     OW14995   0.339   0.959   2.646
 4699SOL    HW114996   0.287   0.879   2.676
 4699SOL    HW214997   0.278   1.038   2.639
 4700SOL     OW14998   4.974   1.430   0.923
 4700SOL    HW114999   4.913   1.374   0.867
 4700SOL    HW215000   4.990   1.384   1.011
 4701SOL     OW15001   0.663   1.395   0.133
 4701SOL    HW115002   0.674   1.295   0.126
 4701SOL    HW215003   0.572   1.420   0.101
 4702SOL     OW15004   3.649   3.892   0.271
 4702SOL    HW115005   3.696   3.975   0.241
 4702SOL    HW215006   3.708   3.813   0.255
 4703SOL     OW15007   2.176   0.723   2.349
 4703SOL    HW115008   2.217   0.752   2.435
 4703SOL    HW215009   2.132   0.802   2.306
 4704SOL     OW15010   0.069   6.752   0.703
 4704SOL    HW115011   6.997   6.747   0.680
 4704SOL    HW215012   0.090   6.840   0.745
 4705SOL     OW15013   3.672   3.410   4.415
 4705SOL    HW115014   3.662   3.510   4.418
 4705SOL    HW215015   3.748   3.386   4.355
 4706SOL     OW15016   4.166   6.393   6.849
 4706SOL    HW115017   4.241   6.370   6.911
 4706SOL    HW215018   4.187   6.478   6.801
 4707SOL     OW15019   2.075   5.474   1.284
 4707SOL    HW115020   1.993   5.419   1.300
 4707SOL    HW215021   2.154   5.414   1.270
 4708SOL     OW15022   2.968   2.559   1.456
 4708SOL    HW115023   2.916   2.616   1.520
 4708SOL    HW215024   2.981   2.609   1.370
 4709SOL     OW15025   3.758   5.082   5.086
 4709SOL    HW115026   3.814   5.152   5.130
 4709SOL    HW215027   3.771   5.085   4.987
 4710SOL     OW15028   4.384   1.076   6.774
 4710SOL    HW115029   4.326   1.017   6.718
 4710SOL    HW215030   4.470   1.094   6.725
 4711SOL     OW15031   3.550   6.922   2.657
 4711SOL    HW115032   3.546   6.864   2.739
 4711SOL    HW215033   3.494   7.004   2.671
 4712SOL     OW15034   1.919   4.795   0.751
 4712SOL    HW115035   1.964   4.795   0.840
 4712SOL    HW215036   1.828   4.753   0.760
 4713SOL     OW15037   2.301   5.288   1.338
 4713SOL    HW115038   2.278   5.207   1.286
 4713SOL    HW215039   2.389   5.274   1.385
 4714SOL     OW15040   3.388   2.028   1.666
 4714SOL    HW115041   3.375   1.939   1.710
 4714SOL    HW215042   3.325   2.036   1.588
 4715SOL     OW15043   0.043   2.572   2.995
 4715SOL    HW115044   0.088   2.521   3.069
 4715SOL    HW215045   7.020   2.508   2.936
 4716SOL     OW15046   3.452   5.717   0.466
 4716SOL    HW115047   3.467   5.621   0.491
 4716SOL    HW215048   3.481   5.775   0.542
 4717SOL     OW15049   1.282   5.944   3.614
 4717SOL    HW115050   1.332   6.017   3.566
 4717SOL    HW215051   1.241   5.982   3.698
 4718SOL     OW15052   5.826   1.303   6.326
 4718SOL    HW115053   5.765   1.261   6.258
 4718SOL    HW215054   5.787   1.389   6.357
 4719SOL     OW15055   5.195   3.161   1.920
 4719SOL    HW115056   5.291   3.171   1.892
 4719SOL    HW215057   5.143   3.117   1.847
 4720SOL     OW15058   2.389   0.251   5.721
 4720SOL    HW115059   2.478   0.220   5.687
 4720SOL    HW215060   2.402   0.297   5.809
 4721SOL     OW15061   1.843   1.755   1.093
 4721SOL    HW115062   1.867   1.725   1.185
 4721SOL    HW215063   1.778   1.831   1.098
 4722SOL     OW15064   1.669   0.181   7.025
 4722SOL    HW115065   1.716   0.184   0.088
 4722SOL    HW215066   1.574   0.210   0.012
 4723SOL     OW15067   2.599   6.859   6.843
 4723SOL    HW115068   2.597   6.948   6.797
 4723SOL    HW215069   2.675   6.858   6.908
 4724SOL     OW15070   3.471   6.637   1.570
 4724SOL    HW115071   3.423   6.706   1.623
 4724SOL    HW215072   3.526   6.580   1.631
 4725SOL     OW15073   5.728   6.402   3.433
 4725SOL    HW115074   5.789   6.480   3.419
 4725SOL    HW215075   5.681   6.412   3.521
 4726SOL     OW15076   0.900   4.175   6.722
 4726SOL    HW115077   0.945   4.091   6.752
 4726SOL    HW215078   0.801   4.164   6.728
 4727SOL     OW15079   6.720   5.715   6.879
 4727SOL    HW115080   6.693   5.802   6.837
 4727SOL    HW215081   6.662   5.695   6.957
 4728SOL     OW15082   0.290   0.680   6.453
 4728SOL    HW115083   0.208   0.736   6.468
 4728SOL    HW215084   0.269   0.584   6.472
 4729SOL     OW15085   3.376   6.884   2.402
 4729SOL    HW115086   3.412   6.955   2.462
 4729SOL    HW215087   3.451   6.841   2.351
 4730SOL     OW15088   2.096   6.435   5.709
 4730SOL    HW115089   2.178   6.422   5.766
 4730SOL    HW215090   2.033   6.359   5.725
 4731SOL     OW15091   5.845   1.199   4.839
 4731SOL    HW115092   5.897   1.162   4.762
 4731SOL    HW215093   5.867   1.296   4.850
 4732SOL     OW15094   0.180   3.214   6.951
 4732SOL    HW115095   0.117   3.221   6.874
 4732SOL    HW215096   0.199   3.306   6.987
 4733SOL     OW15097   0.066   4.202   3.419
 4733SOL    HW115098   0.124   4.283   3.425
 4733SOL    HW215099   0.083   4.156   3.332
 4734SOL     OW15100   4.185   3.880   6.499
 4734SOL    HW115101   4.210   3.865   6.404
 4734SOL    HW215102   4.150   3.974   6.510
 4735SOL     OW15103   0.890   4.916   3.569
 4735SOL    HW115104   0.939   4.881   3.489
 4735SOL    HW215105   0.954   4.927   3.645
 4736SOL     OW15106   1.092   0.931   0.094
 4736SOL    HW115107   1.063   1.005   0.033
 4736SOL    HW215108   1.148   0.970   0.167
 4737SOL     OW15109   2.343   4.906   1.966
 4737SOL    HW115110   2.406   4.870   1.897
 4737SOL    HW215111   2.370   4.872   2.056
 4738SOL     OW15112   6.934   6.555   1.936
 4738SOL    HW115113   7.025   6.576   1.900
 4738SOL    HW215114   6.873   6.532   1.860
 4739SOL     OW15115   4.688   0.500   2.431
 4739SOL    HW115116   4.654   0.413   2.467
 4739SOL    HW215117   4.619   0.541   2.371
 4740SOL     OW15118   1.315   1.946   2.661
 4740SOL    HW115119   1.399   1.943   2.715
 4740SOL    HW215120   1.268   1.858   2.668
 4741SOL     OW15121   4.396   3.426   1.655
 4741SOL    HW115122   4.450   3.342   1.649
 4741SOL    HW215123   4.369   3.454   1.563
 4742SOL     OW15124   3.109   6.927   0.594
 4742SOL    HW115125   3.121   6.874   0.678
 4742SOL    HW215126   3.080   7.020   0.618
 4743SOL     OW15127   2.415   4.936   1.203
 4743SOL    HW115128   2.343   5.003   1.219
 4743SOL    HW215129   2.375   4.855   1.160
 4744SOL     OW15130   1.600   6.693   0.695
 4744SOL    HW115131   1.633   6.660   0.784
 4744SOL    HW215132   1.543   6.774   0.708
 4745SOL     OW15133   1.659   4.154   0.182
 4745SOL    HW115134   1.566   4.158   0.219
 4745SOL    HW215135   1.663   4.087   0.108
 4746SOL     OW15136   4.366   5.668   4.460
 4746SOL    HW115137   4.388   5.608   4.537
 4746SOL    HW215138   4.267   5.680   4.454
 4747SOL     OW15139   1.717   2.378   0.907
 4747SOL    HW115140   1.625   2.404   0.935
 4747SOL    HW215141   1.736   2.285   0.938
 4748SOL     OW15142   1.803   6.717   3.177
 4748SOL    HW115143   1.801   6.731   3.078
 4748SOL    HW215144   1.896   6.727   3.211
 4749SOL     OW15145   1.983   0.037   0.269
 4749SOL    HW115146   2.040   0.080   0.339
 4749SOL    HW215147   1.986   0.091   0.185
 4750SOL     OW15148   5.600   3.254   5.410
 4750SOL    HW115149   5.653   3.179   5.448
 4750SOL    HW215150   5.639   3.282   5.322
 4751SOL     OW15151   4.694   0.794   2.923
 4751SOL    HW115152   4.717   0.885   2.957
 4751SOL    HW215153   4.620   0.755   2.978
 4752SOL     OW15154   4.273   2.167   6.958
 4752SOL    HW115155   4.364   2.168   6.999
 4752SOL    HW215156   4.204   2.176   0.005
 4753SOL     OW15157   2.678   6.499   5.021
 4753SOL    HW115158   2.625   6.418   4.994
 4753SOL    HW215159   2.616   6.577   5.032
 4754SOL     OW15160   4.277   4.766   6.284
 4754SOL    HW115161   4.187   4.807   6.271
 4754SOL    HW215162   4.346   4.838   6.293
 4755SOL     OW15163   1.185   0.765   1.222
 4755SOL    HW115164   1.246   0.837   1.191
 4755SOL    HW215165   1.093   0.780   1.185
 4756SOL     OW15166   6.413   4.002   6.446
 4756SOL    HW115167   6.428   3.976   6.542
 4756SOL    HW215168   6.406   4.102   6.439
 4757SOL     OW15169   1.814   3.580   1.551
 4757SOL    HW115170   1.855   3.625   1.631
 4757SOL    HW215171   1.743   3.639   1.513
 4758SOL     OW15172   1.754   0.017   3.053
 4758SOL    HW115173   1.793   7.005   2.969
 4758SOL    HW215174   1.745   6.968   3.120
 4759SOL     OW15175   1.231   4.919   1.308
 4759SOL    HW115176   1.277   4.864   1.238
 4759SOL    HW215177   1.135   4.889   1.315
 4760SOL     OW15178   1.341   6.545   0.604
 4760SOL    HW115179   1.342   6.468   0.540
 4760SOL    HW215180   1.434   6.564   0.636
 4761SOL     OW15181   6.931   6.897   1.298
 4761SOL    HW115182   6.999   6.850   1.353
 4761SOL    HW215183   6.897   6.977   1.348
 4762SOL     OW15184   2.117   5.938   2.526
 4762SOL    HW115185   2.075   5.848   2.524
 4762SOL    HW215186   2.203   5.936   2.474
 4763SOL     OW15187   4.617   5.890   2.082
 4763SOL    HW115188   4.687   5.942   2.034
 4763SOL    HW215189   4.651   5.798   2.102
 4764SOL     OW15190   3.941   3.820   6.003
 4764SOL    HW115191   4.030   3.860   5.979
 4764SOL    HW215192   3.942   3.793   6.099
 4765SOL     OW15193   3.779   1.723   4.793
 4765SOL    HW115194   3.725   1.709   4.876
 4765SOL    HW215195   3.722   1.767   4.724
 4766SOL     OW15196   0.047   6.940   3.921
 4766SOL    HW115197   0.111   6.863   3.925
 4766SOL    HW215198   6.989   6.915   3.970
 4767SOL     OW15199   2.096   4.765   5.417
 4767SOL    HW115200   2.086   4.849   5.362
 4767SOL    HW215201   2.023   4.701   5.392
 4768SOL     OW15202   4.405   1.962   0.268
 4768SOL    HW115203   4.379   1.978   0.363
 4768SOL    HW215204   4.335   1.906   0.223
 4769SOL     OW15205   3.056   5.506   1.612
 4769SOL    HW115206   3.079   5.426   1.557
 4769SOL    HW215207   2.980   5.484   1.673
 4770SOL     OW15208   0.591   1.048   5.403
 4770SOL    HW115209   0.616   0.962   5.359
 4770SOL    HW215210   0.515   1.091   5.353
 4771SOL     OW15211   2.224   6.832   5.417
 4771SOL    HW115212   2.267   6.913   5.457
 4771SOL    HW215213   2.234   6.755   5.479
 4772SOL     OW15214   2.093   6.127   1.246
 4772SOL    HW115215   2.177   6.155   1.293
 4772SOL    HW215216   2.080   6.028   1.257
 4773SOL     OW15217   2.464   5.199   5.244
 4773SOL    HW115218   2.417   5.260   5.307
 4773SOL    HW215219   2.500   5.121   5.295
 4774SOL     OW15220   1.450   4.019   0.487
 4774SOL    HW115221   1.362   4.000   0.443
 4774SOL    HW215222   1.483   3.937   0.533
 4775SOL     OW15223   5.778   6.660   5.004
 4775SOL    HW115224   5.850   6.711   5.052
 4775SOL    HW215225   5.819   6.584   4.954
 4776SOL     OW15226   1.010   0.952   5.874
 4776SOL    HW115227   1.013   0.996   5.964
 4776SOL    HW215228   0.950   0.872   5.878
 4777SOL     OW15229   0.903   6.162   1.272
 4777SOL    HW115230   0.856   6.130   1.354
 4777SOL    HW215231   0.983   6.105   1.254
 4778SOL     OW15232   1.546   2.943   5.839
 4778SOL    HW115233   1.539   2.982   5.747
 4778SOL    HW215234   1.608   2.999   5.894
 4779SOL     OW15235   5.552   1.175   3.645
 4779SOL    HW115236   5.573   1.165   3.742
 4779SOL    HW215237   5.461   1.216   3.634
 4780SOL     OW15238   6.179   2.393   5.023
 4780SOL    HW115239   6.135   2.314   5.066
 4780SOL    HW215240   6.211   2.368   4.932
 4781SOL     OW15241   2.272   6.278   3.044
 4781SOL    HW115242   2.319   6.341   2.982
 4781SOL    HW215243   2.332   6.255   3.120
 4782SOL     OW15244   5.909   5.532   4.202
 4782SOL    HW115245   5.932   5.607   4.139
 4782SOL    HW215246   5.969   5.536   4.282
 4783SOL     OW15247   6.362   2.866   1.304
 4783SOL    HW115248   6.267   2.871   1.273
 4783SOL    HW215249   6.373   2.786   1.362
 4784SOL     OW15250   5.248   2.253   6.061
 4784SOL    HW115251   5.308   2.301   5.997
 4784SOL    HW215252   5.301   2.219   6.138
 4785SOL     OW15253   0.301   5.552   3.976
 4785SOL    HW115254   0.382   5.577   4.030
 4785SOL    HW215255   0.245   5.488   4.029
 4786SOL     OW15256   2.419   6.240   0.624
 4786SOL    HW115257   2.374   6.231   0.535
 4786SOL    HW215258   2.515   6.215   0.615
 4787SOL     OW15259   3.207   1.143   4.695
 4787SOL    HW115260   3.249   1.213   4.753
 4787SOL    HW215261   3.195   1.178   4.602
 4788SOL     OW15262   5.939   6.574   6.498
 4788SOL    HW115263   5.958   6.671   6.513
 4788SOL    HW215264   5.865   6.564   6.432
 4789SOL     OW15265   5.269   0.785   2.841
 4789SOL    HW115266   5.252   0.698   2.887
 4789SOL    HW215267   5.216   0.789   2.756
 4790SOL     OW15268   6.290   1.957   4.890
 4790SOL    HW115269   6.204   1.907   4.890
 4790SOL    HW215270   6.282   2.038   4.832
 4791SOL     OW15271   0.124   1.921   0.255
 4791SOL    HW115272   0.094   1.974   0.176
 4791SOL    HW215273   0.175   1.841   0.224
 4792SOL     OW15274   2.074   3.760   3.448
 4792SOL    HW115275   2.108   3.672   3.416
 4792SOL    HW215276   2.100   3.772   3.544
 4793SOL     OW15277   0.691   3.594   5.734
 4793SOL    HW115278   0.688   3.693   5.741
 4793SOL    HW215279   0.768   3.558   5.787
 4794SOL     OW15280   4.566   0.690   3.813
 4794SOL    HW115281   4.491   0.635   3.776
 4794SOL    HW215282   4.587   0.764   3.749
 4795SOL     OW15283   0.945   1.123   5.241
 4795SOL    HW115284   0.941   1.199   5.307
 4795SOL    HW215285   0.910   1.040   5.284
 4796SOL     OW15286   3.989   1.541   5.395
 4796SOL    HW115287   3.938   1.483   5.458
 4796SOL    HW215288   3.961   1.636   5.407
 4797SOL     OW15289   0.999   5.633   4.602
 4797SOL    HW115290   1.095   5.643   4.575
 4797SOL    HW215291   0.994   5.595   4.694
 4798SOL     OW15292   4.314   4.220   6.268
 4798SOL    HW115293   4.343   4.316   6.268
 4798SOL    HW215294   4.354   4.174   6.348
 4799SOL     OW15295   3.508   3.036   6.718
 4799SOL    HW115296   3.425   3.085   6.744
 4799SOL    HW215297   3.530   2.968   6.788
 4800SOL     OW15298   0.905   4.894   0.457
 4800SOL    HW115299   0.828   4.847   0.414
 4800SOL    HW215300   0.976   4.910   0.388
 4801SOL     OW15301   4.728   2.570   1.753
 4801SOL    HW115302   4.792   2.575   1.830
 4801SOL    HW215303   4.681   2.658   1.743
 4802SOL     OW15304   6.988   0.035   2.514
 4802SOL    HW115305   6.906   0.091   2.517
 4802SOL    HW215306   6.987   6.996   2.591
 4803SOL     OW15307   5.593   3.955   6.065
 4803SOL    HW115308   5.574   3.900   6.146
 4803SOL    HW215309   5.548   3.913   5.986
 4804SOL     OW15310   5.410   1.322   0.390
 4804SOL    HW115311   5.499   1.354   0.423
 4804SOL    HW215312   5.418   1.228   0.358
 4805SOL     OW15313   6.176   2.035   0.926
 4805SOL    HW115314   6.114   1.958   0.911
 4805SOL    HW215315   6.245   2.038   0.854
 4806SOL     OW15316   1.203   1.307   3.736
 4806SOL    HW115317   1.127   1.252   3.769
 4806SOL    HW215318   1.288   1.277   3.780
 4807SOL     OW15319   1.023   2.867   6.063
 4807SOL    HW115320   1.119   2.854   6.037
 4807SOL    HW215321   0.969   2.792   6.025
 4808SOL     OW15322   3.857   5.790   0.485
 4808SOL    HW115323   3.941   5.736   0.492
 4808SOL    HW215324   3.830   5.797   0.389
 4809SOL     OW15325   3.704   4.951   1.867
 4809SOL    HW115326   3.628   4.914   1.920
 4809SOL    HW215327   3.730   5.040   1.904
 4810SOL     OW15328   0.657   4.201   3.655
 4810SOL    HW115329   0.627   4.108   3.677
 4810SOL    HW215330   0.623   4.225   3.564
 4811SOL     OW15331   2.909   3.710   4.801
 4811SOL    HW115332   2.850   3.660   4.738
 4811SOL    HW215333   2.987   3.653   4.827
 4812SOL     OW15334   0.389   0.330   2.422
 4812SOL    HW115335   0.482   0.303   2.445
 4812SOL    HW215336   0.327   0.254   2.443
 4813SOL     OW15337   6.428   1.507   6.481
 4813SOL    HW115338   6.469   1.591   6.516
 4813SOL    HW215339   6.500   1.446   6.450
 4814SOL     OW15340   6.694   4.130   1.790
 4814SOL    HW115341   6.787   4.164   1.805
 4814SOL    HW215342   6.677   4.119   1.693
 4815SOL     OW15343   5.496   4.794   2.950
 4815SOL    HW115344   5.557   4.767   2.875
 4815SOL    HW215345   5.423   4.726   2.960
 4816SOL     OW15346   1.759   0.281   2.212
 4816SOL    HW115347   1.841   0.302   2.158
 4816SOL    HW215348   1.733   0.362   2.265
 4817SOL     OW15349   4.393   1.337   1.152
 4817SOL    HW115350   4.382   1.316   1.249
 4817SOL    HW215351   4.414   1.253   1.102
 4818SOL     OW15352   3.566   0.298   4.849
 4818SOL    HW115353   3.582   0.369   4.918
 4818SOL    HW215354   3.467   0.285   4.838
 4819SOL     OW15355   2.657   0.766   1.233
 4819SOL    HW115356   2.728   0.747   1.302
 4819SOL    HW215357   2.570   0.782   1.279
 4820SOL     OW15358   6.758   4.101   2.250
 4820SOL    HW115359   6.731   4.024   2.192
 4820SOL    HW215360   6.766   4.070   2.344
 4821SOL     OW15361   6.324   5.005   1.530
 4821SOL    HW115362   6.400   5.014   1.594
 4821SOL    HW215363   6.351   4.945   1.454
 4822SOL     OW15364   1.795   4.286   3.304
 4822SOL    HW115365   1.861   4.241   3.363
 4822SOL    HW215366   1.802   4.385   3.316
 4823SOL     OW15367   0.906   0.670   4.840
 4823SOL    HW115368   0.848   0.677   4.758
 4823SOL    HW215369   0.891   0.581   4.884
 4824SOL     OW15370   5.122   2.657   2.564
 4824SOL    HW115371   5.206   2.644   2.511
 4824SOL    HW215372   5.138   2.725   2.635
 4825SOL     OW15373   1.158   3.597   2.840
 4825SOL    HW115374   1.156   3.518   2.779
 4825SOL    HW215375   1.131   3.568   2.932
 4826SOL     OW15376   0.063   5.845   0.588
 4826SOL    HW115377   7.004   5.900   0.589
 4826SOL    HW215378   0.142   5.904   0.603
 4827SOL     OW15379   4.754   0.715   1.066
 4827SOL    HW115380   4.727   0.632   1.018
 4827SOL    HW215381   4.719   0.795   1.018
 4828SOL     OW15382   4.749   3.532   1.358
 4828SOL    HW115383   4.750   3.443   1.404
 4828SOL    HW215384   4.786   3.523   1.266
 4829SOL     OW15385   3.176   1.316   6.162
 4829SOL    HW115386   3.178   1.382   6.088
 4829SOL    HW215387   3.269   1.288   6.186
 4830SOL     OW15388   4.383   6.584   4.009
 4830SOL    HW115389   4.318   6.579   3.934
 4830SOL    HW215390   4.336   6.567   4.096
 4831SOL     OW15391   6.447   4.568   5.650
 4831SOL    HW115392   6.419   4.488   5.597
 4831SOL    HW215393   6.517   4.619   5.599
 4832SOL     OW15394   2.551   3.483   5.905
 4832SOL    HW115395   2.493   3.528   5.972
 4832SOL    HW215396   2.645   3.479   5.939
 4833SOL     OW15397   3.913   1.397   3.304
 4833SOL    HW115398   3.890   1.314   3.354
 4833SOL    HW215399   3.999   1.435   3.339
 4834SOL     OW15400   4.708   1.664   1.897
 4834SOL    HW115401   4.630   1.651   1.837
 4834SOL    HW215402   4.679   1.656   1.992
 4835SOL     OW15403   2.248   6.827   0.088
 4835SOL    HW115404   2.164   6.814   0.036
 4835SOL    HW215405   2.297   6.908   0.053
 4836SOL     OW15406   4.804   2.029   4.242
 4836SOL    HW115407   4.843   1.998   4.328
 4836SOL    HW215408   4.836   1.970   4.167
 4837SOL     OW15409   2.336   2.970   0.580
 4837SOL    HW115410   2.273   2.896   0.556
 4837SOL    HW215411   2.336   2.983   0.679
 4838SOL     OW15412   3.673   4.860   2.230
 4838SOL    HW115413   3.574   4.867   2.245
 4838SOL    HW215414   3.690   4.796   2.156
 4839SOL     OW15415   0.607   5.276   6.225
 4839SOL    HW115416   0.556   5.191   6.213
 4839SOL    HW215417   0.680   5.262   6.293
 4840SOL     OW15418   6.653   6.137   6.980
 4840SOL    HW115419   6.704   6.222   6.989
 4840SOL    HW215420   6.712   6.060   7.004
 4841SOL     OW15421   2.814   5.202   2.182
 4841SOL    HW115422   2.718   5.196   2.152
 4841SOL    HW215423   2.859   5.277   2.132
 4842SOL     OW15424   4.547   6.104   1.112
 4842SOL    HW115425   4.581   6.111   1.206
 4842SOL    HW215426   4.480   6.029   1.106
 4843SOL     OW15427   6.677   3.693   6.994
 4843SOL    HW115428   6.720   3.691   6.904
 4843SOL    HW215429   6.628   3.607   7.009
 4844SOL     OW15430   5.943   2.103   6.082
 4844SOL    HW115431   5.939   2.167   6.159
 4844SOL    HW215432   5.877   2.131   6.012
 4845SOL     OW15433   5.679   5.265   3.914
 4845SOL    HW115434   5.749   5.260   3.843
 4845SOL    HW215435   5.604   5.323   3.883
 4846SOL     OW15436   1.544   2.987   1.231
 4846SOL    HW115437   1.520   2.987   1.134
 4846SOL    HW215438   1.532   2.894   1.268
 4847SOL     OW15439   3.650   2.053   5.033
 4847SOL    HW115440   3.728   2.086   4.980
 4847SOL    HW215441   3.565   2.074   4.984
 4848SOL     OW15442   2.843   1.565   2.717
 4848SOL    HW115443   2.888   1.653   2.703
 4848SOL    HW215444   2.890   1.494   2.664
 4849SOL     OW15445   0.908   0.737   0.228
 4849SOL    HW115446   0.967   0.661   0.255
 4849SOL    HW215447   0.959   0.799   0.168
 4850SOL     OW15448   4.109   0.373   1.836
 4850SOL    HW115449   4.071   0.412   1.752
 4850SOL    HW215450   4.176   0.437   1.874
 4851SOL     OW15451   4.370   6.334   5.155
 4851SOL    HW115452   4.417   6.369   5.237
 4851SOL    HW215453   4.299   6.269   5.183
 4852SOL     OW15454   2.515   0.780   6.727
 4852SOL    HW115455   2.442   0.807   6.790
 4852SOL    HW215456   2.479   0.712   6.663
 4853SOL     OW15457   3.438   1.526   2.407
 4853SOL    HW115458   3.473   1.610   2.449
 4853SOL    HW215459   3.340   1.518   2.425
 4854SOL     OW15460   4.955   6.622   2.067
 4854SOL    HW115461   5.033   6.645   2.008
 4854SOL    HW215462   4.978   6.644   2.162
 4855SOL     OW15463   5.784   1.410   2.317
 4855SOL    HW115464   5.808   1.502   2.347
 4855SOL    HW215465   5.821   1.393   2.226
 4856SOL     OW15466   2.660   4.947   4.428
 4856SOL    HW115467   2.611   4.945   4.341
 4856SOL    HW215468   2.657   4.856   4.470
 4857SOL     OW15469   0.552   1.869   5.701
 4857SOL    HW115470   0.620   1.799   5.723
 4857SOL    HW215471   0.460   1.830   5.709
 4858SOL     OW15472   1.990   2.467   4.769
 4858SOL    HW115473   1.896   2.501   4.761
 4858SOL    HW215474   1.992   2.369   4.751
 4859SOL     OW15475   1.597   5.884   5.076
 4859SOL    HW115476   1.541   5.945   5.133
 4859SOL    HW215477   1.563   5.790   5.085
 4860SOL     OW15478   4.661   5.168   1.826
 4860SOL    HW115479   4.585   5.124   1.778
 4860SOL    HW215480   4.625   5.243   1.882
 4861SOL     OW15481   4.961   4.127   5.190
 4861SOL    HW115482   4.922   4.197   5.250
 4861SOL    HW215483   4.898   4.108   5.115
 4862SOL     OW15484   1.774   5.624   2.716
 4862SOL    HW115485   1.708   5.645   2.644
 4862SOL    HW215486   1.866   5.626   2.678
 4863SOL     OW15487   6.170   4.190   0.025
 4863SOL    HW115488   6.147   4.145   0.111
 4863SOL    HW215489   6.086   4.216   7.002
 4864SOL     OW15490   2.859   1.058   3.113
 4864SOL    HW115491   2.815   1.146   3.093
 4864SOL    HW215492   2.928   1.072   3.184
 4865SOL     OW15493   2.423   5.720   4.818
 4865SOL    HW115494   2.373   5.733   4.732
 4865SOL    HW215495   2.466   5.630   4.818
 4866SOL     OW15496   0.001   3.807   0.838
 4866SOL    HW115497   6.988   3.890   0.878
 4866SOL    HW215498   0.101   3.815   0.833
 4867SOL     OW15499   4.752   6.080   2.914
 4867SOL    HW115500   4.697   6.042   2.988
 4867SOL    HW215501   4.703   6.070   2.827
 4868SOL     OW15502   6.772   4.364   1.495
 4868SOL    HW115503   6.859   4.383   1.540
 4868SOL    HW215504   6.785   4.369   1.396
 4869SOL     OW15505   0.482   1.289   6.248
 4869SOL    HW115506   0.415   1.335   6.190
 4869SOL    HW215507   0.465   1.312   6.343
 4870SOL     OW15508   0.869   6.149   1.999
 4870SOL    HW115509   0.963   6.161   1.967
 4870SOL    HW215510   0.811   6.220   1.961
 4871SOL     OW15511   1.239   0.813   4.473
 4871SOL    HW115512   1.338   0.823   4.468
 4871SOL    HW215513   1.211   0.795   4.567
 4872SOL     OW15514   7.020   6.695   3.556
 4872SOL    HW115515   0.063   6.753   3.511
 4872SOL    HW215516   0.039   6.610   3.586
 4873SOL     OW15517   0.213   6.323   4.769
 4873SOL    HW115518   0.171   6.410   4.796
 4873SOL    HW215519   0.293   6.305   4.826
 4874SOL     OW15520   4.828   3.059   3.341
 4874SOL    HW115521   4.849   3.094   3.249
 4874SOL    HW215522   4.912   3.051   3.394
 4875SOL     OW15523   5.311   6.679   6.830
 4875SOL    HW115524   5.324   6.718   6.739
 4875SOL    HW215525   5.298   6.754   6.896
 4876SOL     OW15526   1.586   1.831   3.054
 4876SOL    HW115527   1.622   1.739   3.065
 4876SOL    HW215528   1.496   1.837   3.097
 4877SOL     OW15529   0.788   1.225   4.043
 4877SOL    HW115530   0.834   1.303   4.086
 4877SOL    HW215531   0.855   1.155   4.020
 4878SOL     OW15532   6.394   1.415   2.278
 4878SOL    HW115533   6.450   1.447   2.354
 4878SOL    HW215534   6.440   1.436   2.191
 4879SOL     OW15535   4.804   1.761   2.698
 4879SOL    HW115536   4.718   1.711   2.688
 4879SOL    HW215537   4.821   1.814   2.616
 4880SOL     OW15538   5.815   2.964   6.198
 4880SOL    HW115539   5.893   2.915   6.157
 4880SOL    HW215540   5.848   3.044   6.248
 4881SOL     OW15541   1.818   2.918   2.181
 4881SOL    HW115542   1.906   2.925   2.227
 4881SOL    HW215543   1.765   2.843   2.222
 4882SOL     OW15544   4.511   2.446   5.225
 4882SOL    HW115545   4.431   2.459   5.167
 4882SOL    HW215546   4.584   2.400   5.174
 4883SOL     OW15547   5.447   3.465   1.096
 4883SOL    HW115548   5.363   3.417   1.120
 4883SOL    HW215549   5.471   3.445   1.001
 4884SOL     OW15550   1.617   6.381   1.511
 4884SOL    HW115551   1.535   6.370   1.456
 4884SOL    HW215552   1.638   6.479   1.520
 4885SOL     OW15553   2.174   5.058   1.231
 4885SOL    HW115554   2.107   5.053   1.305
 4885SOL    HW215555   2.127   5.077   1.145
 4886SOL     OW15556   3.796   0.465   2.603
 4886SOL    HW115557   3.730   0.392   2.587
 4886SOL    HW215558   3.843   0.450   2.690
 4887SOL     OW15559   1.238   6.488   2.138
 4887SOL    HW115560   1.231   6.395   2.175
 4887SOL    HW215561   1.154   6.538   2.157
 4888SOL     OW15562   3.041   6.623   3.209
 4888SOL    HW115563   2.949   6.653   3.238
 4888SOL    HW215564   3.034   6.570   3.125
 4889SOL     OW15565   6.494   2.404   3.734
 4889SOL    HW115566   6.412   2.462   3.727
 4889SOL    HW215567   6.559   2.447   3.798
 4890SOL     OW15568   1.234   0.787   5.086
 4890SOL    HW115569   1.237   0.687   5.076
 4890SOL    HW215570   1.240   0.811   5.183
 4891SOL     OW15571   2.588   5.525   6.334
 4891SOL    HW115572   2.571   5.484   6.245
 4891SOL    HW215573   2.541   5.471   6.405
 4892SOL     OW15574   5.712   6.772   2.527
 4892SOL    HW115575   5.618   6.807   2.533
 4892SOL    HW215576   5.764   6.803   2.607
 4893SOL     OW15577   7.011   3.752   1.582
 4893SOL    HW115578   0.040   3.730   1.664
 4893SOL    HW215579   0.042   3.737   1.501
 4894SOL     OW15580   3.794   6.588   2.279
 4894SOL    HW115581   3.810   6.489   2.280
 4894SOL    HW215582   3.762   6.615   2.188
 4895SOL     OW15583   0.110   5.155   3.969
 4895SOL    HW115584   0.035   5.159   4.035
 4895SOL    HW215585   0.082   5.101   3.889
 4896SOL     OW15586   2.087   5.035   3.684
 4896SOL    HW115587   2.117   4.957   3.630
 4896SOL    HW215588   2.097   5.015   3.781
 4897SOL     OW15589   1.852   5.830   5.631
 4897SOL    HW115590   1.924   5.760   5.624
 4897SOL    HW215591   1.763   5.785   5.640
 4898SOL     OW15592   3.452   1.594   4.418
 4898SOL    HW115593   3.466   1.655   4.340
 4898SOL    HW215594   3.514   1.516   4.412
 4899SOL     OW15595   6.657   5.159   2.366
 4899SOL    HW115596   6.676   5.237   2.307
 4899SOL    HW215597   6.736   5.140   2.423
 4900SOL     OW15598   4.116   6.285   5.364
 4900SOL    HW115599   4.065   6.364   5.398
 4900SOL    HW215600   4.194   6.267   5.423
 4901SOL     OW15601   0.656   1.342   5.796
 4901SOL    HW115602   0.623   1.391   5.715
 4901SOL    HW215603   0.755   1.356   5.805
 4902SOL     OW15604   2.422   0.522   6.558
 4902SOL    HW115605   2.463   0.442   6.515
 4902SOL    HW215606   2.343   0.552   6.505
 4903SOL     OW15607   5.019   5.341   0.989
 4903SOL    HW115608   5.019   5.276   0.913
 4903SOL    HW215609   4.964   5.420   0.965
 4904SOL     OW15610   1.583   0.711   0.018
 4904SOL    HW115611   1.668   0.674   0.056
 4904SOL    HW215612   1.591   0.717   6.944
 4905SOL     OW15613   3.384   0.022   3.236
 4905SOL    HW115614   3.329   6.969   3.267
 4905SOL    HW215615   3.426   0.001   3.148
 4906SOL     OW15616   4.890   3.045   5.135
 4906SOL    HW115617   4.901   3.011   5.042
 4906SOL    HW215618   4.863   3.142   5.132
 4907SOL     OW15619   4.729   1.368   0.117
 4907SOL    HW115620   4.768   1.458   0.094
 4907SOL    HW215621   4.787   1.296   0.079
 4908SOL     OW15622   4.879   0.234   7.008
 4908SOL    HW115623   4.907   0.326   6.981
 4908SOL    HW215624   4.785   0.237   0.017
 4909SOL     OW15625   6.059   4.162   3.315
 4909SOL    HW115626   6.007   4.077   3.315
 4909SOL    HW215627   6.155   4.142   3.298
 4910SOL     OW15628   5.098   0.829   5.778
 4910SOL    HW115629   5.123   0.762   5.848
 4910SOL    HW215630   5.085   0.783   5.690
 4911SOL     OW15631   1.727   2.073   2.198
 4911SOL    HW115632   1.669   2.036   2.270
 4911SOL    HW215633   1.782   2.000   2.157
 4912SOL     OW15634   5.887   1.776   5.299
 4912SOL    HW115635   5.948   1.821   5.234
 4912SOL    HW215636   5.857   1.842   5.368
 4913SOL     OW15637   5.836   2.772   4.918
 4913SOL    HW115638   5.794   2.690   4.956
 4913SOL    HW215639   5.772   2.816   4.855
 4914SOL     OW15640   4.740   0.764   4.079
 4914SOL    HW115641   4.811   0.822   4.119
 4914SOL    HW215642   4.782   0.693   4.022
 4915SOL     OW15643   3.028   6.005   5.425
 4915SOL    HW115644   2.946   6.042   5.469
 4915SOL    HW215645   3.019   5.906   5.415
 4916SOL     OW15646   6.178   0.965   3.754
 4916SOL    HW115647   6.204   0.871   3.732
 4916SOL    HW215648   6.221   0.993   3.839
 4917SOL     OW15649   4.495   6.069   0.610
 4917SOL    HW115650   4.582   6.114   0.630
 4917SOL    HW215651   4.421   6.137   0.613
 4918SOL     OW15652   6.669   5.558   1.963
 4918SOL    HW115653   6.607   5.627   1.999
 4918SOL    HW215654   6.618   5.490   1.911
 4919SOL     OW15655   4.188   3.187   1.930
 4919SOL    HW115656   4.282   3.153   1.932
 4919SOL    HW215657   4.138   3.143   1.856
 4920SOL     OW15658   6.051   1.107   5.015
 4920SOL    HW115659   5.979   1.164   4.977
 4920SOL    HW215660   6.071   1.031   4.953
 4921SOL     OW15661   0.627   6.692   1.163
 4921SOL    HW115662   0.607   6.649   1.251
 4921SOL    HW215663   0.637   6.622   1.093
 4922SOL     OW15664   3.688   1.913   5.461
 4922SOL    HW115665   3.612   1.877   5.515
 4922SOL    HW215666   3.659   1.996   5.413
 4923SOL     OW15667   3.316   1.877   3.062
 4923SOL    HW115668   3.401   1.838   3.095
 4923SOL    HW215669   3.239   1.819   3.090
 4924SOL     OW15670   2.831   1.744   6.190
 4924SOL    HW115671   2.832   1.653   6.231
 4924SOL    HW215672   2.758   1.799   6.232
 4925SOL     OW15673   4.831   6.697   3.030
 4925SOL    HW115674   4.797   6.642   2.954
 4925SOL    HW215675   4.900   6.762   2.996
 4926SOL     OW15676   5.721   2.064   1.700
 4926SOL    HW115677   5.711   1.969   1.730
 4926SOL    HW215678   5.706   2.069   1.601
 4927SOL     OW15679   3.401   1.769   6.570
 4927SOL    HW115680   3.435   1.751   6.478
 4927SOL    HW215681   3.403   1.684   6.624
 4928SOL     OW15682   1.189   2.275   0.970
 4928SOL    HW115683   1.195   2.178   0.991
 4928SOL    HW215684   1.099   2.310   0.999
 4929SOL     OW15685   0.145   0.549   3.872
 4929SOL    HW115686   0.236   0.514   3.848
 4929SOL    HW215687   0.076   0.491   3.829
 4930SOL     OW15688   5.926   6.730   2.001
 4930SOL    HW115689   5.902   6.714   1.905
 4930SOL    HW215690   6.025   6.737   2.010
 4931SOL     OW15691   6.335   6.140   2.092
 4931SOL    HW115692   6.372   6.047   2.090
 4931SOL    HW215693   6.322   6.168   2.187
 4932SOL     OW15694   2.905   3.575   2.460
 4932SOL    HW115695   2.981   3.616   2.408
 4932SOL    HW215696   2.826   3.564   2.399
 4933SOL     OW15697   2.850   6.234   4.825
 4933SOL    HW115698   2.803   6.251   4.738
 4933SOL    HW215699   2.812   6.152   4.868
 4934SOL     OW15700   3.585   5.811   3.414
 4934SOL    HW115701   3.490   5.790   3.389
 4934SOL    HW215702   3.586   5.858   3.502
 4935SOL     OW15703   0.706   2.118   6.772
 4935SOL    HW115704   0.672   2.050   6.707
 4935SOL    HW215705   0.632   2.145   6.834
 4936SOL     OW15706   2.244   4.039   1.226
 4936SOL    HW115707   2.212   4.072   1.315
 4936SOL    HW215708   2.344   4.036   1.226
 4937SOL     OW15709   5.147   3.405   4.702
 4937SOL    HW115710   5.177   3.346   4.777
 4937SOL    HW215711   5.060   3.448   4.726
 4938SOL     OW15712   4.252   4.869   5.981
 4938SOL    HW115713   4.162   4.855   6.021
 4938SOL    HW215714   4.276   4.791   5.923
 4939SOL     OW15715   4.777   2.963   5.621
 4939SOL    HW115716   4.678   2.950   5.630
 4939SOL    HW215717   4.804   2.953   5.526
 4940SOL     OW15718   1.723   6.290   5.218
 4940SOL    HW115719   1.784   6.221   5.257
 4940SOL    HW215720   1.768   6.333   5.140
 4941SOL     OW15721   4.826   1.676   0.055
 4941SOL    HW115722   4.783   1.706   6.995
 4941SOL    HW215723   4.851   1.755   0.110
 4942SOL     OW15724   5.034   3.611   5.198
 4942SOL    HW115725   5.069   3.526   5.238
 4942SOL    HW215726   4.947   3.592   5.151
 4943SOL     OW15727   3.893   2.354   0.897
 4943SOL    HW115728   3.964   2.345   0.966
 4943SOL    HW215729   3.877   2.266   0.853
 4944SOL     OW15730   2.063   4.361   2.697
 4944SOL    HW115731   2.113   4.328   2.617
 4944SOL    HW215732   1.975   4.398   2.668
 4945SOL     OW15733   0.073   6.442   4.120
 4945SOL    HW115734   7.020   6.380   4.131
 4945SOL    HW215735   0.072   6.509   4.195
 4946SOL     OW15736   1.849   3.793   2.152
 4946SOL    HW115737   1.927   3.743   2.115
 4946SOL    HW215738   1.840   3.775   2.250
 4947SOL     OW15739   0.974   0.354   0.551
 4947SOL    HW115740   0.938   0.261   0.543
 4947SOL    HW215741   0.900   0.415   0.580
 4948SOL     OW15742   2.624   1.166   2.078
 4948SOL    HW115743   2.539   1.125   2.108
 4948SOL    HW215744   2.660   1.225   2.150
 4949SOL     OW15745   5.650   0.900   5.090
 4949SOL    HW115746   5.743   0.873   5.116
 4949SOL    HW215747   5.649   0.995   5.060
 4950SOL     OW15748   2.719   5.667   5.381
 4950SOL    HW115749   2.685   5.651   5.288
 4950SOL    HW215750   2.771   5.752   5.383
 4951SOL     OW15751   4.337   1.845   4.561
 4951SOL    HW115752   4.298   1.835   4.653
 4951SOL    HW215753   4.381   1.760   4.534
 4952SOL     OW15754   6.940   6.490   5.557
 4952SOL    HW115755   6.930   6.589   5.566
 4952SOL    HW215756   6.854   6.446   5.584
 4953SOL     OW15757   1.947   5.672   1.950
 4953SOL    HW115758   1.915   5.638   1.862
 4953SOL    HW215759   1.991   5.761   1.938
 4954SOL     OW15760   5.324   5.837   6.899
 4954SOL    HW115761   5.294   5.877   6.812
 4954SOL    HW215762   5.354   5.743   6.884
 4955SOL     OW15763   1.555   6.649   1.313
 4955SOL    HW115764   1.562   6.576   1.246
 4955SOL    HW215765   1.458   6.672   1.327
 4956SOL     OW15766   4.037   6.822   4.871
 4956SOL    HW115767   4.132   6.814   4.903
 4956SOL    HW215768   4.019   6.752   4.802
 4957SOL     OW15769   1.212   0.900   3.842
 4957SOL    HW115770   1.267   0.893   3.925
 4957SOL    HW215771   1.198   0.809   3.803
 4958SOL     OW15772   0.818   5.629   6.824
 4958SOL    HW115773   0.723   5.627   6.854
 4958SOL    HW215774   0.832   5.560   6.753
 4959SOL     OW15775   0.937   0.580   1.417
 4959SOL    HW115776   0.948   0.680   1.414
 4959SOL    HW215777   0.996   0.542   1.487
 4960SOL     OW15778   3.750   6.410   4.555
 4960SOL    HW115779   3.718   6.325   4.596
 4960SOL    HW215780   3.796   6.391   4.469
 4961SOL     OW15781   4.817   0.682   4.823
 4961SOL    HW115782   4.752   0.666   4.748
 4961SOL    HW215783   4.910   0.677   4.787
 4962SOL     OW15784   6.755   2.525   1.154
 4962SOL    HW115785   6.657   2.510   1.148
 4962SOL    HW215786   6.793   2.541   1.063
 4963SOL     OW15787   0.783   4.847   1.930
 4963SOL    HW115788   0.875   4.809   1.939
 4963SOL    HW215789   0.750   4.832   1.837
 4964SOL     OW15790   3.101   6.420   3.705
 4964SOL    HW115791   3.067   6.330   3.676
 4964SOL    HW215792   3.192   6.409   3.746
 4965SOL     OW15793   6.553   0.285   4.352
 4965SOL    HW115794   6.644   0.284   4.392
 4965SOL    HW215795   6.493   0.344   4.406
 4966SOL     OW15796   3.348   5.384   5.286
 4966SOL    HW115797   3.419   5.315   5.268
 4966SOL    HW215798   3.344   5.403   5.384
 4967SOL     OW15799   3.644   2.450   6.004
 4967SOL    HW115800   3.583   2.371   6.011
 4967SOL    HW215801   3.678   2.475   6.095
 4968SOL     OW15802   5.830   3.453   4.981
 4968SOL    HW115803   5.893   3.494   4.915
 4968SOL    HW215804   5.872   3.371   5.020
 4969SOL     OW15805   1.536   0.837   1.641
 4969SOL    HW115806   1.521   0.751   1.690
 4969SOL    HW215807   1.524   0.823   1.543
 4970SOL     OW15808   1.216   1.960   4.852
 4970SOL    HW115809   1.213   2.054   4.887
 4970SOL    HW215810   1.149   1.950   4.779
 4971SOL     OW15811   6.173   6.350   3.514
 4971SOL    HW115812   6.213   6.308   3.431
 4971SOL    HW215813   6.078   6.321   3.523
 4972SOL     OW15814   1.832   3.512   0.525
 4972SOL    HW115815   1.817   3.423   0.482
 4972SOL    HW215816   1.930   3.528   0.536
 4973SOL     OW15817   5.734   5.957   2.207
 4973SOL    HW115818   5.769   5.978   2.116
 4973SOL    HW215819   5.725   6.042   2.260
 4974SOL     OW15820   5.666   6.277   2.230
 4974SOL    HW115821   5.627   6.236   2.148
 4974SOL    HW215822   5.602   6.345   2.266
 4975SOL     OW15823   6.172   5.992   0.821
 4975SOL    HW115824   6.097   6.053   0.847
 4975SOL    HW215825   6.168   5.975   0.722
 4976SOL     OW15826   3.681   0.650   5.015
 4976SOL    HW115827   3.746   0.718   5.048
 4976SOL    HW215828   3.626   0.616   5.092
 4977SOL     OW15829   3.456   2.938   0.808
 4977SOL    HW115830   3.402   2.901   0.732
 4977SOL    HW215831   3.397   2.947   0.889
 4978SOL     OW15832   5.525   3.076   5.744
 4978SOL    HW115833   5.595   3.093   5.813
 4978SOL    HW215834   5.514   2.978   5.730
 4979SOL     OW15835   0.729   0.215   5.423
 4979SOL    HW115836   0.745   0.311   5.398
 4979SOL    HW215837   0.805   0.159   5.390
 4980SOL     OW15838   3.528   5.144   2.520
 4980SOL    HW115839   3.605   5.185   2.470
 4980SOL    HW215840   3.454   5.211   2.528
 4981SOL     OW15841   4.064   6.531   5.446
 4981SOL    HW115842   4.090   6.551   5.541
 4981SOL    HW215843   3.968   6.557   5.432
 4982SOL     OW15844   2.181   2.854   0.267
 4982SOL    HW115845   2.168   2.941   0.314
 4982SOL    HW215846   2.123   2.784   0.309
 4983SOL     OW15847   5.387   2.800   4.332
 4983SOL    HW115848   5.366   2.712   4.291
 4983SOL    HW215849   5.327   2.814   4.412
 4984SOL     OW15850   4.887   3.670   4.321
 4984SOL    HW115851   4.832   3.746   4.286
 4984SOL    HW215852   4.877   3.591   4.261
 4985SOL     OW15853   5.270   5.264   2.221
 4985SOL    HW115854   5.301   5.187   2.276
 4985SOL    HW215855   5.185   5.300   2.259
 4986SOL     OW15856   5.077   4.540   3.006
 4986SOL    HW115857   5.018   4.464   2.976
 4986SOL    HW215858   5.025   4.599   3.069
 4987SOL     OW15859   0.072   3.141   1.484
 4987SOL    HW115860   7.017   3.080   1.482
 4987SOL    HW215861   0.131   3.120   1.405
 4988SOL     OW15862   0.418   1.313   3.923
 4988SOL    HW115863   0.328   1.354   3.905
 4988SOL    HW215864   0.472   1.375   3.979
 4989SOL     OW15865   0.086   1.485   0.656
 4989SOL    HW115866   0.078   1.577   0.694
 4989SOL    HW215867   0.106   1.420   0.730
 4990SOL     OW15868   1.160   2.573   5.362
 4990SOL    HW115869   1.245   2.572   5.415
 4990SOL    HW215870   1.116   2.662   5.371
 4991SOL     OW15871   1.332   2.993   4.183
 4991SOL    HW115872   1.370   3.071   4.132
 4991SOL    HW215873   1.338   2.911   4.127
 4992SOL     OW15874   3.457   1.054   5.319
 4992SOL    HW115875   3.494   0.962   5.306
 4992SOL    HW215876   3.438   1.096   5.230
 4993SOL     OW15877   2.311   5.851   4.055
 4993SOL    HW115878   2.333   5.846   3.957
 4993SOL    HW215879   2.248   5.927   4.071
 4994SOL     OW15880   0.536   0.362   2.867
 4994SOL    HW115881   0.580   0.446   2.834
 4994SOL    HW215882   0.595   0.317   2.933
 4995SOL     OW15883   6.177   2.324   6.016
 4995SOL    HW115884   6.107   2.263   5.980
 4995SOL    HW215885   6.229   2.363   5.940
 4996SOL     OW15886   0.934   1.922   3.138
 4996SOL    HW115887   0.948   1.851   3.206
 4996SOL    HW215888   0.914   2.009   3.184
 4997SOL     OW15889   6.974   3.048   3.753
 4997SOL    HW115890   6.974   2.969   3.815
 4997SOL    HW215891   0.038   3.092   3.753
 4998SOL     OW15892   1.487   5.464   4.766
 4998SOL    HW115893   1.498   5.536   4.698
 4998SOL    HW215894   1.569   5.407   4.768
 4999SOL     OW15895   5.684   5.377   1.344
 4999SOL    HW115896   5.599   5.391   1.294
 4999SOL    HW215897   5.753   5.340   1.283
 5000SOL     OW15898   0.401   0.108   4.573
 5000SOL    HW115899   0.388   0.037   4.504
 5000SOL    HW215900   0.330   0.177   4.564
 5001SOL     OW15901   3.349   4.332   5.281
 5001SOL    HW115902   3.371   4.428   5.300
 5001SOL    HW215903   3.256   4.326   5.245
 5002SOL     OW15904   2.029   1.100   1.755
 5002SOL    HW115905   2.050   1.191   1.790
 5002SOL    HW215906   1.985   1.046   1.827
 5003SOL     OW15907   6.329   6.159   2.887
 5003SOL    HW115908   6.373   6.106   2.959
 5003SOL    HW215909   6.385   6.239   2.865
 5004SOL     OW15910   2.955   6.452   6.850
 5004SOL    HW115911   2.860   6.441   6.878
 5004SOL    HW215912   2.983   6.374   6.795
 5005SOL     OW15913   4.343   2.882   0.307
 5005SOL    HW115914   4.400   2.922   0.235
 5005SOL    HW215915   4.402   2.843   0.378
 5006SOL     OW15916   5.035   6.299   4.723
 5006SOL    HW115917   5.000   6.272   4.812
 5006SOL    HW215918   5.054   6.397   4.722
 5007SOL     OW15919   3.998   1.193   5.194
 5007SOL    HW115920   3.921   1.141   5.156
 5007SOL    HW215921   4.070   1.200   5.125
 5008SOL     OW15922   6.385   1.090   3.353
 5008SOL    HW115923   6.463   1.119   3.409
 5008SOL    HW215924   6.302   1.133   3.388
 5009SOL     OW15925   0.949   6.702   2.892
 5009SOL    HW115926   0.992   6.694   2.802
 5009SOL    HW215927   0.971   6.623   2.948
 5010SOL     OW15928   3.671   3.958   4.152
 5010SOL    HW115929   3.592   3.996   4.201
 5010SOL    HW215930   3.648   3.867   4.118
 5011SOL     OW15931   0.836   2.817   2.521
 5011SOL    HW115932   0.847   2.769   2.435
 5011SOL    HW215933   0.744   2.857   2.526
 5012SOL     OW15934   6.848   2.721   6.254
 5012SOL    HW115935   6.768   2.779   6.248
 5012SOL    HW215936   6.820   2.626   6.264
 5013SOL     OW15937   4.312   1.609   5.886
 5013SOL    HW115938   4.254   1.627   5.807
 5013SOL    HW215939   4.257   1.572   5.961
 5014SOL     OW15940   5.731   6.518   0.433
 5014SOL    HW115941   5.801   6.532   0.503
 5014SOL    HW215942   5.684   6.431   0.452
 5015SOL     OW15943   4.621   2.367   3.503
 5015SOL    HW115944   4.684   2.367   3.581
 5015SOL    HW215945   4.534   2.407   3.531
 5016SOL     OW15946   2.469   0.721   2.910
 5016SOL    HW115947   2.557   0.686   2.943
 5016SOL    HW215948   2.406   0.731   2.987
 5017SOL     OW15949   2.857   2.255   1.027
 5017SOL    HW115950   2.897   2.164   1.023
 5017SOL    HW215951   2.761   2.251   1.000
 5018SOL     OW15952   6.118   5.329   3.679
 5018SOL    HW115953   6.135   5.342   3.581
 5018SOL    HW215954   6.152   5.239   3.706
 5019SOL     OW15955   1.902   4.405   0.068
 5019SOL    HW115956   1.874   4.324   0.016
 5019SOL    HW215957   1.931   4.377   0.160
 5020SOL     OW15958   5.203   4.946   6.790
 5020SOL    HW115959   5.245   4.855   6.797
 5020SOL    HW215960   5.230   5.001   6.869
 5021SOL     OW15961   2.016   4.397   5.871
 5021SOL    HW115962   2.069   4.314   5.854
 5021SOL    HW215963   1.978   4.395   5.964
 5022SOL     OW15964   1.499   6.160   0.618
 5022SOL    HW115965   1.505   6.251   0.577
 5022SOL    HW215966   1.585   6.111   0.605
 5023SOL     OW15967   6.015   3.218   1.649
 5023SOL    HW115968   5.963   3.233   1.565
 5023SOL    HW215969   6.113   3.226   1.630
 5024SOL     OW15970   6.354   3.785   4.380
 5024SOL    HW115971   6.358   3.690   4.411
 5024SOL    HW215972   6.304   3.790   4.294
 5025SOL     OW15973   5.328   1.166   3.111
 5025SOL    HW115974   5.411   1.166   3.055
 5025SOL    HW215975   5.296   1.072   3.123
 5026SOL     OW15976   6.690   6.033   4.153
 5026SOL    HW115977   6.628   6.077   4.218
 5026SOL    HW215978   6.671   5.935   4.150
 5027SOL     OW15979   0.899   6.716   3.324
 5027SOL    HW115980   0.890   6.678   3.416
 5027SOL    HW215981   0.897   6.642   3.257
 5028SOL     OW15982   0.231   0.387   3.210
 5028SOL    HW115983   0.239   0.288   3.204
 5028SOL    HW215984   0.140   0.415   3.179
 5029SOL     OW15985   7.009   2.030   1.004
 5029SOL    HW115986   6.988   1.937   1.033
 5029SOL    HW215987   0.083   2.043   1.001
 5030SOL     OW15988   0.358   0.032   0.149
 5030SOL    HW115989   0.371   0.081   0.235
 5030SOL    HW215990   0.300   0.087   0.088
 5031SOL     OW15991   5.921   0.531   4.170
 5031SOL    HW115992   6.006   0.483   4.147
 5031SOL    HW215993   5.843   0.472   4.149
 5032SOL     OW15994   1.659   5.242   1.151
 5032SOL    HW115995   1.587   5.287   1.099
 5032SOL    HW215996   1.706   5.176   1.093
 5033SOL     OW15997   2.519   4.104   5.641
 5033SOL    HW115998   2.509   4.005   5.645
 5033SOL    HW215999   2.450   4.148   5.699
 5034SOL     OW16000   6.435   3.127   1.422
 5034SOL    HW116001   6.448   3.196   1.351
 5034SOL    HW216002   6.412   3.039   1.379
 5035SOL     OW16003   5.116   5.180   0.454
 5035SOL    HW116004   5.110   5.080   0.444
 5035SOL    HW216005   5.077   5.206   0.543
 5036SOL     OW16006   1.281   6.716   1.395
 5036SOL    HW116007   1.266   6.693   1.491
 5036SOL    HW216008   1.267   6.814   1.382
 5037SOL     OW16009   4.393   2.046   4.010
 5037SOL    HW116010   4.331   1.983   4.056
 5037SOL    HW216011   4.415   2.010   3.919
 5038SOL     OW16012   1.569   6.366   5.622
 5038SOL    HW116013   1.513   6.440   5.660
 5038SOL    HW216014   1.647   6.406   5.573
 5039SOL     OW16015   2.054   2.510   5.493
 5039SOL    HW116016   2.056   2.491   5.591
 5039SOL    HW216017   2.138   2.476   5.450
 5040SOL     OW16018   3.251   4.029   5.373
 5040SOL    HW116019   3.202   3.976   5.304
 5040SOL    HW216020   3.349   4.029   5.352
 5041SOL     OW16021   1.268   3.618   1.275
 5041SOL    HW116022   1.217   3.623   1.189
 5041SOL    HW216023   1.209   3.582   1.347
 5042SOL     OW16024   5.269   2.598   6.193
 5042SOL    HW116025   5.247   2.694   6.182
 5042SOL    HW216026   5.185   2.544   6.193
 5043SOL     OW16027   3.137   0.559   3.265
 5043SOL    HW116028   3.195   0.477   3.266
 5043SOL    HW216029   3.191   0.637   3.234
 5044SOL     OW16030   5.773   5.171   3.465
 5044SOL    HW116031   5.807   5.235   3.396
 5044SOL    HW216032   5.807   5.079   3.445
 5045SOL     OW16033   6.599   2.528   6.574
 5045SOL    HW116034   6.633   2.558   6.663
 5045SOL    HW216035   6.503   2.503   6.582
 5046SOL     OW16036   3.311   3.215   5.204
 5046SOL    HW116037   3.384   3.226   5.138
 5046SOL    HW216038   3.328   3.134   5.261
 5047SOL     OW16039   0.611   1.115   2.539
 5047SOL    HW116040   0.531   1.168   2.564
 5047SOL    HW216041   0.665   1.166   2.471
 5048SOL     OW16042   6.581   2.379   1.471
 5048SOL    HW116043   6.534   2.302   1.429
 5048SOL    HW216044   6.576   2.372   1.570
 5049SOL     OW16045   0.696   2.418   2.113
 5049SOL    HW116046   0.708   2.479   2.035
 5049SOL    HW216047   0.754   2.337   2.102
 5050SOL     OW16048   1.049   3.344   1.846
 5050SOL    HW116049   0.954   3.315   1.849
 5050SOL    HW216050   1.064   3.416   1.913
 5051SOL     OW16051   2.888   4.971   0.974
 5051SOL    HW116052   2.847   5.005   0.890
 5051SOL    HW216053   2.854   4.879   0.994
 5052SOL     OW16054   5.367   4.608   1.254
 5052SOL    HW116055   5.403   4.666   1.327
 5052SOL    HW216056   5.290   4.553   1.290
 5053SOL     OW16057   2.224   3.840   0.645
 5053SOL    HW116058   2.201   3.936   0.661
 5053SOL    HW216059   2.314   3.820   0.686
 5054SOL     OW16060   3.711   5.773   4.824
 5054SOL    HW116061   3.708   5.679   4.858
 5054SOL    HW216062   3.677   5.835   4.895
 5055SOL     OW16063   0.560   1.357   5.161
 5055SOL    HW116064   0.631   1.309   5.110
 5055SOL    HW216065   0.497   1.291   5.201
 5056SOL     OW16066   0.924   3.236   5.224
 5056SOL    HW116067   0.923   3.328   5.263
 5056SOL    HW216068   1.017   3.200   5.224
 5057SOL     OW16069   6.980   5.534   3.303
 5057SOL    HW116070   0.014   5.593   3.359
 5057SOL    HW216071   6.982   5.441   3.339
 5058SOL     OW16072   4.388   4.487   6.236
 5058SOL    HW116073   4.320   4.561   6.241
 5058SOL    HW216074   4.465   4.509   6.296
 5059SOL     OW16075   3.391   1.985   3.933
 5059SOL    HW116076   3.362   2.044   4.009
 5059SOL    HW216077   3.331   1.905   3.929
 5060SOL     OW16078   0.829   3.058   5.404
 5060SOL    HW116079   0.877   3.104   5.330
 5060SOL    HW216080   0.735   3.038   5.375
 5061SOL     OW16081   3.676   2.995   5.243
 5061SOL    HW116082   3.753   3.052   5.274
 5061SOL    HW216083   3.662   3.009   5.145
 5062SOL     OW16084   4.957   0.871   2.725
 5062SOL    HW116085   4.980   0.914   2.638
 5062SOL    HW216086   4.935   0.941   2.792
 5063SOL     OW16087   1.051   0.000   2.567
 5063SOL    HW116088   0.997   6.997   2.647
 5063SOL    HW216089   1.145   6.995   2.578
 5064SOL     OW16090   4.771   5.368   0.480
 5064SOL    HW116091   4.689   5.409   0.440
 5064SOL    HW216092   4.808   5.300   0.417
 5065SOL     OW16093   2.670   7.011   3.288
 5065SOL    HW116094   2.702   0.081   3.281
 5065SOL    HW216095   2.585   7.009   3.341
 5066SOL     OW16096   2.435   4.348   1.542
 5066SOL    HW116097   2.391   4.351   1.632
 5066SOL    HW216098   2.460   4.441   1.514
 5067SOL     OW16099   4.152   2.875   1.383
 5067SOL    HW116100   4.060   2.905   1.409
 5067SOL    HW216101   4.180   2.801   1.445
 5068SOL     OW16102   3.019   5.994   0.681
 5068SOL    HW116103   3.080   6.051   0.736
 5068SOL    HW216104   3.063   5.971   0.594
 5069SOL     OW16105   3.558   4.305   6.175
 5069SOL    HW116106   3.622   4.256   6.116
 5069SOL    HW216107   3.600   4.391   6.206
 5070SOL     OW16108   6.487   3.497   3.919
 5070SOL    HW116109   6.408   3.557   3.921
 5070SOL    HW216110   6.464   3.409   3.961
 5071SOL     OW16111   3.139   0.986   3.675
 5071SOL    HW116112   3.116   0.892   3.648
 5071SOL    HW216113   3.178   1.034   3.596
 5072SOL     OW16114   1.522   1.204   1.044
 5072SOL    HW116115   1.516   1.295   1.004
 5072SOL    HW216116   1.567   1.209   1.133
 5073SOL     OW16117   2.873   6.551   2.666
 5073SOL    HW116118   2.825   6.593   2.588
 5073SOL    HW216119   2.970   6.573   2.661
 5074SOL     OW16120   3.652   2.081   1.698
 5074SOL    HW116121   3.564   2.041   1.673
 5074SOL    HW216122   3.637   2.156   1.762
 5075SOL     OW16123   1.278   3.174   6.956
 5075SOL    HW116124   1.267   3.131   0.021
 5075SOL    HW216125   1.277   3.104   6.885
 5076SOL     OW16126   5.620   0.444   0.326
 5076SOL    HW116127   5.650   0.370   0.386
 5076SOL    HW216128   5.699   0.497   0.296
 5077SOL     OW16129   1.127   4.901   3.705
 5077SOL    HW116130   1.145   4.815   3.655
 5077SOL    HW216131   1.185   4.973   3.668
 5078SOL     OW16132   7.010   1.046   3.748
 5078SOL    HW116133   0.048   1.027   3.673
 5078SOL    HW216134   0.023   1.009   3.833
 5079SOL     OW16135   1.617   2.326   6.299
 5079SOL    HW116136   1.547   2.303   6.231
 5079SOL    HW216137   1.689   2.380   6.255
 5080SOL     OW16138   5.656   5.181   6.098
 5080SOL    HW116139   5.662   5.148   6.003
 5080SOL    HW216140   5.748   5.207   6.129
 5081SOL     OW16141   3.104   5.750   5.436
 5081SOL    HW116142   3.199   5.779   5.446
 5081SOL    HW216143   3.076   5.698   5.517
 5082SOL     OW16144   5.517   6.382   1.545
 5082SOL    HW116145   5.592   6.427   1.594
 5082SOL    HW216146   5.430   6.406   1.590
 5083SOL     OW16147   2.493   0.375   3.289
 5083SOL    HW116148   2.430   0.320   3.344
 5083SOL    HW216149   2.578   0.324   3.274
 5084SOL     OW16150   1.026   4.859   5.465
 5084SOL    HW116151   1.109   4.885   5.415
 5084SOL    HW216152   0.961   4.934   5.463
 5085SOL     OW16153   0.443   3.772   6.089
 5085SOL    HW116154   0.451   3.721   6.003
 5085SOL    HW216155   0.488   3.860   6.079
 5086SOL     OW16156   1.643   4.746   1.952
 5086SOL    HW116157   1.622   4.655   1.917
 5086SOL    HW216158   1.674   4.804   1.877
 5087SOL     OW16159   6.268   4.986   2.931
 5087SOL    HW116160   6.199   4.981   3.003
 5087SOL    HW216161   6.359   4.990   2.971
 5088SOL     OW16162   4.386   6.346   1.774
 5088SOL    HW116163   4.424   6.305   1.857
 5088SOL    HW216164   4.459   6.389   1.721
 5089SOL     OW16165   5.766   4.987   4.648
 5089SOL    HW116166   5.748   4.925   4.571
 5089SOL    HW216167   5.700   5.062   4.647
 5090SOL     OW16168   3.016   0.377   4.846
 5090SOL    HW116169   2.925   0.385   4.886
 5090SOL    HW216170   3.009   0.335   4.755
 5091SOL     OW16171   6.107   6.793   0.120
 5091SOL    HW116172   6.015   6.830   0.110
 5091SOL    HW216173   6.157   6.804   0.034
 5092SOL     OW16174   3.514   3.662   5.092
 5092SOL    HW116175   3.477   3.652   5.184
 5092SOL    HW216176   3.440   3.658   5.025
 5093SOL     OW16177   1.899   1.686   2.332
 5093SOL    HW116178   1.866   1.735   2.252
 5093SOL    HW216179   1.855   1.724   2.414
 5094SOL     OW16180   2.510   5.753   6.794
 5094SOL    HW116181   2.533   5.831   6.737
 5094SOL    HW216182   2.580   5.741   6.864
 5095SOL     OW16183   0.281   0.974   2.956
 5095SOL    HW116184   0.258   0.884   2.918
 5095SOL    HW216185   0.368   0.968   3.005
 5096SOL     OW16186   4.857   2.772   6.043
 5096SOL    HW116187   4.836   2.676   6.063
 5096SOL    HW216188   4.900   2.778   5.953
 5097SOL     OW16189   6.935   6.010   6.917
 5097SOL    HW116190   6.931   6.109   6.931
 5097SOL    HW216191   7.005   5.971   6.978
 5098SOL     OW16192   3.883   2.086   1.809
 5098SOL    HW116193   3.831   2.049   1.732
 5098SOL    HW216194   3.820   2.116   1.880
 5099SOL     OW16195   1.055   5.971   1.564
 5099SOL    HW116196   1.030   5.933   1.653
 5099SOL    HW216197   0.973   6.001   1.515
 5100SOL     OW16198   5.030   4.027   2.636
 5100SOL    HW116199   5.085   4.002   2.555
 5100SOL    HW216200   4.935   4.040   2.609
 5101SOL     OW16201   3.997   6.834   5.444
 5101SOL    HW116202   3.949   6.841   5.531
 5101SOL    HW216203   4.035   6.742   5.434
 5102SOL     OW16204   4.982   4.755   4.594
 5102SOL    HW116205   4.924   4.673   4.603
 5102SOL    HW216206   5.073   4.735   4.629
 5103SOL     OW16207   1.074   0.168   5.508
 5103SOL    HW116208   1.171   0.167   5.481
 5103SOL    HW216209   1.063   0.119   5.594
 5104SOL     OW16210   3.542   4.615   1.417
 5104SOL    HW116211   3.470   4.554   1.448
 5104SOL    HW216212   3.560   4.599   1.320
 5105SOL     OW16213   3.699   2.829   6.797
 5105SOL    HW116214   3.689   2.749   6.856
 5105SOL    HW216215   3.692   2.800   6.701
 5106SOL     OW16216   4.013   2.857   1.071
 5106SOL    HW116217   4.066   2.807   1.139
 5106SOL    HW216218   3.983   2.794   0.999
 5107SOL     OW16219   4.922   3.247   1.130
 5107SOL    HW116220   4.863   3.178   1.086
 5107SOL    HW216221   4.876   3.335   1.128
 5108SOL     OW16222   4.535   3.420   6.445
 5108SOL    HW116223   4.482   3.473   6.511
 5108SOL    HW216224   4.475   3.389   6.371
 5109SOL     OW16225   1.891   2.586   0.962
 5109SOL    HW116226   1.858   2.656   1.025
 5109SOL    HW216227   1.820   2.516   0.949
 5110SOL     OW16228   6.099   0.603   6.427
 5110SOL    HW116229   6.058   0.527   6.378
 5110SOL    HW216230   6.112   0.680   6.365
 5111SOL     OW16231   1.071   5.784   5.217
 5111SOL    HW116232   1.153   5.840   5.228
 5111SOL    HW216233   1.057   5.765   5.120
 5112SOL     OW16234   0.005   0.385   3.052
 5112SOL    HW116235   6.962   0.433   2.997
 5112SOL    HW216236   7.012   0.287   3.049
 5113SOL     OW16237   2.022   5.114   0.386
 5113SOL    HW116238   2.032   5.019   0.416
 5113SOL    HW216239   2.064   5.175   0.454
 5114SOL     OW16240   4.257   6.401   0.878
 5114SOL    HW116241   4.218   6.333   0.941
 5114SOL    HW216242   4.248   6.368   0.784
 5115SOL     OW16243   1.701   3.864   1.015
 5115SOL    HW116244   1.745   3.801   0.952
 5115SOL    HW216245   1.715   3.834   1.109
 5116SOL     OW16246   1.989   6.821   6.931
 5116SOL    HW116247   2.083   6.831   6.898
 5116SOL    HW216248   1.927   6.872   6.870
 5117SOL     OW16249   1.688   2.979   4.363
 5117SOL    HW116250   1.729   3.058   4.319
 5117SOL    HW216251   1.652   3.006   4.453
 5118SOL     OW16252   5.979   6.217   0.121
 5118SOL    HW116253   6.006   6.149   0.189
 5118SOL    HW216254   6.054   6.280   0.105
 5119SOL     OW16255   4.828   1.907   0.518
 5119SOL    HW116256   4.830   1.838   0.446
 5119SOL    HW216257   4.738   1.906   0.562
 5120SOL     OW16258   4.996   6.998   5.028
 5120SOL    HW116259   5.064   0.030   4.983
 5120SOL    HW216260   4.933   0.030   5.081
 5121SOL     OW16261   2.645   3.879   6.756
 5121SOL    HW116262   2.671   3.970   6.787
 5121SOL    HW216263   2.682   3.810   6.819
 5122SOL     OW16264   4.555   5.285   3.871
 5122SOL    HW116265   4.564   5.251   3.965
 5122SOL    HW216266   4.575   5.212   3.806
 5123SOL     OW16267   4.481   2.462   2.310
 5123SOL    HW116268   4.473   2.517   2.394
 5123SOL    HW216269   4.539   2.509   2.245
 5124SOL     OW16270   2.177   6.336   3.922
 5124SOL    HW116271   2.205   6.378   4.008
 5124SOL    HW216272   2.080   6.311   3.926
 5125SOL     OW16273   0.447   2.293   4.017
 5125SOL    HW116274   0.529   2.332   3.974
 5125SOL    HW216275   0.429   2.341   4.103
 5126SOL     OW16276   1.905   7.013   1.495
 5126SOL    HW116277   1.990   7.021   1.547
 5126SOL    HW216278   1.876   0.079   1.464
 5127SOL     OW16279   1.942   5.452   0.627
 5127SOL    HW116280   2.016   5.397   0.588
 5127SOL    HW216281   1.855   5.406   0.612
 5128SOL     OW16282   6.098   5.896   1.399
 5128SOL    HW116283   6.062   5.847   1.479
 5128SOL    HW216284   6.178   5.848   1.364
 5129SOL     OW16285   4.926   6.596   1.233
 5129SOL    HW116286   4.921   6.545   1.147
 5129SOL    HW216287   5.015   6.640   1.241
 5130SOL     OW16288   5.930   4.859   3.715
 5130SOL    HW116289   5.884   4.892   3.798
 5130SOL    HW216290   5.867   4.799   3.665
 5131SOL     OW16291   1.972   2.465   3.715
 5131SOL    HW116292   1.903   2.392   3.719
 5131SOL    HW216293   2.039   2.442   3.645
 5132SOL     OW16294   3.465   5.189   6.050
 5132SOL    HW116295   3.449   5.188   6.149
 5132SOL    HW216296   3.555   5.228   6.031
 5133SOL     OW16297   3.996   6.451   6.391
 5133SOL    HW116298   3.975   6.388   6.315
 5133SOL    HW216299   4.062   6.408   6.452
 5134SOL     OW16300   0.487   3.631   1.110
 5134SOL    HW116301   0.489   3.567   1.187
 5134SOL    HW216302   0.446   3.587   1.031
 5135SOL     OW16303   6.910   1.845   4.614
 5135SOL    HW116304   6.999   1.881   4.585
 5135SOL    HW216305   6.877   1.780   4.545
 5136SOL     OW16306   4.974   1.074   3.924
 5136SOL    HW116307   5.057   1.021   3.908
 5136SOL    HW216308   4.916   1.024   3.989
 5137SOL     OW16309   4.393   4.078   6.028
 5137SOL    HW116310   4.382   4.123   5.940
 5137SOL    HW216311   4.391   4.145   6.102
 5138SOL     OW16312   2.224   3.844   5.983
 5138SOL    HW116313   2.171   3.813   5.903
 5138SOL    HW216314   2.281   3.921   5.957
 5139SOL     OW16315   1.097   6.773   4.228
 5139SOL    HW116316   1.010   6.809   4.261
 5139SOL    HW216317   1.083   6.682   4.189
 5140SOL     OW16318   3.243   2.841   0.588
 5140SOL    HW116319   3.279   2.800   0.504
 5140SOL    HW216320   3.167   2.786   0.622
 5141SOL     OW16321   5.623   3.008   0.283
 5141SOL    HW116322   5.711   3.057   0.286
 5141SOL    HW216323   5.586   3.011   0.190
 5142SOL     OW16324   5.999   3.626   4.769
 5142SOL    HW116325   5.993   3.580   4.681
 5142SOL    HW216326   5.909   3.664   4.793
 5143SOL     OW16327   6.520   5.095   4.433
 5143SOL    HW116328   6.577   5.177   4.434
 5143SOL    HW216329   6.512   5.061   4.339
 5144SOL     OW16330   1.249   0.801   6.156
 5144SOL    HW116331   1.248   0.710   6.115
 5144SOL    HW216332   1.175   0.808   6.223
 5145SOL     OW16333   2.604   5.207   6.153
 5145SOL    HW116334   2.523   5.186   6.207
 5145SOL    HW216335   2.608   5.147   6.073
 5146SOL     OW16336   3.255   4.324   6.686
 5146SOL    HW116337   3.161   4.298   6.707
 5146SOL    HW216338   3.317   4.255   6.722
 5147SOL     OW16339   6.615   4.324   0.066
 5147SOL    HW116340   6.528   4.292   0.028
 5147SOL    HW216341   6.603   4.344   0.163
 5148SOL     OW16342   6.867   5.922   1.403
 5148SOL    HW116343   6.827   5.891   1.490
 5148SOL    HW216344   6.958   5.884   1.392
 5149SOL     OW16345   6.388   1.201   3.679
 5149SOL    HW116346   6.290   1.184   3.691
 5149SOL    HW216347   6.402   1.295   3.650
 5150SOL     OW16348   1.253   5.447   3.905
 5150SOL    HW116349   1.232   5.349   3.911
 5150SOL    HW216350   1.272   5.471   3.810
 5151SOL     OW16351   4.832   0.935   6.021
 5151SOL    HW116352   4.743   0.927   5.975
 5151SOL    HW216353   4.860   1.031   6.022
 5152SOL     OW16354   0.913   4.268   0.272
 5152SOL    HW116355   0.891   4.178   0.309
 5152SOL    HW216356   0.930   4.332   0.347
 5153SOL     OW16357   1.645   1.952   0.723
 5153SOL    HW116358   1.730   2.001   0.701
 5153SOL    HW216359   1.581   2.015   0.767
 5154SOL     OW16360   1.754   3.344   5.594
 5154SOL    HW116361   1.682   3.275   5.610
 5154SOL    HW216362   1.842   3.308   5.624
 5155SOL     OW16363   3.754   6.695   2.009
 5155SOL    HW116364   3.735   6.792   1.994
 5155SOL    HW216365   3.829   6.666   1.950
 5156SOL     OW16366   6.495   2.478   5.272
 5156SOL    HW116367   6.570   2.436   5.221
 5156SOL    HW216368   6.455   2.552   5.217
 5157SOL     OW16369   5.308   2.986   3.713
 5157SOL    HW116370   5.324   2.982   3.614
 5157SOL    HW216371   5.382   2.939   3.760
 5158SOL     OW16372   4.209   0.671   1.128
 5158SOL    HW116373   4.138   0.732   1.164
 5158SOL    HW216374   4.175   0.577   1.129
 5159SOL     OW16375   1.229   3.661   4.330
 5159SOL    HW116376   1.202   3.575   4.372
 5159SOL    HW216377   1.162   3.686   4.260
 5160SOL     OW16378   1.824   3.820   4.560
 5160SOL    HW116379   1.792   3.904   4.605
 5160SOL    HW216380   1.772   3.805   4.476
 5161SOL     OW16381   1.287   3.173   5.534
 5161SOL    HW116382   1.235   3.116   5.599
 5161SOL    HW216383   1.371   3.206   5.579
 5162SOL     OW16384   6.855   6.561   3.785
 5162SOL    HW116385   6.869   6.462   3.778
 5162SOL    HW216386   6.914   6.608   3.718
 5163SOL     OW16387   5.739   4.688   1.256
 5163SOL    HW116388   5.734   4.747   1.337
 5163SOL    HW216389   5.690   4.603   1.274
 5164SOL     OW16390   6.363   3.583   5.396
 5164SOL    HW116391   6.293   3.532   5.346
 5164SOL    HW216392   6.359   3.558   5.493
 5165SOL     OW16393   6.346   4.454   4.398
 5165SOL    HW116394   6.341   4.516   4.476
 5165SOL    HW216395   6.380   4.365   4.428
 5166SOL     OW16396   1.757   4.862   2.181
 5166SOL    HW116397   1.723   4.817   2.097
 5166SOL    HW216398   1.698   4.939   2.203
 5167SOL     OW16399   0.231   6.541   5.776
 5167SOL    HW116400   0.244   6.543   5.677
 5167SOL    HW216401   0.201   6.450   5.804
 5168SOL     OW16402   4.122   2.247   2.819
 5168SOL    HW116403   4.201   2.188   2.805
 5168SOL    HW216404   4.121   2.319   2.749
 5169SOL     OW16405   3.297   3.504   6.290
 5169SOL    HW116406   3.288   3.529   6.386
 5169SOL    HW216407   3.256   3.574   6.233
 5170SOL     OW16408   6.377   4.506   4.878
 5170SOL    HW116409   6.460   4.530   4.828
 5170SOL    HW216410   6.363   4.572   4.952
 5171SOL     OW16411   1.572   4.768   4.428
 5171SOL    HW116412   1.640   4.810   4.488
 5171SOL    HW216413   1.541   4.835   4.360
 5172SOL     OW16414   0.781   4.630   2.482
 5172SOL    HW116415   0.712   4.700   2.468
 5172SOL    HW216416   0.820   4.639   2.574
 5173SOL     OW16417   5.065   3.152   6.263
 5173SOL    HW116418   5.154   3.154   6.218
 5173SOL    HW216419   5.047   3.240   6.306
 5174SOL     OW16420   1.727   4.956   6.239
 5174SOL    HW116421   1.737   4.904   6.154
 5174SOL    HW216422   1.702   4.894   6.313
 5175SOL     OW16423   1.182   4.238   0.723
 5175SOL    HW116424   1.225   4.283   0.645
 5175SOL    HW216425   1.115   4.299   0.764
 5176SOL     OW16426   3.798   3.974   1.053
 5176SOL    HW116427   3.809   3.916   1.133
 5176SOL    HW216428   3.771   3.918   0.975
 5177SOL     OW16429   4.916   6.592   5.925
 5177SOL    HW116430   4.977   6.522   5.962
 5177SOL    HW216431   4.869   6.639   6.000
 5178SOL     OW16432   2.662   2.728   1.742
 5178SOL    HW116433   2.641   2.640   1.784
 5178SOL    HW216434   2.586   2.791   1.757
 5179SOL     OW16435   3.269   6.154   5.458
 5179SOL    HW116436   3.318   6.092   5.397
 5179SOL    HW216437   3.182   6.112   5.484
 5180SOL     OW16438   2.867   2.488   0.787
 5180SOL    HW116439   2.884   2.456   0.880
 5180SOL    HW216440   2.863   2.411   0.724
 5181SOL     OW16441   4.443   0.073   2.640
 5181SOL    HW116442   4.368   0.122   2.684
 5181SOL    HW216443   4.499   0.028   2.710
 5182SOL     OW16444   5.727   4.411   1.989
 5182SOL    HW116445   5.693   4.362   1.908
 5182SOL    HW216446   5.791   4.352   2.038
 5183SOL     OW16447   4.402   6.833   1.673
 5183SOL    HW116448   4.364   6.922   1.648
 5183SOL    HW216449   4.391   6.818   1.772
 5184SOL     OW16450   0.921   0.949   2.953
 5184SOL    HW116451   0.915   0.941   2.854
 5184SOL    HW216452   0.879   1.035   2.983
 5185SOL     OW16453   3.787   0.007   2.559
 5185SOL    HW116454   3.703   6.996   2.598
 5185SOL    HW216455   3.808   6.983   2.474
 5186SOL     OW16456   6.809   4.331   0.839
 5186SOL    HW116457   6.738   4.262   0.830
 5186SOL    HW216458   6.898   4.286   0.848
 5187SOL     OW16459   6.210   1.916   3.372
 5187SOL    HW116460   6.202   1.948   3.466
 5187SOL    HW216461   6.156   1.833   3.361
 5188SOL     OW16462   0.648   4.410   5.985
 5188SOL    HW116463   0.700   4.346   5.928
 5188SOL    HW216464   0.706   4.441   6.060
 5189SOL     OW16465   4.805   4.582   6.457
 5189SOL    HW116466   4.730   4.562   6.520
 5189SOL    HW216467   4.785   4.541   6.368
 5190SOL     OW16468   1.115   2.472   3.961
 5190SOL    HW116469   1.074   2.556   3.926
 5190SOL    HW216470   1.065   2.393   3.926
 5191SOL     OW16471   3.394   1.239   1.551
 5191SOL    HW116472   3.362   1.325   1.512
 5191SOL    HW216473   3.433   1.255   1.642
 5192SOL     OW16474   5.593   5.816   2.584
 5192SOL    HW116475   5.520   5.797   2.649
 5192SOL    HW216476   5.645   5.896   2.614
 5193SOL     OW16477   4.855   4.075   4.432
 5193SOL    HW116478   4.864   4.079   4.332
 5193SOL    HW216479   4.901   3.993   4.466
 5194SOL     OW16480   5.703   0.808   5.828
 5194SOL    HW116481   5.625   0.833   5.886
 5194SOL    HW216482   5.672   0.795   5.734
 5195SOL     OW16483   5.987   6.718   5.196
 5195SOL    HW116484   6.014   6.622   5.201
 5195SOL    HW216485   5.956   6.748   5.286
 5196SOL     OW16486   0.172   4.362   1.847
 5196SOL    HW116487   0.239   4.433   1.866
 5196SOL    HW216488   0.200   4.277   1.892
 5197SOL     OW16489   2.468   5.802   5.072
 5197SOL    HW116490   2.567   5.804   5.086
 5197SOL    HW216491   2.448   5.783   4.976
 5198SOL     OW16492   3.791   6.534   5.422
 5198SOL    HW116493   3.772   6.460   5.487
 5198SOL    HW216494   3.720   6.604   5.428
 5199SOL     OW16495   2.201   5.422   1.598
 5199SOL    HW116496   2.197   5.362   1.518
 5199SOL    HW216497   2.201   5.366   1.681
 5200SOL     OW16498   0.084   1.547   4.713
 5200SOL    HW116499   0.103   1.596   4.628
 5200SOL    HW216500   0.147   1.470   4.721
 5201SOL     OW16501   5.373   4.898   4.071
 5201SOL    HW116502   5.349   4.960   4.146
 5201SOL    HW216503   5.471   4.878   4.074
 5202SOL     OW16504   3.781   3.076   6.371
 5202SOL    HW116505   3.794   3.090   6.470
 5202SOL    HW216506   3.773   3.165   6.326
 5203SOL     OW16507   2.119   0.162   0.463
 5203SOL    HW116508   2.171   0.077   0.469
 5203SOL    HW216509   2.116   0.204   0.554
 5204SOL     OW16510   3.489   1.024   6.944
 5204SOL    HW116511   3.568   1.027   6.883
 5204SOL    HW216512   3.472   0.929   6.972
 5205SOL     OW16513   0.050   5.575   0.603
 5205SOL    HW116514   0.024   5.542   0.694
 5205SOL    HW216515   0.023   5.671   0.593
 5206SOL     OW16516   0.765   4.763   5.191
 5206SOL    HW116517   0.765   4.730   5.285
 5206SOL    HW216518   0.818   4.700   5.134
 5207SOL     OW16519   0.274   0.732   4.558
 5207SOL    HW116520   0.281   0.813   4.499
 5207SOL    HW216521   0.204   0.670   4.523
 5208SOL     OW16522   4.603   2.393   0.704
 5208SOL    HW116523   4.643   2.303   0.688
 5208SOL    HW216524   4.523   2.385   0.763
 5209SOL     OW16525   4.952   5.925   3.023
 5209SOL    HW116526   4.893   6.001   2.994
 5209SOL    HW216527   4.905   5.838   3.006
 5210SOL     OW16528   5.679   4.220   0.512
 5210SOL    HW116529   5.681   4.187   0.606
 5210SOL    HW216530   5.651   4.146   0.451
 5211SOL     OW16531   4.653   2.663   3.969
 5211SOL    HW116532   4.686   2.675   4.063
 5211SOL    HW216533   4.728   2.683   3.905
 5212SOL     OW16534   0.997   3.370   1.255
 5212SOL    HW116535   1.002   3.274   1.283
 5212SOL    HW216536   0.911   3.410   1.287
 5213SOL     OW16537   4.076   3.352   2.879
 5213SOL    HW116538   4.071   3.374   2.782
 5213SOL    HW216539   4.009   3.281   2.901
 5214SOL     OW16540   5.775   3.692   5.946
 5214SOL    HW116541   5.759   3.687   5.848
 5214SOL    HW216542   5.783   3.788   5.974
 5215SOL     OW16543   0.323   3.804   4.895
 5215SOL    HW116544   0.234   3.849   4.887
 5215SOL    HW216545   0.357   3.780   4.804
 5216SOL     OW16546   5.383   5.052   0.506
 5216SOL    HW116547   5.373   4.954   0.521
 5216SOL    HW216548   5.292   5.093   0.496
 5217SOL     OW16549   4.006   6.077   3.692
 5217SOL    HW116550   3.939   6.022   3.641
 5217SOL    HW216551   4.077   6.017   3.729
 5218SOL     OW16552   0.553   0.362   1.058
 5218SOL    HW116553   0.575   0.274   1.099
 5218SOL    HW216554   0.457   0.365   1.032
 5219SOL     OW16555   2.160   2.149   5.499
 5219SOL    HW116556   2.117   2.134   5.588
 5219SOL    HW216557   2.207   2.065   5.471
 5220SOL     OW16558   1.730   4.815   3.762
 5220SOL    HW116559   1.631   4.800   3.766
 5220SOL    HW216560   1.768   4.814   3.854
 5221SOL     OW16561   6.486   0.091   0.733
 5221SOL    HW116562   6.547   0.131   0.665
 5221SOL    HW216563   6.506   0.131   0.822
 5222SOL     OW16564   4.950   4.561   1.397
 5222SOL    HW116565   4.977   4.604   1.483
 5222SOL    HW216566   4.859   4.591   1.372
 5223SOL     OW16567   0.701   3.092   1.234
 5223SOL    HW116568   0.715   3.143   1.150
 5223SOL    HW216569   0.621   3.128   1.282
 5224SOL     OW16570   0.778   2.504   4.707
 5224SOL    HW116571   0.762   2.603   4.708
 5224SOL    HW216572   0.740   2.466   4.622
 5225SOL     OW16573   0.612   1.643   4.835
 5225SOL    HW116574   0.534   1.698   4.807
 5225SOL    HW216575   0.689   1.661   4.774
 5226SOL     OW16576   6.724   6.757   3.892
 5226SOL    HW116577   6.753   6.689   3.825
 5226SOL    HW216578   6.695   6.711   3.976
 5227SOL     OW16579   0.205   2.584   4.934
 5227SOL    HW116580   0.110   2.584   4.965
 5227SOL    HW216581   0.264   2.551   5.008
 5228SOL     OW16582   1.808   2.624   5.977
 5228SOL    HW116583   1.834   2.533   5.944
 5228SOL    HW216584   1.719   2.649   5.938
 5229SOL     OW16585   4.386   0.913   6.010
 5229SOL    HW116586   4.321   0.864   6.068
 5229SOL    HW216587   4.422   0.992   6.060
 5230SOL     OW16588   6.940   7.006   2.052
 5230SOL    HW116589   6.902   6.954   1.976
 5230SOL    HW216590   6.869   7.021   2.121
 5231SOL     OW16591   6.446   1.753   2.601
 5231SOL    HW116592   6.504   1.779   2.524
 5231SOL    HW216593   6.357   1.721   2.567
 5232SOL     OW16594   2.039   2.945   5.787
 5232SOL    HW116595   2.111   2.881   5.815
 5232SOL    HW216596   1.981   2.901   5.719
 5233SOL     OW16597   3.198   0.609   2.755
 5233SOL    HW116598   3.204   0.531   2.818
 5233SOL    HW216599   3.222   0.579   2.663
 5234SOL     OW16600   2.565   2.296   1.248
 5234SOL    HW116601   2.649   2.281   1.300
 5234SOL    HW216602   2.584   2.291   1.150
 5235SOL     OW16603   2.800   1.506   1.128
 5235SOL    HW116604   2.762   1.422   1.090
 5235SOL    HW216605   2.880   1.534   1.075
 5236SOL     OW16606   3.459   5.538   1.759
 5236SOL    HW116607   3.443   5.442   1.782
 5236SOL    HW216608   3.516   5.580   1.830
 5237SOL     OW16609   1.949   2.259   4.070
 5237SOL    HW116610   2.035   2.215   4.043
 5237SOL    HW216611   1.943   2.260   4.170
 5238SOL     OW16612   1.122   6.056   2.721
 5238SOL    HW116613   1.132   6.150   2.753
 5238SOL    HW216614   1.059   6.053   2.644
 5239SOL     OW16615   2.632   3.836   1.122
 5239SOL    HW116616   2.725   3.821   1.156
 5239SOL    HW216617   2.588   3.747   1.107
 5240SOL     OW16618   2.066   3.750   5.781
 5240SOL    HW116619   2.076   3.790   5.690
 5240SOL    HW216620   2.018   3.663   5.774
 5241SOL     OW16621   0.579   5.783   2.267
 5241SOL    HW116622   0.491   5.812   2.304
 5241SOL    HW216623   0.616   5.854   2.207
 5242SOL     OW16624   4.921   0.646   6.711
 5242SOL    HW116625   4.826   0.677   6.704
 5242SOL    HW216626   4.929   0.579   6.785
 5243SOL     OW16627   2.108   6.669   2.001
 5243SOL    HW116628   2.195   6.667   2.051
 5243SOL    HW216629   2.115   6.611   1.920
 5244SOL     OW16630   4.883   3.044   0.805
 5244SOL    HW116631   4.831   3.081   0.728
 5244SOL    HW216632   4.820   3.001   0.870
 5245SOL     OW16633   4.128   3.749   1.320
 5245SOL    HW116634   4.195   3.795   1.378
 5245SOL    HW216635   4.130   3.790   1.229
 5246SOL     OW16636   6.087   2.888   1.198
 5246SOL    HW116637   6.131   2.825   1.134
 5246SOL    HW216638   5.991   2.862   1.210
 5247SOL     OW16639   4.287   1.964   6.580
 5247SOL    HW116640   4.271   1.872   6.544
 5247SOL    HW216641   4.352   2.013   6.522
 5248SOL     OW16642   6.641   1.572   3.462
 5248SOL    HW116643   6.732   1.544   3.434
 5248SOL    HW216644   6.574   1.538   3.396
 5249SOL     OW16645   0.622   4.823   6.801
 5249SOL    HW116646   0.557   4.759   6.760
 5249SOL    HW216647   0.609   4.914   6.763
 5250SOL     OW16648   2.153   6.166   0.744
 5250SOL    HW116649   2.251   6.185   0.743
 5250SOL    HW216650   2.105   6.232   0.685
 5251SOL     OW16651   0.603   4.794   0.821
 5251SOL    HW116652   0.689   4.843   0.840
 5251SOL    HW216653   0.604   4.706   0.869
 5252SOL     OW16654   4.011   0.167   2.877
 5252SOL    HW116655   4.024   0.080   2.829
 5252SOL    HW216656   3.917   0.173   2.910
 5253SOL     OW16657   5.933   4.723   4.545
 5253SOL    HW116658   5.954   4.813   4.506
 5253SOL    HW216659   5.988   4.653   4.500
 5254SOL     OW16660   6.029   0.150   2.791
 5254SOL    HW116661   6.034   0.051   2.775
 5254SOL    HW216662   6.063   0.198   2.710
 5255SOL     OW16663   6.314   1.617   4.857
 5255SOL    HW116664   6.221   1.653   4.856
 5255SOL    HW216665   6.366   1.654   4.781
 5256SOL     OW16666   5.711   0.936   2.757
 5256SOL    HW116667   5.751   0.953   2.667
 5256SOL    HW216668   5.773   0.880   2.811
 5257SOL     OW16669   3.818   0.808   5.732
 5257SOL    HW116670   3.844   0.825   5.827
 5257SOL    HW216671   3.726   0.767   5.730
 5258SOL     OW16672   4.665   2.075   2.622
 5258SOL    HW116673   4.698   2.047   2.712
 5258SOL    HW216674   4.686   2.004   2.555
 5259SOL     OW16675   5.544   5.451   2.870
 5259SOL    HW116676   5.510   5.436   2.777
 5259SOL    HW216677   5.550   5.363   2.918
 5260SOL     OW16678   2.263   1.015   0.910
 5260SOL    HW116679   2.231   1.003   0.816
 5260SOL    HW216680   2.209   1.086   0.955
 5261SOL     OW16681   6.401   4.472   0.384
 5261SOL    HW116682   6.414   4.515   0.295
 5261SOL    HW216683   6.304   4.474   0.408
 5262SOL     OW16684   2.286   0.929   2.743
 5262SOL    HW116685   2.235   1.004   2.701
 5262SOL    HW216686   2.249   0.911   2.835
 5263SOL     OW16687   1.915   0.760   2.949
 5263SOL    HW116688   1.850   0.794   2.881
 5263SOL    HW216689   2.000   0.813   2.943
 5264SOL     OW16690   6.938   2.055   1.504
 5264SOL    HW116691   0.013   2.049   1.511
 5264SOL    HW216692   6.912   2.150   1.487
 5265SOL     OW16693   6.337   4.068   4.702
 5265SOL    HW116694   6.254   4.088   4.651
 5265SOL    HW216695   6.380   3.986   4.666
 5266SOL     OW16696   2.244   0.381   1.022
 5266SOL    HW116697   2.235   0.367   0.924
 5266SOL    HW216698   2.318   0.324   1.058
 5267SOL     OW16699   4.823   2.304   4.247
 5267SOL    HW116700   4.805   2.368   4.173
 5267SOL    HW216701   4.819   2.210   4.212
 5268SOL     OW16702   5.671   0.880   6.193
 5268SOL    HW116703   5.675   0.855   6.290
 5268SOL    HW216704   5.755   0.850   6.148
 5269SOL     OW16705   0.304   6.398   3.413
 5269SOL    HW116706   0.209   6.398   3.382
 5269SOL    HW216707   0.364   6.406   3.334
 5270SOL     OW16708   0.189   2.391   6.363
 5270SOL    HW116709   0.175   2.309   6.418
 5270SOL    HW216710   0.212   2.468   6.423
 5271SOL     OW16711   6.244   5.803   3.936
 5271SOL    HW116712   6.307   5.880   3.946
 5271SOL    HW216713   6.285   5.720   3.973
 5272SOL     OW16714   4.317   0.338   0.305
 5272SOL    HW116715   4.352   0.321   0.397
 5272SOL    HW216716   4.360   0.276   0.240
 5273SOL     OW16717   1.034   2.702   2.662
 5273SOL    HW116718   1.059   2.616   2.618
 5273SOL    HW216719   0.957   2.743   2.614
 5274SOL     OW16720   4.498   5.730   2.325
 5274SOL    HW116721   4.539   5.803   2.271
 5274SOL    HW216722   4.520   5.641   2.285
 5275SOL     OW16723   3.558   1.094   6.442
 5275SOL    HW116724   3.560   0.998   6.412
 5275SOL    HW216725   3.573   1.098   6.540
 5276SOL     OW16726   3.381   6.330   2.348
 5276SOL    HW116727   3.419   6.258   2.291
 5276SOL    HW216728   3.423   6.327   2.438
 5277SOL     OW16729   2.432   2.021   2.064
 5277SOL    HW116730   2.355   2.071   2.024
 5277SOL    HW216731   2.511   2.028   2.004
 5278SOL     OW16732   4.684   5.011   1.511
 5278SOL    HW116733   4.634   4.929   1.539
 5278SOL    HW216734   4.782   4.992   1.509
 5279SOL     OW16735   2.660   5.014   1.868
 5279SOL    HW116736   2.629   5.090   1.925
 5279SOL    HW216737   2.737   4.969   1.913
 5280SOL     OW16738   4.044   6.002   4.492
 5280SOL    HW116739   4.013   6.055   4.570
 5280SOL    HW216740   4.068   5.910   4.521
 5281SOL     OW16741   0.528   1.772   1.694
 5281SOL    HW116742   0.576   1.689   1.723
 5281SOL    HW216743   0.477   1.753   1.610
 5282SOL     OW16744   3.394   1.964   3.449
 5282SOL    HW116745   3.460   2.012   3.391
 5282SOL    HW216746   3.444   1.909   3.517
 5283SOL     OW16747   5.351   5.273   6.738
 5283SOL    HW116748   5.436   5.324   6.739
 5283SOL    HW216749   5.353   5.206   6.663
 5284SOL     OW16750   5.697   2.960   2.947
 5284SOL    HW116751   5.699   2.961   2.847
 5284SOL    HW216752   5.677   2.868   2.979
 5285SOL     OW16753   3.187   5.194   3.114
 5285SOL    HW116754   3.192   5.260   3.039
 5285SOL    HW216755   3.117   5.125   3.093
 5286SOL     OW16756   1.996   4.708   1.435
 5286SOL    HW116757   2.028   4.638   1.499
 5286SOL    HW216758   1.930   4.767   1.482
 5287SOL     OW16759   1.921   2.099   1.239
 5287SOL    HW116760   1.853   2.041   1.193
 5287SOL    HW216761   1.935   2.182   1.185
 5288SOL     OW16762   3.750   6.900   0.682
 5288SOL    HW116763   3.659   6.906   0.642
 5288SOL    HW216764   3.815   6.868   0.613
 5289SOL     OW16765   1.691   5.695   1.665
 5289SOL    HW116766   1.773   5.751   1.667
 5289SOL    HW216767   1.704   5.618   1.601
 5290SOL     OW16768   4.511   6.371   0.290
 5290SOL    HW116769   4.569   6.297   0.256
 5290SOL    HW216770   4.474   6.423   0.213
 5291SOL     OW16771   2.104   4.866   6.337
 5291SOL    HW116772   2.195   4.887   6.373
 5291SOL    HW216773   2.099   4.770   6.312
 5292SOL     OW16774   4.260   3.101   5.862
 5292SOL    HW116775   4.335   3.132   5.920
 5292SOL    HW216776   4.183   3.073   5.919
 5293SOL     OW16777   0.676   0.194   4.613
 5293SOL    HW116778   0.721   0.197   4.523
 5293SOL    HW216779   0.581   0.166   4.601
 5294SOL     OW16780   5.724   2.479   5.736
 5294SOL    HW116781   5.741   2.535   5.817
 5294SOL    HW216782   5.774   2.517   5.659
 5295SOL     OW16783   6.497   1.136   1.974
 5295SOL    HW116784   6.422   1.120   1.911
 5295SOL    HW216785   6.494   1.068   2.048
 5296SOL     OW16786   0.627   4.604   1.425
 5296SOL    HW116787   0.692   4.530   1.406
 5296SOL    HW216788   0.554   4.602   1.357
 5297SOL     OW16789   2.138   2.483   1.302
 5297SOL    HW116790   2.162   2.386   1.310
 5297SOL    HW216791   2.179   2.520   1.218
 5298SOL     OW16792   0.971   5.255   1.424
 5298SOL    HW116793   0.905   5.271   1.498
 5298SOL    HW216794   0.969   5.333   1.361
 5299SOL     OW16795   3.055   0.212   2.169
 5299SOL    HW116796   3.028   0.297   2.214
 5299SOL    HW216797   2.982   0.144   2.179
 5300SOL     OW16798   6.787   5.279   3.043
 5300SOL    HW116799   6.731   5.319   3.115
 5300SOL    HW216800   6.854   5.217   3.084
 5301SOL     OW16801   4.169   1.679   0.063
 5301SOL    HW116802   4.187   1.600   0.121
 5301SOL    HW216803   4.111   1.651   7.011
 5302SOL     OW16804   6.088   4.236   2.964
 5302SOL    HW116805   6.050   4.309   3.021
 5302SOL    HW216806   6.172   4.267   2.921
 5303SOL     OW16807   0.328   4.586   3.339
 5303SOL    HW116808   0.413   4.626   3.371
 5303SOL    HW216809   0.314   4.608   3.242
 5304SOL     OW16810   5.162   1.828   5.815
 5304SOL    HW116811   5.162   1.761   5.889
 5304SOL    HW216812   5.247   1.881   5.819
 5305SOL     OW16813   2.407   1.146   3.279
 5305SOL    HW116814   2.465   1.216   3.322
 5305SOL    HW216815   2.457   1.059   3.275
 5306SOL     OW16816   2.973   0.038   5.771
 5306SOL    HW116817   3.044   0.107   5.758
 5306SOL    HW216818   2.885   0.074   5.740
 5307SOL     OW16819   5.106   6.881   0.084
 5307SOL    HW116820   5.067   6.843   0.001
 5307SOL    HW216821   5.118   6.980   0.073
 5308SOL     OW16822   6.873   1.203   2.602
 5308SOL    HW116823   6.964   1.199   2.561
 5308SOL    HW216824   6.855   1.118   2.651
 5309SOL     OW16825   3.354   4.041   3.603
 5309SOL    HW116826   3.264   4.024   3.643
 5309SOL    HW216827   3.347   4.034   3.503
 5310SOL     OW16828   4.833   2.375   0.903
 5310SOL    HW116829   4.829   2.360   1.002
 5310SOL    HW216830   4.742   2.363   0.864
 5311SOL     OW16831   1.065   5.537   0.040
 5311SOL    HW116832   1.098   5.543   6.971
 5311SOL    HW216833   1.116   5.601   0.098
 5312SOL     OW16834   0.340   3.882   2.897
 5312SOL    HW116835   0.407   3.876   2.823
 5312SOL    HW216836   0.253   3.842   2.867
 5313SOL     OW16837   1.241   5.597   1.049
 5313SOL    HW116838   1.143   5.580   1.039
 5313SOL    HW216839   1.261   5.693   1.031
 5314SOL     OW16840   3.702   4.935   0.839
 5314SOL    HW116841   3.744   4.848   0.864
 5314SOL    HW216842   3.604   4.932   0.859
 5315SOL     OW16843   5.406   2.403   2.253
 5315SOL    HW116844   5.506   2.396   2.254
 5315SOL    HW216845   5.377   2.451   2.170
 5316SOL     OW16846   5.951   5.176   3.966
 5316SOL    HW116847   5.983   5.270   3.953
 5316SOL    HW216848   5.852   5.175   3.974
 5317SOL     OW16849   5.470   6.303   2.646
 5317SOL    HW116850   5.409   6.331   2.573
 5317SOL    HW216851   5.561   6.286   2.608
 5318SOL     OW16852   0.491   2.398   4.515
 5318SOL    HW116853   0.433   2.419   4.594
 5318SOL    HW216854   0.571   2.346   4.545
 5319SOL     OW16855   4.681   0.444   0.583
 5319SOL    HW116856   4.666   0.447   0.682
 5319SOL    HW216857   4.779   0.439   0.565
 5320SOL     OW16858   5.810   2.891   5.702
 5320SOL    HW116859   5.900   2.919   5.735
 5320SOL    HW216860   5.788   2.942   5.619
 5321SOL     OW16861   2.140   5.335   6.087
 5321SOL    HW116862   2.108   5.245   6.059
 5321SOL    HW216863   2.076   5.374   6.154
 5322SOL     OW16864   3.228   5.888   0.459
 5322SOL    HW116865   3.184   5.886   0.370
 5322SOL    HW216866   3.304   5.823   0.461
 5323SOL     OW16867   5.461   2.826   0.570
 5323SOL    HW116868   5.479   2.924   0.584
 5323SOL    HW216869   5.390   2.815   0.500
 5324SOL     OW16870   3.570   3.575   1.988
 5324SOL    HW116871   3.659   3.552   1.950
 5324SOL    HW216872   3.579   3.594   2.086
 5325SOL     OW16873   4.944   5.878   3.583
 5325SOL    HW116874   4.994   5.876   3.496
 5325SOL    HW216875   4.886   5.797   3.590
 5326SOL     OW16876   6.519   6.207   1.766
 5326SOL    HW116877   6.506   6.146   1.688
 5326SOL    HW216878   6.573   6.160   1.836
 5327SOL     OW16879   6.737   0.734   3.550
 5327SOL    HW116880   6.671   0.713   3.623
 5327SOL    HW216881   6.806   0.662   3.545
 5328SOL     OW16882   3.983   4.730   0.931
 5328SOL    HW116883   3.973   4.735   1.031
 5328SOL    HW216884   4.065   4.679   0.907
 5329SOL     OW16885   6.912   4.934   0.006
 5329SOL    HW116886   6.934   4.871   6.957
 5329SOL    HW216887   6.932   5.028   7.002
 5330SOL     OW16888   4.726   4.449   0.779
 5330SOL    HW116889   4.669   4.526   0.750
 5330SOL    HW216890   4.693   4.414   0.867
 5331SOL     OW16891   4.506   3.394   6.798
 5331SOL    HW116892   4.570   3.337   6.747
 5331SOL    HW216893   4.488   3.478   6.746
 5332SOL     OW16894   5.932   2.773   0.223
 5332SOL    HW116895   5.913   2.778   0.321
 5332SOL    HW216896   5.853   2.734   0.176
 5333SOL     OW16897   1.585   1.709   3.951
 5333SOL    HW116898   1.493   1.748   3.949
 5333SOL    HW216899   1.614   1.697   4.046
 5334SOL     OW16900   4.354   5.588   2.046
 5334SOL    HW116901   4.263   5.555   2.071
 5334SOL    HW216902   4.352   5.687   2.035
 5335SOL     OW16903   0.264   4.234   1.233
 5335SOL    HW116904   0.293   4.222   1.328
 5335SOL    HW216905   0.288   4.153   1.180
 5336SOL     OW16906   1.473   3.768   3.886
 5336SOL    HW116907   1.530   3.850   3.892
 5336SOL    HW216908   1.400   3.783   3.819
 5337SOL     OW16909   6.461   4.671   1.004
 5337SOL    HW116910   6.422   4.587   1.043
 5337SOL    HW216911   6.417   4.690   0.916
 5338SOL     OW16912   6.850   3.383   0.796
 5338SOL    HW116913   6.837   3.421   0.887
 5338SOL    HW216914   6.927   3.429   0.751
 5339SOL     OW16915   5.327   3.254   2.888
 5339SOL    HW116916   5.291   3.292   2.973
 5339SOL    HW216917   5.373   3.167   2.906
 5340SOL     OW16918   5.965   2.811   2.176
 5340SOL    HW116919   5.994   2.876   2.106
 5340SOL    HW216920   5.951   2.859   2.263
 5341SOL     OW16921   3.827   5.375   4.077
 5341SOL    HW116922   3.734   5.374   4.040
 5341SOL    HW216923   3.883   5.440   4.025
 5342SOL     OW16924   6.108   0.047   4.497
 5342SOL    HW116925   6.207   0.030   4.490
 5342SOL    HW216926   6.082   0.116   4.429
 5343SOL     OW16927   3.404   3.631   6.974
 5343SOL    HW116928   3.493   3.587   6.966
 5343SOL    HW216929   3.416   3.729   6.987
 5344SOL     OW16930   1.451   1.598   6.484
 5344SOL    HW116931   1.539   1.592   6.530
 5344SOL    HW216932   1.438   1.517   6.427
 5345SOL     OW16933   5.080   1.945   0.403
 5345SOL    HW116934   5.013   1.981   0.468
 5345SOL    HW216935   5.121   1.861   0.440
 5346SOL     OW16936   2.974   6.044   3.958
 5346SOL    HW116937   2.998   6.032   3.862
 5346SOL    HW216938   2.906   5.976   3.985
 5347SOL     OW16939   5.974   1.559   3.956
 5347SOL    HW116940   6.062   1.522   3.987
 5347SOL    HW216941   5.934   1.496   3.889
 5348SOL     OW16942   5.596   2.316   2.821
 5348SOL    HW116943   5.498   2.299   2.831
 5348SOL    HW216944   5.646   2.238   2.860
 5349SOL     OW16945   0.509   4.048   2.423
 5349SOL    HW116946   0.501   3.985   2.501
 5349SOL    HW216947   0.509   4.142   2.457
 5350SOL     OW16948   1.491   6.487   0.214
 5350SOL    HW116949   1.453   6.571   0.252
 5350SOL    HW216950   1.579   6.506   0.171
 5351SOL     OW16951   6.666   6.487   2.639
 5351SOL    HW116952   6.703   6.396   2.621
 5351SOL    HW216953   6.616   6.486   2.725
 5352SOL     OW16954   1.199   3.362   5.099
 5352SOL    HW116955   1.176   3.308   5.179
 5352SOL    HW216956   1.295   3.391   5.104
 5353SOL     OW16957   3.721   5.541   3.558
 5353SOL    HW116958   3.706   5.546   3.460
 5353SOL    HW216959   3.799   5.482   3.578
 5354SOL     OW16960   4.550   5.739   0.465
 5354SOL    HW116961   4.542   5.727   0.564
 5354SOL    HW216962   4.536   5.651   0.420
 5355SOL     OW16963   5.207   4.563   5.104
 5355SOL    HW116964   5.222   4.475   5.149
 5355SOL    HW216965   5.154   4.550   5.020
 5356SOL     OW16966   0.530   5.248   1.194
 5356SOL    HW116967   0.480   5.321   1.147
 5356SOL    HW216968   0.593   5.204   1.130
 5357SOL     OW16969   5.749   3.130   2.464
 5357SOL    HW116970   5.767   3.227   2.454
 5357SOL    HW216971   5.657   3.109   2.431
 5358SOL     OW16972   4.138   2.222   0.178
 5358SOL    HW116973   4.205   2.246   0.248
 5358SOL    HW216974   4.109   2.127   0.191
 5359SOL     OW16975   3.583   2.370   6.977
 5359SOL    HW116976   3.547   2.339   6.889
 5359SOL    HW216977   3.526   2.333   0.026
 5360SOL     OW16978   5.371   4.444   3.159
 5360SOL    HW116979   5.368   4.496   3.073
 5360SOL    HW216980   5.342   4.349   3.142
 5361SOL     OW16981   2.034   5.402   2.335
 5361SOL    HW116982   2.080   5.418   2.422
 5361SOL    HW216983   2.082   5.452   2.262
 5362SOL     OW16984   5.741   0.660   1.809
 5362SOL    HW116985   5.717   0.567   1.781
 5362SOL    HW216986   5.840   0.668   1.819
 5363SOL     OW16987   5.950   5.657   3.307
 5363SOL    HW116988   5.922   5.733   3.366
 5363SOL    HW216989   6.002   5.694   3.230
 5364SOL     OW16990   4.812   1.131   2.278
 5364SOL    HW116991   4.783   1.046   2.233
 5364SOL    HW216992   4.805   1.207   2.214
 5365SOL     OW16993   3.554   2.883   3.826
 5365SOL    HW116994   3.613   2.810   3.859
 5365SOL    HW216995   3.589   2.917   3.738
 5366SOL     OW16996   6.242   5.978   2.666
 5366SOL    HW116997   6.276   6.047   2.730
 5366SOL    HW216998   6.290   5.987   2.579
 5367SOL     OW16999   6.411   6.119   1.520
 5367SOL    HW117000   6.353   6.039   1.502
 5367SOL    HW217001   6.469   6.137   1.441
 5368SOL     OW17002   6.399   6.043   3.991
 5368SOL    HW117003   6.494   6.038   4.022
 5368SOL    HW217004   6.341   6.074   4.066
 5369SOL     OW17005   2.836   5.358   2.639
 5369SOL    HW117006   2.882   5.444   2.617
 5369SOL    HW217007   2.864   5.287   2.573
 5370SOL     OW17008   1.478   3.665   0.888
 5370SOL    HW117009   1.518   3.732   0.825
 5370SOL    HW217010   1.385   3.694   0.912
 5371SOL     OW17011   5.596   5.559   4.627
 5371SOL    HW117012   5.599   5.529   4.723
 5371SOL    HW217013   5.519   5.621   4.614
 5372SOL     OW17014   1.043   0.029   3.099
 5372SOL    HW117015   1.091   0.116   3.106
 5372SOL    HW217016   1.103   6.986   3.055
 5373SOL     OW17017   3.859   1.520   6.818
 5373SOL    HW117018   3.772   1.561   6.789
 5373SOL    HW217019   3.914   1.588   6.865
 5374SOL     OW17020   1.664   4.671   2.340
 5374SOL    HW117021   1.691   4.757   2.298
 5374SOL    HW217022   1.696   4.595   2.284
 5375SOL     OW17023   1.566   4.154   4.248
 5375SOL    HW117024   1.494   4.203   4.297
 5375SOL    HW217025   1.624   4.105   4.314
 5376SOL     OW17026   0.446   0.124   6.215
 5376SOL    HW117027   0.454   0.065   6.296
 5376SOL    HW217028   0.361   0.101   6.166
 5377SOL     OW17029   1.883   0.913   3.295
 5377SOL    HW117030   1.894   0.814   3.284
 5377SOL    HW217031   1.969   0.959   3.272
 5378SOL     OW17032   4.906   0.998   2.033
 5378SOL    HW117033   4.960   1.064   2.085
 5378SOL    HW217034   4.951   0.981   1.945
 5379SOL     OW17035   1.458   1.942   6.062
 5379SOL    HW117036   1.377   1.901   6.020
 5379SOL    HW217037   1.435   2.032   6.097
 5380SOL     OW17038   4.401   6.533   1.504
 5380SOL    HW117039   4.347   6.585   1.570
 5380SOL    HW217040   4.428   6.593   1.429
 5381SOL     OW17041   4.382   6.909   3.840
 5381SOL    HW117042   4.405   7.006   3.851
 5381SOL    HW217043   4.442   6.854   3.898
 5382SOL     OW17044   4.220   1.528   1.554
 5382SOL    HW117045   4.274   1.565   1.478
 5382SOL    HW217046   4.151   1.595   1.581
 5383SOL     OW17047   2.086   2.718   4.556
 5383SOL    HW117048   2.027   2.779   4.608
 5383SOL    HW217049   2.125   2.649   4.616
 5384SOL     OW17050   5.269   5.375   4.212
 5384SOL    HW117051   5.314   5.441   4.151
 5384SOL    HW217052   5.258   5.416   4.303
 5385SOL     OW17053   3.881   2.760   5.949
 5385SOL    HW117054   3.873   2.833   5.881
 5385SOL    HW217055   3.861   2.672   5.906
 5386SOL     OW17056   5.810   4.558   4.244
 5386SOL    HW117057   5.781   4.486   4.307
 5386SOL    HW217058   5.901   4.592   4.270
 5387SOL     OW17059   2.015   1.229   3.474
 5387SOL    HW117060   2.054   1.157   3.417
 5387SOL    HW217061   2.042   1.318   3.438
 5388SOL     OW17062   0.687   6.555   2.039
 5388SOL    HW117063   0.750   6.506   2.099
 5388SOL    HW217064   0.656   6.639   2.084
 5389SOL     OW17065   4.401   1.641   4.281
 5389SOL    HW117066   4.377   1.547   4.306
 5389SOL    HW217067   4.340   1.672   4.209
 5390SOL     OW17068   0.573   2.997   2.799
 5390SOL    HW117069   0.474   2.996   2.813
 5390SOL    HW217070   0.615   3.059   2.866
 5391SOL     OW17071   2.946   3.701   0.360
 5391SOL    HW117072   2.871   3.645   0.325
 5391SOL    HW217073   3.025   3.642   0.378
 5392SOL     OW17074   5.555   1.898   3.743
 5392SOL    HW117075   5.556   1.834   3.820
 5392SOL    HW217076   5.563   1.991   3.777
 5393SOL     OW17077   4.697   1.594   5.007
 5393SOL    HW117078   4.772   1.618   5.069
 5393SOL    HW217079   4.710   1.641   4.920
 5394SOL     OW17080   1.777   2.130   0.955
 5394SOL    HW117081   1.752   2.043   0.998
 5394SOL    HW217082   1.868   2.122   0.914
 5395SOL     OW17083   6.542   2.016   0.523
 5395SOL    HW117084   6.572   1.923   0.500
 5395SOL    HW217085   6.621   2.077   0.526
 5396SOL     OW17086   5.199   4.235   1.117
 5396SOL    HW117087   5.272   4.303   1.108
 5396SOL    HW217088   5.116   4.279   1.151
 5397SOL     OW17089   0.390   1.307   2.573
 5397SOL    HW117090   0.344   1.262   2.649
 5397SOL    HW217091   0.365   1.404   2.572
 5398SOL     OW17092   5.569   1.264   2.427
 5398SOL    HW117093   5.522   1.322   2.493
 5398SOL    HW217094   5.650   1.312   2.392
 5399SOL     OW17095   2.091   1.328   0.035
 5399SOL    HW117096   2.026   1.258   0.005
 5399SOL    HW217097   2.047   1.418   0.032
 5400SOL     OW17098   4.765   3.535   1.779
 5400SOL    HW117099   4.678   3.487   1.770
 5400SOL    HW217100   4.840   3.470   1.774
 5401SOL     OW17101   5.837   2.820   1.234
 5401SOL    HW117102   5.779   2.766   1.173
 5401SOL    HW217103   5.782   2.892   1.276
 5402SOL     OW17104   1.106   6.239   1.916
 5402SOL    HW117105   1.149   6.237   2.006
 5402SOL    HW217106   1.173   6.267   1.848
 5403SOL     OW17107   4.743   3.057   0.252
 5403SOL    HW117108   4.684   3.137   0.268
 5403SOL    HW217109   4.704   3.001   0.179
 5404SOL     OW17110   5.983   1.015   0.460
 5404SOL    HW117111   5.897   0.988   0.503
 5404SOL    HW217112   6.048   0.940   0.465
 5405SOL     OW17113   6.755   5.278   0.063
 5405SOL    HW117114   6.681   5.345   0.059
 5405SOL    HW217115   6.730   5.204   0.125
 5406SOL     OW17116   2.332   0.827   5.528
 5406SOL    HW117117   2.414   0.798   5.577
 5406SOL    HW217118   2.304   0.917   5.560
 5407SOL     OW17119   2.275   7.004   2.763
 5407SOL    HW117120   2.246   0.056   2.705
 5407SOL    HW217121   2.308   0.014   2.851
 5408SOL     OW17122   3.496   1.558   3.990
 5408SOL    HW117123   3.559   1.482   3.975
 5408SOL    HW217124   3.432   1.563   3.914
 5409SOL     OW17125   0.569   2.623   1.739
 5409SOL    HW117126   0.479   2.641   1.779
 5409SOL    HW217127   0.596   2.699   1.681
 5410SOL     OW17128   1.253   2.559   1.137
 5410SOL    HW117129   1.250   2.459   1.145
 5410SOL    HW217130   1.173   2.591   1.086
 5411SOL     OW17131   3.124   5.268   0.066
 5411SOL    HW117132   3.068   5.289   7.011
 5411SOL    HW217133   3.171   5.351   0.097
 5412SOL     OW17134   0.270   2.000   6.050
 5412SOL    HW117135   0.357   1.949   6.049
 5412SOL    HW217136   0.219   1.981   5.966
 5413SOL     OW17137   6.427   6.102   4.287
 5413SOL    HW117138   6.353   6.154   4.244
 5413SOL    HW217139   6.393   6.012   4.315
 5414SOL     OW17140   5.431   4.193   5.828
 5414SOL    HW117141   5.422   4.104   5.783
 5414SOL    HW217142   5.352   4.207   5.888
 5415SOL     OW17143   4.362   0.865   0.303
 5415SOL    HW117144   4.376   0.893   0.398
 5415SOL    HW217145   4.358   0.946   0.245
 5416SOL     OW17146   3.428   5.920   6.126
 5416SOL    HW117147   3.441   5.953   6.033
 5416SOL    HW217148   3.330   5.905   6.143
 5417SOL     OW17149   4.050   6.677   4.329
 5417SOL    HW117150   3.999   6.717   4.253
 5417SOL    HW217151   4.125   6.622   4.294
 5418SOL     OW17152   6.685   3.150   4.372
 5418SOL    HW117153   6.731   3.065   4.396
 5418SOL    HW217154   6.748   3.227   4.384
 5419SOL     OW17155   5.071   6.915   6.040
 5419SOL    HW117156   5.083   6.819   6.064
 5419SOL    HW217157   5.095   6.972   6.118
 5420SOL     OW17158   0.753   1.052   2.121
 5420SOL    HW117159   0.821   0.983   2.147
 5420SOL    HW217160   0.747   1.121   2.193
 5421SOL     OW17161   4.076   4.753   2.040
 5421SOL    HW117162   4.175   4.743   2.049
 5421SOL    HW217163   4.031   4.707   2.117
 5422SOL     OW17164   2.741   5.165   3.759
 5422SOL    HW117165   2.653   5.122   3.737
 5422SOL    HW217166   2.770   5.137   3.850
 5423SOL     OW17167   5.432   5.945   1.721
 5423SOL    HW117168   5.432   5.965   1.623
 5423SOL    HW217169   5.502   5.878   1.742
 5424SOL     OW17170   4.355   4.379   5.633
 5424SOL    HW117171   4.356   4.477   5.614
 5424SOL    HW217172   4.333   4.329   5.549
 5425SOL     OW17173   1.619   4.474   5.448
 5425SOL    HW117174   1.601   4.492   5.545
 5425SOL    HW217175   1.553   4.408   5.413
 5426SOL     OW17176   5.892   5.375   1.155
 5426SOL    HW117177   5.982   5.335   1.175
 5426SOL    HW217178   5.903   5.473   1.138
 5427SOL     OW17179   4.461   1.759   6.218
 5427SOL    HW117180   4.532   1.690   6.235
 5427SOL    HW217181   4.481   1.806   6.132
 5428SOL     OW17182   6.003   5.765   2.516
 5428SOL    HW117183   6.023   5.720   2.603
 5428SOL    HW217184   5.917   5.730   2.479
 5429SOL     OW17185   3.642   0.239   4.593
 5429SOL    HW117186   3.604   0.301   4.524
 5429SOL    HW217187   3.623   0.274   4.684
 5430SOL     OW17188   2.473   3.828   5.655
 5430SOL    HW117189   2.404   3.764   5.690
 5430SOL    HW217190   2.511   3.793   5.569
 5431SOL     OW17191   3.413   4.248   0.052
 5431SOL    HW117192   3.454   4.216   0.137
 5431SOL    HW217193   3.313   4.251   0.062
 5432SOL     OW17194   0.094   5.610   6.748
 5432SOL    HW117195   0.039   5.638   6.826
 5432SOL    HW217196   0.069   5.518   6.720
 5433SOL     OW17197   2.066   0.476   1.266
 5433SOL    HW117198   2.163   0.477   1.293
 5433SOL    HW217199   2.056   0.516   1.175
 5434SOL     OW17200   5.281   0.775   4.864
 5434SOL    HW117201   5.233   0.818   4.941
 5434SOL    HW217202   5.363   0.728   4.898
 5435SOL     OW17203   6.710   4.589   0.942
 5435SOL    HW117204   6.614   4.616   0.947
 5435SOL    HW217205   6.716   4.490   0.929
 5436SOL     OW17206   1.130   4.641   2.831
 5436SOL    HW117207   1.136   4.650   2.732
 5436SOL    HW217208   1.219   4.611   2.867
 5437SOL     OW17209   3.875   5.489   1.717
 5437SOL    HW117210   3.882   5.550   1.796
 5437SOL    HW217211   3.810   5.528   1.651
 5438SOL     OW17212   4.521   5.700   2.597
 5438SOL    HW117213   4.541   5.685   2.500
 5438SOL    HW217214   4.604   5.729   2.645
 5439SOL     OW17215   1.016   4.706   2.013
 5439SOL    HW117216   1.093   4.769   2.004
 5439SOL    HW217217   1.023   4.656   2.099
 5440SOL     OW17218   6.238   6.693   3.572
 5440SOL    HW117219   6.181   6.774   3.555
 5440SOL    HW217220   6.187   6.629   3.630
 5441SOL     OW17221   6.399   3.301   4.092
 5441SOL    HW117222   6.383   3.309   4.191
 5441SOL    HW217223   6.323   3.252   4.050
 5442SOL     OW17224   4.132   0.028   5.723
 5442SOL    HW117225   4.129   6.962   5.763
 5442SOL    HW217226   4.060   0.036   5.653
 5443SOL     OW17227   4.785   1.123   3.712
 5443SOL    HW117228   4.840   1.105   3.794
 5443SOL    HW217229   4.841   1.107   3.630
 5444SOL     OW17230   6.381   1.384   4.515
 5444SOL    HW117231   6.365   1.294   4.554
 5444SOL    HW217232   6.417   1.446   4.585
 5445SOL     OW17233   5.723   5.725   4.401
 5445SOL    HW117234   5.814   5.765   4.406
 5445SOL    HW217235   5.702   5.679   4.487
 5446SOL     OW17236   0.032   4.078   6.415
 5446SOL    HW117237   6.978   4.139   6.404
 5446SOL    HW217238   0.091   4.085   6.334
 5447SOL     OW17239   0.957   2.350   1.091
 5447SOL    HW117240   0.957   2.271   1.153
 5447SOL    HW217241   0.939   2.433   1.144
 5448SOL     OW17242   4.256   5.069   3.005
 5448SOL    HW117243   4.355   5.076   3.015
 5448SOL    HW217244   4.233   4.985   2.957
 5449SOL     OW17245   3.209   1.291   1.965
 5449SOL    HW117246   3.192   1.364   2.031
 5449SOL    HW217247   3.130   1.280   1.905
 5450SOL     OW17248   4.097   5.835   1.905
 5450SOL    HW117249   4.063   5.923   1.870
 5450SOL    HW217250   4.195   5.842   1.924
 5451SOL     OW17251   0.082   7.014   2.831
 5451SOL    HW117252   0.044   6.931   2.790
 5451SOL    HW217253   0.115   0.050   2.759
 5452SOL     OW17254   2.326   4.361   1.800
 5452SOL    HW117255   2.233   4.381   1.831
 5452SOL    HW217256   2.380   4.446   1.802
 5453SOL     OW17257   6.037   3.833   2.958
 5453SOL    HW117258   5.980   3.900   3.007
 5453SOL    HW217259   6.040   3.748   3.010
 5454SOL     OW17260   5.560   4.540   2.180
 5454SOL    HW117261   5.629   4.473   2.154
 5454SOL    HW217262   5.590   4.631   2.153
 5455SOL     OW17263   1.661   2.154   4.226
 5455SOL    HW117264   1.739   2.124   4.171
 5455SOL    HW217265   1.584   2.092   4.212
 5456SOL     OW17266   5.405   1.534   1.040
 5456SOL    HW117267   5.451   1.485   0.965
 5456SOL    HW217268   5.316   1.567   1.008
 5457SOL     OW17269   5.388   1.562   6.791
 5457SOL    HW117270   5.350   1.623   6.861
 5457SOL    HW217271   5.319   1.494   6.766
 5458SOL     OW17272   6.240   3.479   6.998
 5458SOL    HW117273   6.194   3.423   0.043
 5458SOL    HW217274   6.213   3.574   7.009
 5459SOL     OW17275   1.660   3.429   5.346
 5459SOL    HW117276   1.725   3.388   5.283
 5459SOL    HW217277   1.695   3.422   5.440
 5460SOL     OW17278   1.379   0.984   1.177
 5460SOL    HW117279   1.447   1.056   1.161
 5460SOL    HW217280   1.301   0.998   1.117
 5461SOL     OW17281   6.485   1.385   5.250
 5461SOL    HW117282   6.565   1.445   5.256
 5461SOL    HW217283   6.431   1.411   5.170
 5462SOL     OW17284   4.744   4.064   6.429
 5462SOL    HW117285   4.745   4.149   6.482
 5462SOL    HW217286   4.809   4.071   6.354
 5463SOL     OW17287   1.495   2.748   0.097
 5463SOL    HW117288   1.468   2.776   0.189
 5463SOL    HW217289   1.437   2.673   0.066
 5464SOL     OW17290   0.482   6.042   6.099
 5464SOL    HW117291   0.560   6.042   6.036
 5464SOL    HW217292   0.510   6.076   6.188
 5465SOL     OW17293   6.374   6.587   3.856
 5465SOL    HW117294   6.275   6.601   3.853
 5465SOL    HW217295   6.404   6.541   3.772
 5466SOL     OW17296   5.892   2.364   4.833
 5466SOL    HW117297   5.845   2.278   4.811
 5466SOL    HW217298   5.977   2.370   4.781
 5467SOL     OW17299   4.769   2.673   4.221
 5467SOL    HW117300   4.744   2.604   4.289
 5467SOL    HW217301   4.868   2.691   4.227
 5468SOL     OW17302   6.933   1.504   1.055
 5468SOL    HW117303   6.861   1.448   1.014
 5468SOL    HW217304   6.993   1.447   1.111
 5469SOL     OW17305   3.241   0.159   5.238
 5469SOL    HW117306   3.238   0.072   5.189
 5469SOL    HW217307   3.151   0.177   5.280
 5470SOL     OW17308   3.523   5.243   3.443
 5470SOL    HW117309   3.485   5.315   3.502
 5470SOL    HW217310   3.520   5.273   3.348
 5471SOL     OW17311   4.602   0.902   3.334
 5471SOL    HW117312   4.579   0.998   3.317
 5471SOL    HW217313   4.700   0.894   3.353
 5472SOL     OW17314   2.778   2.348   6.779
 5472SOL    HW117315   2.804   2.290   6.702
 5472SOL    HW217316   2.790   2.297   6.864
 5473SOL     OW17317   2.762   4.433   1.630
 5473SOL    HW117318   2.672   4.466   1.661
 5473SOL    HW217319   2.829   4.447   1.702
 5474SOL     OW17320   0.988   5.315   3.058
 5474SOL    HW117321   1.032   5.272   2.979
 5474SOL    HW217322   0.968   5.246   3.128
 5475SOL     OW17323   6.939   1.704   5.283
 5475SOL    HW117324   6.981   1.795   5.278
 5475SOL    HW217325   6.951   1.658   5.195
 5476SOL     OW17326   2.776   6.418   5.982
 5476SOL    HW117327   2.681   6.445   5.975
 5476SOL    HW217328   2.817   6.460   6.063
 5477SOL     OW17329   1.361   4.344   4.315
 5477SOL    HW117330   1.336   4.381   4.225
 5477SOL    HW217331   1.447   4.384   4.345
 5478SOL     OW17332   5.671   4.142   5.425
 5478SOL    HW117333   5.769   4.149   5.409
 5478SOL    HW217334   5.652   4.153   5.523
 5479SOL     OW17335   3.707   1.318   4.804
 5479SOL    HW117336   3.646   1.342   4.880
 5479SOL    HW217337   3.802   1.330   4.833
 5480SOL     OW17338   6.922   3.974   4.129
 5480SOL    HW117339   6.928   3.883   4.089
 5480SOL    HW217340   6.969   3.975   4.217
 5481SOL     OW17341   4.261   0.530   6.500
 5481SOL    HW117342   4.272   0.575   6.589
 5481SOL    HW217343   4.282   0.432   6.510
 5482SOL     OW17344   5.140   3.073   0.878
 5482SOL    HW117345   5.044   3.074   0.848
 5482SOL    HW217346   5.167   2.979   0.900
 5483SOL     OW17347   0.352   3.332   5.533
 5483SOL    HW117348   0.281   3.402   5.531
 5483SOL    HW217349   0.349   3.279   5.448
 5484SOL     OW17350   5.796   6.071   4.062
 5484SOL    HW117351   5.827   5.993   4.008
 5484SOL    HW217352   5.794   6.152   4.004
 5485SOL     OW17353   3.050   6.818   5.710
 5485SOL    HW117354   2.988   6.754   5.665
 5485SOL    HW217355   3.009   6.909   5.712
 5486SOL     OW17356   0.480   0.628   3.432
 5486SOL    HW117357   0.469   0.590   3.340
 5486SOL    HW217358   0.531   0.713   3.428
 5487SOL     OW17359   5.609   5.004   0.383
 5487SOL    HW117360   5.617   4.905   0.368
 5487SOL    HW217361   5.526   5.024   0.435
 5488SOL     OW17362   5.427   1.311   6.398
 5488SOL    HW117363   5.482   1.382   6.353
 5488SOL    HW217364   5.356   1.279   6.335
 5489SOL     OW17365   1.194   4.105   2.866
 5489SOL    HW117366   1.204   4.159   2.783
 5489SOL    HW217367   1.233   4.014   2.851
 5490SOL     OW17368   2.049   1.456   0.954
 5490SOL    HW117369   2.022   1.539   0.906
 5490SOL    HW217370   2.076   1.478   1.047
 5491SOL     OW17371   0.869   4.884   0.857
 5491SOL    HW117372   0.935   4.912   0.787
 5491SOL    HW217373   0.896   4.922   0.945
 5492SOL     OW17374   1.002   1.341   6.646
 5492SOL    HW117375   1.085   1.391   6.619
 5492SOL    HW217376   0.946   1.325   6.564
 5493SOL     OW17377   3.828   3.636   0.016
 5493SOL    HW117378   3.750   3.622   6.980
 5493SOL    HW217379   3.895   3.564   0.002
 5494SOL     OW17380   5.674   2.881   1.542
 5494SOL    HW117381   5.687   2.850   1.636
 5494SOL    HW217382   5.682   2.981   1.540
 5495SOL     OW17383   3.863   3.394   2.687
 5495SOL    HW117384   3.871   3.328   2.762
 5495SOL    HW217385   3.898   3.353   2.603
 5496SOL     OW17386   3.971   6.008   1.535
 5496SOL    HW117387   3.910   6.037   1.609
 5496SOL    HW217388   3.937   6.045   1.448
 5497SOL     OW17389   6.430   0.768   1.745
 5497SOL    HW117390   6.396   0.849   1.697
 5497SOL    HW217391   6.359   0.732   1.805
 5498SOL     OW17392   4.090   0.976   5.496
 5498SOL    HW117393   4.082   0.923   5.580
 5498SOL    HW217394   4.035   1.059   5.503
 5499SOL     OW17395   0.071   1.448   2.834
 5499SOL    HW117396   0.010   1.516   2.793
 5499SOL    HW217397   0.019   1.389   2.896
 5500SOL     OW17398   2.211   5.657   1.425
 5500SOL    HW117399   2.221   5.604   1.509
 5500SOL    HW217400   2.170   5.599   1.354
 5501SOL     OW17401   2.997   0.449   2.310
 5501SOL    HW117402   2.945   0.511   2.369
 5501SOL    HW217403   3.056   0.503   2.250
 5502SOL     OW17404   5.849   3.936   5.663
 5502SOL    HW117405   5.785   4.009   5.683
 5502SOL    HW217406   5.801   3.848   5.662
 5503SOL     OW17407   1.417   5.131   3.350
 5503SOL    HW117408   1.421   5.217   3.400
 5503SOL    HW217409   1.472   5.062   3.398
 5504SOL     OW17410   3.265   2.063   5.182
 5504SOL    HW117411   3.286   2.148   5.134
 5504SOL    HW217412   3.309   1.986   5.135
 5505SOL     OW17413   2.905   5.352   6.033
 5505SOL    HW117414   2.875   5.311   5.947
 5505SOL    HW217415   2.860   5.440   6.046
 5506SOL     OW17416   6.322   0.571   5.806
 5506SOL    HW117417   6.274   0.485   5.788
 5506SOL    HW217418   6.297   0.638   5.736
 5507SOL     OW17419   2.152   6.081   4.108
 5507SOL    HW117420   2.181   6.122   4.194
 5507SOL    HW217421   2.113   6.152   4.049
 5508SOL     OW17422   3.444   0.544   6.556
 5508SOL    HW117423   3.358   0.589   6.533
 5508SOL    HW217424   3.470   0.569   6.650
 5509SOL     OW17425   5.935   6.835   6.599
 5509SOL    HW117426   5.895   6.911   6.548
 5509SOL    HW217427   6.021   6.865   6.640
 5510SOL     OW17428   5.498   0.589   6.034
 5510SOL    HW117429   5.491   0.648   5.953
 5510SOL    HW217430   5.433   0.513   6.026
 5511SOL     OW17431   0.597   0.878   2.389
 5511SOL    HW117432   0.682   0.836   2.420
 5511SOL    HW217433   0.591   0.972   2.423
 5512SOL     OW17434   0.953   0.445   6.866
 5512SOL    HW117435   0.968   0.410   6.959
 5512SOL    HW217436   0.985   0.539   6.861
 5513SOL     OW17437   4.705   4.220   4.642
 5513SOL    HW117438   4.750   4.158   4.706
 5513SOL    HW217439   4.722   4.190   4.548
 5514SOL     OW17440   5.146   4.622   2.361
 5514SOL    HW117441   5.222   4.650   2.420
 5514SOL    HW217442   5.182   4.565   2.286
 5515SOL     OW17443   6.525   2.342   1.731
 5515SOL    HW117444   6.457   2.398   1.777
 5515SOL    HW217445   6.612   2.347   1.781
 5516SOL     OW17446   1.022   4.008   6.498
 5516SOL    HW117447   1.100   3.949   6.477
 5516SOL    HW217448   1.055   4.092   6.542
 5517SOL     OW17449   2.660   1.764   1.890
 5517SOL    HW117450   2.682   1.854   1.853
 5517SOL    HW217451   2.738   1.703   1.877
 5518SOL     OW17452   6.287   5.066   5.116
 5518SOL    HW117453   6.330   5.068   5.025
 5518SOL    HW217454   6.351   5.026   5.181
 5519SOL     OW17455   5.419   4.025   3.724
 5519SOL    HW117456   5.339   4.009   3.782
 5519SOL    HW217457   5.502   4.001   3.775
 5520SOL     OW17458   1.256   4.021   1.812
 5520SOL    HW117459   1.263   4.119   1.795
 5520SOL    HW217460   1.343   3.986   1.846
 5521SOL     OW17461   5.879   5.319   1.621
 5521SOL    HW117462   5.836   5.383   1.557
 5521SOL    HW217463   5.973   5.300   1.591
 5522SOL     OW17464   2.447   3.365   1.627
 5522SOL    HW117465   2.535   3.409   1.609
 5522SOL    HW217466   2.415   3.390   1.718
 5523SOL     OW17467   3.357   0.421   2.579
 5523SOL    HW117468   3.312   0.332   2.588
 5523SOL    HW217469   3.408   0.425   2.494
 5524SOL     OW17470   0.022   4.756   5.937
 5524SOL    HW117471   7.015   4.842   5.899
 5524SOL    HW217472   7.021   4.751   6.034
 5525SOL     OW17473   6.592   5.568   5.492
 5525SOL    HW117474   6.533   5.631   5.542
 5525SOL    HW217475   6.647   5.618   5.426
 5526SOL     OW17476   6.646   3.154   4.083
 5526SOL    HW117477   6.566   3.213   4.069
 5526SOL    HW217478   6.651   3.127   4.180
 5527SOL     OW17479   1.576   3.141   1.466
 5527SOL    HW117480   1.551   3.073   1.397
 5527SOL    HW217481   1.492   3.179   1.506
 5528SOL     OW17482   0.475   3.544   4.313
 5528SOL    HW117483   0.379   3.521   4.328
 5528SOL    HW217484   0.482   3.615   4.243
 5529SOL     OW17485   2.755   1.624   4.807
 5529SOL    HW117486   2.854   1.632   4.817
 5529SOL    HW217487   2.732   1.530   4.780
 5530SOL     OW17488   0.953   2.342   0.251
 5530SOL    HW117489   0.973   2.245   0.268
 5530SOL    HW217490   0.977   2.365   0.157
 5531SOL     OW17491   3.502   2.884   5.688
 5531SOL    HW117492   3.559   2.803   5.672
 5531SOL    HW217493   3.542   2.963   5.642
 5532SOL     OW17494   2.375   1.389   1.082
 5532SOL    HW117495   2.378   1.400   0.983
 5532SOL    HW217496   2.407   1.473   1.127
 5533SOL     OW17497   3.653   1.157   1.959
 5533SOL    HW117498   3.689   1.082   1.904
 5533SOL    HW217499   3.602   1.119   2.036
 5534SOL     OW17500   0.314   3.822   6.555
 5534SOL    HW117501   0.234   3.874   6.584
 5534SOL    HW217502   0.387   3.831   6.623
 5535SOL     OW17503   6.696   3.105   2.317
 5535SOL    HW117504   6.664   3.035   2.254
 5535SOL    HW217505   6.625   3.176   2.327
 5536SOL     OW17506   2.742   1.088   3.954
 5536SOL    HW117507   2.672   1.151   3.987
 5536SOL    HW217508   2.719   0.995   3.983
 5537SOL     OW17509   4.481   0.047   4.901
 5537SOL    HW117510   4.383   0.063   4.891
 5537SOL    HW217511   4.499   6.973   4.901
 5538SOL     OW17512   4.186   1.460   6.916
 5538SOL    HW117513   4.233   1.480   6.830
 5538SOL    HW217514   4.141   1.372   6.910
 5539SOL     OW17515   2.514   6.970   2.184
 5539SOL    HW117516   2.531   6.940   2.277
 5539SOL    HW217517   2.599   6.967   2.132
 5540SOL     OW17518   4.998   2.035   6.851
 5540SOL    HW117519   5.025   1.957   6.793
 5540SOL    HW217520   4.898   2.042   6.852
 5541SOL     OW17521   4.718   3.854   6.606
 5541SOL    HW117522   4.623   3.858   6.636
 5541SOL    HW217523   4.734   3.923   6.535
 5542SOL     OW17524   5.747   4.062   6.304
 5542SOL    HW117525   5.651   4.042   6.321
 5542SOL    HW217526   5.754   4.137   6.238
 5543SOL     OW17527   1.684   0.360   1.256
 5543SOL    HW117528   1.649   0.453   1.244
 5543SOL    HW217529   1.681   0.311   1.169
 5544SOL     OW17530   4.507   4.975   6.049
 5544SOL    HW117531   4.420   4.967   5.999
 5544SOL    HW217532   4.583   4.956   5.987
 5545SOL     OW17533   4.506   0.725   3.110
 5545SOL    HW117534   4.514   0.785   3.189
 5545SOL    HW217535   4.412   0.727   3.077
 5546SOL     OW17536   0.039   6.235   5.566
 5546SOL    HW117537   7.020   6.319   5.535
 5546SOL    HW217538   0.077   6.186   5.487
 5547SOL     OW17539   5.360   1.549   5.684
 5547SOL    HW117540   5.286   1.609   5.653
 5547SOL    HW217541   5.354   1.462   5.635
 5548SOL     OW17542   6.983   3.992   5.036
 5548SOL    HW117543   6.925   3.968   5.114
 5548SOL    HW217544   0.006   4.077   5.055
 5549SOL     OW17545   4.067   3.697   1.961
 5549SOL    HW117546   4.123   3.632   1.910
 5549SOL    HW217547   4.078   3.680   2.059
 5550SOL     OW17548   1.637   4.572   3.070
 5550SOL    HW117549   1.671   4.490   3.026
 5550SOL    HW217550   1.671   4.577   3.164
 5551SOL     OW17551   2.215   5.457   3.614
 5551SOL    HW117552   2.164   5.401   3.679
 5551SOL    HW217553   2.153   5.519   3.567
 5552SOL     OW17554   6.986   6.900   6.249
 5552SOL    HW117555   6.922   6.873   6.321
 5552SOL    HW217556   0.007   6.819   6.214
 5553SOL     OW17557   4.768   0.371   6.734
 5553SOL    HW117558   4.793   0.424   6.652
 5553SOL    HW217559   4.780   0.274   6.715
 5554SOL     OW17560   5.970   2.939   0.776
 5554SOL    HW117561   6.057   2.890   0.783
 5554SOL    HW217562   5.971   2.998   0.695
 5555SOL     OW17563   1.116   3.969   2.545
 5555SOL    HW117564   1.204   3.993   2.504
 5555SOL    HW217565   1.049   4.040   2.524
 5556SOL     OW17566   6.912   1.270   4.077
 5556SOL    HW117567   6.912   1.280   3.978
 5556SOL    HW217568   6.861   1.346   4.118
 5557SOL     OW17569   3.231   5.562   2.043
 5557SOL    HW117570   3.194   5.650   2.014
 5557SOL    HW217571   3.313   5.540   1.989
 5558SOL     OW17572   3.385   4.360   0.666
 5558SOL    HW117573   3.457   4.292   0.674
 5558SOL    HW217574   3.423   4.447   0.633
 5559SOL     OW17575   1.438   0.130   2.891
 5559SOL    HW117576   1.497   0.203   2.925
 5559SOL    HW217577   1.351   0.170   2.860
 5560SOL     OW17578   0.207   5.548   2.921
 5560SOL    HW117579   0.119   5.570   2.878
 5560SOL    HW217580   0.198   5.555   3.020
 5561SOL     OW17581   2.798   1.372   4.076
 5561SOL    HW117582   2.868   1.303   4.060
 5561SOL    HW217583   2.710   1.328   4.091
 5562SOL     OW17584   4.363   4.152   0.079
 5562SOL    HW117585   4.399   4.087   0.146
 5562SOL    HW217586   4.400   4.243   0.097
 5563SOL     OW17587   3.169   4.863   3.133
 5563SOL    HW117588   3.249   4.803   3.137
 5563SOL    HW217589   3.159   4.911   3.220
 5564SOL     OW17590   5.342   0.271   5.788
 5564SOL    HW117591   5.255   0.230   5.761
 5564SOL    HW217592   5.412   0.200   5.794
 5565SOL     OW17593   3.618   3.365   0.604
 5565SOL    HW117594   3.532   3.354   0.556
 5565SOL    HW217595   3.627   3.293   0.674
 5566SOL     OW17596   0.587   4.057   0.462
 5566SOL    HW117597   0.636   4.032   0.379
 5566SOL    HW217598   0.489   4.047   0.448
 5567SOL     OW17599   6.663   3.655   1.878
 5567SOL    HW117600   6.721   3.655   1.797
 5567SOL    HW217601   6.620   3.566   1.890
 5568SOL     OW17602   4.342   6.354   2.829
 5568SOL    HW117603   4.417   6.354   2.763
 5568SOL    HW217604   4.265   6.304   2.792
 5569SOL     OW17605   2.763   1.981   3.496
 5569SOL    HW117606   2.741   2.030   3.412
 5569SOL    HW217607   2.794   2.046   3.565
 5570SOL     OW17608   6.457   3.605   3.635
 5570SOL    HW117609   6.555   3.586   3.632
 5570SOL    HW217610   6.425   3.598   3.730
 5571SOL     OW17611   6.749   5.421   2.198
 5571SOL    HW117612   6.724   5.465   2.111
 5571SOL    HW217613   6.756   5.490   2.270
 5572SOL     OW17614   1.336   3.796   5.124
 5572SOL    HW117615   1.279   3.771   5.046
 5572SOL    HW217616   1.297   3.757   5.207
 5573SOL     OW17617   1.349   5.361   5.606
 5573SOL    HW117618   1.443   5.329   5.613
 5573SOL    HW217619   1.298   5.332   5.687
 5574SOL     OW17620   0.729   2.486   6.291
 5574SOL    HW117621   0.699   2.527   6.377
 5574SOL    HW217622   0.662   2.508   6.219
 5575SOL     OW17623   0.833   0.245   1.583
 5575SOL    HW117624   0.922   0.286   1.562
 5575SOL    HW217625   0.817   0.246   1.681
 5576SOL     OW17626   2.086   4.473   3.298
 5576SOL    HW117627   2.171   4.464   3.245
 5576SOL    HW217628   2.109   4.479   3.396
 5577SOL     OW17629   1.434   3.390   6.918
 5577SOL    HW117630   1.372   3.313   6.933
 5577SOL    HW217631   1.501   3.393   6.992
 5578SOL     OW17632   3.720   3.172   3.133
 5578SOL    HW117633   3.775   3.249   3.166
 5578SOL    HW217634   3.656   3.204   3.063
 5579SOL     OW17635   0.201   3.093   1.242
 5579SOL    HW117636   0.215   3.152   1.162
 5579SOL    HW217637   0.213   2.998   1.216
 5580SOL     OW17638   4.899   1.878   5.922
 5580SOL    HW117639   4.977   1.926   5.961
 5580SOL    HW217640   4.852   1.939   5.858
 5581SOL     OW17641   0.879   1.919   1.284
 5581SOL    HW117642   0.854   1.844   1.223
 5581SOL    HW217643   0.854   1.895   1.378
 5582SOL     OW17644   2.409   3.919   6.527
 5582SOL    HW117645   2.453   3.975   6.457
 5582SOL    HW217646   2.470   3.910   6.605
 5583SOL     OW17647   4.769   0.729   2.344
 5583SOL    HW117648   4.752   0.642   2.392
 5583SOL    HW217649   4.711   0.800   2.383
 5584SOL     OW17650   6.494   4.218   4.408
 5584SOL    HW117651   6.573   4.157   4.415
 5584SOL    HW217652   6.488   4.254   4.314
 5585SOL     OW17653   4.757   4.633   2.778
 5585SOL    HW117654   4.673   4.583   2.801
 5585SOL    HW217655   4.834   4.569   2.775
 5586SOL     OW17656   6.554   3.669   5.823
 5586SOL    HW117657   6.602   3.582   5.814
 5586SOL    HW217658   6.533   3.685   5.919
 5587SOL     OW17659   4.193   0.897   6.610
 5587SOL    HW117660   4.126   0.929   6.542
 5587SOL    HW217661   4.279   0.876   6.564
 5588SOL     OW17662   2.715   6.873   2.762
 5588SOL    HW117663   2.651   6.828   2.699
 5588SOL    HW217664   2.678   6.868   2.855
 5589SOL     OW17665   5.957   4.621   6.176
 5589SOL    HW117666   5.939   4.719   6.174
 5589SOL    HW217667   6.034   4.602   6.236
 5590SOL     OW17668   5.396   5.940   3.865
 5590SOL    HW117669   5.396   6.007   3.939
 5590SOL    HW217670   5.317   5.880   3.874
 5591SOL     OW17671   0.095   1.594   2.010
 5591SOL    HW117672   0.043   1.529   1.955
 5591SOL    HW217673   0.112   1.677   1.957
 5592SOL     OW17674   1.745   4.934   3.228
 5592SOL    HW117675   1.750   4.870   3.151
 5592SOL    HW217676   1.704   5.020   3.198
 5593SOL     OW17677   0.212   2.932   6.607
 5593SOL    HW117678   0.227   3.029   6.627
 5593SOL    HW217679   0.123   2.921   6.562
 5594SOL     OW17680   4.967   1.179   4.721
 5594SOL    HW117681   4.921   1.099   4.761
 5594SOL    HW217682   4.920   1.205   4.637
 5595SOL     OW17683   1.203   2.229   4.926
 5595SOL    HW117684   1.155   2.317   4.935
 5595SOL    HW217685   1.269   2.220   5.000
 5596SOL     OW17686   3.908   6.840   2.910
 5596SOL    HW117687   3.823   6.803   2.874
 5596SOL    HW217688   3.901   6.848   3.010
 5597SOL     OW17689   5.042   2.624   4.162
 5597SOL    HW117690   5.033   2.543   4.105
 5597SOL    HW217691   5.056   2.704   4.104
 5598SOL     OW17692   4.802   2.903   3.636
 5598SOL    HW117693   4.744   2.984   3.636
 5598SOL    HW217694   4.884   2.921   3.583
 5599SOL     OW17695   1.390   0.562   4.661
 5599SOL    HW117696   1.305   0.614   4.651
 5599SOL    HW217697   1.418   0.527   4.572
 5600SOL     OW17698   1.005   2.290   2.839
 5600SOL    HW117699   1.077   2.221   2.829
 5600SOL    HW217700   0.961   2.281   2.928
 5601SOL     OW17701   2.581   0.772   5.637
 5601SOL    HW117702   2.607   0.720   5.718
 5601SOL    HW217703   2.624   0.862   5.640
 5602SOL     OW17704   0.520   1.536   0.740
 5602SOL    HW117705   0.570   1.620   0.760
 5602SOL    HW217706   0.450   1.554   0.671
 5603SOL     OW17707   5.194   1.953   0.026
 5603SOL    HW117708   5.271   2.011   0.051
 5603SOL    HW217709   5.146   1.993   6.973
 5604SOL     OW17710   6.875   1.969   5.721
 5604SOL    HW117711   6.824   1.883   5.721
 5604SOL    HW217712   6.816   2.043   5.686
 5605SOL     OW17713   0.549   1.088   4.685
 5605SOL    HW117714   0.520   1.183   4.697
 5605SOL    HW217715   0.600   1.058   4.765
 5606SOL     OW17716   5.797   6.488   1.460
 5606SOL    HW117717   5.833   6.396   1.472
 5606SOL    HW217718   5.723   6.487   1.393
 5607SOL     OW17719   5.309   1.352   2.106
 5607SOL    HW117720   5.236   1.284   2.112
 5607SOL    HW217721   5.395   1.308   2.079
 5608SOL     OW17722   4.430   0.344   4.386
 5608SOL    HW117723   4.407   0.441   4.381
 5608SOL    HW217724   4.434   0.315   4.481
 5609SOL     OW17725   2.207   5.625   0.617
 5609SOL    HW117726   2.290   5.631   0.562
 5609SOL    HW217727   2.169   5.533   0.611
 5610SOL     OW17728   4.922   0.251   0.316
 5610SOL    HW117729   4.865   0.169   0.309
 5610SOL    HW217730   4.868   0.331   0.289
 5611SOL     OW17731   1.881   4.534   2.594
 5611SOL    HW117732   1.883   4.578   2.504
 5611SOL    HW217733   1.857   4.602   2.663
 5612SOL     OW17734   4.065   2.187   6.374
 5612SOL    HW117735   3.996   2.207   6.306
 5612SOL    HW217736   4.154   2.220   6.343
 5613SOL     OW17737   4.769   4.059   2.629
 5613SOL    HW117738   4.766   3.990   2.702
 5613SOL    HW217739   4.699   4.128   2.645
 5614SOL     OW17740   4.367   2.361   3.393
 5614SOL    HW117741   4.438   2.291   3.392
 5614SOL    HW217742   4.349   2.391   3.299
 5615SOL     OW17743   0.571   0.396   6.246
 5615SOL    HW117744   0.533   0.303   6.244
 5615SOL    HW217745   0.582   0.425   6.341
 5616SOL     OW17746   2.367   0.595   5.376
 5616SOL    HW117747   2.310   0.524   5.416
 5616SOL    HW217748   2.349   0.682   5.421
 5617SOL     OW17749   2.491   0.121   6.214
 5617SOL    HW117750   2.403   0.117   6.261
 5617SOL    HW217751   2.565   0.128   6.282
 5618SOL     OW17752   7.009   3.718   4.443
 5618SOL    HW117753   6.918   3.759   4.453
 5618SOL    HW217754   7.007   3.623   4.476
 5619SOL     OW17755   2.714   3.928   6.500
 5619SOL    HW117756   2.728   3.852   6.436
 5619SOL    HW217757   2.677   3.892   6.586
 5620SOL     OW17758   3.669   3.398   0.260
 5620SOL    HW117759   3.586   3.446   0.231
 5620SOL    HW217760   3.707   3.347   0.182
 5621SOL     OW17761   1.398   1.439   5.922
 5621SOL    HW117762   1.340   1.496   5.980
 5621SOL    HW217763   1.472   1.494   5.885
 5622SOL     OW17764   4.749   0.039   5.659
 5622SOL    HW117765   4.675   0.068   5.598
 5622SOL    HW217766   4.748   0.096   5.741
 5623SOL     OW17767   1.868   6.400   6.263
 5623SOL    HW117768   1.914   6.409   6.174
 5623SOL    HW217769   1.772   6.428   6.253
 5624SOL     OW17770   1.245   4.893   3.277
 5624SOL    HW117771   1.288   4.812   3.237
 5624SOL    HW217772   1.307   4.971   3.267
 5625SOL     OW17773   6.148   2.239   4.178
 5625SOL    HW117774   6.049   2.246   4.165
 5625SOL    HW217775   6.195   2.269   4.094
 5626SOL     OW17776   2.923   6.475   4.920
 5626SOL    HW117777   2.922   6.378   4.896
 5626SOL    HW217778   2.844   6.496   4.978
 5627SOL     OW17779   1.293   5.867   1.078
 5627SOL    HW117780   1.302   5.915   1.166
 5627SOL    HW217781   1.382   5.868   1.031
 5628SOL     OW17782   1.416   2.271   6.085
 5628SOL    HW117783   1.435   2.315   5.997
 5628SOL    HW217784   1.318   2.264   6.098
 5629SOL     OW17785   3.153   3.701   1.815
 5629SOL    HW117786   3.064   3.734   1.845
 5629SOL    HW217787   3.148   3.603   1.798
 5630SOL     OW17788   1.589   5.199   0.839
 5630SOL    HW117789   1.640   5.158   0.764
 5630SOL    HW217790   1.568   5.294   0.818
 5631SOL     OW17791   4.140   1.898   0.198
 5631SOL    HW117792   4.043   1.916   0.211
 5631SOL    HW217793   4.152   1.826   0.130
 5632SOL     OW17794   4.311   3.592   6.233
 5632SOL    HW117795   4.258   3.559   6.311
 5632SOL    HW217796   4.288   3.688   6.216
 5633SOL     OW17797   6.630   2.517   3.465
 5633SOL    HW117798   6.656   2.612   3.482
 5633SOL    HW217799   6.604   2.474   3.551
 5634SOL     OW17800   2.934   5.564   5.640
 5634SOL    HW117801   3.006   5.521   5.695
 5634SOL    HW217802   2.884   5.493   5.591
 5635SOL     OW17803   2.137   3.194   4.834
 5635SOL    HW117804   2.177   3.110   4.797
 5635SOL    HW217805   2.160   3.271   4.774
 5636SOL     OW17806   3.330   5.975   2.097
 5636SOL    HW117807   3.328   6.075   2.089
 5636SOL    HW217808   3.259   5.935   2.039
 5637SOL     OW17809   5.688   6.942   3.745
 5637SOL    HW117810   5.636   7.009   3.691
 5637SOL    HW217811   5.774   6.983   3.775
 5638SOL     OW17812   5.630   2.993   0.861
 5638SOL    HW117813   5.718   2.971   0.818
 5638SOL    HW217814   5.594   2.911   0.905
 5639SOL     OW17815   0.543   1.445   6.904
 5639SOL    HW117816   0.516   1.541   6.915
 5639SOL    HW217817   0.638   1.441   6.873
 5640SOL     OW17818   2.626   0.403   4.207
 5640SOL    HW117819   2.545   0.347   4.190
 5640SOL    HW217820   2.675   0.367   4.287
 5641SOL     OW17821   7.004   4.358   6.197
 5641SOL    HW117822   6.954   4.324   6.276
 5641SOL    HW217823   0.046   4.426   6.226
 5642SOL     OW17824   2.067   0.464   6.942
 5642SOL    HW117825   2.010   0.417   7.009
 5642SOL    HW217826   2.163   0.451   6.965
 5643SOL     OW17827   5.531   1.941   4.473
 5643SOL    HW117828   5.538   1.931   4.572
 5643SOL    HW217829   5.600   1.885   4.429
 5644SOL     OW17830   2.933   6.628   5.171
 5644SOL    HW117831   2.936   6.528   5.161
 5644SOL    HW217832   2.931   6.651   5.268
 5645SOL     OW17833   6.534   3.839   3.475
 5645SOL    HW117834   6.475   3.809   3.550
 5645SOL    HW217835   6.623   3.794   3.483
 5646SOL     OW17836   2.299   4.474   3.118
 5646SOL    HW117837   2.372   4.520   3.067
 5646SOL    HW217838   2.221   4.457   3.058
 5647SOL     OW17839   5.390   6.369   1.992
 5647SOL    HW117840   5.464   6.303   1.986
 5647SOL    HW217841   5.398   6.436   1.918
 5648SOL     OW17842   2.876   5.983   3.233
 5648SOL    HW117843   2.966   5.977   3.191
 5648SOL    HW217844   2.808   5.944   3.171
 5649SOL     OW17845   1.082   5.766   4.211
 5649SOL    HW117846   1.027   5.774   4.294
 5649SOL    HW217847   1.167   5.717   4.232
 5650SOL     OW17848   0.359   4.941   0.566
 5650SOL    HW117849   0.297   5.019   0.552
 5650SOL    HW217850   0.453   4.974   0.569
 5651SOL     OW17851   1.455   0.286   0.559
 5651SOL    HW117852   1.541   0.319   0.599
 5651SOL    HW217853   1.378   0.325   0.608
 5652SOL     OW17854   0.118   5.401   2.032
 5652SOL    HW117855   0.184   5.453   2.086
 5652SOL    HW217856   0.042   5.372   2.090
 5653SOL     OW17857   0.108   6.251   1.218
 5653SOL    HW117858   0.012   6.243   1.191
 5653SOL    HW217859   0.148   6.333   1.177
 5654SOL     OW17860   1.377   6.336   4.988
 5654SOL    HW117861   1.440   6.408   5.015
 5654SOL    HW217862   1.285   6.356   5.023
 5655SOL     OW17863   6.255   3.146   3.927
 5655SOL    HW117864   6.329   3.086   3.960
 5655SOL    HW217865   6.276   3.176   3.834
 5656SOL     OW17866   0.069   3.285   6.383
 5656SOL    HW117867   0.087   3.381   6.403
 5656SOL    HW217868   0.148   3.246   6.336
 5657SOL     OW17869   4.404   4.619   4.314
 5657SOL    HW117870   4.448   4.569   4.389
 5657SOL    HW217871   4.335   4.681   4.351
 5658SOL     OW17872   1.548   2.684   5.913
 5658SOL    HW117873   1.548   2.777   5.876
 5658SOL    HW217874   1.534   2.687   6.011
 5659SOL     OW17875   3.207   4.034   6.507
 5659SOL    HW117876   3.266   4.033   6.588
 5659SOL    HW217877   3.254   4.081   6.432
 5660SOL     OW17878   4.851   6.813   6.319
 5660SOL    HW117879   4.801   6.850   6.240
 5660SOL    HW217880   4.788   6.768   6.381
 5661SOL     OW17881   0.565   5.666   5.979
 5661SOL    HW117882   0.532   5.671   6.074
 5661SOL    HW217883   0.536   5.747   5.929
 5662SOL     OW17884   2.414   6.284   3.278
 5662SOL    HW117885   2.324   6.259   3.312
 5662SOL    HW217886   2.484   6.254   3.343
 5663SOL     OW17887   1.361   2.793   1.055
 5663SOL    HW117888   1.318   2.723   1.112
 5663SOL    HW217889   1.402   2.750   0.975
 5664SOL     OW17890   5.306   4.199   4.514
 5664SOL    HW117891   5.238   4.252   4.564
 5664SOL    HW217892   5.270   4.172   4.425
 5665SOL     OW17893   1.687   6.965   0.292
 5665SOL    HW117894   1.774   7.015   0.285
 5665SOL    HW217895   1.650   6.950   0.201
 5666SOL     OW17896   6.153   1.395   4.038
 5666SOL    HW117897   6.224   1.349   3.985
 5666SOL    HW217898   6.091   1.326   4.077
 5667SOL     OW17899   1.643   5.056   4.843
 5667SOL    HW117900   1.616   5.042   4.748
 5667SOL    HW217901   1.563   5.053   4.902
 5668SOL     OW17902   6.137   2.660   2.703
 5668SOL    HW117903   6.038   2.669   2.715
 5668SOL    HW217904   6.171   2.586   2.761
 5669SOL     OW17905   5.959   3.940   6.647
 5669SOL    HW117906   6.003   3.875   6.709
 5669SOL    HW217907   5.896   3.998   6.699
 5670SOL     OW17908   1.169   2.981   2.535
 5670SOL    HW117909   1.195   2.965   2.439
 5670SOL    HW217910   1.081   2.936   2.553
 5671SOL     OW17911   6.654   6.308   3.728
 5671SOL    HW117912   6.681   6.285   3.634
 5671SOL    HW217913   6.554   6.315   3.733
 5672SOL     OW17914   5.144   3.827   4.926
 5672SOL    HW117915   5.058   3.843   4.974
 5672SOL    HW217916   5.126   3.813   4.829
 5673SOL     OW17917   0.691   6.817   1.739
 5673SOL    HW117918   0.663   6.826   1.644
 5673SOL    HW217919   0.778   6.865   1.753
 5674SOL     OW17920   1.447   5.089   5.038
 5674SOL    HW117921   1.487   5.110   5.128
 5674SOL    HW217922   1.348   5.076   5.048
 5675SOL     OW17923   3.075   1.081   0.340
 5675SOL    HW117924   3.161   1.109   0.384
 5675SOL    HW217925   3.096   1.022   0.262
 5676SOL     OW17926   2.714   2.472   1.819
 5676SOL    HW117927   2.666   2.397   1.865
 5676SOL    HW217928   2.812   2.463   1.834
 5677SOL     OW17929   6.715   0.848   0.910
 5677SOL    HW117930   6.628   0.898   0.919
 5677SOL    HW217931   6.718   0.804   0.820
 5678SOL     OW17932   3.681   1.550   1.746
 5678SOL    HW117933   3.598   1.544   1.690
 5678SOL    HW217934   3.730   1.463   1.741
 5679SOL     OW17935   6.213   2.704   4.758
 5679SOL    HW117936   6.307   2.733   4.776
 5679SOL    HW217937   6.173   2.761   4.686
 5680SOL     OW17938   1.285   5.285   6.118
 5680SOL    HW117939   1.344   5.365   6.122
 5680SOL    HW217940   1.196   5.306   6.158
 5681SOL     OW17941   0.735   3.971   3.143
 5681SOL    HW117942   0.697   3.881   3.122
 5681SOL    HW217943   0.817   3.987   3.087
 5682SOL     OW17944   2.454   4.693   2.522
 5682SOL    HW117945   2.438   4.596   2.504
 5682SOL    HW217946   2.535   4.703   2.580
 5683SOL     OW17947   4.330   2.628   0.069
 5683SOL    HW117948   4.359   2.683   0.148
 5683SOL    HW217949   4.240   2.589   0.088
 5684SOL     OW17950   2.033   3.061   6.072
 5684SOL    HW117951   2.057   2.977   6.121
 5684SOL    HW217952   1.990   3.037   5.985
 5685SOL     OW17953   2.267   2.234   3.996
 5685SOL    HW117954   2.314   2.234   3.908
 5685SOL    HW217955   2.241   2.327   4.021
 5686SOL     OW17956   3.557   0.693   5.764
 5686SOL    HW117957   3.483   0.681   5.698
 5686SOL    HW217958   3.577   0.605   5.808
 5687SOL     OW17959   1.210   6.020   5.490
 5687SOL    HW117960   1.216   6.118   5.512
 5687SOL    HW217961   1.114   5.992   5.494
 5688SOL     OW17962   2.112   3.900   3.225
 5688SOL    HW117963   2.091   3.855   3.312
 5688SOL    HW217964   2.074   3.847   3.150
 5689SOL     OW17965   1.445   0.713   0.952
 5689SOL    HW117966   1.480   0.807   0.951
 5689SOL    HW217967   1.366   0.706   0.890
 5690SOL     OW17968   0.802   5.567   0.114
 5690SOL    HW117969   0.885   5.531   0.070
 5690SOL    HW217970   0.819   5.659   0.148
 5691SOL     OW17971   3.662   1.193   2.430
 5691SOL    HW117972   3.650   1.246   2.346
 5691SOL    HW217973   3.608   1.109   2.425
 5692SOL     OW17974   4.832   5.517   0.913
 5692SOL    HW117975   4.746   5.532   0.962
 5692SOL    HW217976   4.874   5.605   0.891
 5693SOL     OW17977   3.723   0.661   0.429
 5693SOL    HW117978   3.664   0.587   0.399
 5693SOL    HW217979   3.704   0.682   0.525
 5694SOL     OW17980   0.628   0.610   2.808
 5694SOL    HW117981   0.590   0.701   2.795
 5694SOL    HW217982   0.722   0.618   2.842
 5695SOL     OW17983   1.444   0.585   1.889
 5695SOL    HW117984   1.401   0.628   1.968
 5695SOL    HW217985   1.374   0.543   1.831
 5696SOL     OW17986   1.440   0.324   4.213
 5696SOL    HW117987   1.399   0.294   4.127
 5696SOL    HW217988   1.462   0.243   4.269
 5697SOL     OW17989   6.439   2.628   1.452
 5697SOL    HW117990   6.433   2.668   1.543
 5697SOL    HW217991   6.472   2.533   1.459
 5698SOL     OW17992   1.484   3.469   3.164
 5698SOL    HW117993   1.417   3.542   3.155
 5698SOL    HW217994   1.515   3.463   3.258
 5699SOL     OW17995   1.973   2.761   3.420
 5699SOL    HW117996   2.006   2.744   3.513
 5699SOL    HW217997   1.892   2.705   3.403
 5700SOL     OW17998   6.638   0.446   1.786
 5700SOL    HW117999   6.609   0.496   1.705
 5700SOL    HW218000   6.710   0.497   1.833
 5701SOL     OW18001   6.066   1.353   1.075
 5701SOL    HW118002   6.091   1.446   1.102
 5701SOL    HW218003   5.968   1.348   1.056
 5702SOL     OW18004   2.390   0.086   4.484
 5702SOL    HW118005   2.326   0.010   4.472
 5702SOL    HW218006   2.448   0.068   4.564
 5703SOL     OW18007   6.893   3.611   6.225
 5703SOL    HW118008   6.971   3.567   6.181
 5703SOL    HW218009   6.911   3.709   6.232
 5704SOL     OW18010   5.167   3.959   3.299
 5704SOL    HW118011   5.178   3.878   3.242
 5704SOL    HW218012   5.136   3.931   3.390
 5705SOL     OW18013   5.918   6.502   6.073
 5705SOL    HW118014   5.856   6.513   6.151
 5705SOL    HW218015   5.966   6.415   6.080
 5706SOL     OW18016   5.800   2.274   0.309
 5706SOL    HW118017   5.807   2.264   0.210
 5706SOL    HW218018   5.732   2.344   0.330
 5707SOL     OW18019   5.004   6.756   1.714
 5707SOL    HW118020   4.918   6.706   1.710
 5707SOL    HW218021   5.027   6.791   1.624
 5708SOL     OW18022   4.543   5.478   3.554
 5708SOL    HW118023   4.600   5.520   3.483
 5708SOL    HW218024   4.598   5.414   3.608
 5709SOL     OW18025   1.228   0.936   1.893
 5709SOL    HW118026   1.261   0.870   1.961
 5709SOL    HW218027   1.146   0.900   1.849
 5710SOL     OW18028   2.674   2.711   1.112
 5710SOL    HW118029   2.710   2.704   1.204
 5710SOL    HW218030   2.745   2.745   1.050
 5711SOL     OW18031   5.161   0.690   1.510
 5711SOL    HW118032   5.254   0.672   1.543
 5711SOL    HW218033   5.110   0.604   1.504
 5712SOL     OW18034   6.847   6.294   1.187
 5712SOL    HW118035   6.816   6.314   1.095
 5712SOL    HW218036   6.772   6.255   1.240
 5713SOL     OW18037   2.697   5.727   0.727
 5713SOL    HW118038   2.632   5.783   0.676
 5713SOL    HW218039   2.661   5.634   0.736
 5714SOL     OW18040   5.804   5.828   1.279
 5714SOL    HW118041   5.895   5.802   1.247
 5714SOL    HW218042   5.808   5.849   1.377
 5715SOL     OW18043   1.321   0.066   0.487
 5715SOL    HW118044   1.316   0.011   0.570
 5715SOL    HW218045   1.391   0.137   0.498
 5716SOL     OW18046   0.776   4.688   6.019
 5716SOL    HW118047   0.795   4.612   6.082
 5716SOL    HW218048   0.800   4.661   5.926
 5717SOL     OW18049   2.234   4.785   2.989
 5717SOL    HW118050   2.236   4.714   2.919
 5717SOL    HW218051   2.154   4.771   3.048
 5718SOL     OW18052   0.997   3.090   0.370
 5718SOL    HW118053   0.929   3.075   0.441
 5718SOL    HW218054   1.082   3.122   0.412
 5719SOL     OW18055   2.944   3.508   1.396
 5719SOL    HW118056   2.854   3.474   1.426
 5719SOL    HW218057   2.953   3.604   1.421
 5720SOL     OW18058   2.332   5.506   6.013
 5720SOL    HW118059   2.258   5.442   6.033
 5720SOL    HW218060   2.293   5.592   5.978
 5721SOL     OW18061   5.192   4.037   6.849
 5721SOL    HW118062   5.290   4.021   6.854
 5721SOL    HW218063   5.166   4.061   6.756
 5722SOL     OW18064   0.894   0.875   5.331
 5722SOL    HW118065   0.922   0.840   5.421
 5722SOL    HW218066   0.803   0.840   5.309
 5723SOL     OW18067   4.282   3.592   0.124
 5723SOL    HW118068   4.228   3.574   0.206
 5723SOL    HW218069   4.274   3.514   0.061
 5724SOL     OW18070   5.672   2.271   3.180
 5724SOL    HW118071   5.677   2.371   3.178
 5724SOL    HW218072   5.576   2.243   3.180
 5725SOL     OW18073   5.902   4.939   3.348
 5725SOL    HW118074   5.843   4.918   3.270
 5725SOL    HW218075   5.997   4.940   3.319
 5726SOL     OW18076   4.774   3.998   3.305
 5726SOL    HW118077   4.831   4.060   3.252
 5726SOL    HW218078   4.814   3.982   3.394
 5727SOL     OW18079   1.381   2.438   4.633
 5727SOL    HW118080   1.416   2.518   4.584
 5727SOL    HW218081   1.289   2.417   4.600
 5728SOL     OW18082   4.876   5.646   5.214
 5728SOL    HW118083   4.848   5.609   5.303
 5728SOL    HW218084   4.856   5.744   5.211
 5729SOL     OW18085   2.154   1.661   5.932
 5729SOL    HW118086   2.160   1.600   5.852
 5729SOL    HW218087   2.242   1.707   5.945
 5730SOL     OW18088   6.773   4.467   6.022
 5730SOL    HW118089   6.718   4.442   5.942
 5730SOL    HW218090   6.863   4.498   5.991
 5731SOL     OW18091   0.060   6.471   1.546
 5731SOL    HW118092   0.061   6.554   1.490
 5731SOL    HW218093   0.152   6.452   1.579
 5732SOL     OW18094   0.829   6.507   4.516
 5732SOL    HW118095   0.772   6.549   4.445
 5732SOL    HW218096   0.889   6.439   4.475
 5733SOL     OW18097   3.606   7.016   5.268
 5733SOL    HW118098   3.511   6.994   5.291
 5733SOL    HW218099   3.632   6.970   5.184
 5734SOL     OW18100   1.589   6.217   3.667
 5734SOL    HW118101   1.552   6.277   3.597
 5734SOL    HW218102   1.583   6.122   3.636
 5735SOL     OW18103   3.145   1.143   1.504
 5735SOL    HW118104   3.097   1.156   1.591
 5735SOL    HW218105   3.238   1.179   1.512
 5736SOL     OW18106   1.083   5.613   6.776
 5736SOL    HW118107   0.989   5.631   6.805
 5736SOL    HW218108   1.084   5.585   6.680
 5737SOL     OW18109   4.863   4.859   6.495
 5737SOL    HW118110   4.839   4.762   6.491
 5737SOL    HW218111   4.958   4.871   6.464
 5738SOL     OW18112   1.376   3.458   6.655
 5738SOL    HW118113   1.328   3.543   6.675
 5738SOL    HW218114   1.391   3.408   6.740
 5739SOL     OW18115   1.095   1.172   0.739
 5739SOL    HW118116   1.176   1.141   0.688
 5739SOL    HW218117   1.085   1.116   0.821
 5740SOL     OW18118   3.751   5.913   6.571
 5740SOL    HW118119   3.716   5.864   6.492
 5740SOL    HW218120   3.785   6.003   6.542
 5741SOL     OW18121   0.021   5.667   4.884
 5741SOL    HW118122   6.986   5.747   4.877
 5741SOL    HW218123   0.073   5.656   4.800
 5742SOL     OW18124   6.479   6.412   2.847
 5742SOL    HW118125   6.508   6.472   2.922
 5742SOL    HW218126   6.385   6.434   2.821
 5743SOL     OW18127   1.894   6.481   5.099
 5743SOL    HW118128   1.979   6.478   5.152
 5743SOL    HW218129   1.836   6.553   5.135
 5744SOL     OW18130   5.769   0.735   0.470
 5744SOL    HW118131   5.847   0.673   0.465
 5744SOL    HW218132   5.779   0.795   0.549
 5745SOL     OW18133   1.999   2.184   4.789
 5745SOL    HW118134   2.034   2.226   4.873
 5745SOL    HW218135   1.912   2.138   4.809
 5746SOL     OW18136   4.400   2.189   6.712
 5746SOL    HW118137   4.355   2.175   6.801
 5746SOL    HW218138   4.466   2.116   6.696
 5747SOL     OW18139   0.744   5.686   3.328
 5747SOL    HW118140   0.668   5.660   3.267
 5747SOL    HW218141   0.728   5.777   3.364
 5748SOL     OW18142   2.538   6.122   2.764
 5748SOL    HW118143   2.623   6.138   2.713
 5748SOL    HW218144   2.460   6.138   2.704
 5749SOL     OW18145   2.311   2.429   3.331
 5749SOL    HW118146   2.342   2.516   3.294
 5749SOL    HW218147   2.311   2.359   3.259
 5750SOL     OW18148   6.348   5.532   3.095
 5750SOL    HW118149   6.340   5.472   3.174
 5750SOL    HW218150   6.438   5.575   3.094
 5751SOL     OW18151   2.286   3.621   5.477
 5751SOL    HW118152   2.292   3.608   5.576
 5751SOL    HW218153   2.313   3.537   5.430
 5752SOL     OW18154   6.884   6.762   6.472
 5752SOL    HW118155   6.978   6.792   6.490
 5752SOL    HW218156   6.820   6.822   6.520
 5753SOL     OW18157   3.548   2.663   0.235
 5753SOL    HW118158   3.634   2.653   0.284
 5753SOL    HW218159   3.473   2.672   0.301
 5754SOL     OW18160   6.627   4.762   1.356
 5754SOL    HW118161   6.535   4.803   1.356
 5754SOL    HW218162   6.690   4.823   1.404
 5755SOL     OW18163   3.057   4.378   0.270
 5755SOL    HW118164   3.094   4.455   0.322
 5755SOL    HW218165   3.056   4.400   0.172
 5756SOL     OW18166   6.692   5.285   4.066
 5756SOL    HW118167   6.746   5.304   3.984
 5756SOL    HW218168   6.725   5.202   4.110
 5757SOL     OW18169   6.982   5.261   0.602
 5757SOL    HW118170   6.916   5.248   0.528
 5757SOL    HW218171   6.960   5.345   0.651
 5758SOL     OW18172   1.564   2.576   5.449
 5758SOL    HW118173   1.643   2.601   5.393
 5758SOL    HW218174   1.594   2.559   5.543
 5759SOL     OW18175   5.346   1.611   6.231
 5759SOL    HW118176   5.362   1.636   6.327
 5759SOL    HW218177   5.405   1.535   6.206
 5760SOL     OW18178   1.499   5.455   2.488
 5760SOL    HW118179   1.432   5.414   2.550
 5760SOL    HW218180   1.534   5.384   2.426
 5761SOL     OW18181   4.540   0.058   4.578
 5761SOL    HW118182   4.496   0.142   4.611
 5761SOL    HW218183   4.629   0.081   4.538
 5762SOL     OW18184   5.619   6.097   1.465
 5762SOL    HW118185   5.590   6.189   1.494
 5762SOL    HW218186   5.540   6.036   1.465
 5763SOL     OW18187   1.298   0.557   1.391
 5763SOL    HW118188   1.268   0.480   1.334
 5763SOL    HW218189   1.257   0.641   1.357
 5764SOL     OW18190   5.136   3.642   5.559
 5764SOL    HW118191   5.210   3.649   5.626
 5764SOL    HW218192   5.049   3.626   5.607
 5765SOL     OW18193   5.918   4.248   6.944
 5765SOL    HW118194   5.840   4.262   7.005
 5765SOL    HW218195   5.896   4.177   6.877
 5766SOL     OW18196   3.049   2.219   2.628
 5766SOL    HW118197   3.035   2.142   2.567
 5766SOL    HW218198   3.147   2.232   2.644
 5767SOL     OW18199   0.093   6.734   1.442
 5767SOL    HW118200   0.156   6.741   1.365
 5767SOL    HW218201   0.136   6.768   1.525
 5768SOL     OW18202   6.596   1.852   2.394
 5768SOL    HW118203   6.657   1.931   2.409
 5768SOL    HW218204   6.651   1.773   2.367
 5769SOL     OW18205   2.028   5.532   4.523
 5769SOL    HW118206   1.992   5.439   4.532
 5769SOL    HW218207   1.976   5.592   4.584
 5770SOL     OW18208   6.227   0.602   1.415
 5770SOL    HW118209   6.229   0.540   1.336
 5770SOL    HW218210   6.132   0.624   1.438
 5771SOL     OW18211   1.701   1.509   1.114
 5771SOL    HW118212   1.743   1.594   1.081
 5771SOL    HW218213   1.769   1.456   1.166
 5772SOL     OW18214   5.424   3.750   0.480
 5772SOL    HW118215   5.375   3.728   0.396
 5772SOL    HW218216   5.447   3.666   0.529
 5773SOL     OW18217   5.359   5.660   4.623
 5773SOL    HW118218   5.341   5.659   4.721
 5773SOL    HW218219   5.309   5.735   4.580
 5774SOL     OW18220   1.739   5.417   4.158
 5774SOL    HW118221   1.678   5.491   4.132
 5774SOL    HW218222   1.834   5.444   4.140
 5775SOL     OW18223   0.515   6.452   6.087
 5775SOL    HW118224   0.604   6.413   6.061
 5775SOL    HW218225   0.519   6.551   6.080
 5776SOL     OW18226   5.007   0.461   5.630
 5776SOL    HW118227   4.933   0.432   5.569
 5776SOL    HW218228   5.019   0.393   5.703
 5777SOL     OW18229   0.308   0.972   4.412
 5777SOL    HW118230   0.378   1.036   4.381
 5777SOL    HW218231   0.221   0.995   4.368
 5778SOL     OW18232   1.309   6.851   3.862
 5778SOL    HW118233   1.375   6.776   3.856
 5778SOL    HW218234   1.276   6.874   3.771
 5779SOL     OW18235   4.168   0.890   2.280
 5779SOL    HW118236   4.205   0.971   2.325
 5779SOL    HW218237   4.075   0.874   2.313
 5780SOL     OW18238   5.946   4.011   1.871
 5780SOL    HW118239   5.994   4.080   1.818
 5780SOL    HW218240   5.855   4.045   1.895
 5781SOL     OW18241   1.744   5.307   4.837
 5781SOL    HW118242   1.714   5.211   4.831
 5781SOL    HW218243   1.784   5.323   4.927
 5782SOL     OW18244   2.988   1.853   2.472
 5782SOL    HW118245   2.961   1.940   2.514
 5782SOL    HW218246   2.914   1.787   2.482
 5783SOL     OW18247   1.662   0.106   1.125
 5783SOL    HW118248   1.735   0.097   1.057
 5783SOL    HW218249   1.691   0.063   1.211
 5784SOL     OW18250   1.576   5.983   0.284
 5784SOL    HW118251   1.628   5.898   0.275
 5784SOL    HW218252   1.638   6.057   0.311
 5785SOL     OW18253   1.934   1.946   0.349
 5785SOL    HW118254   1.999   1.878   0.313
 5785SOL    HW218255   1.890   1.993   0.273
 5786SOL     OW18256   1.397   3.436   1.880
 5786SOL    HW118257   1.367   3.343   1.900
 5786SOL    HW218258   1.344   3.473   1.803
 5787SOL     OW18259   6.674   2.982   4.943
 5787SOL    HW118260   6.717   2.892   4.945
 5787SOL    HW218261   6.676   3.017   4.849
 5788SOL     OW18262   2.494   1.414   2.168
 5788SOL    HW118263   2.570   1.401   2.231
 5788SOL    HW218264   2.527   1.449   2.081
 5789SOL     OW18265   3.613   3.976   6.549
 5789SOL    HW118266   3.676   3.920   6.603
 5789SOL    HW218267   3.558   3.917   6.490
 5790SOL     OW18268   5.342   5.613   4.075
 5790SOL    HW118269   5.335   5.710   4.101
 5790SOL    HW218270   5.264   5.589   4.016
 5791SOL     OW18271   3.969   1.414   2.765
 5791SOL    HW118272   4.069   1.407   2.770
 5791SOL    HW218273   3.929   1.322   2.771
 5792SOL     OW18274   4.822   3.121   2.786
 5792SOL    HW118275   4.822   3.154   2.692
 5792SOL    HW218276   4.823   3.198   2.849
 5793SOL     OW18277   4.581   2.296   5.707
 5793SOL    HW118278   4.497   2.312   5.759
 5793SOL    HW218279   4.584   2.357   5.628
 5794SOL     OW18280   4.186   0.477   0.036
 5794SOL    HW118281   4.248   0.464   0.114
 5794SOL    HW218282   4.128   0.397   0.026
 5795SOL     OW18283   2.015   5.915   1.666
 5795SOL    HW118284   1.941   5.963   1.713
 5795SOL    HW218285   1.980   5.877   1.580
 5796SOL     OW18286   4.729   2.386   6.436
 5796SOL    HW118287   4.649   2.431   6.475
 5796SOL    HW218288   4.812   2.419   6.481
 5797SOL     OW18289   5.127   2.602   1.055
 5797SOL    HW118290   5.132   2.701   1.063
 5797SOL    HW218291   5.063   2.579   0.981
 5798SOL     OW18292   1.689   4.226   5.825
 5798SOL    HW118293   1.762   4.205   5.760
 5798SOL    HW218294   1.658   4.142   5.870
 5799SOL     OW18295   2.345   6.626   3.590
 5799SOL    HW118296   2.270   6.688   3.566
 5799SOL    HW218297   2.397   6.604   3.508
 5800SOL     OW18298   0.947   0.287   1.241
 5800SOL    HW118299   0.875   0.341   1.285
 5800SOL    HW218300   1.031   0.340   1.236
 5801SOL     OW18301   2.338   1.878   2.968
 5801SOL    HW118302   2.372   1.889   3.061
 5801SOL    HW218303   2.344   1.965   2.919
 5802SOL     OW18304   0.436   1.345   1.788
 5802SOL    HW118305   0.436   1.255   1.744
 5802SOL    HW218306   0.380   1.342   1.871
 5803SOL     OW18307   0.386   5.217   3.969
 5803SOL    HW118308   0.435   5.156   3.908
 5803SOL    HW218309   0.292   5.184   3.981
 5804SOL     OW18310   5.813   1.817   3.622
 5804SOL    HW118311   5.726   1.858   3.649
 5804SOL    HW218312   5.797   1.728   3.580
 5805SOL     OW18313   1.935   2.572   1.754
 5805SOL    HW118314   1.969   2.529   1.670
 5805SOL    HW218315   1.946   2.671   1.746
 5806SOL     OW18316   0.259   4.151   1.991
 5806SOL    HW118317   0.203   4.135   2.073
 5806SOL    HW218318   0.337   4.088   1.992
 5807SOL     OW18319   1.058   0.114   1.067
 5807SOL    HW118320   1.022   0.163   1.146
 5807SOL    HW218321   1.044   0.016   1.080
 5808SOL     OW18322   6.724   6.950   5.687
 5808SOL    HW118323   6.794   6.955   5.759
 5808SOL    HW218324   6.753   7.005   5.609
 5809SOL     OW18325   0.729   2.171   5.751
 5809SOL    HW118326   0.756   2.076   5.762
 5809SOL    HW218327   0.698   2.186   5.657
 5810SOL     OW18328   3.668   6.935   5.568
 5810SOL    HW118329   3.649   6.972   5.477
 5810SOL    HW218330   3.746   6.984   5.608
 5811SOL     OW18331   3.092   3.630   6.136
 5811SOL    HW118332   3.074   3.562   6.065
 5811SOL    HW218333   3.084   3.721   6.098
 5812SOL     OW18334   5.661   2.499   0.335
 5812SOL    HW118335   5.571   2.462   0.313
 5812SOL    HW218336   5.656   2.552   0.419
 5813SOL     OW18337   5.100   6.513   0.609
 5813SOL    HW118338   5.065   6.581   0.546
 5813SOL    HW218339   5.037   6.436   0.614
 5814SOL     OW18340   4.995   1.655   1.247
 5814SOL    HW118341   5.022   1.741   1.203
 5814SOL    HW218342   5.075   1.614   1.291
 5815SOL     OW18343   6.266   1.561   4.216
 5815SOL    HW118344   6.215   1.510   4.285
 5815SOL    HW218345   6.250   1.519   4.126
 5816SOL     OW18346   0.729   3.630   2.504
 5816SOL    HW118347   0.704   3.556   2.567
 5816SOL    HW218348   0.818   3.667   2.530
 5817SOL     OW18349   6.468   3.616   3.147
 5817SOL    HW118350   6.382   3.652   3.184
 5817SOL    HW218351   6.451   3.568   3.061
 5818SOL     OW18352   2.238   0.054   5.536
 5818SOL    HW118353   2.156   0.078   5.485
 5818SOL    HW218354   2.264   0.130   5.595
 5819SOL     OW18355   4.567   5.033   0.244
 5819SOL    HW118356   4.651   5.064   0.289
 5819SOL    HW218357   4.580   4.941   0.207
 5820SOL     OW18358   5.628   5.638   2.100
 5820SOL    HW118359   5.579   5.551   2.098
 5820SOL    HW218360   5.570   5.710   2.062
 5821SOL     OW18361   6.757   6.923   0.567
 5821SOL    HW118362   6.665   6.902   0.533
 5821SOL    HW218363   6.774   6.869   0.649
 5822SOL     OW18364   1.845   3.307   2.933
 5822SOL    HW118365   1.938   3.309   2.897
 5822SOL    HW218366   1.815   3.213   2.945
 5823SOL     OW18367   2.287   5.374   3.931
 5823SOL    HW118368   2.216   5.333   3.873
 5823SOL    HW218369   2.376   5.362   3.887
 5824SOL     OW18370   1.037   0.281   1.969
 5824SOL    HW118371   1.060   0.289   2.066
 5824SOL    HW218372   1.118   0.254   1.918
 5825SOL     OW18373   6.199   0.553   4.110
 5825SOL    HW118374   6.185   0.643   4.151
 5825SOL    HW218375   6.191   0.482   4.180
 5826SOL     OW18376   0.213   0.265   5.105
 5826SOL    HW118377   0.208   0.333   5.179
 5826SOL    HW218378   0.309   0.248   5.083
 5827SOL     OW18379   2.268   4.441   4.841
 5827SOL    HW118380   2.322   4.426   4.924
 5827SOL    HW218381   2.283   4.366   4.777
 5828SOL     OW18382   4.030   6.627   4.599
 5828SOL    HW118383   3.940   6.584   4.605
 5828SOL    HW218384   4.041   6.669   4.509
 5829SOL     OW18385   2.300   1.142   4.100
 5829SOL    HW118386   2.211   1.121   4.060
 5829SOL    HW218387   2.317   1.081   4.178
 5830SOL     OW18388   3.500   5.686   4.625
 5830SOL    HW118389   3.473   5.781   4.606
 5830SOL    HW218390   3.457   5.656   4.710
 5831SOL     OW18391   1.404   2.334   5.353
 5831SOL    HW118392   1.449   2.397   5.416
 5831SOL    HW218393   1.305   2.339   5.366
 5832SOL     OW18394   2.784   5.019   1.637
 5832SOL    HW118395   2.723   5.011   1.716
 5832SOL    HW218396   2.804   4.928   1.601
 5833SOL     OW18397   3.227   4.150   6.266
 5833SOL    HW118398   3.145   4.199   6.235
 5833SOL    HW218399   3.233   4.063   6.217
 5834SOL     OW18400   5.452   2.883   6.199
 5834SOL    HW118401   5.447   2.885   6.299
 5834SOL    HW218402   5.521   2.817   6.170
 5835SOL     OW18403   5.319   1.749   2.312
 5835SOL    HW118404   5.261   1.782   2.387
 5835SOL    HW218405   5.299   1.652   2.295
 5836SOL     OW18406   4.694   6.442   3.659
 5836SOL    HW118407   4.625   6.512   3.642
 5836SOL    HW218408   4.674   6.362   3.602
 5837SOL     OW18409   3.214   4.839   0.134
 5837SOL    HW118410   3.172   4.830   0.044
 5837SOL    HW218411   3.191   4.928   0.173
 5838SOL     OW18412   2.901   2.009   1.101
 5838SOL    HW118413   2.872   1.971   1.189
 5838SOL    HW218414   2.881   1.942   1.029
 5839SOL     OW18415   2.138   1.942   1.315
 5839SOL    HW118416   2.063   1.997   1.278
 5839SOL    HW218417   2.165   1.978   1.404
 5840SOL     OW18418   0.966   3.338   3.317
 5840SOL    HW118419   1.051   3.292   3.345
 5840SOL    HW218420   0.889   3.299   3.367
 5841SOL     OW18421   5.294   2.335   0.499
 5841SOL    HW118422   5.375   2.346   0.556
 5841SOL    HW218423   5.240   2.419   0.501
 5842SOL     OW18424   2.248   1.734   0.776
 5842SOL    HW118425   2.153   1.736   0.808
 5842SOL    HW218426   2.251   1.754   0.678
 5843SOL     OW18427   1.813   3.688   1.234
 5843SOL    HW118428   1.897   3.634   1.246
 5843SOL    HW218429   1.735   3.626   1.231
 5844SOL     OW18430   0.583   0.105   5.215
 5844SOL    HW118431   0.647   0.145   5.280
 5844SOL    HW218432   0.597   0.006   5.212
 5845SOL     OW18433   1.323   6.559   1.908
 5845SOL    HW118434   1.305   6.519   1.999
 5845SOL    HW218435   1.343   6.656   1.918
 5846SOL     OW18436   6.608   4.156   5.849
 5846SOL    HW118437   6.588   4.226   5.918
 5846SOL    HW218438   6.665   4.196   5.777
 5847SOL     OW18439   2.709   3.819   0.625
 5847SOL    HW118440   2.658   3.823   0.539
 5847SOL    HW218441   2.785   3.883   0.622
 5848SOL     OW18442   1.603   5.109   2.227
 5848SOL    HW118443   1.659   5.187   2.254
 5848SOL    HW218444   1.571   5.121   2.133
 5849SOL     OW18445   3.495   5.970   5.426
 5849SOL    HW118446   3.475   5.946   5.331
 5849SOL    HW218447   3.416   5.947   5.483
 5850SOL     OW18448   1.303   1.570   2.287
 5850SOL    HW118449   1.349   1.494   2.332
 5850SOL    HW218450   1.240   1.535   2.218
 5851SOL     OW18451   6.199   4.081   4.441
 5851SOL    HW118452   6.183   3.994   4.394
 5851SOL    HW218453   6.297   4.101   4.441
 5852SOL     OW18454   4.843   4.191   2.396
 5852SOL    HW118455   4.811   4.116   2.453
 5852SOL    HW218456   4.917   4.159   2.336
 5853SOL     OW18457   3.309   5.060   5.534
 5853SOL    HW118458   3.264   5.083   5.620
 5853SOL    HW218459   3.408   5.055   5.548
 5854SOL     OW18460   3.048   4.414   5.622
 5854SOL    HW118461   3.048   4.326   5.575
 5854SOL    HW218462   3.137   4.459   5.609
 5855SOL     OW18463   2.107   3.391   3.136
 5855SOL    HW118464   2.016   3.421   3.162
 5855SOL    HW218465   2.156   3.358   3.217
 5856SOL     OW18466   1.438   6.714   3.120
 5856SOL    HW118467   1.393   6.804   3.122
 5856SOL    HW218468   1.537   6.727   3.108
 5857SOL     OW18469   6.393   4.314   6.534
 5857SOL    HW118470   6.424   4.354   6.620
 5857SOL    HW218471   6.300   4.278   6.547
 5858SOL     OW18472   1.850   0.640   3.282
 5858SOL    HW118473   1.807   0.578   3.346
 5858SOL    HW218474   1.879   0.590   3.201
 5859SOL     OW18475   6.385   0.243   1.701
 5859SOL    HW118476   6.388   0.320   1.637
 5859SOL    HW218477   6.477   0.209   1.716
 5860SOL     OW18478   0.485   4.370   3.517
 5860SOL    HW118479   0.494   4.403   3.611
 5860SOL    HW218480   0.390   4.344   3.499
 5861SOL     OW18481   5.140   1.106   5.755
 5861SOL    HW118482   5.116   1.011   5.773
 5861SOL    HW218483   5.060   1.155   5.720
 5862SOL     OW18484   0.256   5.549   2.231
 5862SOL    HW118485   0.314   5.630   2.239
 5862SOL    HW218486   0.253   5.501   2.319
 5863SOL     OW18487   4.262   0.456   5.421
 5863SOL    HW118488   4.289   0.532   5.362
 5863SOL    HW218489   4.310   0.463   5.508
 5864SOL     OW18490   3.502   3.924   2.313
 5864SOL    HW118491   3.587   3.976   2.302
 5864SOL    HW218492   3.519   3.828   2.292
 5865SOL     OW18493   6.320   0.809   5.998
 5865SOL    HW118494   6.330   0.718   5.957
 5865SOL    HW218495   6.409   0.853   6.004
 5866SOL     OW18496   3.537   2.897   3.393
 5866SOL    HW118497   3.524   2.987   3.352
 5866SOL    HW218498   3.447   2.855   3.410
 5867SOL     OW18499   3.834   1.799   2.015
 5867SOL    HW118500   3.766   1.871   2.029
 5867SOL    HW218501   3.910   1.835   1.962
 5868SOL     OW18502   1.416   1.384   5.667
 5868SOL    HW118503   1.360   1.397   5.749
 5868SOL    HW218504   1.437   1.287   5.655
 5869SOL     OW18505   0.209   5.910   3.960
 5869SOL    HW118506   0.305   5.906   3.933
 5869SOL    HW218507   0.152   5.921   3.879
 5870SOL     OW18508   4.203   4.838   4.324
 5870SOL    HW118509   4.188   4.818   4.227
 5870SOL    HW218510   4.120   4.878   4.362
 5871SOL     OW18511   3.182   3.531   4.111
 5871SOL    HW118512   3.181   3.458   4.042
 5871SOL    HW218513   3.096   3.529   4.162
 5872SOL     OW18514   4.361   5.878   1.971
 5872SOL    HW118515   4.448   5.904   2.014
 5872SOL    HW218516   4.370   5.883   1.871
 5873SOL     OW18517   3.765   5.389   2.199
 5873SOL    HW118518   3.779   5.290   2.199
 5873SOL    HW218519   3.764   5.423   2.294
 5874SOL     OW18520   2.649   4.601   5.617
 5874SOL    HW118521   2.707   4.599   5.536
 5874SOL    HW218522   2.688   4.540   5.687
 5875SOL     OW18523   2.573   1.187   0.780
 5875SOL    HW118524   2.651   1.127   0.763
 5875SOL    HW218525   2.543   1.176   0.875
 5876SOL     OW18526   3.508   3.155   2.000
 5876SOL    HW118527   3.463   3.184   1.916
 5876SOL    HW218528   3.442   3.112   2.060
 5877SOL     OW18529   5.881   4.349   0.306
 5877SOL    HW118530   5.830   4.415   0.251
 5877SOL    HW218531   5.852   4.357   0.402
 5878SOL     OW18532   2.245   4.228   2.447
 5878SOL    HW118533   2.221   4.259   2.355
 5878SOL    HW218534   2.261   4.130   2.446
 5879SOL     OW18535   6.897   4.043   5.808
 5879SOL    HW118536   6.882   4.067   5.903
 5879SOL    HW218537   6.824   4.082   5.752
 5880SOL     OW18538   2.111   5.967   0.914
 5880SOL    HW118539   2.180   5.988   0.984
 5880SOL    HW218540   2.098   6.046   0.855
 5881SOL     OW18541   0.395   5.563   4.612
 5881SOL    HW118542   0.483   5.606   4.632
 5881SOL    HW218543   0.405   5.502   4.533
 5882SOL     OW18544   5.033   1.284   1.514
 5882SOL    HW118545   4.947   1.323   1.482
 5882SOL    HW218546   5.021   1.185   1.528
 5883SOL     OW18547   0.206   3.726   5.805
 5883SOL    HW118548   0.304   3.709   5.820
 5883SOL    HW218549   0.176   3.801   5.863
 5884SOL     OW18550   1.354   1.623   3.095
 5884SOL    HW118551   1.369   1.719   3.120
 5884SOL    HW218552   1.297   1.579   3.164
 5885SOL     OW18553   6.157   6.597   1.285
 5885SOL    HW118554   6.196   6.505   1.283
 5885SOL    HW218555   6.214   6.659   1.231
 5886SOL     OW18556   1.291   1.582   6.132
 5886SOL    HW118557   1.365   1.546   6.188
 5886SOL    HW218558   1.210   1.524   6.143
 5887SOL     OW18559   3.802   6.894   4.395
 5887SOL    HW118560   3.851   6.877   4.309
 5887SOL    HW218561   3.867   6.923   4.465
 5888SOL     OW18562   2.429   0.258   3.922
 5888SOL    HW118563   2.379   0.172   3.933
 5888SOL    HW218564   2.500   0.246   3.852
 5889SOL     OW18565   2.808   0.856   1.006
 5889SOL    HW118566   2.746   0.820   1.075
 5889SOL    HW218567   2.888   0.797   0.998
 5890SOL     OW18568   2.858   4.913   5.910
 5890SOL    HW118569   2.816   4.843   5.967
 5890SOL    HW218570   2.940   4.948   5.957
 5891SOL     OW18571   3.231   4.007   6.958
 5891SOL    HW118572   3.134   3.984   6.953
 5891SOL    HW218573   3.245   4.078   0.003
 5892SOL     OW18574   0.693   6.883   1.451
 5892SOL    HW118575   0.744   6.969   1.454
 5892SOL    HW218576   0.745   6.815   1.400
 5893SOL     OW18577   1.516   1.069   3.934
 5893SOL    HW118578   1.607   1.034   3.913
 5893SOL    HW218579   1.462   1.076   3.850
 5894SOL     OW18580   0.861   3.598   3.402
 5894SOL    HW118581   0.894   3.532   3.335
 5894SOL    HW218582   0.922   3.678   3.404
 5895SOL     OW18583   5.499   3.608   3.939
 5895SOL    HW118584   5.449   3.533   3.982
 5895SOL    HW218585   5.438   3.685   3.925
 5896SOL     OW18586   3.668   2.688   6.550
 5896SOL    HW118587   3.756   2.640   6.543
 5896SOL    HW218588   3.595   2.621   6.563
 5897SOL     OW18589   3.758   6.871   0.980
 5897SOL    HW118590   3.752   6.870   0.880
 5897SOL    HW218591   3.791   6.961   1.010
 5898SOL     OW18592   2.119   0.189   2.602
 5898SOL    HW118593   2.208   0.231   2.588
 5898SOL    HW218594   2.056   0.217   2.529
 5899SOL     OW18595   5.663   6.798   4.506
 5899SOL    HW118596   5.637   6.769   4.413
 5899SOL    HW218597   5.761   6.814   4.510
 5900SOL     OW18598   4.735   5.197   2.721
 5900SOL    HW118599   4.782   5.176   2.635
 5900SOL    HW218600   4.683   5.282   2.710
 5901SOL     OW18601   2.692   6.717   5.809
 5901SOL    HW118602   2.695   6.780   5.886
 5901SOL    HW218603   2.659   6.628   5.840
 5902SOL     OW18604   6.568   2.220   6.585
 5902SOL    HW118605   6.660   2.254   6.568
 5902SOL    HW218606   6.521   2.206   6.498
 5903SOL     OW18607   6.160   2.939   6.620
 5903SOL    HW118608   6.121   2.899   6.538
 5903SOL    HW218609   6.260   2.937   6.613
 5904SOL     OW18610   6.979   3.591   2.598
 5904SOL    HW118611   6.915   3.660   2.631
 5904SOL    HW218612   6.938   3.501   2.605
 5905SOL     OW18613   6.916   5.858   2.049
 5905SOL    HW118614   7.007   5.900   2.050
 5905SOL    HW218615   6.905   5.803   1.966
 5906SOL     OW18616   5.892   1.070   3.561
 5906SOL    HW118617   5.958   1.114   3.622
 5906SOL    HW218618   5.853   0.990   3.606
 5907SOL     OW18619   1.085   5.700   2.118
 5907SOL    HW118620   1.064   5.771   2.185
 5907SOL    HW218621   1.012   5.632   2.117
 5908SOL     OW18622   6.845   3.082   5.192
 5908SOL    HW118623   6.791   3.053   5.113
 5908SOL    HW218624   6.824   3.024   5.271
 5909SOL     OW18625   6.711   5.642   0.722
 5909SOL    HW118626   6.613   5.620   0.729
 5909SOL    HW218627   6.764   5.558   0.730
 5910SOL     OW18628   2.446   2.690   3.267
 5910SOL    HW118629   2.467   2.689   3.365
 5910SOL    HW218630   2.416   2.782   3.240
 5911SOL     OW18631   6.239   6.068   6.087
 5911SOL    HW118632   6.306   6.085   6.015
 5911SOL    HW218633   6.285   6.032   6.168
 5912SOL     OW18634   0.448   1.259   3.460
 5912SOL    HW118635   0.365   1.206   3.442
 5912SOL    HW218636   0.513   1.204   3.512
 5913SOL     OW18637   5.604   2.565   6.716
 5913SOL    HW118638   5.650   2.594   6.799
 5913SOL    HW218639   5.511   2.602   6.715
 5914SOL     OW18640   0.743   6.627   0.101
 5914SOL    HW118641   0.672   6.698   0.101
 5914SOL    HW218642   0.829   6.665   0.134
 5915SOL     OW18643   4.250   1.371   6.461
 5915SOL    HW118644   4.199   1.286   6.469
 5915SOL    HW218645   4.334   1.355   6.409
 5916SOL     OW18646   1.046   6.125   2.459
 5916SOL    HW118647   0.949   6.147   2.445
 5916SOL    HW218648   1.099   6.210   2.460
 5917SOL     OW18649   3.324   4.590   6.966
 5917SOL    HW118650   3.264   4.518   7.001
 5917SOL    HW218651   3.411   4.550   6.938
 5918SOL     OW18652   3.261   6.068   5.874
 5918SOL    HW118653   3.350   6.099   5.843
 5918SOL    HW218654   3.212   6.144   5.917
 5919SOL     OW18655   3.785   2.921   3.522
 5919SOL    HW118656   3.838   2.925   3.437
 5919SOL    HW218657   3.688   2.910   3.501
 5920SOL     OW18658   0.028   0.255   5.827
 5920SOL    HW118659   0.123   0.263   5.858
 5920SOL    HW218660   6.992   0.253   5.906
 5921SOL     OW18661   3.459   5.162   6.328
 5921SOL    HW118662   3.526   5.222   6.372
 5921SOL    HW218663   3.484   5.066   6.344
 5922SOL     OW18664   5.323   3.567   3.240
 5922SOL    HW118665   5.419   3.583   3.218
 5922SOL    HW218666   5.265   3.614   3.173
 5923SOL     OW18667   6.749   0.372   1.543
 5923SOL    HW118668   6.718   0.467   1.555
 5923SOL    HW218669   6.737   0.323   1.629
 5924SOL     OW18670   6.207   0.209   3.015
 5924SOL    HW118671   6.242   0.123   3.052
 5924SOL    HW218672   6.147   0.191   2.937
 5925SOL     OW18673   4.585   6.102   1.391
 5925SOL    HW118674   4.567   6.005   1.377
 5925SOL    HW218675   4.669   6.113   1.444
 5926SOL     OW18676   4.091   5.219   3.172
 5926SOL    HW118677   4.141   5.146   3.125
 5926SOL    HW218678   4.040   5.181   3.249
 5927SOL     OW18679   0.946   4.523   1.823
 5927SOL    HW118680   0.966   4.580   1.903
 5927SOL    HW218681   0.847   4.514   1.812
 5928SOL     OW18682   3.670   0.281   0.781
 5928SOL    HW118683   3.657   0.366   0.833
 5928SOL    HW218684   3.581   0.235   0.770
 5929SOL     OW18685   1.009   0.820   6.312
 5929SOL    HW118686   0.998   0.905   6.364
 5929SOL    HW218687   0.951   0.822   6.231
 5930SOL     OW18688   1.598   3.298   2.293
 5930SOL    HW118689   1.569   3.229   2.360
 5930SOL    HW218690   1.645   3.253   2.218
 5931SOL     OW18691   5.337   6.235   3.225
 5931SOL    HW118692   5.291   6.172   3.162
 5931SOL    HW218693   5.269   6.298   3.264
 5932SOL     OW18694   2.448   1.444   0.093
 5932SOL    HW118695   2.502   1.367   0.129
 5932SOL    HW218696   2.388   1.411   0.019
 5933SOL     OW18697   6.357   6.156   3.751
 5933SOL    HW118698   6.404   6.122   3.832
 5933SOL    HW218699   6.259   6.158   3.767
 5934SOL     OW18700   2.896   3.654   5.745
 5934SOL    HW118701   2.958   3.581   5.774
 5934SOL    HW218702   2.905   3.667   5.646
 5935SOL     OW18703   6.731   6.273   5.400
 5935SOL    HW118704   6.790   6.297   5.323
 5935SOL    HW218705   6.760   6.186   5.438
 5936SOL     OW18706   2.947   3.328   1.889
 5936SOL    HW118707   2.944   3.297   1.984
 5936SOL    HW218708   3.042   3.351   1.865
 5937SOL     OW18709   6.638   3.003   1.786
 5937SOL    HW118710   6.669   3.080   1.729
 5937SOL    HW218711   6.571   3.036   1.852
 5938SOL     OW18712   0.025   4.963   5.157
 5938SOL    HW118713   0.114   5.008   5.156
 5938SOL    HW218714   6.996   4.994   5.079
 5939SOL     OW18715   3.898   0.075   4.582
 5939SOL    HW118716   3.839   0.155   4.594
 5939SOL    HW218717   3.992   0.098   4.604
 5940SOL     OW18718   4.598   6.074   2.627
 5940SOL    HW118719   4.633   6.167   2.632
 5940SOL    HW218720   4.661   6.017   2.574
 5941SOL     OW18721   6.907   1.886   1.733
 5941SOL    HW118722   6.822   1.833   1.729
 5941SOL    HW218723   6.912   1.948   1.654
 5942SOL     OW18724   6.006   3.602   5.499
 5942SOL    HW118725   6.033   3.516   5.542
 5942SOL    HW218726   5.912   3.593   5.464
 5943SOL     OW18727   3.346   3.603   1.252
 5943SOL    HW118728   3.329   3.595   1.350
 5943SOL    HW218729   3.265   3.641   1.207
 5944SOL     OW18730   0.874   3.432   6.112
 5944SOL    HW118731   0.919   3.519   6.093
 5944SOL    HW218732   0.932   3.376   6.170
 5945SOL     OW18733   0.253   5.404   5.424
 5945SOL    HW118734   0.333   5.360   5.382
 5945SOL    HW218735   0.175   5.397   5.361
 5946SOL     OW18736   3.592   4.188   0.646
 5946SOL    HW118737   3.639   4.230   0.724
 5946SOL    HW218738   3.658   4.147   0.584
 5947SOL     OW18739   3.182   3.036   4.855
 5947SOL    HW118740   3.237   2.955   4.877
 5947SOL    HW218741   3.089   3.023   4.892
 5948SOL     OW18742   5.112   4.004   2.035
 5948SOL    HW118743   5.187   3.947   2.066
 5948SOL    HW218744   5.028   3.950   2.030
 5949SOL     OW18745   0.026   4.704   2.457
 5949SOL    HW118746   0.119   4.717   2.421
 5949SOL    HW218747   0.027   4.631   2.525
 5950SOL     OW18748   5.076   1.699   5.591
 5950SOL    HW118749   5.109   1.744   5.674
 5950SOL    HW218750   4.977   1.684   5.599
 5951SOL     OW18751   1.114   4.438   5.796
 5951SOL    HW118752   1.112   4.393   5.707
 5951SOL    HW218753   1.207   4.434   5.833
 5952SOL     OW18754   3.787   5.158   0.978
 5952SOL    HW118755   3.759   5.064   0.959
 5952SOL    HW218756   3.866   5.181   0.921
 5953SOL     OW18757   5.733   2.406   5.044
 5953SOL    HW118758   5.808   2.392   4.979
 5953SOL    HW218759   5.651   2.434   4.994
 5954SOL     OW18760   0.955   6.252   4.668
 5954SOL    HW118761   0.940   6.280   4.573
 5954SOL    HW218762   0.951   6.332   4.728
 5955SOL     OW18763   6.185   3.952   0.949
 5955SOL    HW118764   6.236   3.897   0.883
 5955SOL    HW218765   6.210   3.926   1.042
 5956SOL     OW18766   4.773   2.352   3.952
 5956SOL    HW118767   4.747   2.290   3.877
 5956SOL    HW218768   4.691   2.391   3.993
 5957SOL     OW18769   1.127   1.072   2.341
 5957SOL    HW118770   1.058   1.000   2.348
 5957SOL    HW218771   1.084   1.161   2.353
 5958SOL     OW18772   3.519   6.846   2.958
 5958SOL    HW118773   3.582   6.816   3.030
 5958SOL    HW218774   3.439   6.786   2.957
 5959SOL     OW18775   4.911   2.426   4.483
 5959SOL    HW118776   4.979   2.367   4.526
 5959SOL    HW218777   4.865   2.375   4.410
 5960SOL     OW18778   4.545   0.195   5.510
 5960SOL    HW118779   4.479   0.123   5.487
 5960SOL    HW218780   4.577   0.240   5.427
 5961SOL     OW18781   3.089   1.693   2.826
 5961SOL    HW118782   3.113   1.678   2.922
 5961SOL    HW218783   3.172   1.687   2.770
 5962SOL     OW18784   5.701   6.249   0.451
 5962SOL    HW118785   5.721   6.222   0.357
 5962SOL    HW218786   5.617   6.204   0.481
 5963SOL     OW18787   3.833   4.517   0.109
 5963SOL    HW118788   3.834   4.597   0.169
 5963SOL    HW218789   3.920   4.513   0.058
 5964SOL     OW18790   2.027   6.793   2.483
 5964SOL    HW118791   1.997   6.797   2.388
 5964SOL    HW218792   1.952   6.760   2.540
 5965SOL     OW18793   1.758   6.299   0.115
 5965SOL    HW118794   1.755   6.361   0.036
 5965SOL    HW218795   1.848   6.257   0.120
 5966SOL     OW18796   2.042   0.950   5.597
 5966SOL    HW118797   2.125   1.005   5.588
 5966SOL    HW218798   1.962   1.007   5.579
 5967SOL     OW18799   2.268   1.630   4.257
 5967SOL    HW118800   2.298   1.663   4.168
 5967SOL    HW218801   2.232   1.706   4.311
 5968SOL     OW18802   5.756   2.275   0.886
 5968SOL    HW118803   5.723   2.211   0.817
 5968SOL    HW218804   5.838   2.321   0.852
 5969SOL     OW18805   5.395   0.895   6.906
 5969SOL    HW118806   5.384   0.978   6.852
 5969SOL    HW218807   5.410   0.919   7.002
 5970SOL     OW18808   0.390   2.938   0.596
 5970SOL    HW118809   0.478   2.921   0.552
 5970SOL    HW218810   0.343   2.851   0.611
 5971SOL     OW18811   6.957   0.008   3.518
 5971SOL    HW118812   6.891   0.082   3.532
 5971SOL    HW218813   6.910   6.945   3.525
 5972SOL     OW18814   5.055   5.182   0.765
 5972SOL    HW118815   4.957   5.190   0.749
 5972SOL    HW218816   5.072   5.106   0.828
 5973SOL     OW18817   1.948   2.814   2.910
 5973SOL    HW118818   1.987   2.750   2.975
 5973SOL    HW218819   2.017   2.883   2.885
 5974SOL     OW18820   4.450   1.409   6.201
 5974SOL    HW118821   4.395   1.444   6.125
 5974SOL    HW218822   4.514   1.340   6.166
 5975SOL     OW18823   5.713   4.743   0.346
 5975SOL    HW118824   5.806   4.749   0.381
 5975SOL    HW218825   5.658   4.685   0.406
 5976SOL     OW18826   3.260   3.841   5.581
 5976SOL    HW118827   3.238   3.904   5.656
 5976SOL    HW218828   3.264   3.892   5.495
 5977SOL     OW18829   6.917   4.546   0.423
 5977SOL    HW118830   7.004   4.594   0.437
 5977SOL    HW218831   6.858   4.560   0.503
 5978SOL     OW18832   3.163   5.070   0.314
 5978SOL    HW118833   3.135   5.020   0.396
 5978SOL    HW218834   3.089   5.131   0.285
 5979SOL     OW18835   6.235   0.359   1.200
 5979SOL    HW118836   6.201   0.333   1.109
 5979SOL    HW218837   6.224   0.281   1.262
 5980SOL     OW18838   3.928   2.744   1.621
 5980SOL    HW118839   3.858   2.733   1.551
 5980SOL    HW218840   3.898   2.700   1.706
 5981SOL     OW18841   3.088   2.246   0.286
 5981SOL    HW118842   3.084   2.269   0.188
 5981SOL    HW218843   3.007   2.282   0.332
 5982SOL     OW18844   6.274   2.306   1.503
 5982SOL    HW118845   6.265   2.218   1.549
 5982SOL    HW218846   6.331   2.296   1.422
 5983SOL     OW18847   0.325   1.100   4.102
 5983SOL    HW118848   0.233   1.061   4.108
 5983SOL    HW218849   0.351   1.109   4.006
 5984SOL     OW18850   6.074   6.313   3.050
 5984SOL    HW118851   6.087   6.366   2.966
 5984SOL    HW218852   5.977   6.308   3.071
 5985SOL     OW18853   6.212   2.331   2.656
 5985SOL    HW118854   6.178   2.302   2.746
 5985SOL    HW218855   6.135   2.342   2.594
 5986SOL     OW18856   4.244   3.877   5.675
 5986SOL    HW118857   4.195   3.813   5.617
 5986SOL    HW218858   4.326   3.909   5.627
 5987SOL     OW18859   6.521   0.969   5.118
 5987SOL    HW118860   6.452   0.983   5.189
 5987SOL    HW218861   6.558   0.877   5.125
 5988SOL     OW18862   2.267   2.009   0.321
 5988SOL    HW118863   2.256   2.089   0.262
 5988SOL    HW218864   2.192   1.945   0.305
 5989SOL     OW18865   0.508   6.059   6.860
 5989SOL    HW118866   0.432   6.033   6.920
 5989SOL    HW218867   0.473   6.116   6.785
 5990SOL     OW18868   3.732   5.086   1.467
 5990SOL    HW118869   3.648   5.096   1.413
 5990SOL    HW218870   3.762   4.991   1.465
 5991SOL     OW18871   5.231   6.186   0.770
 5991SOL    HW118872   5.299   6.239   0.720
 5991SOL    HW218873   5.167   6.144   0.706
 5992SOL     OW18874   3.647   6.825   2.333
 5992SOL    HW118875   3.655   6.727   2.318
 5992SOL    HW218876   3.717   6.873   2.280
 5993SOL     OW18877   5.719   2.218   0.046
 5993SOL    HW118878   5.626   2.182   0.053
 5993SOL    HW218879   5.785   2.143   0.043
 5994SOL     OW18880   0.578   2.455   0.349
 5994SOL    HW118881   0.676   2.457   0.364
 5994SOL    HW218882   0.546   2.547   0.327
 5995SOL     OW18883   5.055   3.583   1.567
 5995SOL    HW118884   5.095   3.587   1.475
 5995SOL    HW218885   5.065   3.490   1.603
 5996SOL     OW18886   2.829   5.397   1.198
 5996SOL    HW118887   2.829   5.452   1.282
 5996SOL    HW218888   2.737   5.366   1.178
 5997SOL     OW18889   0.140   0.022   3.682
 5997SOL    HW118890   0.071   0.009   3.610
 5997SOL    HW218891   0.099   0.000   3.771
 5998SOL     OW18892   6.524   0.765   1.382
 5998SOL    HW118893   6.474   0.681   1.405
 5998SOL    HW218894   6.582   0.747   1.302
 5999SOL     OW18895   4.062   3.143   1.210
 5999SOL    HW118896   4.057   3.139   1.111
 5999SOL    HW218897   4.080   3.052   1.247
 6000SOL     OW18898   6.566   4.986   7.007
 6000SOL    HW118899   6.526   5.062   6.957
 6000SOL    HW218900   6.620   4.930   6.944
 6001SOL     OW18901   5.361   6.333   5.214
 6001SOL    HW118902   5.346   6.432   5.218
 6001SOL    HW218903   5.396   6.301   5.303
 6002SOL     OW18904   6.175   6.250   4.781
 6002SOL    HW118905   6.205   6.191   4.705
 6002SOL    HW218906   6.131   6.194   4.851
 6003SOL     OW18907   0.081   3.003   4.281
 6003SOL    HW118908   0.118   3.092   4.308
 6003SOL    HW218909   0.153   2.949   4.237
 6004SOL     OW18910   5.844   2.672   3.505
 6004SOL    HW118911   5.862   2.770   3.516
 6004SOL    HW218912   5.926   2.621   3.532
 6005SOL     OW18913   3.985   4.903   6.063
 6005SOL    HW118914   3.959   4.920   5.968
 6005SOL    HW218915   4.001   4.991   6.109
 6006SOL     OW18916   3.524   5.666   5.516
 6006SOL    HW118917   3.498   5.571   5.533
 6006SOL    HW218918   3.500   5.690   5.421
 6007SOL     OW18919   1.309   4.975   5.398
 6007SOL    HW118920   1.387   4.955   5.457
 6007SOL    HW218921   1.301   5.074   5.385
 6008SOL     OW18922   2.642   5.091   5.917
 6008SOL    HW118923   2.716   5.032   5.950
 6008SOL    HW218924   2.680   5.158   5.852
 6009SOL     OW18925   4.059   5.430   3.440
 6009SOL    HW118926   4.041   5.349   3.495
 6009SOL    HW218927   3.994   5.434   3.364
 6010SOL     OW18928   0.165   4.953   4.832
 6010SOL    HW118929   0.098   4.962   4.906
 6010SOL    HW218930   0.228   4.879   4.854
 6011SOL     OW18931   6.183   1.294   2.439
 6011SOL    HW118932   6.247   1.333   2.373
 6011SOL    HW218933   6.159   1.363   2.507
 6012SOL     OW18934   0.155   0.539   6.010
 6012SOL    HW118935   0.225   0.545   5.939
 6012SOL    HW218936   0.071   0.502   5.970
 6013SOL     OW18937   5.830   0.978   2.523
 6013SOL    HW118938   5.753   0.979   2.459
 6013SOL    HW218939   5.891   1.054   2.503
 6014SOL     OW18940   3.772   3.004   4.189
 6014SOL    HW118941   3.838   3.042   4.254
 6014SOL    HW218942   3.818   2.989   4.101
 6015SOL     OW18943   6.293   1.738   4.483
 6015SOL    HW118944   6.370   1.736   4.547
 6015SOL    HW218945   6.294   1.654   4.428
 6016SOL     OW18946   4.893   1.505   4.738
 6016SOL    HW118947   4.817   1.444   4.714
 6016SOL    HW218948   4.961   1.454   4.791
 6017SOL     OW18949   0.085   3.006   5.064
 6017SOL    HW118950   7.020   3.010   5.109
 6017SOL    HW218951   0.140   2.934   5.106
 6018SOL     OW18952   3.644   1.580   6.109
 6018SOL    HW118953   3.569   1.544   6.055
 6018SOL    HW218954   3.680   1.508   6.169
 6019SOL     OW18955   0.038   3.861   6.594
 6019SOL    HW118956   6.981   3.809   6.574
 6019SOL    HW218957   0.033   3.950   6.548
 6020SOL     OW18958   0.930   4.419   0.511
 6020SOL    HW118959   0.947   4.507   0.556
 6020SOL    HW218960   0.865   4.366   0.566
 6021SOL     OW18961   4.217   0.748   3.044
 6021SOL    HW118962   4.167   0.696   3.114
 6021SOL    HW218963   4.204   0.704   2.955
 6022SOL     OW18964   6.758   1.558   2.014
 6022SOL    HW118965   6.833   1.502   1.979
 6022SOL    HW218966   6.795   1.636   2.064
 6023SOL     OW18967   4.686   0.873   1.298
 6023SOL    HW118968   4.657   0.781   1.324
 6023SOL    HW218969   4.742   0.868   1.215
 6024SOL     OW18970   0.328   5.410   0.036
 6024SOL    HW118971   0.424   5.430   0.019
 6024SOL    HW218972   0.320   5.325   0.089
 6025SOL     OW18973   2.555   1.226   4.115
 6025SOL    HW118974   2.464   1.204   4.080
 6025SOL    HW218975   2.551   1.309   4.170
 6026SOL     OW18976   6.253   4.351   4.137
 6026SOL    HW118977   6.276   4.381   4.230
 6026SOL    HW218978   6.292   4.414   4.071
 6027SOL     OW18979   6.035   3.354   5.632
 6027SOL    HW118980   5.951   3.357   5.686
 6027SOL    HW218981   6.061   3.259   5.616
 6028SOL     OW18982   5.086   4.831   6.351
 6028SOL    HW118983   5.148   4.869   6.420
 6028SOL    HW218984   5.081   4.732   6.360
 6029SOL     OW18985   2.419   0.797   3.551
 6029SOL    HW118986   2.451   0.730   3.484
 6029SOL    HW218987   2.490   0.812   3.620
 6030SOL     OW18988   5.320   3.628   4.607
 6030SOL    HW118989   5.357   3.623   4.515
 6030SOL    HW218990   5.268   3.545   4.627
 6031SOL     OW18991   0.703   5.934   5.253
 6031SOL    HW118992   0.727   5.837   5.249
 6031SOL    HW218993   0.662   5.962   5.166
 6032SOL     OW18994   2.971   5.912   3.705
 6032SOL    HW118995   2.902   5.872   3.766
 6032SOL    HW218996   2.963   5.869   3.614
 6033SOL     OW18997   2.420   1.787   2.677
 6033SOL    HW118998   2.378   1.744   2.757
 6033SOL    HW218999   2.451   1.716   2.613
 6034SOL     OW19000   1.347   0.432   6.902
 6034SOL    HW119001   1.291   0.504   6.945
 6034SOL    HW219002   1.367   0.360   6.968
 6035SOL     OW19003   1.716   1.109   3.142
 6035SOL    HW119004   1.670   1.174   3.203
 6035SOL    HW219005   1.694   1.016   3.171
 6036SOL     OW19006   6.190   2.815   0.485
 6036SOL    HW119007   6.176   2.900   0.435
 6036SOL    HW219008   6.102   2.784   0.523
 6037SOL     OW19009   4.365   2.359   0.836
 6037SOL    HW119010   4.347   2.260   0.838
 6037SOL    HW219011   4.306   2.403   0.769
 6038SOL     OW19012   0.568   1.906   6.104
 6038SOL    HW119013   0.654   1.918   6.054
 6038SOL    HW219014   0.577   1.830   6.168
 6039SOL     OW19015   3.113   3.947   3.711
 6039SOL    HW119016   3.060   3.948   3.626
 6039SOL    HW219017   3.090   3.865   3.763
 6040SOL     OW19018   1.197   1.572   6.625
 6040SOL    HW119019   1.149   1.620   6.551
 6040SOL    HW219020   1.296   1.577   6.609
 6041SOL     OW19021   3.067   2.733   6.233
 6041SOL    HW119022   3.090   2.830   6.224
 6041SOL    HW219023   2.969   2.724   6.250
 6042SOL     OW19024   2.938   5.822   3.454
 6042SOL    HW119025   2.922   5.889   3.381
 6042SOL    HW219026   2.953   5.732   3.414
 6043SOL     OW19027   1.696   0.681   4.081
 6043SOL    HW119028   1.761   0.607   4.099
 6043SOL    HW219029   1.692   0.699   3.983
 6044SOL     OW19030   1.857   2.194   1.473
 6044SOL    HW119031   1.767   2.228   1.447
 6044SOL    HW219032   1.898   2.145   1.397
 6045SOL     OW19033   5.219   2.654   3.401
 6045SOL    HW119034   5.122   2.678   3.402
 6045SOL    HW219035   5.253   2.646   3.495
 6046SOL     OW19036   3.499   3.296   2.319
 6046SOL    HW119037   3.492   3.218   2.257
 6046SOL    HW219038   3.408   3.334   2.336
 6047SOL     OW19039   5.697   1.916   0.830
 6047SOL    HW119040   5.685   1.840   0.766
 6047SOL    HW219041   5.701   2.002   0.779
 6048SOL     OW19042   5.441   5.937   4.731
 6048SOL    HW119043   5.344   5.935   4.705
 6048SOL    HW219044   5.450   5.913   4.828
 6049SOL     OW19045   4.538   4.735   5.324
 6049SOL    HW119046   4.526   4.820   5.377
 6049SOL    HW219047   4.621   4.688   5.355
 6050SOL     OW19048   3.334   5.240   1.379
 6050SOL    HW119049   3.289   5.297   1.310
 6050SOL    HW219050   3.265   5.202   1.440
 6051SOL     OW19051   1.327   1.135   3.312
 6051SOL    HW119052   1.309   1.149   3.215
 6051SOL    HW219053   1.271   1.059   3.346
 6052SOL     OW19054   5.648   6.776   0.414
 6052SOL    HW119055   5.674   6.680   0.419
 6052SOL    HW219056   5.659   6.809   0.320
 6053SOL     OW19057   4.507   2.308   6.127
 6053SOL    HW119058   4.555   2.232   6.171
 6053SOL    HW219059   4.532   2.312   6.030
 6054SOL     OW19060   4.153   4.480   0.895
 6054SOL    HW119061   4.127   4.404   0.954
 6054SOL    HW219062   4.167   4.447   0.802
 6055SOL     OW19063   3.529   4.660   0.699
 6055SOL    HW119064   3.516   4.626   0.606
 6055SOL    HW219065   3.625   4.648   0.726
 6056SOL     OW19066   6.268   4.294   5.167
 6056SOL    HW119067   6.194   4.228   5.178
 6056SOL    HW219068   6.306   4.287   5.074
 6057SOL     OW19069   4.931   0.237   3.139
 6057SOL    HW119070   5.025   0.224   3.108
 6057SOL    HW219071   4.931   0.294   3.221
 6058SOL     OW19072   5.526   2.277   6.685
 6058SOL    HW119073   5.538   2.376   6.682
 6058SOL    HW219074   5.585   2.234   6.617
 6059SOL     OW19075   5.060   4.378   5.912
 6059SOL    HW119076   5.052   4.387   5.813
 6059SOL    HW219077   5.118   4.300   5.934
 6060SOL     OW19078   2.807   3.258   6.768
 6060SOL    HW119079   2.709   3.265   6.753
 6060SOL    HW219080   2.853   3.338   6.730
 6061SOL     OW19081   4.571   4.934   0.654
 6061SOL    HW119082   4.620   4.995   0.717
 6061SOL    HW219083   4.633   4.904   0.582
 6062SOL     OW19084   2.317   2.609   0.710
 6062SOL    HW119085   2.412   2.594   0.736
 6062SOL    HW219086   2.312   2.641   0.615
 6063SOL     OW19087   3.558   4.800   5.638
 6063SOL    HW119088   3.632   4.782   5.573
 6063SOL    HW219089   3.484   4.734   5.622
 6064SOL     OW19090   6.821   6.745   0.791
 6064SOL    HW119091   6.768   6.661   0.800
 6064SOL    HW219092   6.853   6.775   0.881
 6065SOL     OW19093   0.967   5.672   2.456
 6065SOL    HW119094   1.047   5.674   2.516
 6065SOL    HW219095   0.973   5.593   2.395
 6066SOL     OW19096   4.996   6.892   3.527
 6066SOL    HW119097   5.047   6.974   3.553
 6066SOL    HW219098   4.988   6.831   3.605
 6067SOL     OW19099   6.219   0.342   5.754
 6067SOL    HW119100   6.200   0.271   5.822
 6067SOL    HW219101   6.203   0.305   5.662
 6068SOL     OW19102   4.712   1.614   5.651
 6068SOL    HW119103   4.725   1.622   5.750
 6068SOL    HW219104   4.640   1.548   5.632
 6069SOL     OW19105   0.059   3.232   5.993
 6069SOL    HW119106   0.033   3.288   5.915
 6069SOL    HW219107   0.142   3.180   5.972
 6070SOL     OW19108   3.582   1.657   1.157
 6070SOL    HW119109   3.615   1.655   1.062
 6070SOL    HW219110   3.658   1.682   1.218
 6071SOL     OW19111   5.555   6.529   5.100
 6071SOL    HW119112   5.624   6.596   5.071
 6071SOL    HW219113   5.597   6.439   5.110
 6072SOL     OW19114   0.339   2.527   0.723
 6072SOL    HW119115   0.421   2.479   0.691
 6072SOL    HW219116   0.263   2.462   0.727
 6073SOL     OW19117   4.850   2.470   0.545
 6073SOL    HW119118   4.816   2.497   0.455
 6073SOL    HW219119   4.774   2.435   0.600
 6074SOL     OW19120   1.024   5.903   2.321
 6074SOL    HW119121   1.064   5.961   2.392
 6074SOL    HW219122   0.973   5.829   2.364
 6075SOL     OW19123   4.667   6.643   6.486
 6075SOL    HW119124   4.589   6.642   6.423
 6075SOL    HW219125   4.695   6.549   6.505
 6076SOL     OW19126   2.515   4.941   4.180
 6076SOL    HW119127   2.432   4.885   4.179
 6076SOL    HW219128   2.495   5.031   4.143
 6077SOL     OW19129   6.184   6.760   1.973
 6077SOL    HW119130   6.246   6.687   1.943
 6077SOL    HW219131   6.200   6.842   1.917
 6078SOL     OW19132   4.912   4.209   0.244
 6078SOL    HW119133   4.973   4.189   0.321
 6078SOL    HW219134   4.836   4.145   0.244
 6079SOL     OW19135   3.992   4.344   6.500
 6079SOL    HW119136   4.050   4.263   6.514
 6079SOL    HW219137   3.897   4.320   6.516
 6080SOL     OW19138   0.888   4.663   0.633
 6080SOL    HW119139   0.854   4.748   0.593
 6080SOL    HW219140   0.987   4.669   0.646
 6081SOL     OW19141   0.739   3.811   4.777
 6081SOL    HW119142   0.678   3.737   4.747
 6081SOL    HW219143   0.818   3.772   4.824
 6082SOL     OW19144   4.408   0.836   1.200
 6082SOL    HW119145   4.331   0.793   1.153
 6082SOL    HW219146   4.460   0.767   1.250
 6083SOL     OW19147   4.985   6.135   6.517
 6083SOL    HW119148   5.070   6.086   6.499
 6083SOL    HW219149   4.997   6.196   6.596
 6084SOL     OW19150   0.578   6.930   2.347
 6084SOL    HW119151   0.526   6.951   2.430
 6084SOL    HW219152   0.580   7.011   2.288
 6085SOL     OW19153   6.863   6.088   0.265
 6085SOL    HW119154   6.937   6.124   0.209
 6085SOL    HW219155   6.839   5.996   0.234
 6086SOL     OW19156   4.024   3.423   6.726
 6086SOL    HW119157   3.936   3.435   6.680
 6086SOL    HW219158   4.072   3.510   6.730
 6087SOL     OW19159   5.102   0.057   0.514
 6087SOL    HW119160   5.074   6.999   0.562
 6087SOL    HW219161   5.035   0.080   0.443
 6088SOL     OW19162   5.319   0.001   3.929
 6088SOL    HW119163   5.396   7.002   3.988
 6088SOL    HW219164   5.295   6.948   3.871
 6089SOL     OW19165   6.381   2.421   2.861
 6089SOL    HW119166   6.318   2.481   2.911
 6089SOL    HW219167   6.342   2.400   2.771
 6090SOL     OW19168   3.563   6.270   4.045
 6090SOL    HW119169   3.509   6.278   4.128
 6090SOL    HW219170   3.635   6.340   4.044
 6091SOL     OW19171   2.377   1.586   1.528
 6091SOL    HW119172   2.344   1.500   1.489
 6091SOL    HW219173   2.476   1.580   1.541
 6092SOL     OW19174   4.033   6.205   2.184
 6092SOL    HW119175   4.039   6.107   2.165
 6092SOL    HW219176   4.122   6.248   2.165
 6093SOL     OW19177   2.284   1.600   2.181
 6093SOL    HW119178   2.253   1.615   2.274
 6093SOL    HW219179   2.350   1.525   2.179
 6094SOL     OW19180   0.350   6.832   4.449
 6094SOL    HW119181   0.359   6.734   4.432
 6094SOL    HW219182   0.288   6.846   4.527
 6095SOL     OW19183   4.100   5.693   0.085
 6095SOL    HW119184   4.124   5.629   0.012
 6095SOL    HW219185   4.022   5.658   0.136
 6096SOL     OW19186   5.859   6.512   2.198
 6096SOL    HW119187   5.878   6.581   2.128
 6096SOL    HW219188   5.764   6.482   2.191
 6097SOL     OW19189   1.823   5.935   2.874
 6097SOL    HW119190   1.841   5.975   2.784
 6097SOL    HW219191   1.724   5.932   2.890
 6098SOL     OW19192   0.084   1.207   4.458
 6098SOL    HW119193   0.139   1.251   4.529
 6098SOL    HW219194   0.014   1.150   4.501
 6099SOL     OW19195   5.043   5.786   6.265
 6099SOL    HW119196   5.002   5.707   6.311
 6099SOL    HW219197   5.027   5.780   6.167
 6100SOL     OW19198   6.769   5.921   3.915
 6100SOL    HW119199   6.757   5.991   3.985
 6100SOL    HW219200   6.855   5.935   3.868
 6101SOL     OW19201   6.434   2.236   1.289
 6101SOL    HW119202   6.457   2.313   1.229
 6101SOL    HW219203   6.398   2.160   1.234
 6102SOL     OW19204   4.333   6.317   2.405
 6102SOL    HW119205   4.289   6.233   2.438
 6102SOL    HW219206   4.334   6.317   2.305
 6103SOL     OW19207   6.387   1.380   1.268
 6103SOL    HW119208   6.434   1.467   1.256
 6103SOL    HW219209   6.422   1.335   1.351
 6104SOL     OW19210   5.927   1.220   4.391
 6104SOL    HW119211   5.828   1.235   4.387
 6104SOL    HW219212   5.948   1.158   4.467
 6105SOL     OW19213   2.507   6.398   5.673
 6105SOL    HW119214   2.475   6.303   5.673
 6105SOL    HW219215   2.532   6.425   5.580
 6106SOL     OW19216   0.411   3.989   6.812
 6106SOL    HW119217   0.440   3.962   6.904
 6106SOL    HW219218   0.315   3.965   6.799
 6107SOL     OW19219   4.542   4.509   4.533
 6107SOL    HW119220   4.512   4.425   4.579
 6107SOL    HW219221   4.545   4.584   4.599
 6108SOL     OW19222   1.700   1.190   1.716
 6108SOL    HW119223   1.634   1.219   1.786
 6108SOL    HW219224   1.775   1.140   1.759
 6109SOL     OW19225   5.580   6.545   3.141
 6109SOL    HW119226   5.528   6.507   3.064
 6109SOL    HW219227   5.534   6.523   3.227
 6110SOL     OW19228   1.130   2.255   5.421
 6110SOL    HW119229   1.182   2.175   5.449
 6110SOL    HW219230   1.054   2.227   5.363
 6111SOL     OW19231   1.585   3.735   1.512
 6111SOL    HW119232   1.573   3.825   1.554
 6111SOL    HW219233   1.540   3.733   1.423
 6112SOL     OW19234   4.263   0.245   2.409
 6112SOL    HW119235   4.255   0.247   2.509
 6112SOL    HW219236   4.353   0.208   2.384
 6113SOL     OW19237   2.300   5.625   6.982
 6113SOL    HW119238   2.287   5.699   0.023
 6113SOL    HW219239   2.377   5.647   6.922
 6114SOL     OW19240   4.977   1.779   0.736
 6114SOL    HW119241   4.935   1.837   0.667
 6114SOL    HW219242   5.034   1.835   0.796
 6115SOL     OW19243   1.051   1.147   5.527
 6115SOL    HW119244   0.952   1.155   5.532
 6115SOL    HW219245   1.077   1.050   5.528
 6116SOL     OW19246   4.148   2.118   4.790
 6116SOL    HW119247   4.083   2.048   4.760
 6116SOL    HW219248   4.203   2.148   4.712
 6117SOL     OW19249   1.624   2.179   2.799
 6117SOL    HW119250   1.617   2.210   2.894
 6117SOL    HW219251   1.691   2.234   2.750
 6118SOL     OW19252   5.699   1.119   0.078
 6118SOL    HW119253   5.782   1.062   0.077
 6118SOL    HW219254   5.714   1.200   0.021
 6119SOL     OW19255   0.470   2.088   0.545
 6119SOL    HW119256   0.472   2.160   0.476
 6119SOL    HW219257   0.418   2.010   0.510
 6120SOL     OW19258   2.380   6.961   6.018
 6120SOL    HW119259   2.367   6.972   5.919
 6120SOL    HW219260   2.442   0.008   6.051
 6121SOL     OW19261   1.165   3.163   5.302
 6121SOL    HW119262   1.205   3.175   5.393
 6121SOL    HW219263   1.204   3.082   5.259
 6122SOL     OW19264   5.314   6.049   5.695
 6122SOL    HW119265   5.251   5.972   5.684
 6122SOL    HW219266   5.403   6.015   5.725
 6123SOL     OW19267   6.125   1.130   5.298
 6123SOL    HW119268   6.098   1.036   5.320
 6123SOL    HW219269   6.074   1.161   5.217
 6124SOL     OW19270   2.096   0.220   4.697
 6124SOL    HW119271   2.132   0.190   4.786
 6124SOL    HW219272   2.049   0.307   4.708
 6125SOL     OW19273   2.073   3.416   7.007
 6125SOL    HW119274   2.163   3.439   6.969
 6125SOL    HW219275   2.003   3.435   6.939
 6126SOL     OW19276   0.302   2.541   4.670
 6126SOL    HW119277   0.260   2.573   4.755
 6126SOL    HW219278   0.269   2.596   4.594
 6127SOL     OW19279   4.359   1.561   1.902
 6127SOL    HW119280   4.378   1.594   1.810
 6127SOL    HW219281   4.265   1.583   1.926
 6128SOL     OW19282   5.804   5.617   0.887
 6128SOL    HW119283   5.887   5.658   0.924
 6128SOL    HW219284   5.814   5.606   0.788
 6129SOL     OW19285   2.015   4.715   3.187
 6129SOL    HW119286   2.040   4.636   3.243
 6129SOL    HW219287   1.996   4.793   3.245
 6130SOL     OW19288   4.850   3.050   1.415
 6130SOL    HW119289   4.877   2.969   1.364
 6130SOL    HW219290   4.855   3.130   1.355
 6131SOL     OW19291   0.144   1.872   2.386
 6131SOL    HW119292   0.145   1.962   2.343
 6131SOL    HW219293   0.208   1.871   2.463
 6132SOL     OW19294   3.121   1.684   6.840
 6132SOL    HW119295   3.026   1.667   6.815
 6132SOL    HW219296   3.179   1.614   6.798
 6133SOL     OW19297   1.654   2.438   4.109
 6133SOL    HW119298   1.750   2.435   4.079
 6133SOL    HW219299   1.637   2.362   4.172
 6134SOL     OW19300   5.199   5.928   6.434
 6134SOL    HW119301   5.291   5.943   6.398
 6134SOL    HW219302   5.144   5.881   6.365
 6135SOL     OW19303   5.456   0.416   0.107
 6135SOL    HW119304   5.510   0.428   0.190
 6135SOL    HW219305   5.360   0.401   0.131
 6136SOL     OW19306   0.860   2.838   2.079
 6136SOL    HW119307   0.887   2.779   2.155
 6136SOL    HW219308   0.898   2.802   1.994
 6137SOL     OW19309   0.290   5.188   3.313
 6137SOL    HW119310   0.207   5.138   3.335
 6137SOL    HW219311   0.367   5.124   3.304
 6138SOL     OW19312   3.650   0.694   2.130
 6138SOL    HW119313   3.662   0.597   2.108
 6138SOL    HW219314   3.739   0.739   2.133
 6139SOL     OW19315   1.169   6.859   5.414
 6139SOL    HW119316   1.257   6.827   5.449
 6139SOL    HW219317   1.095   6.807   5.455
 6140SOL     OW19318   2.341   0.404   3.068
 6140SOL    HW119319   2.312   0.499   3.078
 6140SOL    HW219320   2.398   0.378   3.146
 6141SOL     OW19321   0.037   0.606   5.418
 6141SOL    HW119322   0.056   0.701   5.392
 6141SOL    HW219323   0.047   0.596   5.517
 6142SOL     OW19324   0.599   1.289   0.777
 6142SOL    HW119325   0.636   1.251   0.693
 6142SOL    HW219326   0.555   1.377   0.759
 6143SOL     OW19327   6.170   3.629   6.357
 6143SOL    HW119328   6.134   3.698   6.294
 6143SOL    HW219329   6.198   3.549   6.306
 6144SOL     OW19330   4.538   4.472   2.908
 6144SOL    HW119331   4.443   4.490   2.884
 6144SOL    HW219332   4.547   4.459   3.007
 6145SOL     OW19333   4.907   3.467   4.173
 6145SOL    HW119334   4.871   3.395   4.232
 6145SOL    HW219335   4.980   3.429   4.116
 6146SOL     OW19336   4.141   0.751   4.514
 6146SOL    HW119337   4.049   0.789   4.513
 6146SOL    HW219338   4.162   0.712   4.425
 6147SOL     OW19339   2.294   2.832   4.134
 6147SOL    HW119340   2.258   2.923   4.156
 6147SOL    HW219341   2.331   2.790   4.217
 6148SOL     OW19342   4.251   4.825   0.171
 6148SOL    HW119343   4.231   4.840   0.268
 6148SOL    HW219344   4.276   4.912   0.129
 6149SOL     OW19345   2.764   0.301   2.295
 6149SOL    HW119346   2.807   0.220   2.334
 6149SOL    HW219347   2.830   0.376   2.293
 6150SOL     OW19348   5.938   3.661   6.562
 6150SOL    HW119349   6.032   3.653   6.528
 6150SOL    HW219350   5.909   3.757   6.557
 6151SOL     OW19351   5.039   4.500   4.405
 6151SOL    HW119352   5.038   4.408   4.443
 6151SOL    HW219353   4.946   4.531   4.388
 6152SOL     OW19354   0.835   5.113   4.221
 6152SOL    HW119355   0.908   5.182   4.226
 6152SOL    HW219356   0.875   5.022   4.214
 6153SOL     OW19357   4.801   5.288   0.737
 6153SOL    HW119358   4.793   5.369   0.795
 6153SOL    HW219359   4.786   5.314   0.641
 6154SOL     OW19360   5.444   2.846   2.196
 6154SOL    HW119361   5.407   2.810   2.110
 6154SOL    HW219362   5.544   2.848   2.191
 6155SOL     OW19363   2.350   1.526   3.328
 6155SOL    HW119364   2.430   1.526   3.389
 6155SOL    HW219365   2.375   1.568   3.241
 6156SOL     OW19366   5.375   4.279   1.581
 6156SOL    HW119367   5.453   4.219   1.562
 6156SOL    HW219368   5.290   4.230   1.560
 6157SOL     OW19369   0.718   2.351   3.054
 6157SOL    HW119370   0.655   2.315   3.123
 6157SOL    HW219371   0.685   2.329   2.963
 6158SOL     OW19372   2.557   2.905   5.569
 6158SOL    HW119373   2.536   2.997   5.536
 6158SOL    HW219374   2.607   2.910   5.655
 6159SOL     OW19375   5.827   2.410   6.901
 6159SOL    HW119376   5.794   2.334   6.957
 6159SOL    HW219377   5.831   2.382   6.805
 6160SOL     OW19378   0.565   7.018   6.798
 6160SOL    HW119379   0.560   6.924   6.832
 6160SOL    HW219380   0.502   0.004   6.721
 6161SOL     OW19381   4.894   2.776   6.812
 6161SOL    HW119382   4.904   2.779   6.712
 6161SOL    HW219383   4.967   2.719   6.850
 6162SOL     OW19384   6.555   6.324   2.143
 6162SOL    HW119385   6.482   6.272   2.098
 6162SOL    HW219386   6.523   6.355   2.233
 6163SOL     OW19387   5.971   6.493   2.719
 6163SOL    HW119388   5.936   6.510   2.627
 6163SOL    HW219389   6.007   6.400   2.724
 6164SOL     OW19390   3.889   4.051   4.305
 6164SOL    HW119391   3.836   4.003   4.235
 6164SOL    HW219392   3.972   4.000   4.324
 6165SOL     OW19393   4.078   2.598   0.220
 6165SOL    HW119394   4.030   2.595   0.132
 6165SOL    HW219395   4.058   2.685   0.265
 6166SOL     OW19396   0.410   2.270   6.654
 6166SOL    HW119397   0.477   2.292   6.584
 6166SOL    HW219398   0.421   2.333   6.731
 6167SOL     OW19399   1.564   4.370   3.554
 6167SOL    HW119400   1.507   4.332   3.481
 6167SOL    HW219401   1.608   4.296   3.604
 6168SOL     OW19402   0.159   2.983   3.993
 6168SOL    HW119403   0.189   3.059   4.051
 6168SOL    HW219404   0.071   2.949   4.026
 6169SOL     OW19405   0.991   6.933   6.767
 6169SOL    HW119406   0.973   7.018   6.816
 6169SOL    HW219407   1.088   6.929   6.742
 6170SOL     OW19408   3.888   4.241   0.408
 6170SOL    HW119409   3.954   4.250   0.333
 6170SOL    HW219410   3.815   4.309   0.397
 6171SOL     OW19411   1.083   4.887   2.378
 6171SOL    HW119412   1.053   4.808   2.325
 6171SOL    HW219413   1.125   4.954   2.317
 6172SOL     OW19414   1.184   0.212   2.828
 6172SOL    HW119415   1.159   0.220   2.731
 6172SOL    HW219416   1.138   0.284   2.880
 6173SOL     OW19417   1.292   4.741   3.525
 6173SOL    HW119418   1.271   4.645   3.506
 6173SOL    HW219419   1.295   4.792   3.438
 6174SOL     OW19420   5.848   4.690   2.478
 6174SOL    HW119421   5.749   4.673   2.476
 6174SOL    HW219422   5.895   4.608   2.509
 6175SOL     OW19423   5.316   6.321   2.413
 6175SOL    HW119424   5.367   6.361   2.336
 6175SOL    HW219425   5.228   6.368   2.423
 6176SOL     OW19426   5.677   2.829   6.824
 6176SOL    HW119427   5.613   2.879   6.766
 6176SOL    HW219428   5.770   2.847   6.794
 6177SOL     OW19429   5.383   1.590   1.971
 6177SOL    HW119430   5.347   1.509   2.018
 6177SOL    HW219431   5.439   1.643   2.035
 6178SOL     OW19432   4.835   4.754   1.027
 6178SOL    HW119433   4.892   4.717   1.101
 6178SOL    HW219434   4.742   4.718   1.036
 6179SOL     OW19435   0.471   3.114   4.926
 6179SOL    HW119436   0.490   3.135   4.830
 6179SOL    HW219437   0.557   3.102   4.975
 6180SOL     OW19438   3.675   6.246   0.899
 6180SOL    HW119439   3.745   6.175   0.904
 6180SOL    HW219440   3.719   6.336   0.909
 6181SOL     OW19441   5.094   6.507   6.877
 6181SOL    HW119442   5.164   6.578   6.864
 6181SOL    HW219443   5.099   6.473   6.971
 6182SOL     OW19444   5.673   5.480   4.875
 6182SOL    HW119445   5.757   5.426   4.878
 6182SOL    HW219446   5.594   5.419   4.866
 6183SOL     OW19447   2.442   0.509   2.743
 6183SOL    HW119448   2.460   0.564   2.824
 6183SOL    HW219449   2.529   0.490   2.696
 6184SOL     OW19450   1.509   0.112   6.501
 6184SOL    HW119451   1.510   0.066   6.590
 6184SOL    HW219452   1.414   0.129   6.474
 6185SOL     OW19453   0.343   3.683   6.980
 6185SOL    HW119454   0.273   3.724   6.921
 6185SOL    HW219455   0.368   3.747   0.028
 6186SOL     OW19456   5.759   0.244   3.674
 6186SOL    HW119457   5.817   0.175   3.630
 6186SOL    HW219458   5.705   0.292   3.604
 6187SOL     OW19459   5.173   4.840   3.727
 6187SOL    HW119460   5.205   4.785   3.649
 6187SOL    HW219461   5.094   4.795   3.769
 6188SOL     OW19462   2.634   6.036   1.332
 6188SOL    HW119463   2.569   5.980   1.280
 6188SOL    HW219464   2.718   5.983   1.348
 6189SOL     OW19465   5.176   4.940   2.836
 6189SOL    HW119466   5.082   4.967   2.817
 6189SOL    HW219467   5.239   5.007   2.796
 6190SOL     OW19468   4.718   3.075   6.253
 6190SOL    HW119469   4.711   3.074   6.153
 6190SOL    HW219470   4.793   3.016   6.282
 6191SOL     OW19471   5.505   2.407   0.671
 6191SOL    HW119472   5.534   2.501   0.655
 6191SOL    HW219473   5.585   2.350   0.688
 6192SOL     OW19474   3.159   3.834   0.655
 6192SOL    HW119475   3.180   3.740   0.630
 6192SOL    HW219476   3.212   3.896   0.598
 6193SOL     OW19477   5.306   0.408   2.669
 6193SOL    HW119478   5.229   0.433   2.610
 6193SOL    HW219479   5.383   0.469   2.649
 6194SOL     OW19480   2.395   0.765   1.347
 6194SOL    HW119481   2.313   0.812   1.315
 6194SOL    HW219482   2.427   0.807   1.431
 6195SOL     OW19483   3.953   5.684   6.116
 6195SOL    HW119484   3.945   5.643   6.025
 6195SOL    HW219485   4.025   5.638   6.168
 6196SOL     OW19486   0.852   2.654   5.964
 6196SOL    HW119487   0.806   2.710   5.895
 6196SOL    HW219488   0.817   2.561   5.960
 6197SOL     OW19489   2.606   4.125   1.016
 6197SOL    HW119490   2.603   4.032   1.054
 6197SOL    HW219491   2.675   4.129   0.944
 6198SOL     OW19492   3.504   5.427   3.234
 6198SOL    HW119493   3.524   5.514   3.279
 6198SOL    HW219494   3.551   5.423   3.146
 6199SOL     OW19495   1.218   0.398   1.176
 6199SOL    HW119496   1.214   0.443   1.087
 6199SOL    HW219497   1.268   0.311   1.168
 6200SOL     OW19498   2.660   1.076   6.425
 6200SOL    HW119499   2.666   1.038   6.518
 6200SOL    HW219500   2.618   1.167   6.429
 6201SOL     OW19501   1.927   4.112   6.006
 6201SOL    HW119502   1.922   4.036   6.070
 6201SOL    HW219503   1.846   4.170   6.016
 6202SOL     OW19504   4.125   1.854   1.298
 6202SOL    HW119505   4.156   1.776   1.353
 6202SOL    HW219506   4.043   1.829   1.247
 6203SOL     OW19507   5.144   0.852   3.876
 6203SOL    HW119508   5.102   0.778   3.824
 6203SOL    HW219509   5.235   0.870   3.841
 6204SOL     OW19510   0.934   5.360   5.491
 6204SOL    HW119511   0.969   5.359   5.585
 6204SOL    HW219512   0.982   5.431   5.439
 6205SOL     OW19513   5.513   5.144   6.964
 6205SOL    HW119514   5.585   5.202   6.928
 6205SOL    HW219515   5.458   5.107   6.889
 6206SOL     OW19516   0.093   0.848   1.686
 6206SOL    HW119517   0.110   0.863   1.783
 6206SOL    HW219518   0.119   0.754   1.662
 6207SOL     OW19519   0.914   4.369   4.984
 6207SOL    HW119520   0.849   4.292   4.990
 6207SOL    HW219521   0.958   4.368   4.894
 6208SOL     OW19522   6.542   0.406   5.865
 6208SOL    HW119523   6.472   0.477   5.852
 6208SOL    HW219524   6.532   0.336   5.795
 6209SOL     OW19525   4.644   6.196   0.133
 6209SOL    HW119526   4.577   6.123   0.117
 6209SOL    HW219527   4.731   6.156   0.162
 6210SOL     OW19528   5.331   3.679   2.801
 6210SOL    HW119529   5.243   3.724   2.788
 6210SOL    HW219530   5.390   3.737   2.857
 6211SOL     OW19531   2.546   0.360   6.372
 6211SOL    HW119532   2.569   0.305   6.292
 6211SOL    HW219533   2.613   0.434   6.382
 6212SOL     OW19534   6.790   6.136   3.530
 6212SOL    HW119535   6.798   6.152   3.432
 6212SOL    HW219536   6.698   6.102   3.552
 6213SOL     OW19537   5.938   0.991   0.026
 6213SOL    HW119538   5.970   1.061   6.986
 6213SOL    HW219539   5.962   0.900   7.016
 6214SOL     OW19540   6.066   5.015   2.638
 6214SOL    HW119541   5.986   4.994   2.695
 6214SOL    HW219542   6.081   4.941   2.572
 6215SOL     OW19543   2.856   2.338   0.435
 6215SOL    HW119544   2.781   2.296   0.384
 6215SOL    HW219545   2.861   2.297   0.526
 6216SOL     OW19546   6.366   1.640   1.490
 6216SOL    HW119547   6.333   1.549   1.466
 6216SOL    HW219548   6.344   1.660   1.585
 6217SOL     OW19549   4.662   2.850   1.462
 6217SOL    HW119550   4.703   2.941   1.462
 6217SOL    HW219551   4.665   2.812   1.554
 6218SOL     OW19552   2.465   4.683   4.684
 6218SOL    HW119553   2.498   4.709   4.775
 6218SOL    HW219554   2.435   4.765   4.635
 6219SOL     OW19555   1.548   2.313   4.830
 6219SOL    HW119556   1.479   2.364   4.777
 6219SOL    HW219557   1.522   2.313   4.927
 6220SOL     OW19558   1.632   4.836   5.992
 6220SOL    HW119559   1.595   4.920   5.953
 6220SOL    HW219560   1.676   4.783   5.920
 6221SOL     OW19561   4.736   5.326   4.733
 6221SOL    HW119562   4.740   5.227   4.740
 6221SOL    HW219563   4.764   5.354   4.641
 6222SOL     OW19564   0.017   0.093   1.510
 6222SOL    HW119565   6.967   0.155   1.487
 6222SOL    HW219566   0.079   0.086   1.431
 6223SOL     OW19567   5.718   3.999   4.408
 6223SOL    HW119568   5.695   3.960   4.497
 6223SOL    HW219569   5.691   4.096   4.407
 6224SOL     OW19570   1.661   1.191   6.006
 6224SOL    HW119571   1.711   1.262   5.956
 6224SOL    HW219572   1.585   1.232   6.055
 6225SOL     OW19573   3.675   3.427   1.214
 6225SOL    HW119574   3.723   3.512   1.192
 6225SOL    HW219575   3.684   3.408   1.311
 6226SOL     OW19576   5.876   1.337   3.797
 6226SOL    HW119577   5.885   1.244   3.834
 6226SOL    HW219578   5.779   1.360   3.788
 6227SOL     OW19579   3.338   4.310   6.017
 6227SOL    HW119580   3.255   4.318   6.072
 6227SOL    HW219581   3.418   4.313   6.077
 6228SOL     OW19582   6.597   1.524   2.712
 6228SOL    HW119583   6.607   1.621   2.693
 6228SOL    HW219584   6.637   1.503   2.801
 6229SOL     OW19585   2.551   1.521   2.666
 6229SOL    HW119586   2.650   1.519   2.681
 6229SOL    HW219587   2.521   1.432   2.631
 6230SOL     OW19588   2.511   1.404   4.555
 6230SOL    HW119589   2.466   1.493   4.553
 6230SOL    HW219590   2.486   1.353   4.472
 6231SOL     OW19591   6.908   4.771   0.930
 6231SOL    HW119592   6.987   4.718   0.899
 6231SOL    HW219593   6.824   4.721   0.907
 6232SOL     OW19594   0.284   1.400   7.020
 6232SOL    HW119595   0.214   1.333   6.994
 6232SOL    HW219596   0.352   1.408   6.947
 6233SOL     OW19597   5.406   1.921   6.583
 6233SOL    HW119598   5.461   1.939   6.665
 6233SOL    HW219599   5.364   2.007   6.552
 6234SOL     OW19600   1.583   1.560   4.630
 6234SOL    HW119601   1.596   1.601   4.540
 6234SOL    HW219602   1.492   1.519   4.635
 6235SOL     OW19603   1.994   6.761   3.510
 6235SOL    HW119604   1.999   6.860   3.526
 6235SOL    HW219605   2.031   6.741   3.419
 6236SOL     OW19606   0.207   4.928   1.484
 6236SOL    HW119607   0.279   4.986   1.445
 6236SOL    HW219608   0.119   4.950   1.441
 6237SOL     OW19609   4.454   5.986   0.366
 6237SOL    HW119610   4.470   6.009   0.462
 6237SOL    HW219611   4.422   5.891   0.360
 6238SOL     OW19612   4.719   5.641   2.128
 6238SOL    HW119613   4.679   5.552   2.150
 6238SOL    HW219614   4.792   5.628   2.061
 6239SOL     OW19615   2.940   6.211   2.537
 6239SOL    HW119616   2.992   6.141   2.489
 6239SOL    HW219617   2.936   6.294   2.482
 6240SOL     OW19618   2.437   2.487   1.024
 6240SOL    HW119619   2.475   2.502   1.115
 6240SOL    HW219620   2.347   2.531   1.018
 6241SOL     OW19621   3.096   0.878   2.080
 6241SOL    HW119622   3.110   0.780   2.098
 6241SOL    HW219623   2.999   0.899   2.080
 6242SOL     OW19624   5.314   1.315   3.588
 6242SOL    HW119625   5.311   1.332   3.490
 6242SOL    HW219626   5.228   1.272   3.617
 6243SOL     OW19627   6.115   6.503   3.743
 6243SOL    HW119628   6.018   6.523   3.757
 6243SOL    HW219629   6.125   6.420   3.687
 6244SOL     OW19630   2.556   2.401   2.548
 6244SOL    HW119631   2.653   2.393   2.572
 6244SOL    HW219632   2.530   2.497   2.546
 6245SOL     OW19633   2.812   4.201   1.252
 6245SOL    HW119634   2.799   4.281   1.311
 6245SOL    HW219635   2.732   4.141   1.259
 6246SOL     OW19636   2.652   2.823   6.624
 6246SOL    HW119637   2.694   2.739   6.588
 6246SOL    HW219638   2.606   2.803   6.710
 6247SOL     OW19639   0.170   6.696   3.958
 6247SOL    HW119640   0.212   6.731   4.042
 6247SOL    HW219641   0.111   6.618   3.980
 6248SOL     OW19642   0.924   4.207   1.213
 6248SOL    HW119643   0.915   4.143   1.136
 6248SOL    HW219644   0.993   4.276   1.192
 6249SOL     OW19645   0.197   4.659   0.382
 6249SOL    HW119646   0.198   4.566   0.419
 6249SOL    HW219647   0.291   4.694   0.377
 6250SOL     OW19648   6.841   6.239   0.670
 6250SOL    HW119649   6.918   6.300   0.688
 6250SOL    HW219650   6.784   6.233   0.751
 6251SOL     OW19651   4.336   0.416   1.618
 6251SOL    HW119652   4.240   0.437   1.603
 6251SOL    HW219653   4.363   0.442   1.711
 6252SOL     OW19654   2.207   5.509   4.790
 6252SOL    HW119655   2.224   5.563   4.872
 6252SOL    HW219656   2.294   5.474   4.755
 6253SOL     OW19657   2.389   4.075   1.793
 6253SOL    HW119658   2.299   4.032   1.803
 6253SOL    HW219659   2.382   4.171   1.818
 6254SOL     OW19660   6.045   0.150   6.998
 6254SOL    HW119661   6.003   0.170   6.909
 6254SOL    HW219662   6.144   0.161   6.991
 6255SOL     OW19663   1.391   1.527   1.725
 6255SOL    HW119664   1.383   1.589   1.803
 6255SOL    HW219665   1.324   1.453   1.733
 6256SOL     OW19666   3.944   5.050   2.618
 6256SOL    HW119667   3.962   5.039   2.716
 6256SOL    HW219668   3.950   4.962   2.573
 6257SOL     OW19669   5.566   2.395   1.472
 6257SOL    HW119670   5.596   2.352   1.386
 6257SOL    HW219671   5.469   2.375   1.487
 6258SOL     OW19672   4.158   1.422   3.017
 6258SOL    HW119673   4.145   1.328   2.983
 6258SOL    HW219674   4.242   1.460   2.978
 6259SOL     OW19675   3.047   1.602   1.065
 6259SOL    HW119676   3.114   1.598   1.140
 6259SOL    HW219677   3.065   1.527   1.001
 6260SOL     OW19678   4.129   3.833   0.505
 6260SOL    HW119679   4.188   3.899   0.551
 6260SOL    HW219680   4.186   3.766   0.457
 6261SOL     OW19681   3.990   7.021   6.700
 6261SOL    HW119682   3.974   6.993   6.794
 6261SOL    HW219683   3.903   0.021   6.657
 6262SOL     OW19684   1.657   4.512   0.613
 6262SOL    HW119685   1.703   4.576   0.552
 6262SOL    HW219686   1.642   4.426   0.564
 6263SOL     OW19687   0.219   6.044   6.386
 6263SOL    HW119688   0.290   6.094   6.436
 6263SOL    HW219689   0.178   6.103   6.317
 6264SOL     OW19690   2.575   1.706   1.083
 6264SOL    HW119691   2.652   1.654   1.121
 6264SOL    HW219692   2.503   1.714   1.152
 6265SOL     OW19693   3.834   4.682   1.170
 6265SOL    HW119694   3.824   4.583   1.185
 6265SOL    HW219695   3.743   4.722   1.156
 6266SOL     OW19696   3.910   1.150   3.767
 6266SOL    HW119697   3.902   1.246   3.793
 6266SOL    HW219698   3.986   1.139   3.702
 6267SOL     OW19699   2.943   0.416   0.344
 6267SOL    HW119700   2.906   0.329   0.378
 6267SOL    HW219701   2.875   0.488   0.358
 6268SOL     OW19702   2.968   5.071   3.016
 6268SOL    HW119703   2.872   5.046   3.023
 6268SOL    HW219704   3.025   4.990   3.032
 6269SOL     OW19705   5.920   5.676   2.055
 6269SOL    HW119706   5.823   5.682   2.080
 6269SOL    HW219707   5.976   5.672   2.138
 6270SOL     OW19708   1.799   0.583   5.864
 6270SOL    HW119709   1.865   0.658   5.866
 6270SOL    HW219710   1.720   0.610   5.810
 6271SOL     OW19711   0.112   2.909   5.848
 6271SOL    HW119712   0.070   2.976   5.787
 6271SOL    HW219713   0.105   2.940   5.943
 6272SOL     OW19714   1.066   3.830   4.509
 6272SOL    HW119715   1.116   3.743   4.512
 6272SOL    HW219716   1.059   3.867   4.602
 6273SOL     OW19717   1.713   0.877   1.820
 6273SOL    HW119718   1.655   0.910   1.746
 6273SOL    HW219719   1.715   0.777   1.819
 6274SOL     OW19720   3.120   5.975   6.791
 6274SOL    HW119721   3.115   5.885   6.749
 6274SOL    HW219722   3.061   5.978   6.871
 6275SOL     OW19723   2.866   6.977   5.520
 6275SOL    HW119724   2.818   6.891   5.535
 6275SOL    HW219725   2.806   0.029   5.544
 6276SOL     OW19726   0.909   5.313   3.667
 6276SOL    HW119727   0.888   5.268   3.753
 6276SOL    HW219728   0.984   5.266   3.621
 6277SOL     OW19729   4.987   2.526   2.800
 6277SOL    HW119730   5.032   2.548   2.714
 6277SOL    HW219731   4.902   2.579   2.808
 6278SOL     OW19732   4.699   0.384   4.186
 6278SOL    HW119733   4.710   0.330   4.102
 6278SOL    HW219734   4.610   0.429   4.186
 6279SOL     OW19735   4.109   1.532   0.813
 6279SOL    HW119736   4.043   1.547   0.739
 6279SOL    HW219737   4.104   1.437   0.844
 6280SOL     OW19738   0.675   3.591   5.447
 6280SOL    HW119739   0.684   3.578   5.545
 6280SOL    HW219740   0.615   3.670   5.428
 6281SOL     OW19741   2.436   0.282   5.289
 6281SOL    HW119742   2.358   0.223   5.267
 6281SOL    HW219743   2.406   0.357   5.347
 6282SOL     OW19744   1.480   6.765   5.216
 6282SOL    HW119745   1.493   6.865   5.213
 6282SOL    HW219746   1.386   6.745   5.241
 6283SOL     OW19747   6.935   2.293   5.009
 6283SOL    HW119748   0.006   2.318   5.023
 6283SOL    HW219749   6.897   2.347   4.934
 6284SOL     OW19750   1.593   5.318   5.772
 6284SOL    HW119751   1.595   5.245   5.841
 6284SOL    HW219752   1.624   5.403   5.814
 6285SOL     OW19753   1.404   3.216   4.027
 6285SOL    HW119754   1.426   3.184   3.935
 6285SOL    HW219755   1.480   3.270   4.063
 6286SOL     OW19756   5.746   1.277   2.983
 6286SOL    HW119757   5.663   1.222   2.979
 6286SOL    HW219758   5.804   1.245   3.057
 6287SOL     OW19759   4.760   4.165   1.861
 6287SOL    HW119760   4.803   4.211   1.938
 6287SOL    HW219761   4.661   4.164   1.873
 6288SOL     OW19762   5.421   4.068   1.116
 6288SOL    HW119763   5.343   4.129   1.128
 6288SOL    HW219764   5.419   3.997   1.186
 6289SOL     OW19765   2.229   2.627   3.588
 6289SOL    HW119766   2.181   2.655   3.670
 6289SOL    HW219767   2.183   2.549   3.546
 6290SOL     OW19768   5.109   4.212   4.072
 6290SOL    HW119769   5.078   4.304   4.097
 6290SOL    HW219770   5.184   4.219   4.007
 6291SOL     OW19771   3.908   3.392   3.804
 6291SOL    HW119772   3.893   3.490   3.789
 6291SOL    HW219773   3.831   3.354   3.854
 6292SOL     OW19774   0.754   2.224   3.338
 6292SOL    HW119775   0.772   2.301   3.277
 6292SOL    HW219776   0.830   2.215   3.403
 6293SOL     OW19777   5.311   0.072   6.943
 6293SOL    HW119778   5.252   0.106   7.017
 6293SOL    HW219779   5.395   0.125   6.941
 6294SOL     OW19780   3.083   5.402   2.413
 6294SOL    HW119781   3.045   5.492   2.436
 6294SOL    HW219782   3.008   5.340   2.389
 6295SOL     OW19783   5.648   5.901   5.462
 6295SOL    HW119784   5.697   5.830   5.410
 6295SOL    HW219785   5.581   5.857   5.523
 6296SOL     OW19786   6.374   0.822   3.287
 6296SOL    HW119787   6.473   0.809   3.281
 6296SOL    HW219788   6.354   0.914   3.320
 6297SOL     OW19789   5.144   6.408   5.930
 6297SOL    HW119790   5.183   6.375   5.843
 6297SOL    HW219791   5.178   6.352   6.005
 6298SOL     OW19792   1.133   3.465   5.602
 6298SOL    HW119793   1.197   3.476   5.527
 6298SOL    HW219794   1.181   3.427   5.682
 6299SOL     OW19795   6.051   2.437   6.456
 6299SOL    HW119796   6.040   2.515   6.395
 6299SOL    HW219797   6.019   2.462   6.548
 6300SOL     OW19798   5.499   0.747   4.421
 6300SOL    HW119799   5.450   0.798   4.492
 6300SOL    HW219800   5.552   0.673   4.463
 6301SOL     OW19801   2.415   6.515   1.221
 6301SOL    HW119802   2.455   6.477   1.305
 6301SOL    HW219803   2.458   6.472   1.142
 6302SOL     OW19804   1.764   1.012   3.851
 6302SOL    HW119805   1.840   1.009   3.915
 6302SOL    HW219806   1.784   1.078   3.779
 6303SOL     OW19807   2.229   0.065   5.171
 6303SOL    HW119808   2.239   0.031   5.077
 6303SOL    HW219809   2.251   7.016   5.235
 6304SOL     OW19810   3.297   0.496   0.943
 6304SOL    HW119811   3.293   0.474   0.845
 6304SOL    HW219812   3.343   0.421   0.991
 6305SOL     OW19813   6.372   6.941   1.271
 6305SOL    HW119814   6.383   6.919   1.368
 6305SOL    HW219815   6.457   6.920   1.222
 6306SOL     OW19816   6.610   2.940   3.932
 6306SOL    HW119817   6.656   2.935   3.843
 6306SOL    HW219818   6.619   3.033   3.968
 6307SOL     OW19819   2.784   5.258   5.765
 6307SOL    HW119820   2.830   5.219   5.685
 6307SOL    HW219821   2.738   5.343   5.738
 6308SOL     OW19822   2.101   1.868   5.366
 6308SOL    HW119823   2.124   1.936   5.297
 6308SOL    HW219824   2.014   1.824   5.342
 6309SOL     OW19825   4.740   2.171   3.739
 6309SOL    HW119826   4.805   2.095   3.734
 6309SOL    HW219827   4.647   2.135   3.742
 6310SOL     OW19828   1.263   4.758   4.519
 6310SOL    HW119829   1.339   4.706   4.481
 6310SOL    HW219830   1.259   4.743   4.618
 6311SOL     OW19831   6.978   0.519   4.688
 6311SOL    HW119832   7.023   0.462   4.620
 6311SOL    HW219833   6.908   0.575   4.643
 6312SOL     OW19834   4.656   5.030   6.484
 6312SOL    HW119835   4.709   4.946   6.487
 6312SOL    HW219836   4.715   5.105   6.454
 6313SOL     OW19837   1.741   5.564   3.770
 6313SOL    HW119838   1.710   5.643   3.822
 6313SOL    HW219839   1.684   5.552   3.688
 6314SOL     OW19840   2.789   5.807   2.534
 6314SOL    HW119841   2.741   5.831   2.449
 6314SOL    HW219842   2.724   5.812   2.611
 6315SOL     OW19843   4.295   3.328   0.043
 6315SOL    HW119844   4.366   3.342   6.999
 6315SOL    HW219845   4.309   3.238   0.086
 6316SOL     OW19846   4.785   2.205   5.996
 6316SOL    HW119847   4.755   2.156   5.914
 6316SOL    HW219848   4.806   2.139   6.069
 6317SOL     OW19849   4.973   6.867   2.893
 6317SOL    HW119850   4.914   6.948   2.898
 6317SOL    HW219851   5.065   6.891   2.922
 6318SOL     OW19852   2.624   2.456   5.722
 6318SOL    HW119853   2.615   2.510   5.806
 6318SOL    HW219854   2.640   2.517   5.645
 6319SOL     OW19855   0.610   3.312   3.604
 6319SOL    HW119856   0.614   3.273   3.512
 6319SOL    HW219857   0.628   3.240   3.671
 6320SOL     OW19858   6.381   3.913   3.182
 6320SOL    HW119859   6.417   3.864   3.261
 6320SOL    HW219860   6.318   3.854   3.131
 6321SOL     OW19861   3.046   5.593   0.834
 6321SOL    HW119862   2.996   5.669   0.874
 6321SOL    HW219863   3.071   5.615   0.739
 6322SOL     OW19864   1.469   1.338   6.810
 6322SOL    HW119865   1.535   1.386   6.868
 6322SOL    HW219866   1.377   1.372   6.831
 6323SOL     OW19867   3.349   2.295   1.753
 6323SOL    HW119868   3.430   2.309   1.810
 6323SOL    HW219869   3.361   2.212   1.699
 6324SOL     OW19870   4.363   0.913   5.523
 6324SOL    HW119871   4.280   0.931   5.469
 6324SOL    HW219872   4.341   0.851   5.598
 6325SOL     OW19873   0.623   2.943   2.179
 6325SOL    HW119874   0.702   2.885   2.156
 6325SOL    HW219875   0.643   2.995   2.261
 6326SOL     OW19876   5.423   5.737   1.032
 6326SOL    HW119877   5.502   5.727   1.093
 6326SOL    HW219878   5.437   5.815   0.972
 6327SOL     OW19879   5.754   6.112   5.063
 6327SOL    HW119880   5.726   6.145   4.973
 6327SOL    HW219881   5.703   6.160   5.134
 6328SOL     OW19882   1.672   4.568   0.132
 6328SOL    HW119883   1.745   4.509   0.098
 6328SOL    HW219884   1.589   4.552   0.079
 6329SOL     OW19885   1.785   1.157   3.610
 6329SOL    HW119886   1.744   1.075   3.570
 6329SOL    HW219887   1.859   1.189   3.551
 6330SOL     OW19888   4.625   0.984   0.675
 6330SOL    HW119889   4.548   1.004   0.614
 6330SOL    HW219890   4.711   0.999   0.627
 6331SOL     OW19891   6.433   2.044   0.793
 6331SOL    HW119892   6.504   2.023   0.861
 6331SOL    HW219893   6.472   2.036   0.701
 6332SOL     OW19894   6.226   5.310   1.891
 6332SOL    HW119895   6.185   5.394   1.856
 6332SOL    HW219896   6.170   5.232   1.865
 6333SOL     OW19897   3.411   5.464   3.575
 6333SOL    HW119898   3.470   5.528   3.624
 6333SOL    HW219899   3.333   5.440   3.633
 6334SOL     OW19900   2.756   0.108   2.872
 6334SOL    HW119901   2.734   0.032   2.812
 6334SOL    HW219902   2.673   0.158   2.896
 6335SOL     OW19903   6.226   1.592   6.912
 6335SOL    HW119904   6.224   1.545   6.824
 6335SOL    HW219905   6.220   1.691   6.897
 6336SOL     OW19906   6.923   2.493   4.541
 6336SOL    HW119907   6.842   2.473   4.487
 6336SOL    HW219908   6.949   2.588   4.529
 6337SOL     OW19909   5.331   3.202   5.867
 6337SOL    HW119910   5.319   3.178   5.963
 6337SOL    HW219911   5.392   3.136   5.823
 6338SOL     OW19912   2.474   1.864   2.286
 6338SOL    HW119913   2.452   1.909   2.199
 6338SOL    HW219914   2.557   1.808   2.274
 6339SOL     OW19915   0.544   2.719   3.499
 6339SOL    HW119916   0.543   2.813   3.465
 6339SOL    HW219917   0.536   2.655   3.422
 6340SOL     OW19918   2.971   5.461   4.089
 6340SOL    HW119919   2.881   5.499   4.072
 6340SOL    HW219920   2.967   5.361   4.083
 6341SOL     OW19921   6.846   5.169   3.650
 6341SOL    HW119922   6.850   5.222   3.735
 6341SOL    HW219923   6.753   5.171   3.615
 6342SOL     OW19924   2.426   2.659   2.652
 6342SOL    HW119925   2.350   2.717   2.683
 6342SOL    HW219926   2.441   2.672   2.554
 6343SOL     OW19927   4.154   2.528   6.834
 6343SOL    HW119928   4.194   2.616   6.811
 6343SOL    HW219929   4.200   2.456   6.782
 6344SOL     OW19930   0.096   3.778   5.291
 6344SOL    HW119931   0.169   3.748   5.229
 6344SOL    HW219932   0.136   3.809   5.377
 6345SOL     OW19933   3.930   1.699   2.690
 6345SOL    HW119934   3.833   1.723   2.693
 6345SOL    HW219935   3.943   1.609   2.731
 6346SOL     OW19936   0.146   3.467   3.473
 6346SOL    HW119937   0.155   3.485   3.571
 6346SOL    HW219938   0.231   3.429   3.438
 6347SOL     OW19939   2.947   0.179   1.195
 6347SOL    HW119940   2.908   0.109   1.255
 6347SOL    HW219941   3.041   0.198   1.222
 6348SOL     OW19942   0.585   3.563   4.897
 6348SOL    HW119943   0.596   3.554   4.996
 6348SOL    HW219944   0.647   3.500   4.850
 6349SOL     OW19945   3.234   0.601   1.878
 6349SOL    HW119946   3.218   0.517   1.826
 6349SOL    HW219947   3.332   0.621   1.879
 6350SOL     OW19948   1.568   5.696   2.914
 6350SOL    HW119949   1.529   5.617   2.962
 6350SOL    HW219950   1.639   5.666   2.851
 6351SOL     OW19951   0.071   2.786   2.471
 6351SOL    HW119952   0.070   2.691   2.439
 6351SOL    HW219953   0.046   2.846   2.395
 6352SOL     OW19954   1.173   5.163   3.526
 6352SOL    HW119955   1.261   5.199   3.557
 6352SOL    HW219956   1.149   5.205   3.438
 6353SOL     OW19957   0.386   0.279   6.600
 6353SOL    HW119958   0.444   0.334   6.540
 6353SOL    HW219959   0.401   0.182   6.580
 6354SOL     OW19960   0.855   7.024   2.364
 6354SOL    HW119961   0.914   7.009   2.443
 6354SOL    HW219962   0.785   6.953   2.360
 6355SOL     OW19963   1.806   3.767   3.879
 6355SOL    HW119964   1.746   3.688   3.885
 6355SOL    HW219965   1.757   3.849   3.908
 6356SOL     OW19966   5.043   4.790   1.208
 6356SOL    HW119967   5.129   4.831   1.178
 6356SOL    HW219968   5.062   4.721   1.279
 6357SOL     OW19969   4.452   3.337   0.595
 6357SOL    HW119970   4.362   3.329   0.552
 6357SOL    HW219971   4.445   3.321   0.693
 6358SOL     OW19972   0.012   2.660   3.985
 6358SOL    HW119973   0.052   2.679   3.895
 6358SOL    HW219974   0.085   2.633   4.048
 6359SOL     OW19975   6.818   0.467   5.386
 6359SOL    HW119976   6.827   0.410   5.468
 6359SOL    HW219977   6.898   0.526   5.377
 6360SOL     OW19978   2.665   4.669   4.524
 6360SOL    HW119979   2.658   4.621   4.437
 6360SOL    HW219980   2.592   4.638   4.585
 6361SOL     OW19981   4.395   5.424   6.368
 6361SOL    HW119982   4.471   5.422   6.304
 6361SOL    HW219983   4.347   5.336   6.367
 6362SOL     OW19984   6.193   4.661   6.610
 6362SOL    HW119985   6.109   4.622   6.648
 6362SOL    HW219986   6.254   4.688   6.684
 6363SOL     OW19987   2.004   6.317   4.603
 6363SOL    HW119988   1.917   6.284   4.639
 6363SOL    HW219989   2.056   6.360   4.677
 6364SOL     OW19990   2.996   1.987   5.544
 6364SOL    HW119991   2.945   2.061   5.501
 6364SOL    HW219992   3.056   2.024   5.615
 6365SOL     OW19993   4.821   7.019   3.288
 6365SOL    HW119994   4.856   0.070   3.235
 6365SOL    HW219995   4.893   6.982   3.346
 6366SOL     OW19996   0.871   5.104   5.439
 6366SOL    HW119997   0.913   5.192   5.463
 6366SOL    HW219998   0.775   5.104   5.467
 6367SOL     OW19999   4.983   0.457   3.338
 6367SOL    HW120000   4.971   0.455   3.437
 6367SOL    HW220001   4.915   0.518   3.298
 6368SOL     OW20002   3.141   7.020   4.254
 6368SOL    HW120003   3.214   0.030   4.312
 6368SOL    HW220004   3.163   6.926   4.226
 6369SOL     OW20005   2.932   5.610   4.521
 6369SOL    HW120006   2.988   5.633   4.601
 6369SOL    HW220007   2.964   5.524   4.482
 6370SOL     OW20008   0.116   1.816   1.865
 6370SOL    HW120009   0.042   1.825   1.799
 6370SOL    HW220010   0.190   1.879   1.842
 6371SOL     OW20011   4.739   2.661   2.850
 6371SOL    HW120012   4.687   2.624   2.772
 6371SOL    HW220013   4.678   2.668   2.929
 6372SOL     OW20014   3.025   6.308   2.043
 6372SOL    HW120015   3.022   6.322   1.944
 6372SOL    HW220016   3.034   6.397   2.088
 6373SOL     OW20017   5.434   4.477   5.419
 6373SOL    HW120018   5.388   4.470   5.508
 6373SOL    HW220019   5.533   4.478   5.433
 6374SOL     OW20020   3.003   3.447   3.640
 6374SOL    HW120021   2.990   3.351   3.661
 6374SOL    HW220022   2.990   3.501   3.724
 6375SOL     OW20023   1.185   0.675   3.078
 6375SOL    HW120024   1.090   0.651   3.059
 6375SOL    HW220025   1.236   0.683   2.992
 6376SOL     OW20026   0.419   1.584   4.242
 6376SOL    HW120027   0.319   1.584   4.245
 6376SOL    HW220028   0.452   1.490   4.234
 6377SOL     OW20029   0.318   1.048   5.048
 6377SOL    HW120030   0.281   0.957   5.066
 6377SOL    HW220031   0.323   1.064   4.950
 6378SOL     OW20032   4.874   4.318   3.876
 6378SOL    HW120033   4.952   4.352   3.929
 6378SOL    HW220034   4.908   4.266   3.797
 6379SOL     OW20035   2.386   4.876   3.812
 6379SOL    HW120036   2.295   4.901   3.846
 6379SOL    HW220037   2.422   4.950   3.756
 6380SOL     OW20038   0.585   0.894   5.640
 6380SOL    HW120039   0.507   0.907   5.703
 6380SOL    HW220040   0.579   0.960   5.566
 6381SOL     OW20041   3.317   3.778   2.557
 6381SOL    HW120042   3.230   3.735   2.579
 6381SOL    HW220043   3.301   3.863   2.507
 6382SOL     OW20044   1.270   2.584   6.171
 6382SOL    HW120045   1.288   2.486   6.178
 6382SOL    HW220046   1.239   2.605   6.079
 6383SOL     OW20047   2.311   1.994   4.111
 6383SOL    HW120048   2.310   2.081   4.062
 6383SOL    HW220049   2.290   2.009   4.207
 6384SOL     OW20050   5.824   5.324   2.553
 6384SOL    HW120051   5.732   5.291   2.531
 6384SOL    HW220052   5.865   5.365   2.472
 6385SOL     OW20053   6.214   5.313   4.162
 6385SOL    HW120054   6.295   5.304   4.103
 6385SOL    HW220055   6.133   5.323   4.106
 6386SOL     OW20056   2.583   5.283   1.154
 6386SOL    HW120057   2.601   5.188   1.176
 6386SOL    HW220058   2.524   5.288   1.073
 6387SOL     OW20059   0.447   2.243   5.915
 6387SOL    HW120060   0.452   2.214   6.010
 6387SOL    HW220061   0.534   2.284   5.887
 6388SOL     OW20062   3.522   4.886   1.533
 6388SOL    HW120063   3.432   4.922   1.556
 6388SOL    HW220064   3.514   4.816   1.462
 6389SOL     OW20065   0.985   5.729   2.853
 6389SOL    HW120066   1.074   5.684   2.866
 6389SOL    HW220067   0.984   5.774   2.764
 6390SOL     OW20068   0.205   2.429   3.200
 6390SOL    HW120069   0.237   2.378   3.279
 6390SOL    HW220070   0.278   2.435   3.132
 6391SOL     OW20071   3.606   1.288   0.353
 6391SOL    HW120072   3.554   1.323   0.275
 6391SOL    HW220073   3.681   1.350   0.374
 6392SOL     OW20074   2.046   6.623   3.889
 6392SOL    HW120075   2.143   6.645   3.874
 6392SOL    HW220076   2.035   6.582   3.980
 6393SOL     OW20077   5.557   6.422   1.028
 6393SOL    HW120078   5.465   6.384   1.039
 6393SOL    HW220079   5.581   6.422   0.931
 6394SOL     OW20080   2.545   5.007   0.809
 6394SOL    HW120081   2.558   4.918   0.853
 6394SOL    HW220082   2.634   5.054   0.802
 6395SOL     OW20083   5.871   1.540   1.022
 6395SOL    HW120084   5.938   1.566   1.091
 6395SOL    HW220085   5.825   1.621   0.987
 6396SOL     OW20086   4.771   2.488   6.035
 6396SOL    HW120087   4.689   2.525   6.079
 6396SOL    HW220088   4.754   2.393   6.010
 6397SOL     OW20089   0.133   2.471   6.726
 6397SOL    HW120090   0.188   2.520   6.658
 6397SOL    HW220091   0.036   2.485   6.707
 6398SOL     OW20092   3.105   0.851   1.747
 6398SOL    HW120093   3.156   0.915   1.804
 6398SOL    HW220094   3.161   0.770   1.729
 6399SOL     OW20095   1.901   5.847   0.033
 6399SOL    HW120096   1.970   5.894   0.087
 6399SOL    HW220097   1.881   5.901   6.976
 6400SOL     OW20098   2.579   5.315   3.949
 6400SOL    HW120099   2.593   5.317   3.850
 6400SOL    HW220100   2.627   5.393   3.991
 6401SOL     OW20101   0.182   4.947   3.694
 6401SOL    HW120102   0.278   4.973   3.698
 6401SOL    HW220103   0.155   4.933   3.599
 6402SOL     OW20104   2.847   0.804   3.020
 6402SOL    HW120105   2.836   0.896   3.056
 6402SOL    HW220106   2.941   0.792   2.987
 6403SOL     OW20107   1.196   4.379   0.485
 6403SOL    HW120108   1.225   4.470   0.455
 6403SOL    HW220109   1.097   4.378   0.498
 6404SOL     OW20110   4.185   2.060   3.362
 6404SOL    HW120111   4.151   1.967   3.369
 6404SOL    HW220112   4.215   2.079   3.269
 6405SOL     OW20113   1.917   1.902   2.759
 6405SOL    HW120114   1.979   1.910   2.681
 6405SOL    HW220115   1.970   1.887   2.842
 6406SOL     OW20116   2.042   1.027   3.951
 6406SOL    HW120117   2.058   1.087   3.873
 6406SOL    HW220118   2.095   0.943   3.940
 6407SOL     OW20119   3.164   6.857   4.591
 6407SOL    HW120120   3.256   6.827   4.567
 6407SOL    HW220121   3.110   6.870   4.508
 6408SOL     OW20122   5.728   1.777   6.734
 6408SOL    HW120123   5.659   1.847   6.752
 6408SOL    HW220124   5.766   1.745   6.821
 6409SOL     OW20125   6.444   3.604   2.840
 6409SOL    HW120126   6.530   3.646   2.870
 6409SOL    HW220127   6.459   3.556   2.754
 6410SOL     OW20128   1.455   1.580   0.552
 6410SOL    HW120129   1.454   1.648   0.479
 6410SOL    HW220130   1.508   1.500   0.523
 6411SOL     OW20131   1.141   1.316   3.448
 6411SOL    HW120132   1.209   1.252   3.411
 6411SOL    HW220133   1.146   1.315   3.548
 6412SOL     OW20134   0.118   2.617   5.309
 6412SOL    HW120135   0.067   2.672   5.375
 6412SOL    HW220136   0.197   2.575   5.354
 6413SOL     OW20137   6.052   5.067   1.857
 6413SOL    HW120138   6.055   5.097   1.952
 6413SOL    HW220139   5.959   5.079   1.822
 6414SOL     OW20140   5.739   0.450   0.961
 6414SOL    HW120141   5.680   0.487   0.889
 6414SOL    HW220142   5.811   0.516   0.982
 6415SOL     OW20143   2.296   2.441   2.233
 6415SOL    HW120144   2.251   2.357   2.262
 6415SOL    HW220145   2.390   2.421   2.203
 6416SOL     OW20146   0.815   6.943   0.089
 6416SOL    HW120147   0.729   6.895   0.072
 6416SOL    HW220148   0.879   6.925   0.014
 6417SOL     OW20149   0.538   6.961   3.382
 6417SOL    HW120150   0.480   0.000   3.333
 6417SOL    HW220151   0.528   6.974   3.480
 6418SOL     OW20152   6.336   5.237   2.539
 6418SOL    HW120153   6.423   5.286   2.532
 6418SOL    HW220154   6.326   5.176   2.461
 6419SOL     OW20155   3.433   5.270   1.734
 6419SOL    HW120156   3.415   5.230   1.824
 6419SOL    HW220157   3.515   5.229   1.695
 6420SOL     OW20158   2.903   3.520   6.608
 6420SOL    HW120159   2.933   3.578   6.533
 6420SOL    HW220160   2.841   3.572   6.667
 6421SOL     OW20161   5.759   0.468   1.415
 6421SOL    HW120162   5.697   0.496   1.342
 6421SOL    HW220163   5.747   0.371   1.434
 6422SOL     OW20164   6.489   0.893   2.821
 6422SOL    HW120165   6.544   0.955   2.876
 6422SOL    HW220166   6.420   0.849   2.878
 6423SOL     OW20167   4.599   3.564   0.967
 6423SOL    HW120168   4.633   3.509   0.891
 6423SOL    HW220169   4.548   3.643   0.932
 6424SOL     OW20170   6.304   3.952   6.205
 6424SOL    HW120171   6.276   4.044   6.178
 6424SOL    HW220172   6.340   3.954   6.298
 6425SOL     OW20173   6.937   4.759   2.852
 6425SOL    HW120174   6.878   4.713   2.785
 6425SOL    HW220175   0.006   4.726   2.842
 6426SOL     OW20176   1.445   3.091   3.774
 6426SOL    HW120177   1.484   2.999   3.768
 6426SOL    HW220178   1.346   3.086   3.756
 6427SOL     OW20179   1.422   3.759   6.324
 6427SOL    HW120180   1.410   3.858   6.314
 6427SOL    HW220181   1.516   3.739   6.351
 6428SOL     OW20182   6.727   3.454   2.184
 6428SOL    HW120183   6.656   3.474   2.115
 6428SOL    HW220184   6.815   3.444   2.138
 6429SOL     OW20185   1.988   0.899   4.894
 6429SOL    HW120186   1.923   0.823   4.900
 6429SOL    HW220187   1.952   0.968   4.832
 6430SOL     OW20188   4.780   1.333   1.808
 6430SOL    HW120189   4.832   1.394   1.748
 6430SOL    HW220190   4.755   1.250   1.758
 6431SOL     OW20191   5.129   6.637   3.136
 6431SOL    HW120192   5.176   6.556   3.171
 6431SOL    HW220193   5.030   6.628   3.152
 6432SOL     OW20194   4.203   3.431   0.575
 6432SOL    HW120195   4.150   3.358   0.618
 6432SOL    HW220196   4.190   3.516   0.627
 6433SOL     OW20197   3.392   4.369   1.445
 6433SOL    HW120198   3.293   4.378   1.435
 6433SOL    HW220199   3.416   4.370   1.542
 6434SOL     OW20200   1.023   3.877   1.220
 6434SOL    HW120201   0.967   3.920   1.290
 6434SOL    HW220202   1.119   3.896   1.238
 6435SOL     OW20203   3.824   5.047   0.194
 6435SOL    HW120204   3.741   5.051   0.138
 6435SOL    HW220205   3.897   5.100   0.150
 6436SOL     OW20206   1.885   3.476   3.302
 6436SOL    HW120207   1.794   3.448   3.333
 6436SOL    HW220208   1.945   3.486   3.382
 6437SOL     OW20209   0.934   0.124   6.927
 6437SOL    HW120210   0.838   0.112   6.951
 6437SOL    HW220211   0.970   0.206   6.972
 6438SOL     OW20212   0.807   4.075   4.725
 6438SOL    HW120213   0.905   4.075   4.708
 6438SOL    HW220214   0.775   3.981   4.737
 6439SOL     OW20215   0.941   6.858   0.470
 6439SOL    HW120216   0.922   6.939   0.414
 6439SOL    HW220217   1.021   6.810   0.433
 6440SOL     OW20218   1.551   1.941   1.751
 6440SOL    HW120219   1.624   1.982   1.804
 6440SOL    HW220220   1.578   1.849   1.723
 6441SOL     OW20221   1.707   1.243   2.872
 6441SOL    HW120222   1.698   1.202   2.963
 6441SOL    HW220223   1.653   1.327   2.868
 6442SOL     OW20224   2.378   1.887   4.651
 6442SOL    HW120225   2.316   1.942   4.595
 6442SOL    HW220226   2.438   1.947   4.703
 6443SOL     OW20227   2.668   2.929   0.498
 6443SOL    HW120228   2.670   2.986   0.580
 6443SOL    HW220229   2.687   2.834   0.521
 6444SOL     OW20230   0.605   1.709   2.918
 6444SOL    HW120231   0.656   1.650   2.980
 6444SOL    HW220232   0.524   1.745   2.965
 6445SOL     OW20233   4.346   2.679   5.328
 6445SOL    HW120234   4.260   2.646   5.290
 6445SOL    HW220235   4.336   2.691   5.427
 6446SOL     OW20236   6.794   1.249   6.146
 6446SOL    HW120237   6.875   1.296   6.111
 6446SOL    HW220238   6.757   1.190   6.075
 6447SOL     OW20239   2.004   6.403   2.773
 6447SOL    HW120240   2.012   6.394   2.674
 6447SOL    HW220241   2.010   6.312   2.815
 6448SOL     OW20242   6.209   3.105   2.365
 6448SOL    HW120243   6.189   3.045   2.441
 6448SOL    HW220244   6.128   3.160   2.344
 6449SOL     OW20245   3.745   3.687   1.685
 6449SOL    HW120246   3.669   3.750   1.698
 6449SOL    HW220247   3.830   3.738   1.675
 6450SOL     OW20248   6.250   2.936   1.636
 6450SOL    HW120249   6.181   2.909   1.569
 6450SOL    HW220250   6.249   3.036   1.645
 6451SOL     OW20251   3.135   6.320   5.114
 6451SOL    HW120252   3.100   6.229   5.091
 6451SOL    HW220253   3.170   6.364   5.031
 6452SOL     OW20254   3.433   6.906   4.893
 6452SOL    HW120255   3.430   6.985   4.832
 6452SOL    HW220256   3.522   6.903   4.939
 6453SOL     OW20257   1.373   6.335   0.423
 6453SOL    HW120258   1.285   6.292   0.401
 6453SOL    HW220259   1.416   6.368   0.339
 6454SOL     OW20260   2.832   1.812   4.424
 6454SOL    HW120261   2.822   1.758   4.508
 6454SOL    HW220262   2.883   1.896   4.445
 6455SOL     OW20263   0.283   2.855   4.845
 6455SOL    HW120264   0.268   2.938   4.899
 6455SOL    HW220265   0.197   2.803   4.840
 6456SOL     OW20266   1.283   0.355   3.467
 6456SOL    HW120267   1.257   0.261   3.444
 6456SOL    HW220268   1.202   0.414   3.464
 6457SOL     OW20269   6.220   2.062   1.656
 6457SOL    HW120270   6.135   2.105   1.689
 6457SOL    HW220271   6.283   2.051   1.733
 6458SOL     OW20272   1.715   5.427   3.072
 6458SOL    HW120273   1.621   5.458   3.089
 6458SOL    HW220274   1.778   5.503   3.086
 6459SOL     OW20275   6.538   4.929   0.424
 6459SOL    HW120276   6.596   4.904   0.501
 6459SOL    HW220277   6.447   4.955   0.457
 6460SOL     OW20278   4.548   4.389   6.859
 6460SOL    HW120279   4.529   4.297   6.825
 6460SOL    HW220280   4.520   4.397   6.955
 6461SOL     OW20281   2.595   5.851   5.794
 6461SOL    HW120282   2.613   5.813   5.885
 6461SOL    HW220283   2.682   5.860   5.744
 6462SOL     OW20284   2.168   3.075   5.245
 6462SOL    HW120285   2.266   3.078   5.222
 6462SOL    HW220286   2.129   3.167   5.235
 6463SOL     OW20287   2.352   4.900   6.459
 6463SOL    HW120288   2.343   4.888   6.558
 6463SOL    HW220289   2.395   4.820   6.419
 6464SOL     OW20290   0.181   5.391   3.587
 6464SOL    HW120291   0.254   5.323   3.582
 6464SOL    HW220292   0.177   5.430   3.679
 6465SOL     OW20293   5.686   1.892   4.115
 6465SOL    HW120294   5.749   1.851   4.049
 6465SOL    HW220295   5.733   1.966   4.164
 6466SOL     OW20296   6.852   2.460   4.821
 6466SOL    HW120297   6.770   2.517   4.830
 6466SOL    HW220298   6.875   2.451   4.724
 6467SOL     OW20299   2.327   1.334   6.895
 6467SOL    HW120300   2.374   1.253   6.861
 6467SOL    HW220301   2.246   1.306   6.946
 6468SOL     OW20302   4.656   6.472   1.561
 6468SOL    HW120303   4.708   6.424   1.489
 6468SOL    HW220304   4.563   6.490   1.528
 6469SOL     OW20305   6.248   1.348   5.086
 6469SOL    HW120306   6.251   1.374   4.989
 6469SOL    HW220307   6.217   1.253   5.094
 6470SOL     OW20308   6.478   6.825   5.597
 6470SOL    HW120309   6.543   6.877   5.652
 6470SOL    HW220310   6.479   6.729   5.626
 6471SOL     OW20311   6.970   5.148   6.492
 6471SOL    HW120312   6.984   5.225   6.554
 6471SOL    HW220313   6.973   5.180   6.397
 6472SOL     OW20314   0.693   5.927   1.689
 6472SOL    HW120315   0.616   5.876   1.729
 6472SOL    HW220316   0.777   5.903   1.738
 6473SOL     OW20317   2.236   1.084   5.995
 6473SOL    HW120318   2.190   1.074   6.083
 6473SOL    HW220319   2.334   1.075   6.007
 6474SOL     OW20320   1.227   3.418   6.092
 6474SOL    HW120321   1.263   3.499   6.046
 6474SOL    HW220322   1.207   3.440   6.188
 6475SOL     OW20323   5.327   6.320   3.682
 6475SOL    HW120324   5.323   6.276   3.773
 6475SOL    HW220325   5.334   6.249   3.612
 6476SOL     OW20326   4.473   4.766   3.062
 6476SOL    HW120327   4.432   4.706   2.994
 6476SOL    HW220328   4.512   4.846   3.017
 6477SOL     OW20329   6.227   5.372   6.515
 6477SOL    HW120330   6.168   5.296   6.542
 6477SOL    HW220331   6.210   5.450   6.575
 6478SOL     OW20332   4.009   5.829   2.236
 6478SOL    HW120333   3.944   5.770   2.283
 6478SOL    HW220334   3.961   5.889   2.172
 6479SOL     OW20335   4.577   4.868   1.899
 6479SOL    HW120336   4.608   4.809   1.824
 6479SOL    HW220337   4.558   4.960   1.864
 6480SOL     OW20338   3.367   2.533   6.230
 6480SOL    HW120339   3.458   2.566   6.255
 6480SOL    HW220340   3.358   2.531   6.130
 6481SOL     OW20341   3.807   1.364   1.480
 6481SOL    HW120342   3.811   1.346   1.579
 6481SOL    HW220343   3.858   1.293   1.431
 6482SOL     OW20344   6.809   0.317   6.724
 6482SOL    HW120345   6.858   0.253   6.665
 6482SOL    HW220346   6.869   0.394   6.746
 6483SOL     OW20347   1.838   6.659   2.671
 6483SOL    HW120348   1.896   6.588   2.712
 6483SOL    HW220349   1.742   6.638   2.689
 6484SOL     OW20350   4.614   0.225   2.485
 6484SOL    HW120351   4.584   0.186   2.398
 6484SOL    HW220352   4.573   0.174   2.560
 6485SOL     OW20353   1.820   3.299   3.764
 6485SOL    HW120354   1.917   3.280   3.753
 6485SOL    HW220355   1.789   3.263   3.852
 6486SOL     OW20356   0.702   4.254   4.171
 6486SOL    HW120357   0.757   4.248   4.088
 6486SOL    HW220358   0.744   4.199   4.243
 6487SOL     OW20359   6.410   6.853   4.142
 6487SOL    HW120360   6.462   6.939   4.144
 6487SOL    HW220361   6.448   6.793   4.072
 6488SOL     OW20362   3.085   5.893   5.769
 6488SOL    HW120363   3.156   5.960   5.789
 6488SOL    HW220364   3.035   5.870   5.853
 6489SOL     OW20365   2.292   2.236   6.687
 6489SOL    HW120366   2.380   2.191   6.674
 6489SOL    HW220367   2.298   2.297   6.766
 6490SOL     OW20368   3.944   2.896   0.515
 6490SOL    HW120369   3.870   2.963   0.507
 6490SOL    HW220370   3.993   2.888   0.428
 6491SOL     OW20371   4.458   1.118   6.186
 6491SOL    HW120372   4.435   1.196   6.127
 6491SOL    HW220373   4.555   1.120   6.208
 6492SOL     OW20374   6.371   6.516   0.071
 6492SOL    HW120375   6.416   6.504   7.007
 6492SOL    HW220376   6.437   6.553   0.137
 6493SOL     OW20377   2.106   6.611   6.318
 6493SOL    HW120378   2.200   6.604   6.351
 6493SOL    HW220379   2.054   6.531   6.348
 6494SOL     OW20380   0.848   6.998   3.926
 6494SOL    HW120381   0.822   7.023   3.833
 6494SOL    HW220382   0.946   6.983   3.931
 6495SOL     OW20383   5.072   5.285   3.019
 6495SOL    HW120384   5.130   5.360   3.048
 6495SOL    HW220385   4.984   5.289   3.067
 6496SOL     OW20386   7.023   6.212   1.495
 6496SOL    HW120387   7.025   6.206   1.395
 6496SOL    HW220388   0.018   6.306   1.522
 6497SOL     OW20389   2.259   3.757   1.227
 6497SOL    HW120390   2.222   3.848   1.212
 6497SOL    HW220391   2.294   3.750   1.321
 6498SOL     OW20392   1.842   4.456   4.279
 6498SOL    HW120393   1.907   4.529   4.256
 6498SOL    HW220394   1.857   4.426   4.373
 6499SOL     OW20395   4.808   0.988   4.845
 6499SOL    HW120396   4.836   0.993   4.941
 6499SOL    HW220397   4.830   0.897   4.809
 6500SOL     OW20398   6.292   4.143   3.567
 6500SOL    HW120399   6.222   4.078   3.598
 6500SOL    HW220400   6.378   4.123   3.613
 6501SOL     OW20401   6.248   3.876   1.199
 6501SOL    HW120402   6.307   3.949   1.234
 6501SOL    HW220403   6.287   3.787   1.223
 6502SOL     OW20404   0.707   4.621   3.991
 6502SOL    HW120405   0.714   4.532   3.945
 6502SOL    HW220406   0.671   4.689   3.928
 6503SOL     OW20407   5.602   6.247   3.249
 6503SOL    HW120408   5.506   6.267   3.230
 6503SOL    HW220409   5.634   6.305   3.324
 6504SOL     OW20410   4.568   0.493   6.918
 6504SOL    HW120411   4.649   0.452   6.874
 6504SOL    HW220412   4.598   0.556   6.990
 6505SOL     OW20413   5.835   4.486   0.684
 6505SOL    HW120414   5.929   4.519   0.696
 6505SOL    HW220415   5.802   4.445   0.769
 6506SOL     OW20416   0.817   2.831   1.162
 6506SOL    HW120417   0.893   2.890   1.188
 6506SOL    HW220418   0.731   2.882   1.169
 6507SOL     OW20419   1.616   6.024   1.474
 6507SOL    HW120420   1.622   5.982   1.384
 6507SOL    HW220421   1.569   6.113   1.467
 6508SOL     OW20422   2.102   2.390   3.498
 6508SOL    HW120423   2.164   2.385   3.420
 6508SOL    HW220424   2.084   2.298   3.531
 6509SOL     OW20425   1.715   2.505   4.708
 6509SOL    HW120426   1.646   2.449   4.754
 6509SOL    HW220427   1.669   2.572   4.649
 6510SOL     OW20428   6.853   5.026   6.715
 6510SOL    HW120429   6.868   5.054   6.620
 6510SOL    HW220430   6.815   5.103   6.766
 6511SOL     OW20431   6.589   0.201   5.668
 6511SOL    HW120432   6.538   0.150   5.737
 6511SOL    HW220433   6.529   0.225   5.592
 6512SOL     OW20434   4.557   6.830   2.657
 6512SOL    HW120435   4.479   6.875   2.613
 6512SOL    HW220436   4.525   6.762   2.722
 6513SOL     OW20437   3.545   6.856   4.237
 6513SOL    HW120438   3.525   6.941   4.187
 6513SOL    HW220439   3.616   6.873   4.305
 6514SOL     OW20440   4.696   0.506   4.456
 6514SOL    HW120441   4.677   0.468   4.365
 6514SOL    HW220442   4.770   0.454   4.499
 6515SOL     OW20443   6.806   5.499   4.230
 6515SOL    HW120444   6.747   5.445   4.170
 6515SOL    HW220445   6.761   5.510   4.319
 6516SOL     OW20446   0.620   1.677   6.257
 6516SOL    HW120447   0.609   1.583   6.287
 6516SOL    HW220448   0.699   1.685   6.197
 6517SOL     OW20449   0.491   1.613   0.321
 6517SOL    HW120450   0.441   1.631   0.405
 6517SOL    HW220451   0.578   1.568   0.342
 6518SOL     OW20452   0.556   6.286   1.096
 6518SOL    HW120453   0.624   6.225   1.054
 6518SOL    HW220454   0.583   6.381   1.081
 6519SOL     OW20455   2.008   1.315   4.159
 6519SOL    HW120456   2.053   1.256   4.227
 6519SOL    HW220457   1.927   1.357   4.201
 6520SOL     OW20458   6.156   5.594   2.192
 6520SOL    HW120459   6.190   5.593   2.286
 6520SOL    HW220460   6.115   5.506   2.170
 6521SOL     OW20461   1.137   1.637   4.574
 6521SOL    HW120462   1.180   1.558   4.530
 6521SOL    HW220463   1.184   1.721   4.545
 6522SOL     OW20464   2.579   5.874   0.219
 6522SOL    HW120465   2.513   5.939   0.182
 6522SOL    HW220466   2.572   5.873   0.319
 6523SOL     OW20467   2.319   1.570   6.706
 6523SOL    HW120468   2.389   1.641   6.709
 6523SOL    HW220469   2.332   1.506   6.782
 6524SOL     OW20470   3.773   4.000   3.838
 6524SOL    HW120471   3.764   4.052   3.923
 6524SOL    HW220472   3.697   3.936   3.830
 6525SOL     OW20473   0.670   2.707   3.050
 6525SOL    HW120474   0.584   2.693   2.999
 6525SOL    HW220475   0.746   2.669   2.998
 6526SOL     OW20476   1.160   6.085   4.663
 6526SOL    HW120477   1.239   6.145   4.676
 6526SOL    HW220478   1.076   6.138   4.673
 6527SOL     OW20479   1.324   0.188   4.989
 6527SOL    HW120480   1.270   0.150   4.914
 6527SOL    HW220481   1.376   0.267   4.957
 6528SOL     OW20482   0.754   0.946   4.143
 6528SOL    HW120483   0.701   1.022   4.106
 6528SOL    HW220484   0.701   0.900   4.214
 6529SOL     OW20485   5.844   1.671   2.346
 6529SOL    HW120486   5.888   1.706   2.428
 6529SOL    HW220487   5.910   1.669   2.271
 6530SOL     OW20488   6.864   2.658   0.081
 6530SOL    HW120489   6.890   2.659   0.177
 6530SOL    HW220490   6.904   2.578   0.036
 6531SOL     OW20491   5.678   2.345   3.930
 6531SOL    HW120492   5.597   2.403   3.933
 6531SOL    HW220493   5.751   2.392   3.880
 6532SOL     OW20494   6.187   1.742   6.627
 6532SOL    HW120495   6.147   1.651   6.614
 6532SOL    HW220496   6.183   1.793   6.541
 6533SOL     OW20497   4.931   6.436   0.996
 6533SOL    HW120498   5.024   6.449   0.960
 6533SOL    HW220499   4.917   6.339   1.015
 6534SOL     OW20500   2.311   3.694   1.492
 6534SOL    HW120501   2.292   3.597   1.476
 6534SOL    HW220502   2.295   3.716   1.588
 6535SOL     OW20503   0.316   3.486   4.792
 6535SOL    HW120504   0.239   3.549   4.783
 6535SOL    HW220505   0.397   3.537   4.823
 6536SOL     OW20506   5.445   2.065   0.072
 6536SOL    HW120507   5.406   2.077   0.163
 6536SOL    HW220508   5.473   1.970   0.060
 6537SOL     OW20509   6.889   6.912   6.746
 6537SOL    HW120510   6.795   6.884   6.766
 6537SOL    HW220511   6.951   6.871   6.813
 6538SOL     OW20512   3.254   3.990   0.446
 6538SOL    HW120513   3.260   4.090   0.458
 6538SOL    HW220514   3.181   3.969   0.381
 6539SOL     OW20515   2.257   1.865   6.536
 6539SOL    HW120516   2.330   1.823   6.588
 6539SOL    HW220517   2.295   1.908   6.453
 6540SOL     OW20518   3.605   1.075   4.071
 6540SOL    HW120519   3.664   0.996   4.086
 6540SOL    HW220520   3.530   1.073   4.137
 6541SOL     OW20521   3.330   2.553   5.629
 6541SOL    HW120522   3.285   2.625   5.683
 6541SOL    HW220523   3.316   2.572   5.532
 6542SOL     OW20524   5.957   4.661   3.318
 6542SOL    HW120525   6.015   4.621   3.247
 6542SOL    HW220526   6.012   4.722   3.375
 6543SOL     OW20527   6.281   5.920   6.880
 6543SOL    HW120528   6.259   6.013   6.852
 6543SOL    HW220529   6.198   5.864   6.879
 6544SOL     OW20530   6.891   6.263   4.123
 6544SOL    HW120531   6.883   6.265   4.023
 6544SOL    HW220532   6.823   6.200   4.161
 6545SOL     OW20533   5.449   1.644   5.924
 6545SOL    HW120534   5.424   1.595   5.840
 6545SOL    HW220535   5.403   1.601   6.001
 6546SOL     OW20536   3.677   4.964   6.051
 6546SOL    HW120537   3.650   4.867   6.058
 6546SOL    HW220538   3.720   4.993   6.136
 6547SOL     OW20539   4.954   2.741   6.529
 6547SOL    HW120540   4.930   2.784   6.442
 6547SOL    HW220541   4.972   2.644   6.515
 6548SOL     OW20542   6.532   4.483   5.898
 6548SOL    HW120543   6.576   4.565   5.936
 6548SOL    HW220544   6.494   4.504   5.809
 6549SOL     OW20545   3.853   2.101   0.772
 6549SOL    HW120546   3.935   2.044   0.764
 6549SOL    HW220547   3.786   2.054   0.830
 6550SOL     OW20548   1.146   5.872   3.390
 6550SOL    HW120549   1.052   5.905   3.400
 6550SOL    HW220550   1.198   5.895   3.473
 6551SOL     OW20551   1.962   4.814   1.862
 6551SOL    HW120552   2.047   4.808   1.810
 6551SOL    HW220553   1.920   4.904   1.848
 6552SOL     OW20554   2.370   5.160   5.931
 6552SOL    HW120555   2.346   5.156   6.028
 6552SOL    HW220556   2.465   5.130   5.919
 6553SOL     OW20557   0.484   3.528   1.672
 6553SOL    HW120558   0.493   3.625   1.695
 6553SOL    HW220559   0.434   3.481   1.745
 6554SOL     OW20560   6.693   1.888   6.086
 6554SOL    HW120561   6.674   1.849   5.996
 6554SOL    HW220562   6.759   1.962   6.078
 6555SOL     OW20563   1.810   1.331   2.030
 6555SOL    HW120564   1.833   1.234   2.038
 6555SOL    HW220565   1.711   1.341   2.021
 6556SOL     OW20566   4.571   4.844   5.035
 6556SOL    HW120567   4.669   4.827   5.023
 6556SOL    HW220568   4.528   4.856   4.945
 6557SOL     OW20569   6.008   5.719   0.611
 6557SOL    HW120570   5.921   5.671   0.602
 6557SOL    HW220571   5.991   5.816   0.629
 6558SOL     OW20572   6.278   6.329   0.703
 6558SOL    HW120573   6.198   6.325   0.643
 6558SOL    HW220574   6.355   6.285   0.657
 6559SOL     OW20575   5.169   3.482   1.342
 6559SOL    HW120576   5.172   3.420   1.264
 6559SOL    HW220577   5.261   3.515   1.362
 6560SOL     OW20578   3.729   3.002   1.138
 6560SOL    HW120579   3.810   3.028   1.085
 6560SOL    HW220580   3.715   2.903   1.132
 6561SOL     OW20581   3.945   3.956   2.579
 6561SOL    HW120582   3.987   3.973   2.490
 6561SOL    HW220583   3.953   3.858   2.601
 6562SOL     OW20584   6.501   5.133   5.971
 6562SOL    HW120585   6.503   5.079   5.887
 6562SOL    HW220586   6.592   5.134   6.013
 6563SOL     OW20587   0.552   5.979   0.232
 6563SOL    HW120588   0.484   6.050   0.250
 6563SOL    HW220589   0.519   5.921   0.158
 6564SOL     OW20590   1.101   3.573   2.016
 6564SOL    HW120591   1.016   3.622   2.002
 6564SOL    HW220592   1.108   3.544   2.112
 6565SOL     OW20593   6.138   2.430   4.709
 6565SOL    HW120594   6.154   2.522   4.744
 6565SOL    HW220595   6.191   2.417   4.625
 6566SOL     OW20596   3.220   0.132   1.284
 6566SOL    HW120597   3.297   0.069   1.271
 6566SOL    HW220598   3.227   0.176   1.374
 6567SOL     OW20599   4.967   2.802   0.669
 6567SOL    HW120600   4.988   2.745   0.749
 6567SOL    HW220601   4.914   2.881   0.698
 6568SOL     OW20602   4.491   4.551   1.645
 6568SOL    HW120603   4.519   4.557   1.741
 6568SOL    HW220604   4.421   4.481   1.636
 6569SOL     OW20605   2.275   5.086   0.799
 6569SOL    HW120606   2.349   5.020   0.785
 6569SOL    HW220607   2.219   5.057   0.877
 6570SOL     OW20608   5.262   0.905   1.912
 6570SOL    HW120609   5.188   0.924   1.846
 6570SOL    HW220610   5.336   0.970   1.899
 6571SOL     OW20611   2.082   5.780   3.797
 6571SOL    HW120612   2.170   5.828   3.792
 6571SOL    HW220613   2.078   5.710   3.726
 6572SOL     OW20614   6.819   3.665   5.602
 6572SOL    HW120615   6.750   3.619   5.658
 6572SOL    HW220616   6.870   3.598   5.549
 6573SOL     OW20617   3.468   0.945   2.746
 6573SOL    HW120618   3.544   0.945   2.681
 6573SOL    HW220619   3.419   1.032   2.740
 6574SOL     OW20620   2.475   5.115   2.299
 6574SOL    HW120621   2.424   5.139   2.382
 6574SOL    HW220622   2.435   5.033   2.259
 6575SOL     OW20623   1.027   1.120   1.915
 6575SOL    HW120624   1.114   1.077   1.890
 6575SOL    HW220625   1.009   1.102   2.012
 6576SOL     OW20626   1.695   5.665   6.796
 6576SOL    HW120627   1.794   5.669   6.809
 6576SOL    HW220628   1.649   5.715   6.870
 6577SOL     OW20629   1.279   1.453   4.070
 6577SOL    HW120630   1.207   1.494   4.014
 6577SOL    HW220631   1.343   1.404   4.011
 6578SOL     OW20632   6.127   5.431   3.428
 6578SOL    HW120633   6.049   5.439   3.366
 6578SOL    HW220634   6.175   5.518   3.433
 6579SOL     OW20635   6.803   4.253   3.264
 6579SOL    HW120636   6.830   4.336   3.312
 6579SOL    HW220637   6.711   4.265   3.225
 6580SOL     OW20638   5.523   0.526   0.817
 6580SOL    HW120639   5.448   0.489   0.872
 6580SOL    HW220640   5.487   0.586   0.746
 6581SOL     OW20641   4.478   2.004   6.395
 6581SOL    HW120642   4.542   2.070   6.356
 6581SOL    HW220643   4.450   1.939   6.323
 6582SOL     OW20644   0.380   6.827   2.971
 6582SOL    HW120645   0.419   6.774   2.896
 6582SOL    HW220646   0.355   6.918   2.939
 6583SOL     OW20647   5.537   1.429   6.139
 6583SOL    HW120648   5.600   1.356   6.168
 6583SOL    HW220649   5.514   1.416   6.043
 6584SOL     OW20650   5.676   1.499   6.430
 6584SOL    HW120651   5.628   1.572   6.383
 6584SOL    HW220652   5.641   1.491   6.524
 6585SOL     OW20653   0.438   1.742   6.897
 6585SOL    HW120654   0.530   1.780   6.893
 6585SOL    HW220655   0.372   1.817   6.908
 6586SOL     OW20656   6.576   1.730   6.270
 6586SOL    HW120657   6.626   1.789   6.207
 6586SOL    HW220658   6.615   1.739   6.362
 6587SOL     OW20659   1.809   5.792   4.290
 6587SOL    HW120660   1.869   5.715   4.265
 6587SOL    HW220661   1.851   5.878   4.259
 6588SOL     OW20662   1.640   3.097   0.620
 6588SOL    HW120663   1.579   3.174   0.641
 6588SOL    HW220664   1.733   3.132   0.606
 6589SOL     OW20665   4.786   0.753   5.729
 6589SOL    HW120666   4.850   0.829   5.728
 6589SOL    HW220667   4.730   0.757   5.812
 6590SOL     OW20668   0.156   1.630   4.447
 6590SOL    HW120669   0.171   1.711   4.390
 6590SOL    HW220670   0.091   1.569   4.401
 6591SOL     OW20671   5.450   6.851   2.473
 6591SOL    HW120672   5.382   6.778   2.477
 6591SOL    HW220673   5.438   6.912   2.551
 6592SOL     OW20674   4.452   0.288   4.645
 6592SOL    HW120675   4.383   0.316   4.711
 6592SOL    HW220676   4.542   0.323   4.674
 6593SOL     OW20677   3.302   2.159   4.131
 6593SOL    HW120678   3.214   2.120   4.160
 6593SOL    HW220679   3.317   2.245   4.180
 6594SOL     OW20680   5.114   0.766   6.555
 6594SOL    HW120681   5.200   0.732   6.592
 6594SOL    HW220682   5.038   0.729   6.608
 6595SOL     OW20683   1.471   3.319   0.654
 6595SOL    HW120684   1.408   3.384   0.611
 6595SOL    HW220685   1.479   3.339   0.751
 6596SOL     OW20686   4.643   0.284   5.285
 6596SOL    HW120687   4.584   0.300   5.206
 6596SOL    HW220688   4.715   0.219   5.260
 6597SOL     OW20689   6.642   6.533   4.390
 6597SOL    HW120690   6.729   6.545   4.438
 6597SOL    HW220691   6.595   6.452   4.425
 6598SOL     OW20692   1.581   5.564   5.120
 6598SOL    HW120693   1.560   5.592   5.214
 6598SOL    HW220694   1.515   5.496   5.089
 6599SOL     OW20695   3.986   5.155   6.199
 6599SOL    HW120696   3.907   5.114   6.244
 6599SOL    HW220697   3.960   5.242   6.158
 6600SOL     OW20698   4.435   5.272   4.599
 6600SOL    HW120699   4.419   5.356   4.650
 6600SOL    HW220700   4.511   5.222   4.641
 6601SOL     OW20701   0.261   1.244   0.478
 6601SOL    HW120702   0.318   1.285   0.406
 6601SOL    HW220703   0.198   1.313   0.514
 6602SOL     OW20704   0.589   2.038   1.487
 6602SOL    HW120705   0.667   1.983   1.516
 6602SOL    HW220706   0.522   1.980   1.441
 6603SOL     OW20707   1.720   3.745   2.955
 6603SOL    HW120708   1.705   3.646   2.952
 6603SOL    HW220709   1.818   3.764   2.950
 6604SOL     OW20710   2.859   5.686   2.170
 6604SOL    HW120711   2.909   5.747   2.231
 6604SOL    HW220712   2.924   5.635   2.114
 6605SOL     OW20713   5.232   5.904   0.109
 6605SOL    HW120714   5.284   5.880   0.027
 6605SOL    HW220715   5.176   5.984   0.091
 6606SOL     OW20716   5.017   0.771   2.411
 6606SOL    HW120717   5.026   0.870   2.415
 6606SOL    HW220718   4.929   0.747   2.371
 6607SOL     OW20719   2.138   1.619   2.412
 6607SOL    HW120720   2.053   1.630   2.360
 6607SOL    HW220721   2.159   1.704   2.460
 6608SOL     OW20722   5.507   3.207   3.444
 6608SOL    HW120723   5.562   3.208   3.527
 6608SOL    HW220724   5.495   3.113   3.412
 6609SOL     OW20725   5.750   1.372   6.990
 6609SOL    HW120726   5.764   1.343   6.895
 6609SOL    HW220727   5.839   1.395   0.006
 6610SOL     OW20728   2.018   0.375   0.692
 6610SOL    HW120729   1.978   0.312   0.759
 6610SOL    HW220730   1.948   0.402   0.626
 6611SOL     OW20731   6.322   2.207   3.024
 6611SOL    HW120732   6.374   2.263   2.960
 6611SOL    HW220733   6.385   2.161   3.086
 6612SOL     OW20734   1.774   5.988   6.813
 6612SOL    HW120735   1.692   5.932   6.802
 6612SOL    HW220736   1.774   6.061   6.745
 6613SOL     OW20737   5.505   5.221   3.058
 6613SOL    HW120738   5.518   5.306   3.109
 6613SOL    HW220739   5.466   5.151   3.118
 6614SOL     OW20740   5.131   5.271   6.093
 6614SOL    HW120741   5.039   5.311   6.101
 6614SOL    HW220742   5.129   5.177   6.127
 6615SOL     OW20743   0.593   3.511   5.187
 6615SOL    HW120744   0.646   3.529   5.271
 6615SOL    HW220745   0.623   3.424   5.148
 6616SOL     OW20746   4.915   1.232   5.656
 6616SOL    HW120747   4.850   1.281   5.713
 6616SOL    HW220748   4.961   1.296   5.594
 6617SOL     OW20749   2.707   6.557   4.483
 6617SOL    HW120750   2.654   6.637   4.457
 6617SOL    HW220751   2.695   6.485   4.414
 6618SOL     OW20752   0.908   4.202   2.179
 6618SOL    HW120753   0.933   4.115   2.137
 6618SOL    HW220754   0.869   4.263   2.110
 6619SOL     OW20755   4.384   6.751   3.358
 6619SOL    HW120756   4.351   6.844   3.367
 6619SOL    HW220757   4.463   6.749   3.297
 6620SOL     OW20758   1.309   2.963   6.211
 6620SOL    HW120759   1.372   2.890   6.184
 6620SOL    HW220760   1.358   3.051   6.209
 6621SOL     OW20761   2.910   3.989   0.634
 6621SOL    HW120762   2.988   3.930   0.657
 6621SOL    HW220763   2.942   4.073   0.591
 6622SOL     OW20764   6.386   6.270   0.209
 6622SOL    HW120765   6.383   6.247   0.112
 6622SOL    HW220766   6.378   6.369   0.220
 6623SOL     OW20767   3.186   2.941   3.173
 6623SOL    HW120768   3.250   3.000   3.222
 6623SOL    HW220769   3.150   2.872   3.235
 6624SOL     OW20770   3.639   5.882   5.092
 6624SOL    HW120771   3.660   5.979   5.101
 6624SOL    HW220772   3.541   5.867   5.108
 6625SOL     OW20773   6.436   1.154   6.673
 6625SOL    HW120774   6.375   1.129   6.598
 6625SOL    HW220775   6.531   1.145   6.643
 6626SOL     OW20776   3.188   5.417   3.290
 6626SOL    HW120777   3.287   5.422   3.306
 6626SOL    HW220778   3.169   5.348   3.220
 6627SOL     OW20779   1.904   0.806   6.204
 6627SOL    HW120780   1.819   0.762   6.175
 6627SOL    HW220781   1.888   0.903   6.222
 6628SOL     OW20782   4.463   4.651   2.583
 6628SOL    HW120783   4.532   4.585   2.555
 6628SOL    HW220784   4.407   4.677   2.504
 6629SOL     OW20785   3.099   5.759   1.457
 6629SOL    HW120786   3.170   5.735   1.524
 6629SOL    HW220787   3.137   5.755   1.365
 6630SOL     OW20788   3.345   1.191   0.348
 6630SOL    HW120789   3.433   1.208   0.393
 6630SOL    HW220790   3.348   1.225   0.254
 6631SOL     OW20791   5.505   0.653   2.404
 6631SOL    HW120792   5.499   0.712   2.485
 6631SOL    HW220793   5.450   0.693   2.330
 6632SOL     OW20794   6.954   1.288   0.378
 6632SOL    HW120795   7.003   1.369   0.346
 6632SOL    HW220796   6.855   1.304   0.375
 6633SOL     OW20797   1.384   5.962   0.076
 6633SOL    HW120798   1.342   5.874   0.097
 6633SOL    HW220799   1.447   5.988   0.149
 6634SOL     OW20800   6.727   3.018   5.681
 6634SOL    HW120801   6.740   2.933   5.732
 6634SOL    HW220802   6.638   3.058   5.706
 6635SOL     OW20803   4.350   5.302   3.445
 6635SOL    HW120804   4.276   5.342   3.391
 6635SOL    HW220805   4.410   5.375   3.479
 6636SOL     OW20806   1.306   2.872   4.637
 6636SOL    HW120807   1.286   2.931   4.559
 6636SOL    HW220808   1.342   2.928   4.712
 6637SOL     OW20809   1.326   0.349   0.327
 6637SOL    HW120810   1.333   0.296   0.412
 6637SOL    HW220811   1.411   0.401   0.314
 6638SOL     OW20812   1.626   5.685   5.610
 6638SOL    HW120813   1.536   5.672   5.653
 6638SOL    HW220814   1.672   5.597   5.600
 6639SOL     OW20815   5.869   4.411   6.499
 6639SOL    HW120816   5.926   4.391   6.419
 6639SOL    HW220817   5.927   4.415   6.581
 6640SOL     OW20818   0.271   2.322   3.445
 6640SOL    HW120819   0.223   2.287   3.525
 6640SOL    HW220820   0.363   2.352   3.472
 6641SOL     OW20821   2.866   4.146   6.465
 6641SOL    HW120822   2.792   4.079   6.472
 6641SOL    HW220823   2.951   4.105   6.498
 6642SOL     OW20824   1.493   4.920   6.962
 6642SOL    HW120825   1.466   4.958   6.874
 6642SOL    HW220826   1.589   4.940   6.979
 6643SOL     OW20827   6.034   4.181   6.266
 6643SOL    HW120828   5.982   4.096   6.274
 6643SOL    HW220829   5.976   4.252   6.227
 6644SOL     OW20830   2.848   4.842   1.993
 6644SOL    HW120831   2.839   4.742   1.986
 6644SOL    HW220832   2.867   4.866   2.088
 6645SOL     OW20833   7.017   4.859   6.466
 6645SOL    HW120834   6.976   4.928   6.407
 6645SOL    HW220835   0.018   4.901   6.553
 6646SOL     OW20836   3.581   5.332   4.695
 6646SOL    HW120837   3.570   5.371   4.603
 6646SOL    HW220838   3.542   5.240   4.697
 6647SOL     OW20839   3.692   0.415   2.151
 6647SOL    HW120840   3.791   0.410   2.138
 6647SOL    HW220841   3.645   0.381   2.069
 6648SOL     OW20842   4.227   5.627   2.638
 6648SOL    HW120843   4.222   5.645   2.539
 6648SOL    HW220844   4.323   5.632   2.667
 6649SOL     OW20845   4.905   1.936   6.220
 6649SOL    HW120846   4.889   1.883   6.304
 6649SOL    HW220847   4.857   1.892   6.144
 6650SOL     OW20848   4.114   1.199   3.562
 6650SOL    HW120849   4.171   1.224   3.640
 6650SOL    HW220850   4.126   1.266   3.489
 6651SOL     OW20851   1.461   2.218   6.988
 6651SOL    HW120852   1.551   2.205   0.006
 6651SOL    HW220853   1.442   2.316   6.981
 6652SOL     OW20854   6.711   5.364   1.645
 6652SOL    HW120855   6.629   5.347   1.700
 6652SOL    HW220856   6.790   5.322   1.690
 6653SOL     OW20857   2.925   3.836   2.903
 6653SOL    HW120858   2.945   3.891   2.823
 6653SOL    HW220859   2.936   3.739   2.880
 6654SOL     OW20860   2.125   2.744   1.327
 6654SOL    HW120861   2.029   2.773   1.331
 6654SOL    HW220862   2.131   2.647   1.351
 6655SOL     OW20863   3.066   6.555   2.125
 6655SOL    HW120864   3.000   6.629   2.135
 6655SOL    HW220865   3.155   6.593   2.098
 6656SOL     OW20866   6.876   1.204   1.363
 6656SOL    HW120867   6.903   1.148   1.285
 6656SOL    HW220868   6.921   1.170   1.446
 6657SOL     OW20869   3.959   6.881   6.176
 6657SOL    HW120870   3.862   6.883   6.149
 6657SOL    HW220871   3.967   6.906   6.272
 6658SOL     OW20872   5.625   1.168   5.020
 6658SOL    HW120873   5.686   1.189   4.943
 6658SOL    HW220874   5.536   1.212   5.005
 6659SOL     OW20875   2.859   3.292   0.064
 6659SOL    HW120876   2.936   3.339   0.023
 6659SOL    HW220877   2.891   3.237   0.142
 6660SOL     OW20878   6.643   6.704   2.233
 6660SOL    HW120879   6.597   6.655   2.160
 6660SOL    HW220880   6.598   6.685   2.320
 6661SOL     OW20881   6.567   5.281   3.315
 6661SOL    HW120882   6.593   5.275   3.411
 6661SOL    HW220883   6.476   5.242   3.302
 6662SOL     OW20884   2.253   0.796   0.327
 6662SOL    HW120885   2.316   0.845   0.386
 6662SOL    HW220886   2.305   0.734   0.268
 6663SOL     OW20887   0.231   5.484   2.505
 6663SOL    HW120888   0.199   5.429   2.582
 6663SOL    HW220889   0.293   5.555   2.538
 6664SOL     OW20890   1.336   0.169   2.169
 6664SOL    HW120891   1.390   0.228   2.109
 6664SOL    HW220892   1.321   0.216   2.257
 6665SOL     OW20893   1.519   6.192   3.021
 6665SOL    HW120894   1.500   6.101   2.984
 6665SOL    HW220895   1.617   6.209   3.018
 6666SOL     OW20896   6.407   1.664   5.123
 6666SOL    HW120897   6.344   1.632   5.194
 6666SOL    HW220898   6.379   1.626   5.035
 6667SOL     OW20899   6.061   5.501   4.516
 6667SOL    HW120900   6.121   5.444   4.572
 6667SOL    HW220901   5.982   5.446   4.486
 6668SOL     OW20902   0.639   4.814   2.330
 6668SOL    HW120903   0.657   4.882   2.402
 6668SOL    HW220904   0.614   4.861   2.245
 6669SOL     OW20905   2.808   5.050   3.995
 6669SOL    HW120906   2.866   5.085   4.068
 6669SOL    HW220907   2.733   4.996   4.035
 6670SOL     OW20908   3.622   4.881   6.934
 6670SOL    HW120909   3.583   4.791   6.953
 6670SOL    HW220910   3.606   4.942   7.011
 6671SOL     OW20911   6.416   4.405   6.263
 6671SOL    HW120912   6.414   4.393   6.362
 6671SOL    HW220913   6.373   4.326   6.219
 6672SOL     OW20914   1.374   0.810   5.684
 6672SOL    HW120915   1.425   0.821   5.598
 6672SOL    HW220916   1.341   0.900   5.714
 6673SOL     OW20917   4.930   5.075   2.092
 6673SOL    HW120918   5.013   5.022   2.075
 6673SOL    HW220919   4.871   5.073   2.011
 6674SOL     OW20920   0.970   5.887   5.488
 6674SOL    HW120921   0.942   5.858   5.397
 6674SOL    HW220922   0.999   5.807   5.541
 6675SOL     OW20923   5.785   4.040   0.227
 6675SOL    HW120924   5.858   4.086   0.277
 6675SOL    HW220925   5.706   4.026   0.286
 6676SOL     OW20926   0.922   3.469   5.373
 6676SOL    HW120927   0.836   3.497   5.415
 6676SOL    HW220928   0.990   3.453   5.445
 6677SOL     OW20929   0.366   3.751   0.650
 6677SOL    HW120930   0.331   3.787   0.564
 6677SOL    HW220931   0.466   3.749   0.647
 6678SOL     OW20932   1.153   2.570   6.422
 6678SOL    HW120933   1.098   2.650   6.445
 6678SOL    HW220934   1.190   2.580   6.329
 6679SOL     OW20935   1.286   2.568   5.619
 6679SOL    HW120936   1.332   2.654   5.596
 6679SOL    HW220937   1.187   2.579   5.612
 6680SOL     OW20938   4.104   6.541   6.106
 6680SOL    HW120939   4.196   6.512   6.131
 6680SOL    HW220940   4.038   6.501   6.169
 6681SOL     OW20941   5.289   5.361   0.293
 6681SOL    HW120942   5.329   5.305   0.220
 6681SOL    HW220943   5.231   5.303   0.351
 6682SOL     OW20944   0.442   5.298   2.670
 6682SOL    HW120945   0.443   5.398   2.674
 6682SOL    HW220946   0.510   5.262   2.735
 6683SOL     OW20947   4.912   1.642   5.183
 6683SOL    HW120948   4.969   1.718   5.213
 6683SOL    HW220949   4.880   1.590   5.262
 6684SOL     OW20950   1.834   0.023   2.317
 6684SOL    HW120951   1.807   6.974   2.379
 6684SOL    HW220952   1.764   0.034   2.246
 6685SOL     OW20953   5.297   2.448   6.543
 6685SOL    HW120954   5.204   2.424   6.517
 6685SOL    HW220955   5.296   2.532   6.598
 6686SOL     OW20956   6.215   3.852   4.129
 6686SOL    HW120957   6.223   3.944   4.090
 6686SOL    HW220958   6.134   3.848   4.188
 6687SOL     OW20959   1.144   1.655   0.893
 6687SOL    HW120960   1.186   1.567   0.913
 6687SOL    HW220961   1.142   1.669   0.794
 6688SOL     OW20962   0.526   4.860   2.898
 6688SOL    HW120963   0.567   4.940   2.943
 6688SOL    HW220964   0.429   4.856   2.919
 6689SOL     OW20965   5.453   3.873   0.727
 6689SOL    HW120966   5.435   3.830   0.639
 6689SOL    HW220967   5.550   3.898   0.733
 6690SOL     OW20968   2.350   2.863   1.432
 6690SOL    HW120969   2.403   2.878   1.348
 6690SOL    HW220970   2.265   2.815   1.409
 6691SOL     OW20971   2.352   6.184   1.317
 6691SOL    HW120972   2.397   6.248   1.380
 6691SOL    HW220973   2.414   6.107   1.300
 6692SOL     OW20974   3.087   4.326   5.259
 6692SOL    HW120975   3.026   4.261   5.306
 6692SOL    HW220976   3.035   4.407   5.231
 6693SOL     OW20977   4.467   3.809   5.291
 6693SOL    HW120978   4.368   3.798   5.278
 6693SOL    HW220979   4.516   3.739   5.238
 6694SOL     OW20980   4.636   6.541   0.935
 6694SOL    HW120981   4.602   6.500   1.020
 6694SOL    HW220982   4.734   6.558   0.943
 6695SOL     OW20983   0.808   1.484   6.792
 6695SOL    HW120984   0.860   1.553   6.841
 6695SOL    HW220985   0.870   1.416   6.753
 6696SOL     OW20986   2.120   3.037   1.562
 6696SOL    HW120987   2.204   3.001   1.522
 6696SOL    HW220988   2.042   3.010   1.505
 6697SOL     OW20989   4.390   1.509   2.931
 6697SOL    HW120990   4.445   1.451   2.991
 6697SOL    HW220991   4.415   1.605   2.945
 6698SOL     OW20992   4.055   3.156   6.828
 6698SOL    HW120993   3.972   3.100   6.837
 6698SOL    HW220994   4.031   3.244   6.788
 6699SOL     OW20995   3.631   4.597   6.948
 6699SOL    HW120996   3.605   4.542   6.868
 6699SOL    HW220997   3.699   4.548   7.002
 6700SOL     OW20998   0.421   5.460   1.426
 6700SOL    HW120999   0.444   5.404   1.346
 6700SOL    HW221000   0.435   5.557   1.403
 6701SOL     OW21001   0.343   1.628   0.553
 6701SOL    HW121002   0.257   1.577   0.559
 6701SOL    HW221003   0.324   1.726   0.549
 6702SOL     OW21004   2.372   1.500   0.820
 6702SOL    HW121005   2.335   1.593   0.813
 6702SOL    HW221006   2.345   1.448   0.739
 6703SOL     OW21007   0.079   1.215   5.880
 6703SOL    HW121008   0.055   1.300   5.927
 6703SOL    HW221009   0.154   1.171   5.927
 6704SOL     OW21010   4.761   2.302   2.537
 6704SOL    HW121011   4.709   2.218   2.549
 6704SOL    HW221012   4.785   2.313   2.441
 6705SOL     OW21013   6.498   2.070   1.538
 6705SOL    HW121014   6.452   2.124   1.468
 6705SOL    HW221015   6.501   2.122   1.623
 6706SOL     OW21016   0.833   3.876   6.968
 6706SOL    HW121017   0.832   3.972   6.996
 6706SOL    HW221018   0.848   3.869   6.869
 6707SOL     OW21019   6.248   5.569   4.293
 6707SOL    HW121020   6.226   5.588   4.389
 6707SOL    HW221021   6.224   5.474   4.272
 6708SOL     OW21022   2.014   5.740   2.250
 6708SOL    HW121023   2.101   5.695   2.228
 6708SOL    HW221024   1.946   5.719   2.180
 6709SOL     OW21025   3.625   6.922   1.767
 6709SOL    HW121026   3.701   6.868   1.729
 6709SOL    HW221027   3.632   7.016   1.737
 6710SOL     OW21028   2.793   2.594   6.586
 6710SOL    HW121029   2.804   2.526   6.658
 6710SOL    HW221030   2.793   2.549   6.497
 6711SOL     OW21031   5.130   3.767   6.509
 6711SOL    HW121032   5.118   3.697   6.579
 6711SOL    HW221033   5.069   3.746   6.432
 6712SOL     OW21034   3.612   5.453   0.520
 6712SOL    HW121035   3.620   5.376   0.584
 6712SOL    HW221036   3.703   5.477   0.486
 6713SOL     OW21037   1.972   2.429   1.530
 6713SOL    HW121038   1.915   2.349   1.512
 6713SOL    HW221039   2.018   2.457   1.446
 6714SOL     OW21040   5.518   0.612   4.168
 6714SOL    HW121041   5.572   0.529   4.178
 6714SOL    HW221042   5.527   0.669   4.250
 6715SOL     OW21043   0.477   2.080   0.827
 6715SOL    HW121044   0.519   2.160   0.869
 6715SOL    HW221045   0.499   2.078   0.729
 6716SOL     OW21046   1.888   6.032   1.071
 6716SOL    HW121047   1.968   5.995   1.025
 6716SOL    HW221048   1.898   6.131   1.083
 6717SOL     OW21049   3.816   2.704   0.365
 6717SOL    HW121050   3.786   2.617   0.406
 6717SOL    HW221051   3.822   2.774   0.436
 6718SOL     OW21052   3.891   6.982   6.951
 6718SOL    HW121053   3.847   0.040   6.918
 6718SOL    HW221054   3.829   6.904   6.940
 6719SOL     OW21055   0.199   6.089   5.346
 6719SOL    HW121056   0.194   5.989   5.336
 6719SOL    HW221057   0.279   6.113   5.401
 6720SOL     OW21058   2.263   5.261   1.832
 6720SOL    HW121059   2.360   5.282   1.842
 6720SOL    HW221060   2.234   5.202   1.908
 6721SOL     OW21061   5.095   6.697   4.155
 6721SOL    HW121062   5.008   6.653   4.175
 6721SOL    HW221063   5.085   6.796   4.167
 6722SOL     OW21064   4.436   3.588   6.622
 6722SOL    HW121065   4.436   3.682   6.657
 6722SOL    HW221066   4.345   3.564   6.590
 6723SOL     OW21067   2.697   6.561   3.676
 6723SOL    HW121068   2.781   6.597   3.717
 6723SOL    HW221069   2.713   6.543   3.579
 6724SOL     OW21070   3.065   4.704   5.345
 6724SOL    HW121071   3.034   4.651   5.267
 6724SOL    HW221072   3.061   4.648   5.428
 6725SOL     OW21073   0.779   5.122   2.567
 6725SOL    HW121074   0.763   5.116   2.469
 6725SOL    HW221075   0.766   5.217   2.597
 6726SOL     OW21076   2.363   2.728   4.366
 6726SOL    HW121077   2.418   2.658   4.411
 6726SOL    HW221078   2.273   2.732   4.411
 6727SOL     OW21079   4.328   3.401   5.777
 6727SOL    HW121080   4.297   3.307   5.765
 6727SOL    HW221081   4.316   3.429   5.872
 6728SOL     OW21082   3.953   1.562   4.156
 6728SOL    HW121083   3.895   1.481   4.162
 6728SOL    HW221084   3.895   1.644   4.161
 6729SOL     OW21085   6.521   0.882   2.556
 6729SOL    HW121086   6.434   0.866   2.508
 6729SOL    HW221087   6.505   0.881   2.654
 6730SOL     OW21088   2.727   0.840   0.237
 6730SOL    HW121089   2.802   0.812   0.177
 6730SOL    HW221090   2.765   0.883   0.319
 6731SOL     OW21091   2.710   4.737   1.460
 6731SOL    HW121092   2.648   4.663   1.434
 6731SOL    HW221093   2.743   4.722   1.554
 6732SOL     OW21094   2.617   6.116   0.912
 6732SOL    HW121095   2.653   6.126   0.819
 6732SOL    HW221096   2.636   6.024   0.946
 6733SOL     OW21097   4.862   6.018   4.987
 6733SOL    HW121098   4.783   6.076   4.967
 6733SOL    HW221099   4.915   6.003   4.904
 6734SOL     OW21100   1.980   3.198   5.652
 6734SOL    HW121101   1.967   3.180   5.554
 6734SOL    HW221102   1.960   3.115   5.703
 6735SOL     OW21103   6.983   5.145   5.516
 6735SOL    HW121104   6.947   5.053   5.501
 6735SOL    HW221105   0.028   5.165   5.448
 6736SOL     OW21106   2.349   2.824   1.744
 6736SOL    HW121107   2.323   2.769   1.664
 6736SOL    HW221108   2.373   2.916   1.715
 6737SOL     OW21109   2.773   1.630   2.415
 6737SOL    HW121110   2.750   1.538   2.446
 6737SOL    HW221111   2.728   1.648   2.327
 6738SOL     OW21112   2.440   1.300   2.557
 6738SOL    HW121113   2.341   1.312   2.566
 6738SOL    HW221114   2.459   1.220   2.501
 6739SOL     OW21115   3.613   6.474   5.027
 6739SOL    HW121116   3.630   6.425   5.113
 6739SOL    HW221117   3.576   6.411   4.959
 6740SOL     OW21118   1.776   1.749   3.739
 6740SOL    HW121119   1.704   1.735   3.807
 6740SOL    HW221120   1.735   1.774   3.651
 6741SOL     OW21121   6.790   0.533   5.890
 6741SOL    HW121122   6.705   0.487   5.865
 6741SOL    HW221123   6.800   0.617   5.837
 6742SOL     OW21124   6.249   6.087   5.226
 6742SOL    HW121125   6.278   5.998   5.259
 6742SOL    HW221126   6.245   6.152   5.302
 6743SOL     OW21127   3.780   3.251   1.617
 6743SOL    HW121128   3.865   3.301   1.603
 6743SOL    HW221129   3.787   3.161   1.573
 6744SOL     OW21130   4.723   4.916   5.904
 6744SOL    HW121131   4.723   4.885   5.809
 6744SOL    HW221132   4.804   4.881   5.951
 6745SOL     OW21133   1.831   5.037   3.630
 6745SOL    HW121134   1.930   5.023   3.633
 6745SOL    HW221135   1.786   4.969   3.688
 6746SOL     OW21136   0.406   1.943   1.221
 6746SOL    HW121137   0.345   1.930   1.142
 6746SOL    HW221138   0.463   2.023   1.205
 6747SOL     OW21139   5.083   6.172   5.100
 6747SOL    HW121140   5.018   6.111   5.055
 6747SOL    HW221141   5.177   6.142   5.080
 6748SOL     OW21142   1.231   0.583   2.670
 6748SOL    HW121143   1.284   0.606   2.588
 6748SOL    HW221144   1.293   0.548   2.740
 6749SOL     OW21145   4.596   0.220   0.031
 6749SOL    HW121146   4.523   0.164   0.069
 6749SOL    HW221147   4.567   0.315   0.027
 6750SOL     OW21148   2.482   2.604   4.804
 6750SOL    HW121149   2.571   2.636   4.773
 6750SOL    HW221150   2.470   2.628   4.901
 6751SOL     OW21151   2.669   2.331   4.617
 6751SOL    HW121152   2.666   2.357   4.714
 6751SOL    HW221153   2.677   2.232   4.610
 6752SOL     OW21154   5.951   3.090   0.546
 6752SOL    HW121155   5.905   3.070   0.460
 6752SOL    HW221156   6.048   3.107   0.529
 6753SOL     OW21157   4.548   2.446   6.673
 6753SOL    HW121158   4.562   2.503   6.754
 6753SOL    HW221159   4.515   2.356   6.701
 6754SOL     OW21160   6.006   1.241   6.529
 6754SOL    HW121161   6.096   1.244   6.485
 6754SOL    HW221162   5.934   1.240   6.460
 6755SOL     OW21163   4.823   1.822   4.015
 6755SOL    HW121164   4.761   1.746   4.037
 6755SOL    HW221165   4.805   1.853   3.922
 6756SOL     OW21166   4.944   5.158   4.314
 6756SOL    HW121167   4.986   5.101   4.385
 6756SOL    HW221168   4.966   5.121   4.224
 6757SOL     OW21169   5.877   5.813   1.813
 6757SOL    HW121170   5.903   5.737   1.872
 6757SOL    HW221171   5.901   5.900   1.858
 6758SOL     OW21172   5.267   2.484   2.001
 6758SOL    HW121173   5.286   2.405   1.943
 6758SOL    HW221174   5.273   2.568   1.946
 6759SOL     OW21175   0.569   5.298   3.240
 6759SOL    HW121176   0.542   5.394   3.235
 6759SOL    HW221177   0.647   5.288   3.300
 6760SOL     OW21178   6.589   3.971   3.833
 6760SOL    HW121179   6.598   3.928   3.923
 6760SOL    HW221180   6.511   3.933   3.785
 6761SOL     OW21181   4.596   2.458   5.483
 6761SOL    HW121182   4.565   2.498   5.396
 6761SOL    HW221183   4.590   2.527   5.555
 6762SOL     OW21184   6.123   4.814   3.496
 6762SOL    HW121185   6.054   4.846   3.561
 6762SOL    HW221186   6.193   4.762   3.546
 6763SOL     OW21187   6.221   6.883   5.678
 6763SOL    HW121188   6.162   6.806   5.702
 6763SOL    HW221189   6.312   6.849   5.655
 6764SOL     OW21190   2.740   4.169   6.770
 6764SOL    HW121191   2.726   4.244   6.835
 6764SOL    HW221192   2.699   4.194   6.682
 6765SOL     OW21193   5.725   4.317   2.301
 6765SOL    HW121194   5.751   4.239   2.358
 6765SOL    HW221195   5.806   4.369   2.275
 6766SOL     OW21196   1.886   0.328   5.948
 6766SOL    HW121197   1.935   0.281   5.874
 6766SOL    HW221198   1.860   0.419   5.918
 6767SOL     OW21199   6.865   3.058   6.746
 6767SOL    HW121200   6.843   3.039   6.650
 6767SOL    HW221201   6.876   2.972   6.795
 6768SOL     OW21202   6.533   0.449   3.838
 6768SOL    HW121203   6.547   0.459   3.937
 6768SOL    HW221204   6.598   0.381   3.803
 6769SOL     OW21205   2.186   2.803   5.537
 6769SOL    HW121206   2.101   2.818   5.487
 6769SOL    HW221207   2.264   2.821   5.477
 6770SOL     OW21208   0.565   1.433   3.239
 6770SOL    HW121209   0.487   1.495   3.236
 6770SOL    HW221210   0.537   1.347   3.284
 6771SOL     OW21211   3.857   2.135   3.341
 6771SOL    HW121212   3.922   2.179   3.403
 6771SOL    HW221213   3.866   2.177   3.250
 6772SOL     OW21214   6.960   1.498   1.811
 6772SOL    HW121215   6.993   1.563   1.742
 6772SOL    HW221216   6.962   1.406   1.773
 6773SOL     OW21217   1.270   6.570   1.159
 6773SOL    HW121218   1.285   6.645   1.095
 6773SOL    HW221219   1.297   6.599   1.251
 6774SOL     OW21220   1.864   2.161   5.422
 6774SOL    HW121221   1.921   2.243   5.430
 6774SOL    HW221222   1.893   2.094   5.490
 6775SOL     OW21223   1.031   2.261   4.664
 6775SOL    HW121224   1.067   2.251   4.756
 6775SOL    HW221225   1.050   2.179   4.611
 6776SOL     OW21226   3.248   4.108   2.680
 6776SOL    HW121227   3.340   4.071   2.696
 6776SOL    HW221228   3.245   4.152   2.591
 6777SOL     OW21229   6.148   5.581   6.658
 6777SOL    HW121230   6.083   5.655   6.642
 6777SOL    HW221231   6.133   5.542   6.749
 6778SOL     OW21232   6.231   4.686   2.885
 6778SOL    HW121233   6.306   4.636   2.843
 6778SOL    HW221234   6.254   4.783   2.889
 6779SOL     OW21235   5.427   3.672   5.695
 6779SOL    HW121236   5.413   3.636   5.788
 6779SOL    HW221237   5.416   3.599   5.628
 6780SOL     OW21238   2.839   2.151   3.135
 6780SOL    HW121239   2.888   2.162   3.221
 6780SOL    HW221240   2.903   2.163   3.059
 6781SOL     OW21241   0.321   1.857   3.454
 6781SOL    HW121242   0.398   1.814   3.408
 6781SOL    HW221243   0.239   1.849   3.397
 6782SOL     OW21244   6.642   1.438   2.465
 6782SOL    HW121245   6.618   1.343   2.447
 6782SOL    HW221246   6.638   1.456   2.563
 6783SOL     OW21247   1.576   4.969   5.510
 6783SOL    HW121248   1.597   5.026   5.589
 6783SOL    HW221249   1.643   4.985   5.438
 6784SOL     OW21250   2.270   3.713   1.768
 6784SOL    HW121251   2.225   3.764   1.841
 6784SOL    HW221252   2.292   3.620   1.801
 6785SOL     OW21253   5.344   6.138   5.029
 6785SOL    HW121254   5.382   6.212   5.084
 6785SOL    HW221255   5.404   6.058   5.035
 6786SOL     OW21256   5.700   1.947   6.200
 6786SOL    HW121257   5.707   1.892   6.284
 6786SOL    HW221258   5.774   2.015   6.199
 6787SOL     OW21259   3.842   2.069   6.501
 6787SOL    HW121260   3.808   2.127   6.575
 6787SOL    HW221261   3.928   2.106   6.466
 6788SOL     OW21262   6.777   4.325   2.745
 6788SOL    HW121263   6.712   4.256   2.778
 6788SOL    HW221264   6.863   4.315   2.794
 6789SOL     OW21265   5.769   3.860   3.419
 6789SOL    HW121266   5.705   3.804   3.367
 6789SOL    HW221267   5.719   3.923   3.478
 6790SOL     OW21268   0.601   4.980   6.396
 6790SOL    HW121269   0.648   4.949   6.314
 6790SOL    HW221270   0.542   4.907   6.431
 6791SOL     OW21271   3.346   0.745   3.205
 6791SOL    HW121272   3.350   0.747   3.105
 6791SOL    HW221273   3.351   0.839   3.240
 6792SOL     OW21274   4.029   0.131   5.073
 6792SOL    HW121275   3.975   0.118   4.990
 6792SOL    HW221276   3.976   0.101   5.153
 6793SOL     OW21277   1.848   3.812   6.757
 6793SOL    HW121278   1.876   3.803   6.853
 6793SOL    HW221279   1.765   3.868   6.751
 6794SOL     OW21280   4.947   1.922   5.294
 6794SOL    HW121281   4.972   2.018   5.308
 6794SOL    HW221282   4.883   1.894   5.365
 6795SOL     OW21283   0.905   0.637   1.093
 6795SOL    HW121284   0.873   0.587   1.013
 6795SOL    HW221285   0.910   0.575   1.171
 6796SOL     OW21286   5.943   1.202   2.388
 6796SOL    HW121287   5.880   1.277   2.364
 6796SOL    HW221288   6.030   1.240   2.418
 6797SOL     OW21289   1.048   2.312   1.463
 6797SOL    HW121290   0.994   2.271   1.536
 6797SOL    HW221291   1.048   2.252   1.383
 6798SOL     OW21292   5.668   6.843   1.620
 6798SOL    HW121293   5.697   6.829   1.525
 6798SOL    HW221294   5.635   6.936   1.631
 6799SOL     OW21295   6.710   1.046   3.253
 6799SOL    HW121296   6.689   0.951   3.274
 6799SOL    HW221297   6.697   1.102   3.335
 6800SOL     OW21298   6.815   1.862   1.330
 6800SOL    HW121299   6.870   1.921   1.390
 6800SOL    HW221300   6.729   1.839   1.376
 6801SOL     OW21301   1.035   5.980   6.380
 6801SOL    HW121302   1.000   5.905   6.435
 6801SOL    HW221303   0.972   5.999   6.305
 6802SOL     OW21304   3.376   4.908   2.133
 6802SOL    HW121305   3.285   4.882   2.101
 6802SOL    HW221306   3.444   4.886   2.063
 6803SOL     OW21307   5.346   5.071   5.657
 6803SOL    HW121308   5.361   5.107   5.565
 6803SOL    HW221309   5.331   5.147   5.721
 6804SOL     OW21310   3.657   4.912   3.159
 6804SOL    HW121311   3.707   4.940   3.241
 6804SOL    HW221312   3.565   4.951   3.161
 6805SOL     OW21313   0.022   4.581   4.922
 6805SOL    HW121314   7.014   4.605   4.831
 6805SOL    HW221315   0.122   4.580   4.922
 6806SOL     OW21316   6.695   1.849   2.088
 6806SOL    HW121317   6.782   1.805   2.111
 6806SOL    HW221318   6.708   1.948   2.081
 6807SOL     OW21319   3.105   4.096   2.003
 6807SOL    HW121320   3.069   4.180   1.961
 6807SOL    HW221321   3.197   4.078   1.968
 6808SOL     OW21322   3.238   1.312   4.350
 6808SOL    HW121323   3.186   1.386   4.393
 6808SOL    HW221324   3.264   1.339   4.257
 6809SOL     OW21325   5.753   3.640   0.416
 6809SOL    HW121326   5.760   3.629   0.515
 6809SOL    HW221327   5.668   3.600   0.384
 6810SOL     OW21328   2.604   0.688   4.700
 6810SOL    HW121329   2.537   0.758   4.725
 6810SOL    HW221330   2.678   0.729   4.647
 6811SOL     OW21331   6.450   1.245   0.324
 6811SOL    HW121332   6.502   1.183   0.265
 6811SOL    HW221333   6.478   1.232   0.419
 6812SOL     OW21334   3.726   4.205   5.192
 6812SOL    HW121335   3.680   4.205   5.103
 6812SOL    HW221336   3.825   4.205   5.179
 6813SOL     OW21337   6.331   3.470   1.692
 6813SOL    HW121338   6.400   3.488   1.622
 6813SOL    HW221339   6.370   3.481   1.783
 6814SOL     OW21340   5.118   1.101   6.755
 6814SOL    HW121341   5.097   1.199   6.755
 6814SOL    HW221342   5.217   1.089   6.748
 6815SOL     OW21343   1.380   4.972   6.046
 6815SOL    HW121344   1.344   4.902   5.984
 6815SOL    HW221345   1.353   5.063   6.013
 6816SOL     OW21346   0.204   0.766   3.152
 6816SOL    HW121347   0.142   0.700   3.194
 6816SOL    HW221348   0.182   0.774   3.055
 6817SOL     OW21349   4.143   2.138   1.709
 6817SOL    HW121350   4.046   2.143   1.734
 6817SOL    HW221351   4.190   2.221   1.739
 6818SOL     OW21352   1.782   0.298   5.420
 6818SOL    HW121353   1.720   0.297   5.499
 6818SOL    HW221354   1.733   0.333   5.340
 6819SOL     OW21355   4.834   4.433   1.737
 6819SOL    HW121356   4.753   4.374   1.744
 6819SOL    HW221357   4.874   4.423   1.646
 6820SOL     OW21358   2.992   5.406   2.049
 6820SOL    HW121359   2.941   5.471   1.993
 6820SOL    HW221360   3.087   5.436   2.057
 6821SOL     OW21361   3.908   2.674   5.373
 6821SOL    HW121362   3.978   2.652   5.306
 6821SOL    HW221363   3.818   2.650   5.337
 6822SOL     OW21364   6.266   2.710   6.364
 6822SOL    HW121365   6.270   2.706   6.264
 6822SOL    HW221366   6.358   2.720   6.401
 6823SOL     OW21367   5.749   2.114   5.100
 6823SOL    HW121368   5.696   2.114   5.184
 6823SOL    HW221369   5.742   2.204   5.057
 6824SOL     OW21370   1.212   0.112   5.931
 6824SOL    HW121371   1.293   0.114   5.872
 6824SOL    HW221372   1.241   0.097   6.026
 6825SOL     OW21373   5.534   4.653   0.809
 6825SOL    HW121374   5.534   4.737   0.863
 6825SOL    HW221375   5.540   4.675   0.712
 6826SOL     OW21376   6.516   4.947   4.186
 6826SOL    HW121377   6.488   4.852   4.173
 6826SOL    HW221378   6.538   4.987   4.097
 6827SOL     OW21379   4.483   5.900   4.601
 6827SOL    HW121380   4.440   5.826   4.549
 6827SOL    HW221381   4.560   5.864   4.653
 6828SOL     OW21382   2.808   2.332   2.672
 6828SOL    HW121383   2.901   2.306   2.646
 6828SOL    HW221384   2.796   2.318   2.770
 6829SOL     OW21385   3.875   6.634   3.522
 6829SOL    HW121386   3.831   6.624   3.611
 6829SOL    HW221387   3.973   6.618   3.531
 6830SOL     OW21388   4.853   6.305   3.273
 6830SOL    HW121389   4.893   6.323   3.183
 6830SOL    HW221390   4.924   6.317   3.343
 6831SOL     OW21391   1.597   1.710   6.113
 6831SOL    HW121392   1.615   1.682   6.207
 6831SOL    HW221393   1.523   1.776   6.111
 6832SOL     OW21394   3.049   2.943   0.098
 6832SOL    HW121395   3.017   2.854   0.131
 6832SOL    HW221396   3.147   2.939   0.083
 6833SOL     OW21397   3.565   4.985   5.808
 6833SOL    HW121398   3.589   4.963   5.902
 6833SOL    HW221399   3.556   4.901   5.755
 6834SOL     OW21400   5.690   6.449   0.747
 6834SOL    HW121401   5.787   6.434   0.726
 6834SOL    HW221402   5.673   6.547   0.756
 6835SOL     OW21403   2.854   1.830   5.194
 6835SOL    HW121404   2.855   1.755   5.128
 6835SOL    HW221405   2.942   1.836   5.240
 6836SOL     OW21406   2.373   4.556   6.351
 6836SOL    HW121407   2.374   4.481   6.286
 6836SOL    HW221408   2.466   4.593   6.360
 6837SOL     OW21409   0.725   0.506   1.680
 6837SOL    HW121410   0.763   0.450   1.607
 6837SOL    HW221411   0.662   0.573   1.641
 6838SOL     OW21412   2.899   3.859   5.048
 6838SOL    HW121413   2.826   3.880   5.113
 6838SOL    HW221414   2.861   3.815   4.967
 6839SOL     OW21415   6.320   3.212   4.855
 6839SOL    HW121416   6.306   3.311   4.856
 6839SOL    HW221417   6.232   3.166   4.854
 6840SOL     OW21418   2.221   6.714   4.980
 6840SOL    HW121419   2.254   6.706   4.886
 6840SOL    HW221420   2.121   6.717   4.981
 6841SOL     OW21421   4.667   6.196   0.810
 6841SOL    HW121422   4.639   6.257   0.735
 6841SOL    HW221423   4.605   6.208   0.887
 6842SOL     OW21424   0.510   3.803   5.429
 6842SOL    HW121425   0.423   3.798   5.380
 6842SOL    HW221426   0.500   3.864   5.508
 6843SOL     OW21427   3.912   2.073   2.142
 6843SOL    HW121428   3.855   2.142   2.097
 6843SOL    HW221429   3.922   2.096   2.239
 6844SOL     OW21430   4.386   4.975   4.066
 6844SOL    HW121431   4.453   4.942   3.999
 6844SOL    HW221432   4.309   4.911   4.070
 6845SOL     OW21433   4.532   4.787   1.520
 6845SOL    HW121434   4.499   4.717   1.583
 6845SOL    HW221435   4.455   4.825   1.468
 6846SOL     OW21436   2.974   3.261   3.234
 6846SOL    HW121437   2.959   3.252   3.135
 6846SOL    HW221438   2.886   3.260   3.281
 6847SOL     OW21439   5.751   3.502   2.031
 6847SOL    HW121440   5.823   3.437   2.005
 6847SOL    HW221441   5.684   3.507   1.957
 6848SOL     OW21442   0.649   6.605   3.038
 6848SOL    HW121443   0.628   6.643   2.948
 6848SOL    HW221444   0.729   6.545   3.031
 6849SOL     OW21445   3.378   6.716   3.846
 6849SOL    HW121446   3.344   6.624   3.864
 6849SOL    HW221447   3.397   6.725   3.748
 6850SOL     OW21448   5.395   2.676   2.410
 6850SOL    HW121449   5.418   2.737   2.335
 6850SOL    HW221450   5.399   2.581   2.378
 6851SOL     OW21451   1.087   5.671   5.612
 6851SOL    HW121452   1.171   5.685   5.665
 6851SOL    HW221453   1.106   5.606   5.538
 6852SOL     OW21454   6.838   4.783   2.274
 6852SOL    HW121455   6.906   4.747   2.210
 6852SOL    HW221456   6.872   4.775   2.367
 6853SOL     OW21457   0.939   3.502   5.797
 6853SOL    HW121458   0.976   3.411   5.813
 6853SOL    HW221459   0.993   3.548   5.727
 6854SOL     OW21460   6.381   1.942   6.199
 6854SOL    HW121461   6.284   1.926   6.184
 6854SOL    HW221462   6.428   1.855   6.211
 6855SOL     OW21463   2.752   6.297   1.266
 6855SOL    HW121464   2.691   6.221   1.287
 6855SOL    HW221465   2.847   6.267   1.277
 6856SOL     OW21466   6.769   3.272   4.700
 6856SOL    HW121467   6.842   3.279   4.767
 6856SOL    HW221468   6.708   3.351   4.708
 6857SOL     OW21469   4.158   1.630   5.679
 6857SOL    HW121470   4.094   1.707   5.678
 6857SOL    HW221471   4.123   1.556   5.623
 6858SOL     OW21472   3.907   3.570   4.616
 6858SOL    HW121473   3.853   3.584   4.533
 6858SOL    HW221474   3.861   3.612   4.694
 6859SOL     OW21475   3.988   0.055   0.727
 6859SOL    HW121476   3.900   0.009   0.735
 6859SOL    HW221477   3.980   0.132   0.663
 6860SOL     OW21478   5.115   3.263   6.721
 6860SOL    HW121479   5.174   3.190   6.756
 6860SOL    HW221480   5.035   3.224   6.676
 6861SOL     OW21481   6.433   4.841   0.173
 6861SOL    HW121482   6.468   4.893   0.095
 6861SOL    HW221483   6.461   4.885   0.258
 6862SOL     OW21484   3.314   5.619   3.896
 6862SOL    HW121485   3.317   5.594   3.992
 6862SOL    HW221486   3.406   5.610   3.856
 6863SOL     OW21487   5.791   2.645   3.916
 6863SOL    HW121488   5.734   2.695   3.981
 6863SOL    HW221489   5.736   2.615   3.839
 6864SOL     OW21490   3.964   6.185   5.162
 6864SOL    HW121491   4.022   6.115   5.120
 6864SOL    HW221492   4.011   6.224   5.241
 6865SOL     OW21493   6.489   4.850   3.913
 6865SOL    HW121494   6.415   4.784   3.899
 6865SOL    HW221495   6.569   4.803   3.950
 6866SOL     OW21496   0.005   2.961   2.266
 6866SOL    HW121497   6.997   2.885   2.209
 6866SOL    HW221498   0.071   3.015   2.214
 6867SOL     OW21499   1.766   4.275   2.775
 6867SOL    HW121500   1.817   4.189   2.762
 6867SOL    HW221501   1.751   4.290   2.873
 6868SOL     OW21502   1.925   5.448   5.351
 6868SOL    HW121503   1.916   5.547   5.362
 6868SOL    HW221504   1.874   5.403   5.424
 6869SOL     OW21505   5.736   3.560   5.412
 6869SOL    HW121506   5.716   3.606   5.325
 6869SOL    HW221507   5.765   3.466   5.394
 6870SOL     OW21508   5.726   3.576   2.761
 6870SOL    HW121509   5.784   3.526   2.825
 6870SOL    HW221510   5.631   3.546   2.770
 6871SOL     OW21511   5.055   5.641   1.185
 6871SOL    HW121512   4.993   5.586   1.240
 6871SOL    HW221513   5.023   5.642   1.090
 6872SOL     OW21514   2.168   3.694   6.269
 6872SOL    HW121515   2.176   3.633   6.190
 6872SOL    HW221516   2.235   3.668   6.338
 6873SOL     OW21517   5.563   3.359   5.689
 6873SOL    HW121518   5.586   3.325   5.598
 6873SOL    HW221519   5.500   3.296   5.734
 6874SOL     OW21520   0.602   2.496   5.404
 6874SOL    HW121521   0.680   2.549   5.438
 6874SOL    HW221522   0.517   2.537   5.436
 6875SOL     OW21523   2.471   1.820   4.002
 6875SOL    HW121524   2.431   1.771   3.924
 6875SOL    HW221525   2.406   1.886   4.037
 6876SOL     OW21526   4.066   6.144   6.874
 6876SOL    HW121527   4.124   6.085   6.818
 6876SOL    HW221528   4.093   6.239   6.862
 6877SOL     OW21529   2.374   4.128   7.011
 6877SOL    HW121530   2.381   4.162   6.917
 6877SOL    HW221531   2.455   4.157   0.038
 6878SOL     OW21532   1.844   1.665   5.349
 6878SOL    HW121533   1.794   1.595   5.299
 6878SOL    HW221534   1.787   1.747   5.358
 6879SOL     OW21535   1.589   2.355   6.571
 6879SOL    HW121536   1.609   2.347   6.474
 6879SOL    HW221537   1.530   2.434   6.587
 6880SOL     OW21538   1.987   4.059   5.073
 6880SOL    HW121539   2.019   3.978   5.123
 6880SOL    HW221540   1.965   4.033   4.979
 6881SOL     OW21541   6.796   4.386   1.929
 6881SOL    HW121542   6.871   4.334   1.889
 6881SOL    HW221543   6.832   4.453   1.994
 6882SOL     OW21544   1.962   0.226   5.672
 6882SOL    HW121545   2.032   0.296   5.690
 6882SOL    HW221546   1.907   0.253   5.594
 6883SOL     OW21547   3.854   6.676   1.152
 6883SOL    HW121548   3.801   6.741   1.097
 6883SOL    HW221549   3.928   6.725   1.199
 6884SOL     OW21550   2.224   4.846   4.180
 6884SOL    HW121551   2.153   4.902   4.224
 6884SOL    HW221552   2.235   4.760   4.231
 6885SOL     OW21553   3.089   5.685   4.740
 6885SOL    HW121554   3.128   5.763   4.693
 6885SOL    HW221555   3.159   5.615   4.753
 6886SOL     OW21556   5.893   1.396   2.762
 6886SOL    HW121557   5.848   1.352   2.840
 6886SOL    HW221558   5.829   1.458   2.718
 6887SOL     OW21559   6.051   0.741   4.586
 6887SOL    HW121560   6.098   0.663   4.627
 6887SOL    HW221561   5.996   0.710   4.508
 6888SOL     OW21562   5.284   6.726   4.811
 6888SOL    HW121563   5.336   6.804   4.845
 6888SOL    HW221564   5.257   6.742   4.717
 6889SOL     OW21565   1.639   4.477   5.895
 6889SOL    HW121566   1.675   4.393   5.854
 6889SOL    HW221567   1.663   4.555   5.837
 6890SOL     OW21568   2.199   0.109   1.392
 6890SOL    HW121569   2.116   0.111   1.337
 6890SOL    HW221570   2.176   0.090   1.487
 6891SOL     OW21571   1.584   4.675   4.123
 6891SOL    HW121572   1.576   4.606   4.195
 6891SOL    HW221573   1.493   4.710   4.101
 6892SOL     OW21574   3.438   0.881   3.950
 6892SOL    HW121575   3.459   0.976   3.972
 6892SOL    HW221576   3.445   0.825   4.033
 6893SOL     OW21577   4.630   5.431   2.655
 6893SOL    HW121578   4.543   5.480   2.645
 6893SOL    HW221579   4.702   5.483   2.608
 6894SOL     OW21580   6.613   4.692   6.420
 6894SOL    HW121581   6.594   4.776   6.370
 6894SOL    HW221582   6.637   4.619   6.356
 6895SOL     OW21583   3.254   5.437   6.819
 6895SOL    HW121584   3.160   5.413   6.843
 6895SOL    HW221585   3.286   5.511   6.878
 6896SOL     OW21586   3.751   0.454   3.233
 6896SOL    HW121587   3.710   0.536   3.272
 6896SOL    HW221588   3.705   0.373   3.271
 6897SOL     OW21589   3.046   3.423   0.287
 6897SOL    HW121590   3.098   3.456   0.209
 6897SOL    HW221591   3.013   3.330   0.269
 6898SOL     OW21592   4.141   2.241   2.057
 6898SOL    HW121593   4.058   2.185   2.049
 6898SOL    HW221594   4.159   2.286   1.970
 6899SOL     OW21595   4.854   5.910   6.540
 6899SOL    HW121596   4.934   5.849   6.539
 6899SOL    HW221597   4.885   6.005   6.536
 6900SOL     OW21598   4.882   0.541   6.220
 6900SOL    HW121599   4.959   0.513   6.277
 6900SOL    HW221600   4.899   0.632   6.183
 6901SOL     OW21601   1.490   0.516   6.334
 6901SOL    HW121602   1.559   0.568   6.284
 6901SOL    HW221603   1.445   0.576   6.401
 6902SOL     OW21604   6.419   6.106   0.864
 6902SOL    HW121605   6.468   6.099   0.777
 6902SOL    HW221606   6.333   6.057   0.857
 6903SOL     OW21607   4.349   4.204   0.893
 6903SOL    HW121608   4.287   4.250   0.829
 6903SOL    HW221609   4.315   4.216   0.987
 6904SOL     OW21610   7.014   1.318   3.043
 6904SOL    HW121611   6.920   1.304   3.013
 6904SOL    HW221612   7.015   1.383   3.120
 6905SOL     OW21613   5.773   6.015   1.082
 6905SOL    HW121614   5.743   6.104   1.117
 6905SOL    HW221615   5.767   5.947   1.154
 6906SOL     OW21616   4.170   0.856   3.378
 6906SOL    HW121617   4.164   0.757   3.359
 6906SOL    HW221618   4.079   0.890   3.402
 6907SOL     OW21619   3.803   1.272   1.751
 6907SOL    HW121620   3.748   1.273   1.834
 6907SOL    HW221621   3.884   1.215   1.764
 6908SOL     OW21622   1.393   6.870   5.823
 6908SOL    HW121623   1.483   6.881   5.866
 6908SOL    HW221624   1.321   6.874   5.892
 6909SOL     OW21625   4.426   3.845   6.688
 6909SOL    HW121626   4.359   3.892   6.630
 6909SOL    HW221627   4.389   3.834   6.780
 6910SOL     OW21628   6.249   1.350   1.709
 6910SOL    HW121629   6.258   1.254   1.738
 6910SOL    HW221630   6.202   1.402   1.780
 6911SOL     OW21631   3.973   1.366   4.865
 6911SOL    HW121632   3.983   1.453   4.815
 6911SOL    HW221633   4.039   1.364   4.940
 6912SOL     OW21634   5.227   5.077   0.046
 6912SOL    HW121635   5.245   5.175   0.033
 6912SOL    HW221636   5.147   5.066   0.104
 6913SOL     OW21637   5.444   4.896   4.914
 6913SOL    HW121638   5.405   4.940   4.995
 6913SOL    HW221639   5.540   4.922   4.905
 6914SOL     OW21640   6.313   4.936   0.655
 6914SOL    HW121641   6.214   4.925   0.662
 6914SOL    HW221642   6.358   4.847   0.657
 6915SOL     OW21643   0.554   5.140   2.919
 6915SOL    HW121644   0.635   5.198   2.929
 6915SOL    HW221645   0.483   5.172   2.982
 6916SOL     OW21646   6.303   2.381   6.852
 6916SOL    HW121647   6.206   2.403   6.845
 6916SOL    HW221648   6.343   2.430   6.929
 6917SOL     OW21649   4.415   5.756   6.211
 6917SOL    HW121650   4.357   5.830   6.247
 6917SOL    HW221651   4.509   5.769   6.244
 6918SOL     OW21652   0.367   3.335   3.717
 6918SOL    HW121653   0.309   3.255   3.703
 6918SOL    HW221654   0.455   3.321   3.671
 6919SOL     OW21655   2.005   6.279   3.132
 6919SOL    HW121656   2.020   6.251   3.226
 6919SOL    HW221657   2.093   6.282   3.083
 6920SOL     OW21658   4.781   6.416   4.293
 6920SOL    HW121659   4.783   6.471   4.210
 6920SOL    HW221660   4.763   6.321   4.270
 6921SOL     OW21661   0.670   1.145   3.576
 6921SOL    HW121662   0.718   1.188   3.501
 6921SOL    HW221663   0.694   1.190   3.662
 6922SOL     OW21664   2.592   6.618   0.677
 6922SOL    HW121665   2.499   6.595   0.705
 6922SOL    HW221666   2.604   6.718   0.681
 6923SOL     OW21667   4.791   0.554   3.878
 6923SOL    HW121668   4.724   0.625   3.857
 6923SOL    HW221669   4.763   0.468   3.834
 6924SOL     OW21670   0.211   5.347   1.593
 6924SOL    HW121671   0.228   5.350   1.495
 6924SOL    HW221672   0.258   5.268   1.633
 6925SOL     OW21673   4.577   5.742   2.858
 6925SOL    HW121674   4.528   5.777   2.937
 6925SOL    HW221675   4.513   5.698   2.795
 6926SOL     OW21676   3.542   3.089   4.619
 6926SOL    HW121677   3.446   3.066   4.609
 6926SOL    HW221678   3.596   3.037   4.553
 6927SOL     OW21679   4.730   4.104   5.771
 6927SOL    HW121680   4.688   4.187   5.809
 6927SOL    HW221681   4.659   4.035   5.758
 6928SOL     OW21682   5.770   0.548   6.419
 6928SOL    HW121683   5.820   0.536   6.505
 6928SOL    HW221684   5.718   0.633   6.422
 6929SOL     OW21685   4.170   5.331   0.239
 6929SOL    HW121686   4.245   5.388   0.205
 6929SOL    HW221687   4.204   5.266   0.306
 6930SOL     OW21688   0.749   0.145   4.097
 6930SOL    HW121689   0.731   0.233   4.053
 6930SOL    HW221690   0.794   0.085   4.031
 6931SOL     OW21691   1.765   1.496   1.662
 6931SOL    HW121692   1.763   1.476   1.564
 6931SOL    HW221693   1.722   1.422   1.712
 6932SOL     OW21694   2.879   1.791   0.946
 6932SOL    HW121695   2.954   1.744   0.994
 6932SOL    HW221696   2.814   1.724   0.911
 6933SOL     OW21697   4.014   5.511   5.641
 6933SOL    HW121698   4.058   5.519   5.731
 6933SOL    HW221699   3.928   5.461   5.650
 6934SOL     OW21700   4.983   3.146   0.108
 6934SOL    HW121701   4.896   3.107   0.139
 6934SOL    HW221702   4.971   3.182   0.015
 6935SOL     OW21703   4.230   5.586   3.250
 6935SOL    HW121704   4.227   5.531   3.166
 6935SOL    HW221705   4.170   5.544   3.318
 6936SOL     OW21706   0.942   3.984   1.584
 6936SOL    HW121707   0.952   4.082   1.569
 6936SOL    HW221708   1.033   3.942   1.594
 6937SOL     OW21709   4.272   6.964   5.218
 6937SOL    HW121710   4.257   6.880   5.269
 6937SOL    HW221711   4.298   0.012   5.282
 6938SOL     OW21712   5.171   2.820   4.975
 6938SOL    HW121713   5.179   2.882   5.053
 6938SOL    HW221714   5.075   2.815   4.946
 6939SOL     OW21715   0.181   4.119   2.676
 6939SOL    HW121716   0.139   4.140   2.588
 6939SOL    HW221717   0.278   4.143   2.674
 6940SOL     OW21718   5.434   0.541   5.396
 6940SOL    HW121719   5.411   0.638   5.404
 6940SOL    HW221720   5.357   0.491   5.357
 6941SOL     OW21721   4.041   3.811   3.916
 6941SOL    HW121722   4.076   3.718   3.922
 6941SOL    HW221723   4.043   3.854   4.006
 6942SOL     OW21724   6.902   2.237   6.796
 6942SOL    HW121725   6.820   2.233   6.854
 6942SOL    HW221726   6.878   2.274   6.707
 6943SOL     OW21727   5.175   5.433   6.600
 6943SOL    HW121728   5.223   5.416   6.514
 6943SOL    HW221729   5.219   5.381   6.674
 6944SOL     OW21730   1.352   5.539   6.225
 6944SOL    HW121731   1.299   5.614   6.264
 6944SOL    HW221732   1.379   5.475   6.297
 6945SOL     OW21733   6.348   2.967   5.785
 6945SOL    HW121734   6.400   2.922   5.857
 6945SOL    HW221735   6.390   3.056   5.764
 6946SOL     OW21736   5.472   3.973   2.717
 6946SOL    HW121737   5.533   3.964   2.797
 6946SOL    HW221738   5.500   4.052   2.663
 6947SOL     OW21739   3.788   6.517   3.269
 6947SOL    HW121740   3.800   6.496   3.366
 6947SOL    HW221741   3.859   6.581   3.239
 6948SOL     OW21742   4.840   0.824   5.469
 6948SOL    HW121743   4.831   0.751   5.401
 6948SOL    HW221744   4.793   0.797   5.553
 6949SOL     OW21745   5.181   0.163   2.746
 6949SOL    HW121746   5.240   0.243   2.731
 6949SOL    HW221747   5.125   0.147   2.665
 6950SOL     OW21748   2.267   0.651   3.143
 6950SOL    HW121749   2.172   0.627   3.164
 6950SOL    HW221750   2.319   0.657   3.228
 6951SOL     OW21751   6.317   5.552   6.058
 6951SOL    HW121752   6.311   5.480   5.989
 6951SOL    HW221753   6.241   5.544   6.122
 6952SOL     OW21754   0.593   5.133   5.509
 6952SOL    HW121755   0.529   5.197   5.468
 6952SOL    HW221756   0.570   5.040   5.480
 6953SOL     OW21757   4.550   1.074   5.408
 6953SOL    HW121758   4.564   1.066   5.309
 6953SOL    HW221759   4.489   1.001   5.439
 6954SOL     OW21760   6.727   3.640   3.571
 6954SOL    HW121761   6.762   3.665   3.661
 6954SOL    HW221762   6.781   3.565   3.533
 6955SOL     OW21763   6.365   5.519   1.606
 6955SOL    HW121764   6.308   5.474   1.537
 6955SOL    HW221765   6.406   5.450   1.666
 6956SOL     OW21766   4.201   5.185   1.191
 6956SOL    HW121767   4.258   5.244   1.247
 6956SOL    HW221768   4.258   5.113   1.150
 6957SOL     OW21769   0.359   4.542   1.867
 6957SOL    HW121770   0.423   4.517   1.940
 6957SOL    HW221771   0.327   4.635   1.880
 6958SOL     OW21772   3.130   3.054   6.344
 6958SOL    HW121773   3.063   3.126   6.364
 6958SOL    HW221774   3.137   2.992   6.423
 6959SOL     OW21775   3.243   1.633   4.584
 6959SOL    HW121776   3.323   1.631   4.523
 6959SOL    HW221777   3.173   1.572   4.549
 6960SOL     OW21778   0.815   4.636   6.491
 6960SOL    HW121779   0.715   4.643   6.482
 6960SOL    HW221780   0.837   4.579   6.571
 6961SOL     OW21781   1.123   0.794   3.312
 6961SOL    HW121782   1.166   0.765   3.226
 6961SOL    HW221783   1.095   0.890   3.304
 6962SOL     OW21784   5.134   4.168   1.463
 6962SOL    HW121785   5.151   4.081   1.418
 6962SOL    HW221786   5.074   4.154   1.542
 6963SOL     OW21787   6.911   4.749   1.743
 6963SOL    HW121788   6.983   4.737   1.674
 6963SOL    HW221789   6.849   4.671   1.739
 6964SOL     OW21790   4.374   5.345   5.000
 6964SOL    HW121791   4.317   5.423   4.975
 6964SOL    HW221792   4.469   5.366   4.977
 6965SOL     OW21793   0.085   3.051   5.591
 6965SOL    HW121794   0.024   3.128   5.601
 6965SOL    HW221795   0.180   3.081   5.606
 6966SOL     OW21796   4.700   2.364   3.217
 6966SOL    HW121797   4.652   2.277   3.206
 6966SOL    HW221798   4.710   2.385   3.314
 6967SOL     OW21799   1.293   1.208   6.023
 6967SOL    HW121800   1.216   1.234   6.081
 6967SOL    HW221801   1.332   1.289   5.981
 6968SOL     OW21802   5.094   5.790   1.850
 6968SOL    HW121803   5.161   5.722   1.818
 6968SOL    HW221804   5.131   5.882   1.836
 6969SOL     OW21805   3.155   1.892   0.666
 6969SOL    HW121806   3.181   1.909   0.571
 6969SOL    HW221807   3.067   1.844   0.668
 6970SOL     OW21808   5.554   4.047   0.359
 6970SOL    HW121809   5.525   3.991   0.436
 6970SOL    HW221810   5.474   4.078   0.308
 6971SOL     OW21811   5.494   1.268   1.445
 6971SOL    HW121812   5.395   1.253   1.438
 6971SOL    HW221813   5.521   1.340   1.381
 6972SOL     OW21814   5.409   4.978   3.795
 6972SOL    HW121815   5.331   4.922   3.765
 6972SOL    HW221816   5.427   4.962   3.892
 6973SOL     OW21817   2.022   4.223   3.495
 6973SOL    HW121818   2.036   4.257   3.402
 6973SOL    HW221819   2.074   4.138   3.507
 6974SOL     OW21820   3.343   3.628   4.412
 6974SOL    HW121821   3.318   3.638   4.316
 6974SOL    HW221822   3.406   3.700   4.439
 6975SOL     OW21823   4.358   0.693   5.718
 6975SOL    HW121824   4.437   0.735   5.762
 6975SOL    HW221825   4.372   0.595   5.710
 6976SOL     OW21826   2.265   4.864   6.721
 6976SOL    HW121827   2.184   4.870   6.663
 6976SOL    HW221828   2.251   4.916   6.805
 6977SOL     OW21829   3.415   1.590   2.835
 6977SOL    HW121830   3.357   1.510   2.853
 6977SOL    HW221831   3.388   1.632   2.748
 6978SOL     OW21832   0.348   0.233   1.915
 6978SOL    HW121833   0.360   0.196   1.823
 6978SOL    HW221834   0.256   0.271   1.924
 6979SOL     OW21835   0.592   4.913   2.623
 6979SOL    HW121836   0.540   4.942   2.703
 6979SOL    HW221837   0.676   4.968   2.616
 6980SOL     OW21838   2.555   1.136   4.359
 6980SOL    HW121839   2.489   1.062   4.361
 6980SOL    HW221840   2.574   1.162   4.265
 6981SOL     OW21841   1.931   5.429   0.252
 6981SOL    HW121842   1.861   5.449   0.320
 6981SOL    HW221843   1.897   5.359   0.188
 6982SOL     OW21844   0.430   6.883   4.873
 6982SOL    HW121845   0.508   6.944   4.887
 6982SOL    HW221846   0.399   6.890   4.778
 6983SOL     OW21847   6.830   0.510   4.085
 6983SOL    HW121848   6.761   0.542   4.149
 6983SOL    HW221849   6.803   0.420   4.049
 6984SOL     OW21850   2.103   1.321   5.908
 6984SOL    HW121851   2.158   1.240   5.926
 6984SOL    HW221852   2.011   1.307   5.943
 6985SOL     OW21853   4.923   5.855   2.236
 6985SOL    HW121854   4.912   5.762   2.200
 6985SOL    HW221855   5.021   5.875   2.247
 6986SOL     OW21856   2.316   6.384   6.217
 6986SOL    HW121857   2.298   6.463   6.275
 6986SOL    HW221858   2.412   6.357   6.226
 6987SOL     OW21859   0.583   3.681   6.581
 6987SOL    HW121860   0.539   3.652   6.496
 6987SOL    HW221861   0.585   3.780   6.586
 6988SOL     OW21862   5.306   1.594   3.615
 6988SOL    HW121863   5.292   1.495   3.612
 6988SOL    HW221864   5.345   1.624   3.528
 6989SOL     OW21865   1.391   1.935   3.451
 6989SOL    HW121866   1.454   1.882   3.508
 6989SOL    HW221867   1.386   2.029   3.485
 6990SOL     OW21868   3.429   3.148   0.471
 6990SOL    HW121869   3.340   3.105   0.482
 6990SOL    HW221870   3.418   3.247   0.470
 6991SOL     OW21871   3.057   4.602   5.921
 6991SOL    HW121872   2.966   4.635   5.897
 6991SOL    HW221873   3.087   4.646   6.006
 6992SOL     OW21874   5.597   6.670   3.805
 6992SOL    HW121875   5.522   6.677   3.871
 6992SOL    HW221876   5.621   6.762   3.772
 6993SOL     OW21877   0.357   0.074   2.913
 6993SOL    HW121878   0.269   0.081   2.866
 6993SOL    HW221879   0.416   0.150   2.886
 6994SOL     OW21880   1.978   3.418   6.439
 6994SOL    HW121881   2.042   3.347   6.408
 6994SOL    HW221882   1.903   3.425   6.374
 6995SOL     OW21883   5.812   5.412   3.339
 6995SOL    HW121884   5.866   5.494   3.356
 6995SOL    HW221885   5.733   5.435   3.282
 6996SOL     OW21886   2.657   0.640   5.394
 6996SOL    HW121887   2.654   0.694   5.478
 6996SOL    HW221888   2.564   0.626   5.360
 6997SOL     OW21889   4.781   6.984   4.759
 6997SOL    HW121890   4.684   7.005   4.749
 6997SOL    HW221891   4.819   0.011   4.835
 6998SOL     OW21892   1.142   3.138   2.751
 6998SOL    HW121893   1.139   3.086   2.666
 6998SOL    HW221894   1.104   3.229   2.736
 6999SOL     OW21895   3.109   1.641   5.751
 6999SOL    HW121896   3.108   1.634   5.651
 6999SOL    HW221897   3.137   1.733   5.777
 7000SOL     OW21898   0.893   6.413   2.209
 7000SOL    HW121899   0.934   6.330   2.247
 7000SOL    HW221900   0.964   6.483   2.198
 7001SOL     OW21901   2.419   3.238   5.827
 7001SOL    HW121902   2.466   3.326   5.820
 7001SOL    HW221903   2.373   3.218   5.741
 7002SOL     OW21904   0.988   5.073   3.336
 7002SOL    HW121905   1.048   5.030   3.269
 7002SOL    HW221906   1.024   5.058   3.428
 7003SOL     OW21907   3.023   6.506   0.992
 7003SOL    HW121908   3.096   6.559   0.950
 7003SOL    HW221909   2.955   6.482   0.923
 7004SOL     OW21910   1.415   3.946   1.053
 7004SOL    HW121911   1.360   3.864   1.036
 7004SOL    HW221912   1.506   3.933   1.013
 7005SOL     OW21913   5.241   6.001   6.691
 7005SOL    HW121914   5.240   6.098   6.715
 7005SOL    HW221915   5.231   5.991   6.592
 7006SOL     OW21916   4.669   4.455   5.019
 7006SOL    HW121917   4.692   4.509   5.100
 7006SOL    HW221918   4.570   4.460   5.003
 7007SOL     OW21919   4.319   6.027   3.529
 7007SOL    HW121920   4.306   5.932   3.500
 7007SOL    HW221921   4.319   6.086   3.448
 7008SOL     OW21922   1.549   5.185   3.796
 7008SOL    HW121923   1.549   5.090   3.767
 7008SOL    HW221924   1.509   5.193   3.887
 7009SOL     OW21925   0.299   4.824   2.328
 7009SOL    HW121926   0.386   4.794   2.368
 7009SOL    HW221927   0.264   4.902   2.380
 7010SOL     OW21928   3.738   5.007   6.314
 7010SOL    HW121929   3.789   4.922   6.303
 7010SOL    HW221930   3.640   4.989   6.299
 7011SOL     OW21931   3.057   0.339   5.778
 7011SOL    HW121932   3.045   0.416   5.841
 7011SOL    HW221933   3.067   0.373   5.685
 7012SOL     OW21934   1.710   0.549   1.773
 7012SOL    HW121935   1.639   0.570   1.839
 7012SOL    HW221936   1.669   0.530   1.684
 7013SOL     OW21937   1.198   6.971   1.708
 7013SOL    HW121938   1.190   6.874   1.733
 7013SOL    HW221939   1.220   6.978   1.611
 7014SOL     OW21940   3.105   4.124   1.060
 7014SOL    HW121941   3.007   4.114   1.075
 7014SOL    HW221942   3.155   4.074   1.131
 7015SOL     OW21943   5.044   2.440   2.424
 7015SOL    HW121944   4.956   2.424   2.379
 7015SOL    HW221945   5.035   2.516   2.488
 7016SOL     OW21946   4.308   4.865   1.424
 7016SOL    HW121947   4.244   4.819   1.485
 7016SOL    HW221948   4.280   4.851   1.329
 7017SOL     OW21949   2.824   1.740   3.359
 7017SOL    HW121950   2.895   1.697   3.415
 7017SOL    HW221951   2.796   1.826   3.400
 7018SOL     OW21952   0.646   4.814   4.922
 7018SOL    HW121953   0.676   4.772   5.007
 7018SOL    HW221954   0.623   4.742   4.856
 7019SOL     OW21955   2.705   5.759   7.020
 7019SOL    HW121956   2.728   5.664   0.016
 7019SOL    HW221957   2.674   5.805   0.079
 7020SOL     OW21958   6.214   6.558   6.668
 7020SOL    HW121959   6.206   6.620   6.746
 7020SOL    HW221960   6.264   6.603   6.594
 7021SOL     OW21961   2.469   1.016   6.071
 7021SOL    HW121962   2.566   1.040   6.080
 7021SOL    HW221963   2.459   0.917   6.064
 7022SOL     OW21964   5.445   4.102   6.933
 7022SOL    HW121965   5.511   4.173   6.908
 7022SOL    HW221966   5.448   4.029   6.865
 7023SOL     OW21967   6.384   3.581   2.116
 7023SOL    HW121968   6.450   3.606   2.187
 7023SOL    HW221969   6.345   3.664   2.076
 7024SOL     OW21970   1.394   5.933   0.485
 7024SOL    HW121971   1.375   6.004   0.552
 7024SOL    HW221972   1.463   5.965   0.420
 7025SOL     OW21973   2.876   2.755   6.889
 7025SOL    HW121974   2.952   2.741   6.826
 7025SOL    HW221975   2.832   2.843   6.870
 7026SOL     OW21976   4.041   1.453   1.155
 7026SOL    HW121977   4.020   1.508   1.236
 7026SOL    HW221978   4.112   1.499   1.102
 7027SOL     OW21979   3.903   6.326   4.331
 7027SOL    HW121980   3.870   6.253   4.271
 7027SOL    HW221981   4.000   6.311   4.352
 7028SOL     OW21982   4.145   6.310   3.746
 7028SOL    HW121983   4.210   6.340   3.675
 7028SOL    HW221984   4.086   6.239   3.708
 7029SOL     OW21985   3.378   0.167   6.806
 7029SOL    HW121986   3.353   0.142   6.713
 7029SOL    HW221987   3.343   0.097   6.869
 7030SOL     OW21988   0.426   3.733   4.648
 7030SOL    HW121989   0.367   3.780   4.583
 7030SOL    HW221990   0.520   3.734   4.614
 7031SOL     OW21991   1.574   5.681   4.362
 7031SOL    HW121992   1.666   5.703   4.328
 7031SOL    HW221993   1.571   5.585   4.390
 7032SOL     OW21994   6.246   0.830   2.474
 7032SOL    HW121995   6.170   0.789   2.525
 7032SOL    HW221996   6.214   0.913   2.427
 7033SOL     OW21997   0.060   1.270   3.543
 7033SOL    HW121998   0.093   1.251   3.450
 7033SOL    HW221999   0.112   1.215   3.608
 7034SOL     OW22000   6.538   0.063   2.792
 7034SOL    HW122001   6.569   0.096   2.881
 7034SOL    HW222002   6.572   0.122   2.720
 7035SOL     OW22003   6.788   5.756   2.521
 7035SOL    HW122004   6.800   5.814   2.440
 7035SOL    HW222005   6.816   5.808   2.602
 7036SOL     OW22006   6.975   5.267   2.215
 7036SOL    HW122007   7.003   5.278   2.311
 7036SOL    HW222008   6.885   5.308   2.202
 7037SOL     OW22009   1.361   6.323   5.926
 7037SOL    HW122010   1.413   6.392   5.877
 7037SOL    HW222011   1.372   6.234   5.881
 7038SOL     OW22012   0.906   4.614   4.185
 7038SOL    HW122013   0.821   4.627   4.135
 7038SOL    HW222014   0.958   4.700   4.187
 7039SOL     OW22015   3.627   1.204   6.005
 7039SOL    HW122016   3.724   1.205   5.979
 7039SOL    HW222017   3.576   1.149   5.939
 7040SOL     OW22018   4.997   2.414   6.475
 7040SOL    HW122019   5.010   2.396   6.377
 7040SOL    HW222020   5.001   2.328   6.526
 7041SOL     OW22021   1.649   2.058   3.246
 7041SOL    HW122022   1.683   1.997   3.174
 7041SOL    HW222023   1.578   2.011   3.298
 7042SOL     OW22024   3.692   6.023   6.143
 7042SOL    HW122025   3.607   5.971   6.151
 7042SOL    HW222026   3.720   6.056   6.233
 7043SOL     OW22027   2.513   1.853   3.175
 7043SOL    HW122028   2.470   1.773   3.133
 7043SOL    HW222029   2.612   1.846   3.165
 7044SOL     OW22030   4.442   5.095   2.733
 7044SOL    HW122031   4.504   5.123   2.807
 7044SOL    HW222032   4.487   5.109   2.645
 7045SOL     OW22033   5.685   5.628   1.151
 7045SOL    HW122034   5.705   5.706   1.210
 7045SOL    HW222035   5.739   5.635   1.067
 7046SOL     OW22036   3.857   0.821   4.475
 7046SOL    HW122037   3.769   0.774   4.488
 7046SOL    HW222038   3.862   0.854   4.380
 7047SOL     OW22039   1.144   1.091   4.500
 7047SOL    HW122040   1.160   0.994   4.479
 7047SOL    HW222041   1.072   1.126   4.441
 7048SOL     OW22042   6.519   5.929   0.593
 7048SOL    HW122043   6.483   5.882   0.512
 7048SOL    HW222044   6.606   5.973   0.570
 7049SOL     OW22045   2.366   1.308   0.617
 7049SOL    HW122046   2.298   1.242   0.587
 7049SOL    HW222047   2.438   1.261   0.668
 7050SOL     OW22048   3.050   3.979   4.805
 7050SOL    HW122049   3.091   4.018   4.887
 7050SOL    HW222050   2.990   3.902   4.830
 7051SOL     OW22051   0.160   0.212   1.703
 7051SOL    HW122052   0.114   0.290   1.745
 7051SOL    HW222053   0.108   0.181   1.624
 7052SOL     OW22054   0.240   2.326   3.858
 7052SOL    HW122055   0.270   2.412   3.817
 7052SOL    HW222056   0.300   2.302   3.935
 7053SOL     OW22057   0.635   4.192   6.785
 7053SOL    HW122058   0.614   4.284   6.752
 7053SOL    HW222059   0.549   4.141   6.797
 7054SOL     OW22060   6.252   6.297   1.892
 7054SOL    HW122061   6.268   6.220   1.954
 7054SOL    HW222062   6.329   6.305   1.828
 7055SOL     OW22063   4.505   0.594   4.102
 7055SOL    HW122064   4.589   0.643   4.077
 7055SOL    HW222065   4.428   0.632   4.052
 7056SOL     OW22066   5.440   5.002   3.529
 7056SOL    HW122067   5.423   5.037   3.621
 7056SOL    HW222068   5.355   4.965   3.491
 7057SOL     OW22069   6.902   5.713   3.666
 7057SOL    HW122070   6.919   5.800   3.713
 7057SOL    HW222071   6.818   5.719   3.612
 7058SOL     OW22072   0.936   5.318   5.991
 7058SOL    HW122073   0.882   5.395   5.959
 7058SOL    HW222074   0.993   5.347   6.068
 7059SOL     OW22075   1.333   0.309   2.420
 7059SOL    HW122076   1.248   0.330   2.469
 7059SOL    HW222077   1.363   0.217   2.444
 7060SOL     OW22078   3.451   6.244   1.599
 7060SOL    HW122079   3.515   6.305   1.551
 7060SOL    HW222080   3.386   6.206   1.533
 7061SOL     OW22081   0.615   0.779   3.084
 7061SOL    HW122082   0.629   0.784   2.985
 7061SOL    HW222083   0.703   0.780   3.130
 7062SOL     OW22084   5.494   1.808   5.112
 7062SOL    HW122085   5.407   1.779   5.071
 7062SOL    HW222086   5.477   1.848   5.202
 7063SOL     OW22087   1.942   6.479   1.630
 7063SOL    HW122088   1.924   6.383   1.608
 7063SOL    HW222089   1.888   6.537   1.570
 7064SOL     OW22090   3.753   2.168   1.439
 7064SOL    HW122091   3.714   2.112   1.512
 7064SOL    HW222092   3.751   2.264   1.465
 7065SOL     OW22093   4.504   3.767   1.642
 7065SOL    HW122094   4.577   3.740   1.579
 7065SOL    HW222095   4.515   3.863   1.666
 7066SOL     OW22096   4.225   6.826   0.264
 7066SOL    HW122097   4.184   6.737   0.284
 7066SOL    HW222098   4.324   6.816   0.254
 7067SOL     OW22099   0.669   3.849   5.709
 7067SOL    HW122100   0.732   3.890   5.775
 7067SOL    HW222101   0.637   3.919   5.646
 7068SOL     OW22102   1.431   1.496   3.438
 7068SOL    HW122103   1.486   1.462   3.362
 7068SOL    HW222104   1.412   1.420   3.501
 7069SOL     OW22105   0.434   4.300   5.732
 7069SOL    HW122106   0.525   4.339   5.718
 7069SOL    HW222107   0.409   4.308   5.829
 7070SOL     OW22108   6.482   4.696   5.223
 7070SOL    HW122109   6.531   4.736   5.145
 7070SOL    HW222110   6.407   4.639   5.189
 7071SOL     OW22111   1.538   5.755   5.339
 7071SOL    HW122112   1.588   5.727   5.421
 7071SOL    HW222113   1.518   5.853   5.344
 7072SOL     OW22114   0.075   6.403   6.380
 7072SOL    HW122115   0.056   6.382   6.476
 7072SOL    HW222116   0.172   6.390   6.362
 7073SOL     OW22117   0.629   0.808   5.292
 7073SOL    HW122118   0.585   0.800   5.203
 7073SOL    HW222119   0.585   0.746   5.357
 7074SOL     OW22120   3.391   1.766   1.756
 7074SOL    HW122121   3.458   1.727   1.819
 7074SOL    HW222122   3.315   1.703   1.744
 7075SOL     OW22123   1.929   5.949   4.531
 7075SOL    HW122124   1.919   5.850   4.532
 7075SOL    HW222125   1.884   5.986   4.449
 7076SOL     OW22126   3.539   1.716   6.340
 7076SOL    HW122127   3.604   1.787   6.365
 7076SOL    HW222128   3.581   1.653   6.274
 7077SOL     OW22129   2.268   5.546   5.489
 7077SOL    HW122130   2.285   5.551   5.391
 7077SOL    HW222131   2.335   5.601   5.538
 7078SOL     OW22132   6.070   0.337   3.298
 7078SOL    HW122133   6.116   0.375   3.378
 7078SOL    HW222134   6.087   0.396   3.218
 7079SOL     OW22135   6.199   6.589   5.911
 7079SOL    HW122136   6.113   6.560   5.954
 7079SOL    HW222137   6.272   6.586   5.978
 7080SOL     OW22138   4.086   2.187   3.724
 7080SOL    HW122139   4.095   2.239   3.640
 7080SOL    HW222140   4.150   2.222   3.792
 7081SOL     OW22141   3.169   1.321   5.759
 7081SOL    HW122142   3.217   1.242   5.797
 7081SOL    HW222143   3.135   1.378   5.834
 7082SOL     OW22144   5.646   1.523   6.724
 7082SOL    HW122145   5.548   1.540   6.737
 7082SOL    HW222146   5.697   1.609   6.733
 7083SOL     OW22147   3.455   0.159   5.725
 7083SOL    HW122148   3.542   0.190   5.685
 7083SOL    HW222149   3.390   0.138   5.651
 7084SOL     OW22150   6.777   6.375   5.778
 7084SOL    HW122151   6.804   6.457   5.828
 7084SOL    HW222152   6.819   6.294   5.820
 7085SOL     OW22153   2.251   2.328   2.623
 7085SOL    HW122154   2.318   2.397   2.597
 7085SOL    HW222155   2.288   2.237   2.604
 7086SOL     OW22156   5.617   0.840   6.450
 7086SOL    HW122157   5.614   0.794   6.539
 7086SOL    HW222158   5.615   0.939   6.464
 7087SOL     OW22159   0.651   3.691   4.474
 7087SOL    HW122160   0.701   3.760   4.422
 7087SOL    HW222161   0.589   3.641   4.413
 7088SOL     OW22162   5.368   2.975   4.114
 7088SOL    HW122163   5.377   2.930   4.203
 7088SOL    HW222164   5.459   2.990   4.075
 7089SOL     OW22165   3.712   1.950   6.294
 7089SOL    HW122166   3.727   2.041   6.257
 7089SOL    HW222167   3.766   1.939   6.378
 7090SOL     OW22168   1.989   2.216   5.108
 7090SOL    HW122169   2.064   2.167   5.154
 7090SOL    HW222170   1.939   2.270   5.176
 7091SOL     OW22171   0.051   1.027   0.721
 7091SOL    HW122172   0.040   0.930   0.699
 7091SOL    HW222173   6.999   1.079   0.685
 7092SOL     OW22174   3.644   4.175   1.132
 7092SOL    HW122175   3.715   4.106   1.117
 7092SOL    HW222176   3.603   4.161   1.222
 7093SOL     OW22177   3.496   3.839   4.785
 7093SOL    HW122178   3.402   3.838   4.753
 7093SOL    HW222179   3.507   3.911   4.855
 7094SOL     OW22180   1.008   6.817   5.625
 7094SOL    HW122181   1.020   6.904   5.672
 7094SOL    HW222182   0.915   6.783   5.639
 7095SOL     OW22183   1.261   2.948   6.492
 7095SOL    HW122184   1.260   2.944   6.392
 7095SOL    HW222185   1.260   3.044   6.521
 7096SOL     OW22186   4.269   2.283   3.932
 7096SOL    HW122187   4.315   2.197   3.955
 7096SOL    HW222188   4.330   2.360   3.950
 7097SOL     OW22189   0.527   0.909   1.920
 7097SOL    HW122190   0.563   0.816   1.926
 7097SOL    HW222191   0.536   0.954   2.009
 7098SOL     OW22192   1.711   6.003   6.301
 7098SOL    HW122193   1.808   6.024   6.311
 7098SOL    HW222194   1.698   5.904   6.302
 7099SOL     OW22195   1.112   1.173   5.046
 7099SOL    HW122196   1.036   1.122   5.087
 7099SOL    HW222197   1.141   1.245   5.109
 7100SOL     OW22198   5.013   3.765   1.181
 7100SOL    HW122199   5.048   3.681   1.138
 7100SOL    HW222200   4.965   3.820   1.112
 7101SOL     OW22201   3.227   0.517   4.994
 7101SOL    HW122202   3.149   0.470   4.952
 7101SOL    HW222203   3.195   0.595   5.048
 7102SOL     OW22204   3.946   1.272   0.782
 7102SOL    HW122205   3.952   1.246   0.685
 7102SOL    HW222206   3.913   1.194   0.835
 7103SOL     OW22207   3.261   6.427   0.371
 7103SOL    HW122208   3.323   6.477   0.433
 7103SOL    HW222209   3.292   6.332   0.363
 7104SOL     OW22210   1.794   2.606   3.228
 7104SOL    HW122211   1.878   2.615   3.174
 7104SOL    HW222212   1.792   2.516   3.272
 7105SOL     OW22213   3.342   3.334   4.449
 7105SOL    HW122214   3.286   3.416   4.459
 7105SOL    HW222215   3.306   3.262   4.509
 7106SOL     OW22216   3.697   3.278   4.775
 7106SOL    HW122217   3.783   3.281   4.826
 7106SOL    HW222218   3.683   3.185   4.739
 7107SOL     OW22219   3.162   0.941   0.945
 7107SOL    HW122220   3.117   1.018   0.989
 7107SOL    HW222221   3.202   0.881   1.014
 7108SOL     OW22222   4.872   6.156   1.025
 7108SOL    HW122223   4.843   6.099   1.102
 7108SOL    HW222224   4.792   6.179   0.970
 7109SOL     OW22225   3.442   0.432   5.904
 7109SOL    HW122226   3.499   0.363   5.859
 7109SOL    HW222227   3.437   0.412   6.002
 7110SOL     OW22228   4.596   5.220   4.131
 7110SOL    HW122229   4.523   5.255   4.189
 7110SOL    HW222230   4.627   5.131   4.166
 7111SOL     OW22231   2.025   3.207   4.047
 7111SOL    HW122232   2.029   3.304   4.071
 7111SOL    HW222233   2.049   3.196   3.950
 7112SOL     OW22234   1.037   6.528   4.118
 7112SOL    HW122235   1.058   6.531   4.020
 7112SOL    HW222236   1.092   6.457   4.162
 7113SOL     OW22237   3.702   4.077   4.494
 7113SOL    HW122238   3.775   4.087   4.426
 7113SOL    HW222239   3.631   4.145   4.476
 7114SOL     OW22240   4.156   1.219   1.999
 7114SOL    HW122241   4.156   1.315   2.029
 7114SOL    HW222242   4.247   1.180   2.014
 7115SOL     OW22243   4.525   1.354   1.688
 7115SOL    HW122244   4.479   1.443   1.697
 7115SOL    HW222245   4.620   1.363   1.719
 7116SOL     OW22246   5.137   3.691   3.440
 7116SOL    HW122247   5.057   3.651   3.486
 7116SOL    HW222248   5.195   3.618   3.404
 7117SOL     OW22249   6.253   6.231   2.333
 7117SOL    HW122250   6.220   6.145   2.370
 7117SOL    HW222251   6.335   6.259   2.383
 7118SOL     OW22252   5.290   3.715   0.917
 7118SOL    HW122253   5.328   3.792   0.866
 7118SOL    HW222254   5.337   3.707   1.006
 7119SOL     OW22255   6.103   1.478   2.605
 7119SOL    HW122256   6.020   1.446   2.649
 7119SOL    HW222257   6.180   1.468   2.667
 7120SOL     OW22258   4.922   1.458   3.789
 7120SOL    HW122259   4.985   1.406   3.848
 7120SOL    HW222260   4.830   1.456   3.828
 7121SOL     OW22261   2.504   6.884   4.005
 7121SOL    HW122262   2.414   6.926   4.004
 7121SOL    HW222263   2.548   6.901   4.094
 7122SOL     OW22264   6.772   0.936   6.996
 7122SOL    HW122265   6.689   0.973   0.014
 7122SOL    HW222266   6.752   0.910   6.902
 7123SOL     OW22267   3.233   5.709   1.707
 7123SOL    HW122268   3.145   5.668   1.682
 7123SOL    HW222269   3.298   5.638   1.732
 7124SOL     OW22270   0.101   5.330   6.641
 7124SOL    HW122271   0.160   5.343   6.561
 7124SOL    HW222272   0.147   5.269   6.706
 7125SOL     OW22273   6.323   6.542   2.566
 7125SOL    HW122274   6.249   6.578   2.509
 7125SOL    HW222275   6.286   6.510   2.653
 7126SOL     OW22276   1.932   4.226   0.305
 7126SOL    HW122277   1.972   4.139   0.278
 7126SOL    HW222278   1.834   4.224   0.287
 7127SOL     OW22279   3.285   5.801   4.442
 7127SOL    HW122280   3.341   5.733   4.394
 7127SOL    HW222281   3.283   5.886   4.389
 7128SOL     OW22282   3.448   4.490   0.941
 7128SOL    HW122283   3.433   4.392   0.939
 7128SOL    HW222284   3.459   4.524   0.847
 7129SOL     OW22285   3.101   0.697   1.254
 7129SOL    HW122286   3.023   0.725   1.310
 7129SOL    HW222287   3.154   0.778   1.228
 7130SOL     OW22288   2.535   5.068   3.567
 7130SOL    HW122289   2.607   5.000   3.558
 7130SOL    HW222290   2.448   5.030   3.535
 7131SOL     OW22291   2.731   1.320   2.288
 7131SOL    HW122292   2.804   1.378   2.252
 7131SOL    HW222293   2.771   1.247   2.344
 7132SOL     OW22294   3.860   4.047   2.830
 7132SOL    HW122295   3.858   4.147   2.842
 7132SOL    HW222296   3.875   4.025   2.734
 7133SOL     OW22297   4.631   5.394   3.264
 7133SOL    HW122298   4.634   5.315   3.202
 7133SOL    HW222299   4.722   5.435   3.270
 7134SOL     OW22300   5.872   5.940   3.831
 7134SOL    HW122301   5.824   5.929   3.744
 7134SOL    HW222302   5.954   5.995   3.818
 7135SOL     OW22303   1.507   1.162   4.326
 7135SOL    HW122304   1.474   1.133   4.416
 7135SOL    HW222305   1.565   1.091   4.288
 7136SOL     OW22306   1.569   0.963   0.643
 7136SOL    HW122307   1.627   0.984   0.721
 7136SOL    HW222308   1.609   1.002   0.560
 7137SOL     OW22309   4.438   0.639   4.377
 7137SOL    HW122310   4.454   0.652   4.279
 7137SOL    HW222311   4.525   0.623   4.423
 7138SOL     OW22312   2.925   3.681   1.148
 7138SOL    HW122313   2.900   3.632   1.065
 7138SOL    HW222314   2.919   3.620   1.227
 7139SOL     OW22315   4.507   3.155   1.688
 7139SOL    HW122316   4.408   3.143   1.697
 7139SOL    HW222317   4.554   3.093   1.751
 7140SOL     OW22318   6.258   4.558   5.126
 7140SOL    HW122319   6.162   4.577   5.104
 7140SOL    HW222320   6.265   4.470   5.172
 7141SOL     OW22321   2.665   0.211   1.093
 7141SOL    HW122322   2.656   0.266   1.176
 7141SOL    HW222323   2.736   0.141   1.107
 7142SOL     OW22324   4.047   5.932   3.970
 7142SOL    HW122325   4.082   5.946   4.062
 7142SOL    HW222326   3.947   5.932   3.971
 7143SOL     OW22327   1.646   3.985   6.483
 7143SOL    HW122328   1.733   4.009   6.440
 7143SOL    HW222329   1.571   4.017   6.425
 7144SOL     OW22330   1.164   2.088   3.114
 7144SOL    HW122331   1.099   2.012   3.120
 7144SOL    HW222332   1.115   2.174   3.128
 7145SOL     OW22333   4.602   6.809   6.684
 7145SOL    HW122334   4.611   6.764   6.596
 7145SOL    HW222335   4.543   6.889   6.676
 7146SOL     OW22336   2.820   6.771   0.816
 7146SOL    HW122337   2.825   6.750   0.718
 7146SOL    HW222338   2.744   6.834   0.833
 7147SOL     OW22339   6.727   0.666   3.053
 7147SOL    HW122340   6.758   0.614   2.973
 7147SOL    HW222341   6.706   0.760   3.027
 7148SOL     OW22342   1.324   6.271   1.746
 7148SOL    HW122343   1.416   6.249   1.712
 7148SOL    HW222344   1.274   6.321   1.675
 7149SOL     OW22345   6.595   1.315   3.188
 7149SOL    HW122346   6.612   1.225   3.226
 7149SOL    HW222347   6.524   1.361   3.241
 7150SOL     OW22348   5.245   2.603   0.331
 7150SOL    HW122349   5.220   2.606   0.427
 7150SOL    HW222350   5.319   2.537   0.317
 7151SOL     OW22351   1.878   5.812   1.457
 7151SOL    HW122352   1.797   5.851   1.414
 7151SOL    HW222353   1.865   5.714   1.469
 7152SOL     OW22354   0.862   3.166   4.586
 7152SOL    HW122355   0.828   3.154   4.493
 7152SOL    HW222356   0.792   3.139   4.651
 7153SOL     OW22357   4.527   1.010   4.832
 7153SOL    HW122358   4.624   1.023   4.855
 7153SOL    HW222359   4.519   0.948   4.754
 7154SOL     OW22360   3.860   6.098   4.211
 7154SOL    HW122361   3.944   6.043   4.213
 7154SOL    HW222362   3.791   6.051   4.156
 7155SOL     OW22363   1.344   6.808   2.187
 7155SOL    HW122364   1.394   6.807   2.100
 7155SOL    HW222365   1.272   6.878   2.183
 7156SOL     OW22366   6.582   5.451   5.221
 7156SOL    HW122367   6.607   5.541   5.186
 7156SOL    HW222368   6.655   5.386   5.200
 7157SOL     OW22369   5.557   5.478   0.390
 7157SOL    HW122370   5.562   5.575   0.365
 7157SOL    HW222371   5.462   5.447   0.387
 7158SOL     OW22372   0.247   6.813   3.449
 7158SOL    HW122373   0.284   6.769   3.367
 7158SOL    HW222374   0.322   6.840   3.510
 7159SOL     OW22375   0.437   5.217   0.450
 7159SOL    HW122376   0.374   5.235   0.527
 7159SOL    HW222377   0.514   5.163   0.483
 7160SOL     OW22378   6.619   0.372   2.096
 7160SOL    HW122379   6.539   0.428   2.117
 7160SOL    HW222380   6.671   0.415   2.022
 7161SOL     OW22381   3.514   3.042   4.062
 7161SOL    HW122382   3.585   3.006   4.123
 7161SOL    HW222383   3.509   2.985   3.980
 7162SOL     OW22384   3.903   4.947   4.072
 7162SOL    HW122385   3.806   4.966   4.058
 7162SOL    HW222386   3.948   5.028   4.109
 7163SOL     OW22387   3.304   0.449   3.630
 7163SOL    HW122388   3.295   0.488   3.721
 7163SOL    HW222389   3.375   0.378   3.632
 7164SOL     OW22390   2.078   1.178   3.728
 7164SOL    HW122391   2.178   1.179   3.724
 7164SOL    HW222392   2.042   1.188   3.635
 7165SOL     OW22393   5.531   0.967   0.908
 7165SOL    HW122394   5.474   1.007   0.980
 7165SOL    HW222395   5.594   1.036   0.874
 7166SOL     OW22396   4.928   4.828   0.675
 7166SOL    HW122397   4.943   4.732   0.701
 7166SOL    HW222398   4.949   4.887   0.753
 7167SOL     OW22399   4.730   3.568   5.429
 7167SOL    HW122400   4.704   3.576   5.333
 7167SOL    HW222401   4.783   3.485   5.442
 7168SOL     OW22402   1.372   0.857   4.078
 7168SOL    HW122403   1.321   0.924   4.131
 7168SOL    HW222404   1.465   0.890   4.064
 7169SOL     OW22405   1.390   3.245   6.213
 7169SOL    HW122406   1.368   3.257   6.310
 7169SOL    HW222407   1.322   3.293   6.157
 7170SOL     OW22408   5.297   4.689   3.523
 7170SOL    HW122409   5.244   4.625   3.468
 7170SOL    HW222410   5.363   4.736   3.464
 7171SOL     OW22411   4.122   2.932   5.330
 7171SOL    HW122412   4.211   2.893   5.304
 7171SOL    HW222413   4.092   2.890   5.416
 7172SOL     OW22414   1.751   6.888   0.558
 7172SOL    HW122415   1.700   6.815   0.603
 7172SOL    HW222416   1.704   6.916   0.474
 7173SOL     OW22417   7.015   6.166   4.777
 7173SOL    HW122418   0.068   6.228   4.775
 7173SOL    HW222419   0.015   6.078   4.736
 7174SOL     OW22420   2.209   5.544   0.294
 7174SOL    HW122421   2.113   5.533   0.268
 7174SOL    HW222422   2.244   5.458   0.330
 7175SOL     OW22423   5.362   4.066   0.173
 7175SOL    HW122424   5.370   4.060   0.073
 7175SOL    HW222425   5.279   4.017   0.202
 7176SOL     OW22426   6.679   4.125   1.526
 7176SOL    HW122427   6.582   4.122   1.503
 7176SOL    HW222428   6.711   4.220   1.520
 7177SOL     OW22429   0.899   5.981   3.518
 7177SOL    HW122430   0.913   5.914   3.591
 7177SOL    HW222431   0.810   5.965   3.475
 7178SOL     OW22432   0.726   3.012   4.978
 7178SOL    HW122433   0.659   2.939   4.959
 7178SOL    HW222434   0.818   2.977   4.961
 7179SOL     OW22435   2.894   3.740   5.488
 7179SOL    HW122436   2.845   3.771   5.406
 7179SOL    HW222437   2.968   3.678   5.462
 7180SOL     OW22438   0.419   6.292   1.354
 7180SOL    HW122439   0.479   6.288   1.275
 7180SOL    HW222440   0.323   6.285   1.325
 7181SOL     OW22441   4.318   0.781   1.570
 7181SOL    HW122442   4.394   0.778   1.634
 7181SOL    HW222443   4.325   0.864   1.514
 7182SOL     OW22444   2.551   4.494   5.304
 7182SOL    HW122445   2.645   4.482   5.334
 7182SOL    HW222446   2.491   4.502   5.384
 7183SOL     OW22447   2.285   5.055   3.111
 7183SOL    HW122448   2.379   5.088   3.122
 7183SOL    HW222449   2.287   4.957   3.090
 7184SOL     OW22450   1.758   6.691   4.048
 7184SOL    HW122451   1.760   6.785   4.084
 7184SOL    HW222452   1.847   6.648   4.064
 7185SOL     OW22453   4.467   2.999   0.084
 7185SOL    HW122454   4.483   2.910   0.043
 7185SOL    HW222455   4.425   3.060   0.017
 7186SOL     OW22456   6.574   6.087   5.161
 7186SOL    HW122457   6.481   6.066   5.193
 7186SOL    HW222458   6.632   6.109   5.240
 7187SOL     OW22459   1.605   3.970   1.603
 7187SOL    HW122460   1.642   3.942   1.692
 7187SOL    HW222461   1.572   4.064   1.608
 7188SOL     OW22462   4.959   0.482   2.135
 7188SOL    HW122463   5.056   0.474   2.112
 7188SOL    HW222464   4.934   0.579   2.140
 7189SOL     OW22465   6.993   1.169   5.400
 7189SOL    HW122466   6.988   1.196   5.496
 7189SOL    HW222467   7.016   1.249   5.345
 7190SOL     OW22468   5.784   4.239   3.204
 7190SOL    HW122469   5.834   4.225   3.290
 7190SOL    HW222470   5.714   4.310   3.218
 7191SOL     OW22471   1.356   3.470   2.482
 7191SOL    HW122472   1.417   3.413   2.427
 7191SOL    HW222473   1.401   3.491   2.569
 7192SOL     OW22474   2.621   4.685   6.374
 7192SOL    HW122475   2.652   4.729   6.458
 7192SOL    HW222476   2.654   4.737   6.295
 7193SOL     OW22477   3.632   1.347   4.526
 7193SOL    HW122478   3.602   1.263   4.481
 7193SOL    HW222479   3.683   1.324   4.609
 7194SOL     OW22480   2.588   2.074   1.853
 7194SOL    HW122481   2.534   2.157   1.838
 7194SOL    HW222482   2.683   2.099   1.870
 7195SOL     OW22483   0.112   5.484   0.350
 7195SOL    HW122484   0.091   5.488   0.448
 7195SOL    HW222485   0.033   5.519   0.299
 7196SOL     OW22486   3.102   3.587   2.900
 7196SOL    HW122487   3.191   3.627   2.880
 7196SOL    HW222488   3.071   3.533   2.822
 7197SOL     OW22489   6.872   1.778   4.872
 7197SOL    HW122490   6.852   1.856   4.931
 7197SOL    HW222491   6.885   1.809   4.778
 7198SOL     OW22492   1.582   6.863   6.377
 7198SOL    HW122493   1.487   6.850   6.348
 7198SOL    HW222494   1.601   6.960   6.387
 7199SOL     OW22495   0.253   0.104   2.430
 7199SOL    HW122496   0.293   0.022   2.470
 7199SOL    HW222497   0.153   0.096   2.431
 7200SOL     OW22498   2.373   1.302   1.570
 7200SOL    HW122499   2.435   1.294   1.491
 7200SOL    HW222500   2.280   1.279   1.541
 7201SOL     OW22501   1.410   4.931   4.244
 7201SOL    HW122502   1.382   5.009   4.300
 7201SOL    HW222503   1.403   4.956   4.147
 7202SOL     OW22504   4.257   0.351   6.108
 7202SOL    HW122505   4.174   0.394   6.142
 7202SOL    HW222506   4.246   0.251   6.110
 7203SOL     OW22507   5.628   0.683   6.689
 7203SOL    HW122508   5.662   0.721   6.774
 7203SOL    HW222509   5.666   0.591   6.676
 7204SOL     OW22510   5.987   1.123   3.044
 7204SOL    HW122511   6.064   1.182   3.019
 7204SOL    HW222512   5.993   1.098   3.140
 7205SOL     OW22513   1.832   5.491   3.369
 7205SOL    HW122514   1.852   5.436   3.450
 7205SOL    HW222515   1.778   5.437   3.304
 7206SOL     OW22516   6.719   1.252   0.766
 7206SOL    HW122517   6.721   1.248   0.866
 7206SOL    HW222518   6.765   1.336   0.735
 7207SOL     OW22519   3.180   6.367   1.193
 7207SOL    HW122520   3.124   6.406   1.120
 7207SOL    HW222521   3.124   6.308   1.251
 7208SOL     OW22522   3.274   0.029   5.531
 7208SOL    HW122523   3.175   0.033   5.541
 7208SOL    HW222524   3.298   0.022   5.434
 7209SOL     OW22525   3.996   3.522   4.109
 7209SOL    HW122526   4.050   3.490   4.031
 7209SOL    HW222527   3.905   3.481   4.106
 7210SOL     OW22528   4.317   0.975   3.779
 7210SOL    HW122529   4.353   0.992   3.687
 7210SOL    HW222530   4.288   1.062   3.820
 7211SOL     OW22531   1.346   5.693   4.202
 7211SOL    HW122532   1.351   5.749   4.119
 7211SOL    HW222533   1.435   5.696   4.249
 7212SOL     OW22534   5.909   5.980   4.307
 7212SOL    HW122535   5.871   5.986   4.214
 7212SOL    HW222536   6.008   5.965   4.301
 7213SOL     OW22537   5.932   0.737   5.626
 7213SOL    HW122538   5.880   0.749   5.711
 7213SOL    HW222539   5.876   0.767   5.549
 7214SOL     OW22540   2.123   5.269   5.220
 7214SOL    HW122541   2.177   5.259   5.304
 7214SOL    HW222542   2.049   5.334   5.236
 7215SOL     OW22543   0.554   3.996   4.198
 7215SOL    HW122544   0.463   3.984   4.158
 7215SOL    HW222545   0.573   4.094   4.208
 7216SOL     OW22546   2.603   0.402   0.308
 7216SOL    HW122547   2.540   0.474   0.339
 7216SOL    HW222548   2.654   0.435   0.229
 7217SOL     OW22549   0.944   3.310   2.499
 7217SOL    HW122550   0.929   3.343   2.406
 7217SOL    HW222551   0.881   3.235   2.519
 7218SOL     OW22552   4.331   2.395   5.773
 7218SOL    HW122553   4.280   2.448   5.705
 7218SOL    HW222554   4.349   2.452   5.853
 7219SOL     OW22555   4.522   6.461   3.067
 7219SOL    HW122556   4.555   6.382   3.119
 7219SOL    HW222557   4.424   6.452   3.051
 7220SOL     OW22558   6.886   1.212   2.259
 7220SOL    HW122559   6.919   1.292   2.310
 7220SOL    HW222560   6.892   1.131   2.317
 7221SOL     OW22561   5.381   3.930   5.750
 7221SOL    HW122562   5.311   3.927   5.822
 7221SOL    HW222563   5.395   3.838   5.713
 7222SOL     OW22564   6.954   5.794   1.138
 7222SOL    HW122565   6.928   5.697   1.148
 7222SOL    HW222566   6.882   5.851   1.176
 7223SOL     OW22567   3.272   1.616   6.251
 7223SOL    HW122568   3.369   1.621   6.274
 7223SOL    HW222569   3.263   1.586   6.156
 7224SOL     OW22570   5.499   0.362   4.698
 7224SOL    HW122571   5.489   0.381   4.795
 7224SOL    HW222572   5.410   0.336   4.660
 7225SOL     OW22573   2.198   6.014   0.383
 7225SOL    HW122574   2.185   5.982   0.477
 7225SOL    HW222575   2.201   6.114   0.381
 7226SOL     OW22576   0.401   0.150   0.392
 7226SOL    HW122577   0.391   0.241   0.433
 7226SOL    HW222578   0.460   0.094   0.449
 7227SOL     OW22579   0.421   2.821   6.310
 7227SOL    HW122580   0.418   2.904   6.366
 7227SOL    HW222581   0.512   2.780   6.316
 7228SOL     OW22582   0.468   0.105   2.207
 7228SOL    HW122583   0.376   0.120   2.242
 7228SOL    HW222584   0.475   0.142   2.114
 7229SOL     OW22585   1.131   0.234   4.231
 7229SOL    HW122586   1.146   0.331   4.209
 7229SOL    HW222587   1.174   0.177   4.161
 7230SOL     OW22588   4.963   4.760   3.417
 7230SOL    HW122589   4.892   4.780   3.484
 7230SOL    HW222590   5.046   4.811   3.440
 7231SOL     OW22591   5.915   1.119   5.771
 7231SOL    HW122592   5.951   1.134   5.679
 7231SOL    HW222593   5.975   1.056   5.820
 7232SOL     OW22594   3.842   4.794   2.444
 7232SOL    HW122595   3.807   4.791   2.537
 7232SOL    HW222596   3.770   4.824   2.382
 7233SOL     OW22597   0.531   2.956   5.683
 7233SOL    HW122598   0.472   3.014   5.739
 7233SOL    HW222599   0.599   2.912   5.743
 7234SOL     OW22600   6.238   1.729   1.711
 7234SOL    HW122601   6.239   1.667   1.790
 7234SOL    HW222602   6.254   1.822   1.743
 7235SOL     OW22603   5.405   3.486   5.485
 7235SOL    HW122604   5.386   3.400   5.532
 7235SOL    HW222605   5.484   3.474   5.424
 7236SOL     OW22606   3.687   0.892   3.151
 7236SOL    HW122607   3.711   0.836   3.072
 7236SOL    HW222608   3.635   0.837   3.216
 7237SOL     OW22609   5.724   6.210   5.950
 7237SOL    HW122610   5.816   6.215   5.910
 7237SOL    HW222611   5.724   6.142   6.024
 7238SOL     OW22612   2.564   2.121   2.348
 7238SOL    HW122613   2.512   2.039   2.325
 7238SOL    HW222614   2.519   2.169   2.424
 7239SOL     OW22615   2.928   1.498   2.206
 7239SOL    HW122616   2.903   1.565   2.276
 7239SOL    HW222617   3.024   1.508   2.181
 7240SOL     OW22618   2.658   4.768   0.272
 7240SOL    HW122619   2.602   4.770   0.188
 7240SOL    HW222620   2.633   4.688   0.326
 7241SOL     OW22621   3.351   6.915   5.297
 7241SOL    HW122622   3.331   6.906   5.199
 7241SOL    HW222623   3.370   6.825   5.335
 7242SOL     OW22624   6.146   4.189   6.520
 7242SOL    HW122625   6.128   4.206   6.423
 7242SOL    HW222626   6.095   4.108   6.550
 7243SOL     OW22627   0.369   5.632   0.610
 7243SOL    HW122628   0.373   5.578   0.526
 7243SOL    HW222629   0.274   5.657   0.629
 7244SOL     OW22630   5.695   1.772   1.235
 7244SOL    HW122631   5.633   1.810   1.303
 7244SOL    HW222632   5.783   1.819   1.241
 7245SOL     OW22633   0.238   1.820   4.265
 7245SOL    HW122634   0.333   1.849   4.269
 7245SOL    HW222635   0.217   1.786   4.174
 7246SOL     OW22636   6.933   6.609   5.084
 7246SOL    HW122637   6.851   6.553   5.069
 7246SOL    HW222638   6.963   6.599   5.179
 7247SOL     OW22639   2.628   5.805   2.294
 7247SOL    HW122640   2.529   5.802   2.276
 7247SOL    HW222641   2.673   5.731   2.244
 7248SOL     OW22642   4.001   1.120   4.696
 7248SOL    HW122643   3.999   1.205   4.749
 7248SOL    HW222644   3.912   1.075   4.703
 7249SOL     OW22645   6.208   5.090   6.893
 7249SOL    HW122646   6.117   5.090   6.936
 7249SOL    HW222647   6.253   5.178   6.910
 7250SOL     OW22648   3.052   4.784   6.408
 7250SOL    HW122649   3.076   4.874   6.372
 7250SOL    HW222650   3.014   4.794   6.500
 7251SOL     OW22651   6.029   0.071   5.032
 7251SOL    HW122652   6.053   7.011   4.986
 7251SOL    HW222653   5.935   0.095   5.010
 7252SOL     OW22654   3.555   2.980   5.000
 7252SOL    HW122655   3.498   2.901   5.024
 7252SOL    HW222656   3.500   3.063   5.011
 7253SOL     OW22657   4.174   6.237   1.092
 7253SOL    HW122658   4.250   6.234   1.157
 7253SOL    HW222659   4.091   6.266   1.140
 7254SOL     OW22660   4.253   6.498   4.281
 7254SOL    HW122661   4.274   6.512   4.378
 7254SOL    HW222662   4.250   6.400   4.262
 7255SOL     OW22663   3.059   3.901   2.627
 7255SOL    HW122664   3.137   3.957   2.651
 7255SOL    HW222665   3.015   3.938   2.545
 7256SOL     OW22666   4.422   4.617   3.834
 7256SOL    HW122667   4.334   4.643   3.795
 7256SOL    HW222668   4.465   4.548   3.774
 7257SOL     OW22669   6.271   3.047   3.215
 7257SOL    HW122670   6.324   3.090   3.142
 7257SOL    HW222671   6.208   3.114   3.255
 7258SOL     OW22672   3.446   0.046   4.659
 7258SOL    HW122673   3.383   0.060   4.583
 7258SOL    HW222674   3.535   0.084   4.635
 7259SOL     OW22675   2.317   4.630   6.828
 7259SOL    HW122676   2.320   4.717   6.778
 7259SOL    HW222677   2.222   4.611   6.855
 7260SOL     OW22678   3.432   2.069   2.688
 7260SOL    HW122679   3.382   2.099   2.606
 7260SOL    HW222680   3.523   2.040   2.662
 7261SOL     OW22681   1.922   3.743   1.814
 7261SOL    HW122682   1.840   3.797   1.834
 7261SOL    HW222683   1.930   3.668   1.880
 7262SOL     OW22684   5.937   1.453   4.852
 7262SOL    HW122685   5.935   1.523   4.780
 7262SOL    HW222686   5.958   1.497   4.940
 7263SOL     OW22687   2.092   6.093   2.163
 7263SOL    HW122688   2.082   6.005   2.115
 7263SOL    HW222689   2.017   6.104   2.228
 7264SOL     OW22690   0.501   0.169   5.575
 7264SOL    HW122691   0.450   0.254   5.587
 7264SOL    HW222692   0.577   0.183   5.512
 7265SOL     OW22693   4.420   4.686   5.796
 7265SOL    HW122694   4.422   4.624   5.874
 7265SOL    HW222695   4.514   4.703   5.764
 7266SOL     OW22696   4.968   0.676   1.743
 7266SOL    HW122697   4.883   0.657   1.793
 7266SOL    HW222698   4.982   0.605   1.673
 7267SOL     OW22699   0.006   4.157   3.972
 7267SOL    HW122700   6.969   4.155   3.894
 7267SOL    HW222701   7.005   4.085   4.037
 7268SOL     OW22702   3.566   0.231   1.380
 7268SOL    HW122703   3.565   0.136   1.347
 7268SOL    HW222704   3.472   0.267   1.379
 7269SOL     OW22705   1.672   5.978   2.270
 7269SOL    HW122706   1.584   5.958   2.313
 7269SOL    HW222707   1.677   6.076   2.250
 7270SOL     OW22708   3.070   1.243   2.730
 7270SOL    HW122709   3.006   1.167   2.740
 7270SOL    HW222710   3.150   1.212   2.678
 7271SOL     OW22711   6.864   3.440   3.449
 7271SOL    HW122712   6.792   3.441   3.379
 7271SOL    HW222713   6.953   3.449   3.406
 7272SOL     OW22714   6.130   2.003   2.303
 7272SOL    HW122715   6.124   2.095   2.266
 7272SOL    HW222716   6.057   1.988   2.369
 7273SOL     OW22717   5.467   4.445   0.152
 7273SOL    HW122718   5.422   4.367   0.108
 7273SOL    HW222719   5.415   4.473   0.232
 7274SOL     OW22720   6.261   4.741   5.434
 7274SOL    HW122721   6.334   4.686   5.394
 7274SOL    HW222722   6.191   4.682   5.473
 7275SOL     OW22723   6.971   6.737   0.433
 7275SOL    HW122724   6.896   6.802   0.440
 7275SOL    HW222725   0.029   6.778   0.472
 7276SOL     OW22726   2.446   2.612   3.998
 7276SOL    HW122727   2.429   2.676   4.073
 7276SOL    HW222728   2.359   2.579   3.962
 7277SOL     OW22729   4.848   2.126   4.868
 7277SOL    HW122730   4.883   2.219   4.856
 7277SOL    HW222731   4.775   2.109   4.801
 7278SOL     OW22732   2.946   1.384   2.538
 7278SOL    HW122733   2.991   1.327   2.607
 7278SOL    HW222734   2.968   1.349   2.447
 7279SOL     OW22735   5.715   5.002   1.203
 7279SOL    HW122736   5.750   5.039   1.117
 7279SOL    HW222737   5.741   4.906   1.211
 7280SOL     OW22738   6.178   2.453   5.333
 7280SOL    HW122739   6.147   2.366   5.370
 7280SOL    HW222740   6.129   2.473   5.248
 7281SOL     OW22741   3.703   5.983   2.381
 7281SOL    HW122742   3.614   6.019   2.352
 7281SOL    HW222743   3.763   5.974   2.302
 7282SOL     OW22744   6.758   4.617   2.690
 7282SOL    HW122745   6.781   4.523   2.713
 7282SOL    HW222746   6.720   4.621   2.598
 7283SOL     OW22747   4.074   4.837   3.008
 7283SOL    HW122748   3.976   4.843   2.993
 7283SOL    HW222749   4.122   4.837   2.920
 7284SOL     OW22750   6.876   1.802   3.159
 7284SOL    HW122751   6.776   1.802   3.154
 7284SOL    HW222752   6.912   1.884   3.114
 7285SOL     OW22753   4.952   2.885   1.982
 7285SOL    HW122754   4.871   2.943   1.992
 7285SOL    HW222755   5.015   2.902   2.058
 7286SOL     OW22756   0.647   1.540   1.774
 7286SOL    HW122757   0.573   1.482   1.809
 7286SOL    HW222758   0.731   1.486   1.768
 7287SOL     OW22759   1.639   2.616   3.872
 7287SOL    HW122760   1.608   2.577   3.959
 7287SOL    HW222761   1.654   2.543   3.806
 7288SOL     OW22762   2.698   2.321   2.943
 7288SOL    HW122763   2.664   2.366   3.025
 7288SOL    HW222764   2.724   2.227   2.965
 7289SOL     OW22765   5.952   2.131   1.250
 7289SOL    HW122766   5.947   2.133   1.150
 7289SOL    HW222767   5.973   2.223   1.284
 7290SOL     OW22768   3.416   1.444   5.695
 7290SOL    HW122769   3.431   1.494   5.610
 7290SOL    HW222770   3.323   1.409   5.698
 7291SOL     OW22771   4.365   1.002   0.536
 7291SOL    HW122772   4.278   1.008   0.584
 7291SOL    HW222773   4.391   1.092   0.503
 7292SOL     OW22774   2.607   0.450   2.496
 7292SOL    HW122775   2.619   0.491   2.406
 7292SOL    HW222776   2.586   0.353   2.486
 7293SOL     OW22777   1.186   0.495   5.026
 7293SOL    HW122778   1.098   0.457   5.000
 7293SOL    HW222779   1.258   0.457   4.968
 7294SOL     OW22780   2.311   6.162   2.603
 7294SOL    HW122781   2.324   6.120   2.513
 7294SOL    HW222782   2.218   6.146   2.634
 7295SOL     OW22783   5.859   5.469   2.315
 7295SOL    HW122784   5.841   5.563   2.343
 7295SOL    HW222785   5.795   5.443   2.242
 7296SOL     OW22786   5.066   4.728   2.029
 7296SOL    HW122787   5.113   4.812   1.999
 7296SOL    HW222788   5.101   4.651   1.976
 7297SOL     OW22789   4.023   6.359   1.542
 7297SOL    HW122790   4.069   6.448   1.534
 7297SOL    HW222791   3.928   6.373   1.570
 7298SOL     OW22792   4.500   5.292   0.180
 7298SOL    HW122793   4.420   5.303   0.121
 7298SOL    HW222794   4.522   5.195   0.188
 7299SOL     OW22795   1.375   2.560   6.604
 7299SOL    HW122796   1.296   2.551   6.543
 7299SOL    HW222797   1.403   2.656   6.606
 7300SOL     OW22798   0.589   5.396   2.330
 7300SOL    HW122799   0.625   5.307   2.302
 7300SOL    HW222800   0.545   5.440   2.251
 7301SOL     OW22801   5.319   0.804   5.426
 7301SOL    HW122802   5.306   0.893   5.381
 7301SOL    HW222803   5.234   0.776   5.469
 7302SOL     OW22804   4.715   1.331   5.807
 7302SOL    HW122805   4.676   1.407   5.860
 7302SOL    HW222806   4.642   1.269   5.780
 7303SOL     OW22807   2.024   1.413   1.714
 7303SOL    HW122808   2.074   1.466   1.783
 7303SOL    HW222809   1.937   1.457   1.695
 7304SOL     OW22810   2.523   5.960   1.619
 7304SOL    HW122811   2.424   5.949   1.604
 7304SOL    HW222812   2.560   6.023   1.551
 7305SOL     OW22813   6.583   1.735   0.525
 7305SOL    HW122814   6.535   1.663   0.475
 7305SOL    HW222815   6.610   1.701   0.615
 7306SOL     OW22816   1.877   2.405   2.007
 7306SOL    HW122817   1.963   2.433   2.050
 7306SOL    HW222818   1.883   2.417   1.908
 7307SOL     OW22819   2.224   0.334   1.771
 7307SOL    HW122820   2.290   0.276   1.818
 7307SOL    HW222821   2.244   0.333   1.673
 7308SOL     OW22822   5.105   0.825   3.532
 7308SOL    HW122823   5.182   0.768   3.503
 7308SOL    HW222824   5.139   0.914   3.561
 7309SOL     OW22825   2.132   5.449   3.317
 7309SOL    HW122826   2.142   5.541   3.278
 7309SOL    HW222827   2.035   5.424   3.315
 7310SOL     OW22828   2.549   2.625   6.284
 7310SOL    HW122829   2.492   2.602   6.363
 7310SOL    HW222830   2.493   2.663   6.211
 7311SOL     OW22831   6.931   6.550   6.787
 7311SOL    HW122832   7.025   6.585   6.779
 7311SOL    HW222833   6.867   6.626   6.786
 7312SOL     OW22834   6.683   2.190   3.888
 7312SOL    HW122835   6.769   2.231   3.918
 7312SOL    HW222836   6.662   2.220   3.795
 7313SOL     OW22837   3.096   0.586   2.104
 7313SOL    HW122838   3.141   0.582   2.015
 7313SOL    HW222839   3.158   0.626   2.172
 7314SOL     OW22840   0.845   3.866   6.699
 7314SOL    HW122841   0.892   3.831   6.618
 7314SOL    HW222842   0.765   3.919   6.670
 7315SOL     OW22843   1.381   4.002   2.172
 7315SOL    HW122844   1.461   4.044   2.215
 7315SOL    HW222845   1.304   4.066   2.172
 7316SOL     OW22846   3.316   1.740   0.826
 7316SOL    HW122847   3.344   1.657   0.778
 7316SOL    HW222848   3.270   1.801   0.761
 7317SOL     OW22849   4.131   1.168   1.049
 7317SOL    HW122850   4.116   1.266   1.060
 7317SOL    HW222851   4.222   1.144   1.085
 7318SOL     OW22852   4.183   6.493   0.190
 7318SOL    HW122853   4.274   6.504   0.149
 7318SOL    HW222854   4.163   6.396   0.201
 7319SOL     OW22855   5.927   4.819   6.781
 7319SOL    HW122856   5.832   4.822   6.813
 7319SOL    HW222857   5.930   4.845   6.684
 7320SOL     OW22858   6.862   2.829   1.840
 7320SOL    HW122859   6.810   2.744   1.841
 7320SOL    HW222860   6.802   2.905   1.813
 7321SOL     OW22861   1.963   0.410   6.725
 7321SOL    HW122862   2.013   0.410   6.812
 7321SOL    HW222863   1.866   0.394   6.741
 7322SOL     OW22864   0.573   2.896   2.557
 7322SOL    HW122865   0.490   2.853   2.523
 7322SOL    HW222866   0.556   2.936   2.647
 7323SOL     OW22867   1.056   2.598   1.447
 7323SOL    HW122868   1.046   2.499   1.461
 7323SOL    HW222869   1.134   2.632   1.499
 7324SOL     OW22870   5.571   4.872   3.334
 7324SOL    HW122871   5.506   4.914   3.398
 7324SOL    HW222872   5.639   4.820   3.385
 7325SOL     OW22873   4.426   1.269   5.955
 7325SOL    HW122874   4.466   1.355   5.922
 7325SOL    HW222875   4.431   1.200   5.882
 7326SOL     OW22876   3.611   0.197   0.259
 7326SOL    HW122877   3.588   0.227   0.167
 7326SOL    HW222878   3.555   0.118   0.284
 7327SOL     OW22879   0.762   3.525   3.656
 7327SOL    HW122880   0.702   3.446   3.649
 7327SOL    HW222881   0.788   3.556   3.565
 7328SOL     OW22882   4.474   4.654   4.766
 7328SOL    HW122883   4.414   4.733   4.752
 7328SOL    HW222884   4.440   4.599   4.842
 7329SOL     OW22885   2.960   3.113   1.087
 7329SOL    HW122886   3.025   3.063   1.143
 7329SOL    HW222887   2.867   3.089   1.115
 7330SOL     OW22888   2.766   3.133   1.720
 7330SOL    HW122889   2.817   3.109   1.637
 7330SOL    HW222890   2.819   3.199   1.773
 7331SOL     OW22891   4.956   0.731   3.087
 7331SOL    HW122892   4.880   0.789   3.057
 7331SOL    HW222893   4.983   0.670   3.012
 7332SOL     OW22894   3.395   5.473   6.089
 7332SOL    HW122895   3.323   5.527   6.047
 7332SOL    HW222896   3.367   5.377   6.094
 7333SOL     OW22897   0.273   1.973   0.972
 7333SOL    HW122898   0.263   1.881   0.934
 7333SOL    HW222899   0.315   2.034   0.905
 7334SOL     OW22900   2.744   0.339   4.488
 7334SOL    HW122901   2.742   0.243   4.515
 7334SOL    HW222902   2.699   0.394   4.559
 7335SOL     OW22903   6.268   3.071   2.100
 7335SOL    HW122904   6.259   3.098   2.196
 7335SOL    HW222905   6.287   2.973   2.095
 7336SOL     OW22906   1.657   6.825   2.115
 7336SOL    HW122907   1.623   6.789   2.029
 7336SOL    HW222908   1.634   6.921   2.124
 7337SOL     OW22909   2.042   2.143   3.602
 7337SOL    HW122910   2.004   2.121   3.512
 7337SOL    HW222911   1.988   2.096   3.672
 7338SOL     OW22912   5.499   3.176   1.288
 7338SOL    HW122913   5.433   3.102   1.279
 7338SOL    HW222914   5.592   3.138   1.290
 7339SOL     OW22915   6.099   4.897   4.411
 7339SOL    HW122916   6.071   4.931   4.321
 7339SOL    HW222917   6.138   4.972   4.464
 7340SOL     OW22918   2.510   0.268   0.554
 7340SOL    HW122919   2.557   0.261   0.642
 7340SOL    HW222920   2.467   0.358   0.546
 7341SOL     OW22921   5.761   4.999   4.332
 7341SOL    HW122922   5.720   5.069   4.274
 7341SOL    HW222923   5.726   4.909   4.306
 7342SOL     OW22924   0.311   6.143   0.319
 7342SOL    HW122925   0.307   6.227   0.374
 7342SOL    HW222926   0.249   6.075   0.358
 7343SOL     OW22927   5.666   3.635   2.270
 7343SOL    HW122928   5.689   3.575   2.193
 7343SOL    HW222929   5.642   3.579   2.349
 7344SOL     OW22930   1.579   6.951   0.033
 7344SOL    HW122931   1.484   6.923   0.024
 7344SOL    HW222932   1.591   0.019   7.023
 7345SOL     OW22933   3.834   5.642   6.883
 7345SOL    HW122934   3.755   5.702   6.872
 7345SOL    HW222935   3.845   5.619   6.980
 7346SOL     OW22936   3.921   4.718   1.812
 7346SOL    HW122937   3.948   4.628   1.778
 7346SOL    HW222938   3.988   4.750   1.879
 7347SOL     OW22939   6.289   1.633   3.127
 7347SOL    HW122940   6.260   1.624   3.032
 7347SOL    HW222941   6.292   1.730   3.151
 7348SOL     OW22942   1.343   1.894   3.192
 7348SOL    HW122943   1.283   1.966   3.156
 7348SOL    HW222944   1.345   1.899   3.292
 7349SOL     OW22945   3.578   1.213   0.995
 7349SOL    HW122946   3.602   1.135   1.054
 7349SOL    HW222947   3.652   1.280   0.998
 7350SOL     OW22948   2.451   1.615   3.052
 7350SOL    HW122949   2.393   1.586   2.976
 7350SOL    HW222950   2.547   1.606   3.026
 7351SOL     OW22951   4.021   4.110   6.684
 7351SOL    HW122952   3.941   4.160   6.717
 7351SOL    HW222953   4.088   4.102   6.757
 7352SOL     OW22954   0.732   1.233   2.351
 7352SOL    HW122955   0.678   1.304   2.307
 7352SOL    HW222956   0.822   1.269   2.373
 7353SOL     OW22957   5.105   2.037   5.008
 7353SOL    HW122958   5.021   2.084   4.982
 7353SOL    HW222959   5.137   1.979   4.933
 7354SOL     OW22960   5.951   4.580   5.674
 7354SOL    HW122961   5.972   4.542   5.764
 7354SOL    HW222962   6.028   4.564   5.612
 7355SOL     OW22963   1.816   5.472   2.059
 7355SOL    HW122964   1.861   5.551   2.019
 7355SOL    HW222965   1.885   5.404   2.086
 7356SOL     OW22966   5.721   1.327   5.695
 7356SOL    HW122967   5.781   1.250   5.715
 7356SOL    HW222968   5.775   1.412   5.694
 7357SOL     OW22969   6.189   1.773   0.322
 7357SOL    HW122970   6.271   1.776   0.265
 7357SOL    HW222971   6.213   1.801   0.415
 7358SOL     OW22972   3.257   1.121   3.940
 7358SOL    HW122973   3.245   1.053   3.867
 7358SOL    HW222974   3.191   1.103   4.013
 7359SOL     OW22975   4.045   3.156   3.833
 7359SOL    HW122976   3.993   3.241   3.835
 7359SOL    HW222977   4.085   3.143   3.742
 7360SOL     OW22978   0.529   2.782   4.907
 7360SOL    HW122979   0.520   2.766   5.005
 7360SOL    HW222980   0.449   2.832   4.874
 7361SOL     OW22981   5.331   6.037   2.517
 7361SOL    HW122982   5.357   6.112   2.456
 7361SOL    HW222983   5.353   6.062   2.612
 7362SOL     OW22984   2.248   6.082   5.852
 7362SOL    HW122985   2.257   6.041   5.943
 7362SOL    HW222986   2.183   6.029   5.798
 7363SOL     OW22987   4.731   3.350   6.247
 7363SOL    HW122988   4.721   3.251   6.248
 7363SOL    HW222989   4.672   3.390   6.318
 7364SOL     OW22990   4.148   6.640   1.639
 7364SOL    HW122991   4.130   6.718   1.579
 7364SOL    HW222992   4.108   6.656   1.729
 7365SOL     OW22993   3.392   0.118   2.643
 7365SOL    HW122994   3.298   0.135   2.613
 7365SOL    HW222995   3.396   0.122   2.742
 7366SOL     OW22996   0.885   5.274   6.776
 7366SOL    HW122997   0.971   5.223   6.781
 7366SOL    HW222998   0.809   5.211   6.790
 7367SOL     OW22999   4.872   3.931   1.041
 7367SOL    HW123000   4.916   4.012   1.002
 7367SOL    HW223001   4.804   3.961   1.109
 7368SOL     OW23002   3.281   3.651   4.940
 7368SOL    HW123003   3.262   3.686   4.849
 7368SOL    HW223004   3.197   3.612   4.979
 7369SOL     OW23005   4.898   3.792   0.321
 7369SOL    HW123006   4.939   3.815   0.410
 7369SOL    HW223007   4.964   3.739   0.267
 7370SOL     OW23008   2.275   6.629   0.775
 7370SOL    HW123009   2.327   6.667   0.852
 7370SOL    HW223010   2.210   6.562   0.809
 7371SOL     OW23011   2.314   5.101   4.691
 7371SOL    HW123012   2.347   5.094   4.786
 7371SOL    HW223013   2.261   5.019   4.668
 7372SOL     OW23014   3.676   0.372   5.766
 7372SOL    HW123015   3.773   0.398   5.762
 7372SOL    HW223016   3.632   0.394   5.679
 7373SOL     OW23017   3.932   0.677   2.081
 7373SOL    HW123018   3.995   0.697   2.156
 7373SOL    HW223019   3.944   0.582   2.051
 7374SOL     OW23020   1.652   2.923   6.378
 7374SOL    HW123021   1.715   2.877   6.316
 7374SOL    HW223022   1.695   3.007   6.413
 7375SOL     OW23023   1.433   0.533   3.971
 7375SOL    HW123024   1.416   0.453   4.028
 7375SOL    HW223025   1.454   0.612   4.030
 7376SOL     OW23026   2.250   3.624   6.883
 7376SOL    HW123027   2.212   3.624   6.790
 7376SOL    HW223028   2.223   3.709   6.929
 7377SOL     OW23029   4.648   4.397   1.514
 7377SOL    HW123030   4.696   4.447   1.442
 7377SOL    HW223031   4.593   4.460   1.569
 7378SOL     OW23032   6.603   1.240   5.008
 7378SOL    HW123033   6.578   1.154   5.052
 7378SOL    HW223034   6.640   1.303   5.077
 7379SOL     OW23035   3.913   1.333   2.377
 7379SOL    HW123036   3.823   1.292   2.361
 7379SOL    HW223037   3.916   1.371   2.469
 7380SOL     OW23038   0.199   3.529   6.379
 7380SOL    HW123039   0.159   3.532   6.287
 7380SOL    HW223040   0.292   3.564   6.376
 7381SOL     OW23041   5.336   2.062   1.425
 7381SOL    HW123042   5.237   2.077   1.416
 7381SOL    HW223043   5.382   2.092   1.341
 7382SOL     OW23044   6.923   5.906   4.306
 7382SOL    HW123045   6.952   5.994   4.342
 7382SOL    HW223046   6.843   5.919   4.247
 7383SOL     OW23047   6.830   6.146   3.265
 7383SOL    HW123048   6.815   6.221   3.201
 7383SOL    HW223049   6.923   6.110   3.253
 7384SOL     OW23050   5.255   0.271   2.410
 7384SOL    HW123051   5.289   0.291   2.502
 7384SOL    HW223052   5.155   0.280   2.409
 7385SOL     OW23053   4.850   6.157   1.520
 7385SOL    HW123054   4.815   6.183   1.610
 7385SOL    HW223055   4.920   6.086   1.530
 7386SOL     OW23056   0.895   2.251   5.272
 7386SOL    HW123057   0.923   2.335   5.225
 7386SOL    HW223058   0.879   2.179   5.204
 7387SOL     OW23059   3.870   5.920   3.507
 7387SOL    HW123060   3.930   5.979   3.452
 7387SOL    HW223061   3.830   5.849   3.449
 7388SOL     OW23062   6.336   5.009   3.473
 7388SOL    HW123063   6.312   5.087   3.415
 7388SOL    HW223064   6.254   4.953   3.487
 7389SOL     OW23065   1.708   4.253   6.127
 7389SOL    HW123066   1.628   4.216   6.081
 7389SOL    HW223067   1.680   4.316   6.199
 7390SOL     OW23068   1.333   0.149   5.391
 7390SOL    HW123069   1.362   0.237   5.354
 7390SOL    HW223070   1.346   0.078   5.323
 7391SOL     OW23071   5.987   3.161   6.599
 7391SOL    HW123072   5.986   3.212   6.685
 7391SOL    HW223073   6.062   3.094   6.601
 7392SOL     OW23074   1.367   4.456   4.058
 7392SOL    HW123075   1.332   4.540   4.098
 7392SOL    HW223076   1.413   4.476   3.971
 7393SOL     OW23077   0.359   4.410   2.704
 7393SOL    HW123078   0.367   4.390   2.802
 7393SOL    HW223079   0.435   4.367   2.655
 7394SOL     OW23080   4.104   3.671   6.801
 7394SOL    HW123081   4.116   3.724   6.717
 7394SOL    HW223082   4.092   3.733   6.878
 7395SOL     OW23083   0.770   0.538   0.593
 7395SOL    HW123084   0.775   0.638   0.602
 7395SOL    HW223085   0.760   0.515   0.496
 7396SOL     OW23086   0.821   7.007   6.331
 7396SOL    HW123087   0.913   6.968   6.332
 7396SOL    HW223088   0.803   0.024   6.242
 7397SOL     OW23089   5.946   5.023   5.045
 7397SOL    HW123090   6.033   5.043   5.001
 7397SOL    HW223091   5.960   5.012   5.143
 7398SOL     OW23092   4.603   4.359   3.746
 7398SOL    HW123093   4.692   4.342   3.788
 7398SOL    HW223094   4.580   4.281   3.687
 7399SOL     OW23095   5.137   3.907   5.903
 7399SOL    HW123096   5.052   3.902   5.851
 7399SOL    HW223097   5.135   3.840   5.977
 7400SOL     OW23098   2.927   5.626   6.851
 7400SOL    HW123099   2.848   5.682   6.878
 7400SOL    HW223100   2.959   5.655   6.761
 7401SOL     OW23101   0.122   2.163   3.659
 7401SOL    HW123102   0.164   2.200   3.742
 7401SOL    HW223103   0.152   2.069   3.645
 7402SOL     OW23104   2.638   0.454   3.956
 7402SOL    HW123105   2.732   0.480   3.935
 7402SOL    HW223106   2.631   0.425   4.051
 7403SOL     OW23107   1.791   3.986   2.790
 7403SOL    HW123108   1.808   3.940   2.877
 7403SOL    HW223109   1.798   3.921   2.715
 7404SOL     OW23110   1.515   0.241   1.673
 7404SOL    HW123111   1.506   0.145   1.645
 7404SOL    HW223112   1.591   0.249   1.738
 7405SOL     OW23113   3.033   5.105   6.003
 7405SOL    HW123114   3.003   5.060   6.087
 7405SOL    HW223115   3.003   5.201   6.004
 7406SOL     OW23116   0.665   4.496   1.761
 7406SOL    HW123117   0.653   4.437   1.682
 7406SOL    HW223118   0.636   4.589   1.738
 7407SOL     OW23119   1.214   6.243   6.366
 7407SOL    HW123120   1.128   6.227   6.416
 7407SOL    HW223121   1.290   6.249   6.431
 7408SOL     OW23122   1.799   4.684   5.785
 7408SOL    HW123123   1.894   4.657   5.800
 7408SOL    HW223124   1.797   4.770   5.734
 7409SOL     OW23125   2.044   5.629   5.075
 7409SOL    HW123126   1.977   5.626   5.149
 7409SOL    HW223127   2.134   5.650   5.112
 7410SOL     OW23128   6.838   5.205   1.207
 7410SOL    HW123129   6.789   5.230   1.123
 7410SOL    HW223130   6.772   5.200   1.283
 7411SOL     OW23131   3.538   6.151   5.073
 7411SOL    HW123132   3.508   6.187   4.985
 7411SOL    HW223133   3.627   6.191   5.098
 7412SOL     OW23134   0.952   1.712   0.219
 7412SOL    HW123135   0.863   1.750   0.243
 7412SOL    HW223136   0.996   1.771   0.151
 7413SOL     OW23137   6.111   4.094   4.923
 7413SOL    HW123138   6.142   3.999   4.923
 7413SOL    HW223139   6.190   4.155   4.920
 7414SOL     OW23140   6.699   0.019   2.170
 7414SOL    HW123141   6.622   7.021   2.112
 7414SOL    HW223142   6.722   0.116   2.157
 7415SOL     OW23143   1.777   2.858   3.707
 7415SOL    HW123144   1.800   2.826   3.799
 7415SOL    HW223145   1.758   2.956   3.710
 7416SOL     OW23146   3.494   0.747   4.168
 7416SOL    HW123147   3.594   0.744   4.161
 7416SOL    HW223148   3.460   0.658   4.197
 7417SOL     OW23149   1.212   6.441   0.084
 7417SOL    HW123150   1.309   6.464   0.093
 7417SOL    HW223151   1.202   6.341   0.078
 7418SOL     OW23152   1.784   3.365   0.874
 7418SOL    HW123153   1.844   3.299   0.829
 7418SOL    HW223154   1.797   3.455   0.833
 7419SOL     OW23155   6.426   0.910   4.844
 7419SOL    HW123156   6.451   0.939   4.937
 7419SOL    HW223157   6.331   0.935   4.826
 7420SOL     OW23158   6.775   5.884   1.680
 7420SOL    HW123159   6.803   5.818   1.751
 7420SOL    HW223160   6.684   5.861   1.647
 7421SOL     OW23161   3.987   3.529   1.326
 7421SOL    HW123162   4.037   3.616   1.327
 7421SOL    HW223163   3.976   3.496   1.420
 7422SOL     OW23164   0.327   3.114   0.387
 7422SOL    HW123165   0.339   3.062   0.472
 7422SOL    HW223166   0.408   3.171   0.371
 7423SOL     OW23167   1.742   5.037   6.637
 7423SOL    HW123168   1.754   5.133   6.612
 7423SOL    HW223169   1.646   5.021   6.660
 7424SOL     OW23170   5.716   0.875   4.340
 7424SOL    HW123171   5.714   0.975   4.347
 7424SOL    HW223172   5.633   0.838   4.383
 7425SOL     OW23173   3.561   5.415   5.860
 7425SOL    HW123174   3.644   5.470   5.870
 7425SOL    HW223175   3.508   5.418   5.945
 7426SOL     OW23176   1.209   1.100   6.607
 7426SOL    HW123177   1.156   1.167   6.658
 7426SOL    HW223178   1.176   1.008   6.627
 7427SOL     OW23179   4.254   5.128   5.096
 7427SOL    HW123180   4.158   5.152   5.106
 7427SOL    HW223181   4.305   5.206   5.060
 7428SOL     OW23182   3.491   2.254   6.095
 7428SOL    HW123183   3.403   2.266   6.140
 7428SOL    HW223184   3.522   2.159   6.105
 7429SOL     OW23185   0.263   0.498   2.888
 7429SOL    HW123186   0.358   0.468   2.894
 7429SOL    HW223187   0.203   0.425   2.921
 7430SOL     OW23188   6.191   3.867   5.373
 7430SOL    HW123189   6.127   3.818   5.313
 7430SOL    HW223190   6.283   3.832   5.359
 7431SOL     OW23191   0.741   4.356   2.034
 7431SOL    HW123192   0.733   4.453   2.059
 7431SOL    HW223193   0.675   4.334   1.962
 7432SOL     OW23194   0.261   6.582   5.198
 7432SOL    HW123195   0.187   6.607   5.260
 7432SOL    HW223196   0.237   6.497   5.150
 7433SOL     OW23197   6.127   5.316   0.642
 7433SOL    HW123198   6.103   5.330   0.738
 7433SOL    HW223199   6.046   5.288   0.590
 7434SOL     OW23200   3.434   1.262   6.217
 7434SOL    HW123201   3.452   1.205   6.297
 7434SOL    HW223202   3.502   1.242   6.146
 7435SOL     OW23203   2.774   6.486   0.489
 7435SOL    HW123204   2.738   6.465   0.580
 7435SOL    HW223205   2.828   6.570   0.493
 7436SOL     OW23206   4.917   3.253   0.425
 7436SOL    HW123207   5.005   3.217   0.452
 7436SOL    HW223208   4.864   3.183   0.378
 7437SOL     OW23209   0.766   6.009   5.941
 7437SOL    HW123210   0.802   6.073   6.010
 7437SOL    HW223211   0.771   5.916   5.976
 7438SOL     OW23212   6.507   4.693   1.789
 7438SOL    HW123213   6.591   4.639   1.790
 7438SOL    HW223214   6.490   4.731   1.879
 7439SOL     OW23215   2.057   0.005   3.524
 7439SOL    HW123216   2.043   0.063   3.445
 7439SOL    HW223217   2.084   0.061   3.603
 7440SOL     OW23218   1.469   2.676   4.147
 7440SOL    HW123219   1.407   2.597   4.156
 7440SOL    HW223220   1.556   2.654   4.190
 7441SOL     OW23221   5.769   1.229   4.102
 7441SOL    HW123222   5.866   1.209   4.090
 7441SOL    HW223223   5.758   1.315   4.152
 7442SOL     OW23224   1.090   0.683   6.535
 7442SOL    HW123225   1.054   0.727   6.453
 7442SOL    HW223226   1.014   0.657   6.595
 7443SOL     OW23227   0.549   1.158   6.782
 7443SOL    HW123228   0.570   1.108   6.867
 7443SOL    HW223229   0.541   1.255   6.802
 7444SOL     OW23230   0.744   3.222   6.411
 7444SOL    HW123231   0.784   3.141   6.369
 7444SOL    HW223232   0.804   3.255   6.484
 7445SOL     OW23233   5.170   1.700   1.829
 7445SOL    HW123234   5.252   1.681   1.882
 7445SOL    HW223235   5.140   1.617   1.782
 7446SOL     OW23236   6.633   4.169   0.999
 7446SOL    HW123237   6.545   4.213   1.014
 7446SOL    HW223238   6.707   4.229   1.030
 7447SOL     OW23239   1.434   4.027   6.287
 7447SOL    HW123240   1.355   4.067   6.333
 7447SOL    HW223241   1.449   4.074   6.200
 7448SOL     OW23242   6.476   0.112   5.925
 7448SOL    HW123243   6.547   0.048   5.953
 7448SOL    HW223244   6.491   0.200   5.971
 7449SOL     OW23245   5.677   2.127   1.993
 7449SOL    HW123246   5.651   2.058   1.926
 7449SOL    HW223247   5.706   2.082   2.078
 7450SOL     OW23248   4.692   1.929   2.889
 7450SOL    HW123249   4.734   1.861   2.828
 7450SOL    HW223250   4.744   1.934   2.974
 7451SOL     OW23251   2.425   0.895   4.278
 7451SOL    HW123252   2.457   0.842   4.356
 7451SOL    HW223253   2.340   0.857   4.244
 7452SOL     OW23254   1.792   6.604   4.873
 7452SOL    HW123255   1.882   6.592   4.913
 7452SOL    HW223256   1.722   6.575   4.938
 7453SOL     OW23257   5.385   6.165   4.459
 7453SOL    HW123258   5.409   6.196   4.551
 7453SOL    HW223259   5.442   6.086   4.435
 7454SOL     OW23260   0.800   3.600   1.322
 7454SOL    HW123261   0.773   3.643   1.408
 7454SOL    HW223262   0.794   3.666   1.248
 7455SOL     OW23263   4.720   2.785   0.512
 7455SOL    HW123264   4.653   2.806   0.583
 7455SOL    HW223265   4.811   2.783   0.552
 7456SOL     OW23266   1.858   3.519   4.856
 7456SOL    HW123267   1.802   3.554   4.782
 7456SOL    HW223268   1.861   3.419   4.851
 7457SOL     OW23269   6.245   0.848   5.401
 7457SOL    HW123270   6.306   0.775   5.370
 7457SOL    HW223271   6.232   0.840   5.500
 7458SOL     OW23272   2.569   0.866   0.741
 7458SOL    HW123273   2.668   0.880   0.739
 7458SOL    HW223274   2.543   0.825   0.828
 7459SOL     OW23275   4.363   0.728   4.724
 7459SOL    HW123276   4.310   0.737   4.640
 7459SOL    HW223277   4.318   0.781   4.797
 7460SOL     OW23278   0.561   4.561   0.587
 7460SOL    HW123279   0.496   4.499   0.631
 7460SOL    HW223280   0.638   4.579   0.649
 7461SOL     OW23281   5.183   1.111   4.572
 7461SOL    HW123282   5.105   1.126   4.632
 7461SOL    HW223283   5.244   1.190   4.577
 7462SOL     OW23284   2.011   1.948   2.514
 7462SOL    HW123285   2.094   1.916   2.468
 7462SOL    HW223286   1.972   2.025   2.464
 7463SOL     OW23287   4.095   3.566   2.198
 7463SOL    HW123288   4.114   3.579   2.295
 7463SOL    HW223289   4.076   3.469   2.180
 7464SOL     OW23290   5.002   6.027   0.641
 7464SOL    HW123291   5.067   5.959   0.676
 7464SOL    HW223292   4.921   5.980   0.605
 7465SOL     OW23293   3.229   7.018   1.894
 7465SOL    HW123294   3.136   0.014   1.863
 7465SOL    HW223295   3.253   0.054   1.969
 7466SOL     OW23296   0.238   0.523   6.970
 7466SOL    HW123297   0.212   0.560   0.035
 7466SOL    HW223298   0.160   0.475   6.931
 7467SOL     OW23299   0.300   1.710   0.888
 7467SOL    HW123300   0.204   1.701   0.865
 7467SOL    HW223301   0.340   1.619   0.904
 7468SOL     OW23302   5.716   1.578   2.624
 7468SOL    HW123303   5.718   1.635   2.542
 7468SOL    HW223304   5.716   1.636   2.706
 7469SOL     OW23305   1.120   0.855   0.807
 7469SOL    HW123306   1.161   0.776   0.761
 7469SOL    HW223307   1.023   0.862   0.782
 7470SOL     OW23308   6.965   2.173   2.333
 7470SOL    HW123309   0.003   2.202   2.405
 7470SOL    HW223310   7.016   2.132   2.258
 7471SOL     OW23311   6.001   6.740   5.738
 7471SOL    HW123312   5.905   6.721   5.758
 7471SOL    HW223313   6.058   6.694   5.805
 7472SOL     OW23314   3.375   0.462   3.887
 7472SOL    HW123315   3.415   0.375   3.858
 7472SOL    HW223316   3.356   0.459   3.985
 7473SOL     OW23317   6.721   3.831   4.458
 7473SOL    HW123318   6.704   3.919   4.415
 7473SOL    HW223319   6.703   3.757   4.393
 7474SOL     OW23320   3.901   0.947   3.309
 7474SOL    HW123321   3.859   1.019   3.364
 7474SOL    HW223322   3.834   0.911   3.244
 7475SOL     OW23323   4.043   0.857   1.276
 7475SOL    HW123324   3.956   0.837   1.231
 7475SOL    HW223325   4.035   0.941   1.330
 7476SOL     OW23326   3.598   6.581   4.278
 7476SOL    HW123327   3.569   6.675   4.257
 7476SOL    HW223328   3.667   6.552   4.211
 7477SOL     OW23329   3.757   1.342   4.281
 7477SOL    HW123330   3.693   1.371   4.352
 7477SOL    HW223331   3.767   1.242   4.283
 7478SOL     OW23332   1.982   4.449   0.487
 7478SOL    HW123333   1.923   4.529   0.481
 7478SOL    HW223334   1.943   4.375   0.432
 7479SOL     OW23335   4.662   0.761   6.559
 7479SOL    HW123336   4.634   0.772   6.463
 7479SOL    HW223337   4.594   0.803   6.619
 7480SOL     OW23338   6.375   5.662   1.027
 7480SOL    HW123339   6.366   5.714   0.943
 7480SOL    HW223340   6.393   5.566   1.006
 7481SOL     OW23341   5.724   4.917   0.700
 7481SOL    HW123342   5.742   4.900   0.603
 7481SOL    HW223343   5.650   4.984   0.708
 7482SOL     OW23344   4.545   1.054   2.828
 7482SOL    HW123345   4.571   0.961   2.855
 7482SOL    HW223346   4.485   1.050   2.748
 7483SOL     OW23347   3.333   0.890   4.711
 7483SOL    HW123348   3.426   0.891   4.746
 7483SOL    HW223349   3.299   0.984   4.704
 7484SOL     OW23350   1.997   6.358   2.511
 7484SOL    HW123351   1.983   6.259   2.509
 7484SOL    HW223352   1.952   6.400   2.433
 7485SOL     OW23353   2.876   5.772   6.204
 7485SOL    HW123354   2.890   5.706   6.278
 7485SOL    HW223355   2.801   5.742   6.146
 7486SOL     OW23356   3.095   6.349   5.384
 7486SOL    HW123357   3.153   6.276   5.421
 7486SOL    HW223358   3.088   6.338   5.285
 7487SOL     OW23359   3.238   6.046   4.311
 7487SOL    HW123360   3.251   6.023   4.215
 7487SOL    HW223361   3.141   6.062   4.329
 7488SOL     OW23362   3.816   0.234   5.960
 7488SOL    HW123363   3.819   0.293   6.040
 7488SOL    HW223364   3.742   0.264   5.899
 7489SOL     OW23365   5.055   2.817   3.945
 7489SOL    HW123366   5.069   2.911   3.914
 7489SOL    HW223367   4.975   2.779   3.898
 7490SOL     OW23368   5.591   0.702   1.062
 7490SOL    HW123369   5.565   0.638   0.990
 7490SOL    HW223370   5.616   0.790   1.020
 7491SOL     OW23371   6.558   5.844   6.127
 7491SOL    HW123372   6.565   5.942   6.146
 7491SOL    HW223373   6.541   5.794   6.211
 7492SOL     OW23374   1.714   2.724   5.060
 7492SOL    HW123375   1.690   2.761   4.970
 7492SOL    HW223376   1.781   2.651   5.049
 7493SOL     OW23377   5.520   3.399   6.660
 7493SOL    HW123378   5.485   3.445   6.742
 7493SOL    HW223379   5.619   3.415   6.653
 7494SOL     OW23380   5.383   0.290   2.150
 7494SOL    HW123381   5.387   0.388   2.130
 7494SOL    HW223382   5.347   0.277   2.242
 7495SOL     OW23383   2.010   2.068   0.833
 7495SOL    HW123384   2.108   2.088   0.832
 7495SOL    HW223385   1.980   2.044   0.740
 7496SOL     OW23386   1.062   5.081   6.258
 7496SOL    HW123387   1.032   5.064   6.351
 7496SOL    HW223388   0.983   5.080   6.196
 7497SOL     OW23389   1.584   4.121   2.297
 7497SOL    HW123390   1.605   4.091   2.390
 7497SOL    HW223391   1.667   4.158   2.255
 7498SOL     OW23392   3.637   1.941   4.677
 7498SOL    HW123393   3.703   1.993   4.731
 7498SOL    HW223394   3.584   2.003   4.620
 7499SOL     OW23395   5.547   0.023   4.515
 7499SOL    HW123396   5.628   0.065   4.555
 7499SOL    HW223397   5.559   6.949   4.511
 7500SOL     OW23398   4.533   6.199   2.016
 7500SOL    HW123399   4.565   6.203   2.111
 7500SOL    HW223400   4.581   6.126   1.967
 7501SOL     OW23401   0.327   4.162   3.883
 7501SOL    HW123402   0.298   4.151   3.788
 7501SOL    HW223403   0.397   4.094   3.905
 7502SOL     OW23404   2.603   0.907   5.002
 7502SOL    HW123405   2.644   0.819   4.977
 7502SOL    HW223406   2.522   0.891   5.059
 7503SOL     OW23407   3.182   1.050   0.097
 7503SOL    HW123408   3.236   1.134   0.107
 7503SOL    HW223409   3.155   1.039   0.002
 7504SOL     OW23410   3.964   6.725   3.213
 7504SOL    HW123411   3.980   6.744   3.310
 7504SOL    HW223412   4.049   6.739   3.161
 7505SOL     OW23413   1.928   1.588   4.905
 7505SOL    HW123414   1.964   1.677   4.933
 7505SOL    HW223415   1.994   1.542   4.845
 7506SOL     OW23416   3.693   0.939   2.554
 7506SOL    HW123417   3.631   0.886   2.495
 7506SOL    HW223418   3.735   0.878   2.621
 7507SOL     OW23419   0.750   6.307   5.679
 7507SOL    HW123420   0.824   6.324   5.744
 7507SOL    HW223421   0.746   6.209   5.658
 7508SOL     OW23422   5.889   6.938   2.690
 7508SOL    HW123423   5.923   6.868   2.752
 7508SOL    HW223424   5.941   6.934   2.605
 7509SOL     OW23425   4.935   3.464   6.079
 7509SOL    HW123426   4.883   3.486   5.996
 7509SOL    HW223427   4.873   3.432   6.150
 7510SOL     OW23428   3.660   4.204   4.908
 7510SOL    HW123429   3.658   4.281   4.845
 7510SOL    HW223430   3.721   4.133   4.872
 7511SOL     OW23431   1.784   0.694   2.225
 7511SOL    HW123432   1.858   0.734   2.173
 7511SOL    HW223433   1.821   0.624   2.287
 7512SOL     OW23434   2.915   2.801   1.645
 7512SOL    HW123435   2.829   2.776   1.689
 7512SOL    HW223436   2.906   2.893   1.606
 7513SOL     OW23437   1.822   1.740   6.801
 7513SOL    HW123438   1.862   1.832   6.808
 7513SOL    HW223439   1.784   1.727   6.709
 7514SOL     OW23440   2.504   5.421   2.329
 7514SOL    HW123441   2.490   5.490   2.400
 7514SOL    HW223442   2.505   5.330   2.371
 7515SOL     OW23443   6.548   6.702   2.508
 7515SOL    HW123444   6.602   6.630   2.553
 7515SOL    HW223445   6.455   6.702   2.545
 7516SOL     OW23446   0.857   0.905   3.686
 7516SOL    HW123447   0.780   0.949   3.641
 7516SOL    HW223448   0.840   0.807   3.694
 7517SOL     OW23449   0.290   3.930   0.824
 7517SOL    HW123450   0.321   3.864   0.755
 7517SOL    HW223451   0.281   4.020   0.782
 7518SOL     OW23452   4.554   5.612   4.264
 7518SOL    HW123453   4.556   5.512   4.275
 7518SOL    HW223454   4.498   5.652   4.335
 7519SOL     OW23455   1.628   6.232   4.439
 7519SOL    HW123456   1.632   6.332   4.442
 7519SOL    HW223457   1.602   6.202   4.347
 7520SOL     OW23458   1.584   6.595   3.628
 7520SOL    HW123459   1.545   6.667   3.570
 7520SOL    HW223460   1.662   6.631   3.678
 7521SOL     OW23461   4.721   4.181   5.006
 7521SOL    HW123462   4.744   4.151   4.914
 7521SOL    HW223463   4.677   4.270   5.003
 7522SOL     OW23464   2.180   1.215   1.061
 7522SOL    HW123465   2.260   1.275   1.065
 7522SOL    HW223466   2.102   1.267   1.026
 7523SOL     OW23467   6.006   0.383   6.225
 7523SOL    HW123468   6.029   0.397   6.129
 7523SOL    HW223469   5.907   0.396   6.238
 7524SOL     OW23470   0.692   1.937   5.443
 7524SOL    HW123471   0.728   2.029   5.457
 7524SOL    HW223472   0.635   1.912   5.521
 7525SOL     OW23473   1.517   0.900   0.259
 7525SOL    HW123474   1.581   0.972   0.234
 7525SOL    HW223475   1.525   0.824   0.194
 7526SOL     OW23476   3.709   2.949   4.465
 7526SOL    HW123477   3.787   2.951   4.528
 7526SOL    HW223478   3.742   2.965   4.372
 7527SOL     OW23479   5.290   4.180   2.964
 7527SOL    HW123480   5.241   4.156   3.048
 7527SOL    HW223481   5.386   4.201   2.987
 7528SOL     OW23482   4.851   2.738   0.290
 7528SOL    HW123483   4.806   2.796   0.358
 7528SOL    HW223484   4.782   2.700   0.228
 7529SOL     OW23485   3.619   0.828   5.284
 7529SOL    HW123486   3.586   0.734   5.283
 7529SOL    HW223487   3.705   0.833   5.334
 7530SOL     OW23488   0.126   4.096   2.207
 7530SOL    HW123489   0.141   4.078   2.304
 7530SOL    HW223490   0.089   4.014   2.163
 7531SOL     OW23491   4.084   1.889   3.682
 7531SOL    HW123492   4.164   1.839   3.648
 7531SOL    HW223493   4.110   1.983   3.703
 7532SOL     OW23494   5.216   5.856   2.268
 7532SOL    HW123495   5.185   5.770   2.228
 7532SOL    HW223496   5.259   5.837   2.356
 7533SOL     OW23497   3.439   1.511   4.730
 7533SOL    HW123498   3.470   1.432   4.676
 7533SOL    HW223499   3.371   1.562   4.678
 7534SOL     OW23500   4.352   6.572   5.002
 7534SOL    HW123501   4.387   6.491   5.048
 7534SOL    HW223502   4.283   6.545   4.934
 7535SOL     OW23503   2.699   2.597   5.963
 7535SOL    HW123504   2.788   2.575   5.923
 7535SOL    HW223505   2.703   2.583   6.062
 7536SOL     OW23506   4.160   5.428   4.764
 7536SOL    HW123507   4.083   5.426   4.828
 7536SOL    HW223508   4.171   5.338   4.722
 7537SOL     OW23509   2.491   4.813   5.723
 7537SOL    HW123510   2.412   4.758   5.696
 7537SOL    HW223511   2.572   4.781   5.674
 7538SOL     OW23512   3.083   3.552   3.181
 7538SOL    HW123513   3.078   3.572   3.084
 7538SOL    HW223514   3.026   3.473   3.202
 7539SOL     OW23515   2.024   2.814   5.258
 7539SOL    HW123516   2.087   2.737   5.258
 7539SOL    HW223517   2.075   2.900   5.250
 7540SOL     OW23518   2.985   1.442   6.972
 7540SOL    HW123519   2.969   1.351   7.012
 7540SOL    HW223520   2.982   1.435   6.872
 7541SOL     OW23521   6.172   1.917   5.151
 7541SOL    HW123522   6.234   1.928   5.073
 7541SOL    HW223523   6.225   1.892   5.232
 7542SOL     OW23524   1.410   6.804   5.533
 7542SOL    HW123525   1.466   6.857   5.469
 7542SOL    HW223526   1.419   6.842   5.625
 7543SOL     OW23527   3.970   3.510   0.827
 7543SOL    HW123528   3.891   3.565   0.855
 7543SOL    HW223529   3.996   3.449   0.902
 7544SOL     OW23530   2.002   2.367   3.196
 7544SOL    HW123531   2.055   2.451   3.184
 7544SOL    HW223532   2.001   2.316   3.110
 7545SOL     OW23533   5.223   6.778   3.831
 7545SOL    HW123534   5.266   6.724   3.903
 7545SOL    HW223535   5.218   6.723   3.747
 7546SOL     OW23536   4.851   0.712   0.130
 7546SOL    HW123537   4.873   0.739   0.223
 7546SOL    HW223538   4.936   0.687   0.082
 7547SOL     OW23539   3.575   0.411   0.440
 7547SOL    HW123540   3.505   0.359   0.489
 7547SOL    HW223541   3.619   0.352   0.373
 7548SOL     OW23542   2.643   2.337   1.544
 7548SOL    HW123543   2.728   2.286   1.536
 7548SOL    HW223544   2.646   2.395   1.626
 7549SOL     OW23545   5.288   2.162   2.889
 7549SOL    HW123546   5.243   2.251   2.900
 7549SOL    HW223547   5.221   2.089   2.902
 7550SOL     OW23548   2.035   6.108   2.711
 7550SOL    HW123549   2.050   6.050   2.631
 7550SOL    HW223550   2.083   6.069   2.790
 7551SOL     OW23551   4.898   3.080   6.626
 7551SOL    HW123552   4.893   2.981   6.619
 7551SOL    HW223553   4.807   3.119   6.615
 7552SOL     OW23554   2.622   5.283   4.305
 7552SOL    HW123555   2.551   5.228   4.261
 7552SOL    HW223556   2.626   5.372   4.260
 7553SOL     OW23557   3.813   5.766   5.840
 7553SOL    HW123558   3.715   5.762   5.824
 7553SOL    HW223559   3.858   5.810   5.762
 7554SOL     OW23560   5.555   1.669   0.264
 7554SOL    HW123561   5.634   1.611   0.282
 7554SOL    HW223562   5.517   1.701   0.351
 7555SOL     OW23563   0.122   6.349   5.120
 7555SOL    HW123564   0.039   6.360   5.173
 7555SOL    HW223565   0.135   6.252   5.098
 7556SOL     OW23566   0.377   2.783   4.330
 7556SOL    HW123567   0.387   2.858   4.264
 7556SOL    HW223568   0.457   2.723   4.325
 7557SOL     OW23569   5.219   4.143   6.000
 7557SOL    HW123570   5.220   4.138   6.100
 7557SOL    HW223571   5.183   4.057   5.964
 7558SOL     OW23572   1.732   3.746   3.248
 7558SOL    HW123573   1.708   3.778   3.157
 7558SOL    HW223574   1.780   3.658   3.241
 7559SOL     OW23575   0.470   4.649   1.045
 7559SOL    HW123576   0.455   4.745   1.067
 7559SOL    HW223577   0.412   4.592   1.103
 7560SOL     OW23578   5.213   6.783   0.734
 7560SOL    HW123579   5.165   6.703   0.697
 7560SOL    HW223580   5.275   6.820   0.665
 7561SOL     OW23581   6.520   3.386   0.288
 7561SOL    HW123582   6.596   3.369   0.351
 7561SOL    HW223583   6.479   3.298   0.262
 7562SOL     OW23584   5.022   6.482   5.255
 7562SOL    HW123585   5.108   6.486   5.306
 7562SOL    HW223586   5.040   6.496   5.158
 7563SOL     OW23587   2.851   0.634   2.429
 7563SOL    HW123588   2.758   0.598   2.420
 7563SOL    HW223589   2.857   0.692   2.510
 7564SOL     OW23590   4.818   0.075   2.938
 7564SOL    HW123591   4.830   0.127   3.022
 7564SOL    HW223592   4.743   0.115   2.884
 7565SOL     OW23593   4.816   4.932   6.950
 7565SOL    HW123594   4.879   4.995   6.997
 7565SOL    HW223595   4.813   4.954   6.853
 7566SOL     OW23596   0.665   5.961   4.582
 7566SOL    HW123597   0.584   5.903   4.592
 7566SOL    HW223598   0.733   5.913   4.527
 7567SOL     OW23599   2.966   4.785   6.717
 7567SOL    HW123600   2.938   4.860   6.778
 7567SOL    HW223601   3.064   4.772   6.724
 7568SOL     OW23602   5.032   5.471   3.503
 7568SOL    HW123603   5.126   5.440   3.517
 7568SOL    HW223604   4.982   5.466   3.590
 7569SOL     OW23605   3.823   5.597   0.121
 7569SOL    HW123606   3.729   5.607   0.154
 7569SOL    HW223607   3.835   5.506   0.082
 7570SOL     OW23608   5.487   5.453   3.868
 7570SOL    HW123609   5.440   5.516   3.806
 7570SOL    HW223610   5.500   5.497   3.957
 7571SOL     OW23611   5.768   4.174   1.652
 7571SOL    HW123612   5.694   4.148   1.590
 7571SOL    HW223613   5.739   4.160   1.747
 7572SOL     OW23614   3.360   0.798   4.463
 7572SOL    HW123615   3.370   0.835   4.555
 7572SOL    HW223616   3.265   0.801   4.435
 7573SOL     OW23617   0.326   6.292   4.245
 7573SOL    HW123618   0.285   6.239   4.171
 7573SOL    HW223619   0.412   6.249   4.272
 7574SOL     OW23620   5.457   6.882   3.501
 7574SOL    HW123621   5.459   6.975   3.536
 7574SOL    HW223622   5.396   6.877   3.422
 7575SOL     OW23623   3.920   1.182   5.472
 7575SOL    HW123624   3.820   1.188   5.465
 7575SOL    HW223625   3.961   1.197   5.382
 7576SOL     OW23626   6.369   3.169   0.196
 7576SOL    HW123627   6.424   3.087   0.189
 7576SOL    HW223628   6.286   3.159   0.140
 7577SOL     OW23629   6.264   1.132   4.686
 7577SOL    HW123630   6.296   1.204   4.748
 7577SOL    HW223631   6.339   1.068   4.669
 7578SOL     OW23632   2.094   5.273   4.737
 7578SOL    HW123633   2.127   5.365   4.758
 7578SOL    HW223634   2.136   5.241   4.652
 7579SOL     OW23635   3.625   1.609   2.659
 7579SOL    HW123636   3.594   1.615   2.754
 7579SOL    HW223637   3.641   1.513   2.635
 7580SOL     OW23638   1.819   4.230   2.503
 7580SOL    HW123639   1.799   4.298   2.574
 7580SOL    HW223640   1.885   4.164   2.538
 7581SOL     OW23641   5.165   1.653   0.919
 7581SOL    HW123642   5.088   1.600   0.885
 7581SOL    HW223643   5.131   1.729   0.975
 7582SOL     OW23644   3.426   1.409   1.140
 7582SOL    HW123645   3.442   1.508   1.134
 7582SOL    HW223646   3.424   1.371   1.047
 7583SOL     OW23647   5.664   3.056   1.898
 7583SOL    HW123648   5.612   3.027   1.978
 7583SOL    HW223649   5.761   3.032   1.911
 7584SOL     OW23650   2.570   6.700   1.614
 7584SOL    HW123651   2.473   6.705   1.635
 7584SOL    HW223652   2.593   6.767   1.544
 7585SOL     OW23653   1.371   4.924   6.496
 7585SOL    HW123654   1.351   4.887   6.405
 7585SOL    HW223655   1.404   4.850   6.555
 7586SOL     OW23656   2.905   0.423   2.973
 7586SOL    HW123657   2.970   0.424   2.897
 7586SOL    HW223658   2.941   0.369   3.048
 7587SOL     OW23659   1.020   1.703   6.447
 7587SOL    HW123660   0.932   1.706   6.493
 7587SOL    HW223661   1.042   1.794   6.412
 7588SOL     OW23662   0.254   4.868   3.200
 7588SOL    HW123663   0.345   4.907   3.215
 7588SOL    HW223664   0.235   4.865   3.102
 7589SOL     OW23665   5.854   6.011   0.585
 7589SOL    HW123666   5.790   6.013   0.662
 7589SOL    HW223667   5.862   6.102   0.546
 7590SOL     OW23668   2.667   1.484   5.854
 7590SOL    HW123669   2.619   1.453   5.936
 7590SOL    HW223670   2.602   1.530   5.793
 7591SOL     OW23671   6.675   4.833   6.785
 7591SOL    HW123672   6.756   4.888   6.769
 7591SOL    HW223673   6.682   4.747   6.734
 7592SOL     OW23674   6.510   5.093   6.663
 7592SOL    HW123675   6.472   5.164   6.722
 7592SOL    HW223676   6.555   5.024   6.720
 7593SOL     OW23677   4.696   2.178   6.918
 7593SOL    HW123678   4.742   2.226   6.993
 7593SOL    HW223679   4.625   2.119   6.956
 7594SOL     OW23680   0.951   5.965   4.051
 7594SOL    HW123681   0.939   5.932   3.957
 7594SOL    HW223682   1.018   5.907   4.098
 7595SOL     OW23683   6.869   3.131   6.425
 7595SOL    HW123684   6.951   3.184   6.448
 7595SOL    HW223685   6.847   3.143   6.328
 7596SOL     OW23686   5.404   4.585   1.689
 7596SOL    HW123687   5.379   4.491   1.667
 7596SOL    HW223688   5.323   4.643   1.688
 7597SOL     OW23689   4.044   5.266   1.730
 7597SOL    HW123690   4.126   5.307   1.770
 7597SOL    HW223691   3.977   5.337   1.712
 7598SOL     OW23692   6.898   0.091   2.977
 7598SOL    HW123693   6.973   0.049   2.926
 7598SOL    HW223694   6.852   0.021   3.032
 7599SOL     OW23695   6.473   1.893   3.326
 7599SOL    HW123696   6.378   1.921   3.341
 7599SOL    HW223697   6.531   1.973   3.321
 7600SOL     OW23698   1.541   0.802   2.220
 7600SOL    HW123699   1.540   0.894   2.258
 7600SOL    HW223700   1.634   0.766   2.221
 7601SOL     OW23701   1.550   6.195   4.166
 7601SOL    HW123702   1.587   6.160   4.080
 7601SOL    HW223703   1.521   6.290   4.153
 7602SOL     OW23704   1.581   4.172   4.520
 7602SOL    HW123705   1.580   4.262   4.562
 7602SOL    HW223706   1.646   4.113   4.568
 7603SOL     OW23707   1.092   5.978   0.892
 7603SOL    HW123708   1.071   6.074   0.911
 7603SOL    HW223709   1.169   5.948   0.947
 7604SOL     OW23710   3.983   6.150   4.768
 7604SOL    HW123711   4.038   6.092   4.829
 7604SOL    HW223712   3.969   6.239   4.811
 7605SOL     OW23713   0.288   4.395   6.905
 7605SOL    HW123714   0.376   4.381   6.950
 7605SOL    HW223715   0.234   4.461   6.958
 7606SOL     OW23716   6.665   2.619   2.481
 7606SOL    HW123717   6.578   2.640   2.527
 7606SOL    HW223718   6.741   2.656   2.536
 7607SOL     OW23719   4.932   0.069   6.274
 7607SOL    HW123720   4.902   0.135   6.342
 7607SOL    HW223721   4.907   7.001   6.303
 7608SOL     OW23722   2.969   3.226   4.058
 7608SOL    HW123723   3.061   3.267   4.054
 7608SOL    HW223724   2.946   3.190   3.967
 7609SOL     OW23725   0.840   3.797   3.740
 7609SOL    HW123726   0.857   3.832   3.647
 7609SOL    HW223727   0.921   3.748   3.772
 7610SOL     OW23728   5.224   0.236   0.797
 7610SOL    HW123729   5.230   0.140   0.824
 7610SOL    HW223730   5.289   0.290   0.850
 7611SOL     OW23731   1.425   1.812   0.024
 7611SOL    HW123732   1.513   1.772   0.048
 7611SOL    HW223733   1.434   1.867   6.966
 7612SOL     OW23734   3.786   1.855   4.169
 7612SOL    HW123735   3.847   1.908   4.227
 7612SOL    HW223736   3.743   1.916   4.101
 7613SOL     OW23737   5.021   0.957   1.787
 7613SOL    HW123738   4.990   1.006   1.706
 7613SOL    HW223739   5.023   0.858   1.768
 7614SOL     OW23740   3.934   1.877   1.069
 7614SOL    HW123741   3.899   1.971   1.069
 7614SOL    HW223742   3.875   1.820   1.125
 7615SOL     OW23743   3.766   5.747   6.341
 7615SOL    HW123744   3.815   5.740   6.255
 7615SOL    HW223745   3.667   5.745   6.324
 7616SOL     OW23746   6.635   4.070   3.396
 7616SOL    HW123747   6.571   3.995   3.412
 7616SOL    HW223748   6.687   4.052   3.312
 7617SOL     OW23749   2.990   5.093   3.611
 7617SOL    HW123750   3.040   5.174   3.582
 7617SOL    HW223751   2.915   5.120   3.672
 7618SOL     OW23752   1.641   2.068   6.672
 7618SOL    HW123753   1.621   2.158   6.635
 7618SOL    HW223754   1.723   2.073   6.729
 7619SOL     OW23755   6.158   3.416   5.284
 7619SOL    HW123756   6.072   3.412   5.336
 7619SOL    HW223757   6.162   3.338   5.221
 7620SOL     OW23758   4.131   6.862   0.672
 7620SOL    HW123759   4.086   6.931   0.728
 7620SOL    HW223760   4.096   6.865   0.579
 7621SOL     OW23761   1.905   1.086   1.009
 7621SOL    HW123762   1.943   1.172   1.044
 7621SOL    HW223763   1.955   1.010   1.050
 7622SOL     OW23764   4.021   3.399   1.071
 7622SOL    HW123765   3.960   3.320   1.081
 7622SOL    HW223766   4.005   3.463   1.146
 7623SOL     OW23767   4.400   6.446   6.131
 7623SOL    HW123768   4.369   6.352   6.118
 7623SOL    HW223769   4.424   6.460   6.227
 7624SOL     OW23770   1.032   1.516   3.035
 7624SOL    HW123771   0.952   1.572   3.013
 7624SOL    HW223772   1.084   1.498   2.952
 7625SOL     OW23773   5.227   0.578   1.161
 7625SOL    HW123774   5.225   0.631   1.076
 7625SOL    HW223775   5.136   0.576   1.202
 7626SOL     OW23776   1.249   6.534   4.616
 7626SOL    HW123777   1.292   6.449   4.649
 7626SOL    HW223778   1.258   6.539   4.517
 7627SOL     OW23779   0.044   2.842   0.904
 7627SOL    HW123780   0.110   2.847   0.979
 7627SOL    HW223781   7.019   2.928   0.898
 7628SOL     OW23782   3.182   1.407   0.916
 7628SOL    HW123783   3.266   1.455   0.891
 7628SOL    HW223784   3.121   1.403   0.836
 7629SOL     OW23785   6.856   5.863   2.768
 7629SOL    HW123786   6.824   5.935   2.829
 7629SOL    HW223787   6.956   5.866   2.762
 7630SOL     OW23788   6.745   0.306   2.333
 7630SOL    HW123789   6.813   0.377   2.351
 7630SOL    HW223790   6.695   0.330   2.250
 7631SOL     OW23791   0.678   1.603   4.407
 7631SOL    HW123792   0.702   1.633   4.499
 7631SOL    HW223793   0.579   1.614   4.394
 7632SOL     OW23794   4.539   2.364   1.080
 7632SOL    HW123795   4.469   2.369   1.152
 7632SOL    HW223796   4.506   2.410   0.998
 7633SOL     OW23797   5.466   3.098   6.664
 7633SOL    HW123798   5.400   3.094   6.739
 7633SOL    HW223799   5.492   3.194   6.648
 7634SOL     OW23800   2.247   0.447   2.278
 7634SOL    HW123801   2.293   0.473   2.194
 7634SOL    HW223802   2.225   0.529   2.331
 7635SOL     OW23803   2.598   5.449   6.058
 7635SOL    HW123804   2.502   5.464   6.037
 7635SOL    HW223805   2.613   5.354   6.084
 7636SOL     OW23806   0.990   0.810   4.081
 7636SOL    HW123807   1.032   0.825   3.991
 7636SOL    HW223808   0.933   0.888   4.105
 7637SOL     OW23809   1.467   6.449   4.153
 7637SOL    HW123810   1.487   6.509   4.076
 7637SOL    HW223811   1.458   6.503   4.237
 7638SOL     OW23812   5.304   5.598   1.756
 7638SOL    HW123813   5.397   5.579   1.727
 7638SOL    HW223814   5.241   5.583   1.679
 7639SOL     OW23815   0.933   1.443   5.314
 7639SOL    HW123816   0.845   1.462   5.358
 7639SOL    HW223817   0.938   1.493   5.227
 7640SOL     OW23818   2.270   2.119   1.019
 7640SOL    HW123819   2.346   2.057   0.997
 7640SOL    HW223820   2.188   2.065   1.037
 7641SOL     OW23821   6.138   3.941   2.401
 7641SOL    HW123822   6.197   3.891   2.338
 7641SOL    HW223823   6.097   3.878   2.466
 7642SOL     OW23824   2.265   1.876   2.457
 7642SOL    HW123825   2.352   1.868   2.408
 7642SOL    HW223826   2.283   1.883   2.556
 7643SOL     OW23827   4.635   2.523   2.656
 7643SOL    HW123828   4.682   2.437   2.637
 7643SOL    HW223829   4.639   2.581   2.574
 7644SOL     OW23830   0.246   2.871   3.309
 7644SOL    HW123831   0.221   2.775   3.324
 7644SOL    HW223832   0.191   2.930   3.367
 7645SOL     OW23833   4.825   4.583   7.010
 7645SOL    HW123834   4.816   4.486   0.006
 7645SOL    HW223835   4.736   4.620   6.984
 7646SOL     OW23836   2.180   2.206   2.275
 7646SOL    HW123837   2.197   2.160   2.188
 7646SOL    HW223838   2.089   2.182   2.309
 7647SOL     OW23839   1.786   3.995   1.411
 7647SOL    HW123840   1.844   3.914   1.416
 7647SOL    HW223841   1.697   3.976   1.452
 7648SOL     OW23842   4.350   1.576   3.882
 7648SOL    HW123843   4.387   1.490   3.916
 7648SOL    HW223844   4.284   1.613   3.947
 7649SOL     OW23845   2.617   0.606   2.265
 7649SOL    HW123846   2.583   0.696   2.293
 7649SOL    HW223847   2.689   0.617   2.196
 7650SOL     OW23848   6.748   3.941   2.002
 7650SOL    HW123849   6.727   3.847   1.972
 7650SOL    HW223850   6.739   4.003   1.924
 7651SOL     OW23851   3.439   0.242   6.494
 7651SOL    HW123852   3.398   0.333   6.489
 7651SOL    HW223853   3.372   0.174   6.463
 7652SOL     OW23854   0.085   3.698   3.316
 7652SOL    HW123855   0.054   3.733   3.404
 7652SOL    HW223856   0.111   3.602   3.326
 7653SOL     OW23857   2.660   1.624   1.586
 7653SOL    HW123858   2.651   1.717   1.620
 7653SOL    HW223859   2.671   1.561   1.663
 7654SOL     OW23860   5.216   3.152   3.967
 7654SOL    HW123861   5.259   3.089   4.032
 7654SOL    HW223862   5.253   3.134   3.876
 7655SOL     OW23863   2.988   6.717   4.791
 7655SOL    HW123864   3.066   6.717   4.728
 7655SOL    HW223865   2.976   6.625   4.829
 7656SOL     OW23866   7.022   6.099   5.049
 7656SOL    HW123867   6.978   6.126   4.963
 7656SOL    HW223868   0.056   6.021   5.033
 7657SOL     OW23869   3.120   1.907   3.427
 7657SOL    HW123870   3.139   1.809   3.421
 7657SOL    HW223871   3.205   1.957   3.440
 7658SOL     OW23872   4.284   1.052   5.783
 7658SOL    HW123873   4.318   1.012   5.868
 7658SOL    HW223874   4.202   1.003   5.754
 7659SOL     OW23875   6.338   6.596   0.703
 7659SOL    HW123876   6.294   6.506   0.698
 7659SOL    HW223877   6.280   6.658   0.757
 7660SOL     OW23878   5.374   5.713   2.766
 7660SOL    HW123879   5.345   5.693   2.859
 7660SOL    HW223880   5.400   5.627   2.720
 7661SOL     OW23881   6.360   2.840   3.665
 7661SOL    HW123882   6.361   2.782   3.747
 7661SOL    HW223883   6.266   2.858   3.638
 7662SOL     OW23884   1.126   3.483   2.263
 7662SOL    HW123885   1.217   3.458   2.230
 7662SOL    HW223886   1.129   3.575   2.301
 7663SOL     OW23887   0.928   4.883   6.512
 7663SOL    HW123888   0.981   4.896   6.596
 7663SOL    HW223889   0.881   4.795   6.516
 7664SOL     OW23890   2.579   6.266   3.700
 7664SOL    HW123891   2.644   6.339   3.722
 7664SOL    HW223892   2.488   6.304   3.689
 7665SOL     OW23893   2.799   0.825   4.502
 7665SOL    HW123894   2.769   0.893   4.569
 7665SOL    HW223895   2.731   0.818   4.429
 7666SOL     OW23896   1.353   0.152   1.152
 7666SOL    HW123897   1.448   0.122   1.148
 7666SOL    HW223898   1.298   0.083   1.201
 7667SOL     OW23899   5.044   6.836   6.862
 7667SOL    HW123900   5.060   6.912   6.799
 7667SOL    HW223901   4.973   6.776   6.824
 7668SOL     OW23902   3.818   4.382   1.195
 7668SOL    HW123903   3.847   4.342   1.282
 7668SOL    HW223904   3.751   4.321   1.151
 7669SOL     OW23905   4.444   0.157   3.886
 7669SOL    HW123906   4.369   0.222   3.900
 7669SOL    HW223907   4.531   0.206   3.894
 7670SOL     OW23908   1.226   5.595   0.489
 7670SOL    HW123909   1.312   5.624   0.532
 7670SOL    HW223910   1.149   5.631   0.541
 7671SOL     OW23911   5.766   1.814   4.458
 7671SOL    HW123912   5.858   1.810   4.497
 7671SOL    HW223913   5.723   1.724   4.467
 7672SOL     OW23914   5.445   0.830   3.784
 7672SOL    HW123915   5.517   0.872   3.729
 7672SOL    HW223916   5.473   0.829   3.880
 7673SOL     OW23917   0.531   5.183   0.805
 7673SOL    HW123918   0.602   5.178   0.876
 7673SOL    HW223919   0.461   5.114   0.823
 7674SOL     OW23920   6.647   1.939   4.667
 7674SOL    HW123921   6.747   1.934   4.656
 7674SOL    HW223922   6.625   1.985   4.752
 7675SOL     OW23923   4.730   0.171   2.060
 7675SOL    HW123924   4.747   0.267   2.036
 7675SOL    HW223925   4.817   0.123   2.071
 7676SOL     OW23926   1.354   0.672   6.564
 7676SOL    HW123927   1.256   0.680   6.547
 7676SOL    HW223928   1.376   0.711   6.654
 7677SOL     OW23929   2.084   3.645   2.631
 7677SOL    HW123930   2.040   3.563   2.596
 7677SOL    HW223931   2.129   3.624   2.718
 7678SOL     OW23932   0.424   0.794   0.804
 7678SOL    HW123933   0.437   0.861   0.731
 7678SOL    HW223934   0.505   0.793   0.863
 7679SOL     OW23935   0.911   5.418   4.824
 7679SOL    HW123936   0.863   5.484   4.881
 7679SOL    HW223937   1.010   5.434   4.830
 7680SOL     OW23938   3.036   3.719   0.070
 7680SOL    HW123939   3.011   3.780   0.146
 7680SOL    HW223940   3.019   3.624   0.097
 7681SOL     OW23941   2.798   1.689   0.108
 7681SOL    HW123942   2.829   1.595   0.092
 7681SOL    HW223943   2.812   1.744   0.026
 7682SOL     OW23944   3.318   0.184   1.541
 7682SOL    HW123945   3.299   0.253   1.611
 7682SOL    HW223946   3.315   0.093   1.582
 7683SOL     OW23947   6.101   1.864   2.944
 7683SOL    HW123948   6.154   1.931   2.893
 7683SOL    HW223949   6.128   1.772   2.915
 7684SOL     OW23950   4.638   1.949   6.010
 7684SOL    HW123951   4.543   1.932   5.987
 7684SOL    HW223952   4.698   1.897   5.949
 7685SOL     OW23953   3.606   2.809   0.622
 7685SOL    HW123954   3.590   2.846   0.713
 7685SOL    HW223955   3.649   2.878   0.565
 7686SOL     OW23956   4.654   6.799   3.748
 7686SOL    HW123957   4.740   6.849   3.740
 7686SOL    HW223958   4.625   6.797   3.844
 7687SOL     OW23959   5.086   5.467   5.558
 7687SOL    HW123960   4.994   5.481   5.593
 7687SOL    HW223961   5.091   5.380   5.509
 7688SOL     OW23962   6.711   6.446   5.011
 7688SOL    HW123963   6.614   6.471   5.014
 7688SOL    HW223964   6.737   6.421   4.918
 7689SOL     OW23965   4.498   6.644   4.457
 7689SOL    HW123966   4.589   6.605   4.474
 7689SOL    HW223967   4.475   6.709   4.529
 7690SOL     OW23968   5.622   4.463   3.254
 7690SOL    HW123969   5.637   4.536   3.320
 7690SOL    HW223970   5.532   4.473   3.213
 7691SOL     OW23971   5.224   2.598   3.908
 7691SOL    HW123972   5.158   2.524   3.921
 7691SOL    HW223973   5.181   2.686   3.930
 7692SOL     OW23974   1.738   6.200   2.017
 7692SOL    HW123975   1.665   6.241   1.962
 7692SOL    HW223976   1.826   6.239   1.990
 7693SOL     OW23977   3.879   1.197   5.907
 7693SOL    HW123978   3.923   1.248   5.834
 7693SOL    HW223979   3.922   1.219   5.994
 7694SOL     OW23980   6.735   4.765   4.095
 7694SOL    HW123981   6.683   4.743   4.177
 7694SOL    HW223982   6.827   4.725   4.103
 7695SOL     OW23983   4.326   6.976   0.948
 7695SOL    HW123984   4.324   6.895   0.890
 7695SOL    HW223985   4.273   0.024   0.906
 7696SOL     OW23986   0.133   2.353   4.558
 7696SOL    HW123987   0.045   2.401   4.563
 7696SOL    HW223988   0.197   2.394   4.624
 7697SOL     OW23989   2.090   1.474   3.358
 7697SOL    HW123990   2.189   1.470   3.362
 7697SOL    HW223991   2.058   1.559   3.401
 7698SOL     OW23992   0.004   2.793   4.782
 7698SOL    HW123993   0.020   2.892   4.785
 7698SOL    HW223994   7.011   2.764   4.688
 7699SOL     OW23995   2.638   5.842   1.026
 7699SOL    HW123996   2.641   5.819   0.929
 7699SOL    HW223997   2.715   5.800   1.073
 7700SOL     OW23998   4.723   6.474   4.901
 7700SOL    HW123999   4.780   6.554   4.888
 7700SOL    HW224000   4.645   6.477   4.839
 7701SOL     OW24001   0.301   1.368   5.021
 7701SOL    HW124002   0.386   1.413   5.048
 7701SOL    HW224003   0.286   1.287   5.078
 7702SOL     OW24004   3.307   5.870   5.581
 7702SOL    HW124005   3.220   5.905   5.615
 7702SOL    HW224006   3.333   5.788   5.632
 7703SOL     OW24007   0.332   1.452   5.394
 7703SOL    HW124008   0.292   1.428   5.306
 7703SOL    HW224009   0.363   1.547   5.393
 7704SOL     OW24010   4.660   4.305   6.563
 7704SOL    HW124011   4.588   4.260   6.616
 7704SOL    HW224012   4.633   4.399   6.544
 7705SOL     OW24013   3.648   5.482   5.201
 7705SOL    HW124014   3.743   5.512   5.199
 7705SOL    HW224015   3.592   5.550   5.247
 7706SOL     OW24016   6.225   0.505   5.195
 7706SOL    HW124017   6.188   0.563   5.122
 7706SOL    HW224018   6.161   0.503   5.272
 7707SOL     OW24019   6.503   5.624   6.297
 7707SOL    HW124020   6.514   5.541   6.351
 7707SOL    HW224021   6.441   5.606   6.221
 7708SOL     OW24022   4.809   6.648   4.099
 7708SOL    HW124023   4.723   6.692   4.074
 7708SOL    HW224024   4.858   6.622   4.015
 7709SOL     OW24025   4.675   2.462   1.509
 7709SOL    HW124026   4.698   2.487   1.603
 7709SOL    HW224027   4.600   2.396   1.509
 7710SOL     OW24028   3.024   0.145   0.630
 7710SOL    HW124029   2.951   0.111   0.571
 7710SOL    HW224030   2.984   0.184   0.713
 7711SOL     OW24031   5.583   6.363   5.560
 7711SOL    HW124032   5.524   6.438   5.532
 7711SOL    HW224033   5.548   6.277   5.522
 7712SOL     OW24034   6.053   5.020   0.975
 7712SOL    HW124035   6.015   4.943   0.924
 7712SOL    HW224036   6.042   5.003   1.073
 7713SOL     OW24037   1.592   4.271   6.778
 7713SOL    HW124038   1.514   4.223   6.817
 7713SOL    HW224039   1.567   4.366   6.759
 7714SOL     OW24040   5.847   4.130   3.994
 7714SOL    HW124041   5.814   4.187   3.919
 7714SOL    HW224042   5.886   4.188   4.066
 7715SOL     OW24043   5.331   0.156   1.419
 7715SOL    HW124044   5.242   0.143   1.376
 7715SOL    HW224045   5.392   0.082   1.392
 7716SOL     OW24046   4.895   2.259   2.770
 7716SOL    HW124047   4.822   2.267   2.702
 7716SOL    HW224048   4.940   2.348   2.781
 7717SOL     OW24049   2.868   1.557   5.495
 7717SOL    HW124050   2.958   1.577   5.456
 7717SOL    HW224051   2.850   1.620   5.571
 7718SOL     OW24052   2.587   0.898   3.147
 7718SOL    HW124053   2.630   0.837   3.214
 7718SOL    HW224054   2.656   0.934   3.085
 7719SOL     OW24055   6.904   2.140   4.147
 7719SOL    HW124056   6.837   2.208   4.177
 7719SOL    HW224057   6.936   2.164   4.055
 7720SOL     OW24058   6.232   6.405   1.006
 7720SOL    HW124059   6.257   6.360   0.920
 7720SOL    HW224060   6.302   6.471   1.031
 7721SOL     OW24061   2.250   4.490   3.526
 7721SOL    HW124062   2.302   4.427   3.468
 7721SOL    HW224063   2.260   4.463   3.622
 7722SOL     OW24064   6.334   4.662   3.550
 7722SOL    HW124065   6.423   4.644   3.594
 7722SOL    HW224066   6.314   4.590   3.484
 7723SOL     OW24067   6.893   3.091   0.437
 7723SOL    HW124068   6.960   3.072   0.509
 7723SOL    HW224069   6.942   3.107   0.351
 7724SOL     OW24070   1.261   4.596   0.965
 7724SOL    HW124071   1.171   4.637   0.948
 7724SOL    HW224072   1.304   4.572   0.879
 7725SOL     OW24073   6.118   2.746   3.400
 7725SOL    HW124074   6.086   2.800   3.323
 7725SOL    HW224075   6.218   2.741   3.399
 7726SOL     OW24076   0.892   4.337   2.814
 7726SOL    HW124077   0.870   4.383   2.900
 7726SOL    HW224078   0.817   4.276   2.789
 7727SOL     OW24079   6.647   2.810   3.419
 7727SOL    HW124080   6.669   2.904   3.447
 7727SOL    HW224081   6.664   2.800   3.321
 7728SOL     OW24082   1.811   3.054   2.982
 7728SOL    HW124083   1.760   3.070   3.067
 7728SOL    HW224084   1.845   2.960   2.980
 7729SOL     OW24085   5.114   2.396   1.240
 7729SOL    HW124086   5.153   2.474   1.191
 7729SOL    HW224087   5.021   2.419   1.270
 7730SOL     OW24088   4.930   6.798   2.625
 7730SOL    HW124089   4.933   6.822   2.722
 7730SOL    HW224090   4.872   6.718   2.612
 7731SOL     OW24091   6.024   1.485   0.040
 7731SOL    HW124092   6.097   1.500   6.998
 7731SOL    HW224093   6.064   1.458   0.127
 7732SOL     OW24094   4.447   6.025   0.093
 7732SOL    HW124095   4.439   5.931   0.060
 7732SOL    HW224096   4.401   6.033   0.182
 7733SOL     OW24097   3.542   0.617   1.463
 7733SOL    HW124098   3.502   0.533   1.427
 7733SOL    HW224099   3.470   0.686   1.473
 7734SOL     OW24100   1.388   2.416   3.918
 7734SOL    HW124101   1.298   2.460   3.924
 7734SOL    HW224102   1.436   2.429   4.005
 7735SOL     OW24103   5.430   4.457   6.609
 7735SOL    HW124104   5.381   4.544   6.611
 7735SOL    HW224105   5.371   4.385   6.573
 7736SOL     OW24106   5.700   4.270   0.076
 7736SOL    HW124107   5.699   4.186   0.131
 7736SOL    HW224108   5.610   4.312   0.078
 7737SOL     OW24109   4.582   1.936   0.687
 7737SOL    HW124110   4.621   1.909   0.775
 7737SOL    HW224111   4.483   1.944   0.694
 7738SOL     OW24112   2.981   5.702   0.595
 7738SOL    HW124113   2.958   5.766   0.522
 7738SOL    HW224114   2.903   5.693   0.658
 7739SOL     OW24115   0.632   2.416   1.313
 7739SOL    HW124116   0.721   2.452   1.287
 7739SOL    HW224117   0.631   2.396   1.411
 7740SOL     OW24118   0.402   6.926   2.566
 7740SOL    HW124119   0.339   6.859   2.606
 7740SOL    HW224120   0.469   6.953   2.635
 7741SOL     OW24121   1.668   6.117   3.908
 7741SOL    HW124122   1.642   6.181   3.836
 7741SOL    HW224123   1.757   6.076   3.885
 7742SOL     OW24124   6.110   2.133   3.184
 7742SOL    HW124125   6.121   2.037   3.212
 7742SOL    HW224126   6.187   2.158   3.125
 7743SOL     OW24127   4.636   2.693   4.658
 7743SOL    HW124128   4.666   2.604   4.693
 7743SOL    HW224129   4.597   2.682   4.567
 7744SOL     OW24130   6.401   0.089   3.752
 7744SOL    HW124131   6.354   0.119   3.670
 7744SOL    HW224132   6.393   7.014   3.761
 7745SOL     OW24133   3.417   2.580   5.929
 7745SOL    HW124134   3.498   2.536   5.969
 7745SOL    HW224135   3.443   2.626   5.844
 7746SOL     OW24136   1.777   0.611   0.196
 7746SOL    HW124137   1.833   0.685   0.158
 7746SOL    HW224138   1.831   0.560   0.263
 7747SOL     OW24139   5.145   6.071   1.023
 7747SOL    HW124140   5.051   6.095   1.001
 7747SOL    HW224141   5.198   6.061   0.939
 7748SOL     OW24142   2.365   4.378   6.163
 7748SOL    HW124143   2.274   4.337   6.154
 7748SOL    HW224144   2.415   4.369   6.077
 7749SOL     OW24145   5.382   3.049   5.497
 7749SOL    HW124146   5.424   3.068   5.586
 7749SOL    HW224147   5.345   3.133   5.459
 7750SOL     OW24148   0.198   5.822   1.829
 7750SOL    HW124149   0.156   5.872   1.754
 7750SOL    HW224150   0.212   5.727   1.803
 7751SOL     OW24151   0.770   2.564   1.915
 7751SOL    HW124152   0.843   2.630   1.896
 7751SOL    HW224153   0.682   2.602   1.885
 7752SOL     OW24154   4.542   1.276   4.310
 7752SOL    HW124155   4.584   1.245   4.225
 7752SOL    HW224156   4.572   1.218   4.386
 7753SOL     OW24157   2.584   1.536   5.445
 7753SOL    HW124158   2.667   1.488   5.416
 7753SOL    HW224159   2.596   1.635   5.433
 7754SOL     OW24160   4.277   6.304   2.126
 7754SOL    HW124161   4.328   6.243   2.065
 7754SOL    HW224162   4.268   6.394   2.083
 7755SOL     OW24163   1.385   4.376   5.966
 7755SOL    HW124164   1.337   4.451   6.012
 7755SOL    HW224165   1.479   4.405   5.944
 7756SOL     OW24166   3.231   6.057   1.459
 7756SOL    HW124167   3.261   5.991   1.390
 7756SOL    HW224168   3.222   6.012   1.547
 7757SOL     OW24169   0.154   4.622   2.813
 7757SOL    HW124170   0.205   4.576   2.886
 7757SOL    HW224171   0.152   4.564   2.732
 7758SOL     OW24172   1.664   0.657   5.332
 7758SOL    HW124173   1.581   0.712   5.340
 7758SOL    HW224174   1.732   0.707   5.277
 7759SOL     OW24175   3.325   2.030   6.504
 7759SOL    HW124176   3.274   2.063   6.584
 7759SOL    HW224177   3.361   1.939   6.523
 7760SOL     OW24178   4.520   3.246   1.330
 7760SOL    HW124179   4.551   3.151   1.338
 7760SOL    HW224180   4.575   3.304   1.390
 7761SOL     OW24181   4.575   5.963   4.366
 7761SOL    HW124182   4.537   5.986   4.456
 7761SOL    HW224183   4.661   5.913   4.378
 7762SOL     OW24184   6.438   0.497   2.810
 7762SOL    HW124185   6.535   0.516   2.794
 7762SOL    HW224186   6.382   0.563   2.760
 7763SOL     OW24187   2.504   0.015   4.712
 7763SOL    HW124188   2.541   6.952   4.742
 7763SOL    HW224189   2.564   0.088   4.745
 7764SOL     OW24190   3.045   4.157   5.501
 7764SOL    HW124191   2.974   4.088   5.514
 7764SOL    HW224192   3.129   4.113   5.470
 7765SOL     OW24193   6.857   2.910   4.383
 7765SOL    HW124194   6.801   2.848   4.329
 7765SOL    HW224195   6.929   2.950   4.326
 7766SOL     OW24196   6.784   4.011   6.722
 7766SOL    HW124197   6.802   3.953   6.642
 7766SOL    HW224198   6.688   4.003   6.747
 7767SOL     OW24199   2.612   0.935   2.771
 7767SOL    HW124200   2.547   1.008   2.793
 7767SOL    HW224201   2.569   0.846   2.790
 7768SOL     OW24202   4.775   5.303   2.980
 7768SOL    HW124203   4.731   5.392   2.996
 7768SOL    HW224204   4.769   5.280   2.883
 7769SOL     OW24205   3.359   2.599   5.356
 7769SOL    HW124206   3.313   2.531   5.299
 7769SOL    HW224207   3.328   2.691   5.329
 7770SOL     OW24208   2.148   3.310   4.582
 7770SOL    HW124209   2.160   3.221   4.538
 7770SOL    HW224210   2.144   3.381   4.512
 7771SOL     OW24211   2.805   2.174   6.491
 7771SOL    HW124212   2.784   2.098   6.429
 7771SOL    HW224213   2.788   2.261   6.444
 7772SOL     OW24214   5.018   0.077   1.845
 7772SOL    HW124215   5.053   0.001   1.899
 7772SOL    HW224216   5.054   0.163   1.881
 7773SOL     OW24217   3.333   6.294   0.025
 7773SOL    HW124218   3.371   6.273   0.115
 7773SOL    HW224219   3.233   6.288   0.029
 7774SOL     OW24220   4.536   1.596   2.666
 7774SOL    HW124221   4.480   1.617   2.746
 7774SOL    HW224222   4.486   1.619   2.583
 7775SOL     OW24223   3.269   0.604   6.902
 7775SOL    HW124224   3.363   0.572   6.906
 7775SOL    HW224225   3.259   0.689   6.954
 7776SOL     OW24226   1.874   1.167   4.816
 7776SOL    HW124227   1.920   1.224   4.748
 7776SOL    HW224228   1.819   1.225   4.876
 7777SOL     OW24229   4.976   5.154   3.516
 7777SOL    HW124230   5.001   5.242   3.477
 7777SOL    HW224231   4.900   5.115   3.464
 7778SOL     OW24232   5.794   4.866   3.085
 7778SOL    HW124233   5.694   4.864   3.074
 7778SOL    HW224234   5.836   4.891   2.998
 7779SOL     OW24235   3.457   6.045   2.310
 7779SOL    HW124236   3.409   5.991   2.240
 7779SOL    HW224237   3.397   6.056   2.390
 7780SOL     OW24238   5.964   5.742   4.674
 7780SOL    HW124239   6.003   5.651   4.656
 7780SOL    HW224240   5.913   5.739   4.760
 7781SOL     OW24241   1.987   2.567   0.691
 7781SOL    HW124242   2.034   2.482   0.670
 7781SOL    HW224243   1.963   2.570   0.788
 7782SOL     OW24244   5.636   3.963   3.861
 7782SOL    HW124245   5.696   4.039   3.887
 7782SOL    HW224246   5.680   3.877   3.887
 7783SOL     OW24247   1.181   0.456   5.412
 7783SOL    HW124248   1.101   0.399   5.433
 7783SOL    HW224249   1.237   0.464   5.494
 7784SOL     OW24250   2.204   2.953   2.862
 7784SOL    HW124251   2.262   2.943   2.943
 7784SOL    HW224252   2.222   2.878   2.799
 7785SOL     OW24253   0.524   6.526   2.570
 7785SOL    HW124254   0.484   6.564   2.486
 7785SOL    HW224255   0.621   6.504   2.553
 7786SOL     OW24256   4.473   0.198   5.932
 7786SOL    HW124257   4.410   0.271   5.905
 7786SOL    HW224258   4.555   0.203   5.876
 7787SOL     OW24259   2.437   2.534   1.290
 7787SOL    HW124260   2.479   2.443   1.283
 7787SOL    HW224261   2.345   2.525   1.326
 7788SOL     OW24262   7.018   4.419   1.635
 7788SOL    HW124263   0.021   4.500   1.583
 7788SOL    HW224264   0.036   4.421   1.725
 7789SOL     OW24265   3.770   1.438   6.380
 7789SOL    HW124266   3.848   1.436   6.443
 7789SOL    HW224267   3.685   1.449   6.432
 7790SOL     OW24268   4.994   4.473   1.999
 7790SOL    HW124269   4.948   4.543   2.055
 7790SOL    HW224270   4.939   4.456   1.917
 7791SOL     OW24271   2.764   4.675   2.553
 7791SOL    HW124272   2.863   4.662   2.551
 7791SOL    HW224273   2.730   4.656   2.645
 7792SOL     OW24274   1.093   1.848   2.388
 7792SOL    HW124275   1.188   1.871   2.407
 7792SOL    HW224276   1.089   1.776   2.319
 7793SOL     OW24277   4.539   0.704   5.901
 7793SOL    HW124278   4.513   0.785   5.954
 7793SOL    HW224279   4.498   0.622   5.943
 7794SOL     OW24280   0.508   6.547   3.243
 7794SOL    HW124281   0.563   6.579   3.320
 7794SOL    HW224282   0.545   6.584   3.158
 7795SOL     OW24283   3.464   5.849   6.516
 7795SOL    HW124284   3.468   5.774   6.582
 7795SOL    HW224285   3.399   5.826   6.443
 7796SOL     OW24286   3.925   3.478   6.396
 7796SOL    HW124287   3.879   3.439   6.317
 7796SOL    HW224288   3.874   3.455   6.479
 7797SOL     OW24289   1.136   6.343   2.690
 7797SOL    HW124290   1.177   6.427   2.727
 7797SOL    HW224291   1.037   6.347   2.701
 7798SOL     OW24292   1.193   3.219   0.478
 7798SOL    HW124293   1.142   3.297   0.513
 7798SOL    HW224294   1.214   3.156   0.552
 7799SOL     OW24295   2.349   5.900   3.764
 7799SOL    HW124296   2.438   5.880   3.723
 7799SOL    HW224297   2.306   5.976   3.715
 7800SOL     OW24298   0.557   6.585   1.714
 7800SOL    HW124299   0.462   6.598   1.742
 7800SOL    HW224300   0.610   6.667   1.738
 7801SOL     OW24301   1.681   2.361   2.483
 7801SOL    HW124302   1.765   2.410   2.506
 7801SOL    HW224303   1.670   2.357   2.384
 7802SOL     OW24304   0.386   3.941   4.441
 7802SOL    HW124305   0.372   4.022   4.498
 7802SOL    HW224306   0.460   3.959   4.376
 7803SOL     OW24307   4.201   2.509   5.561
 7803SOL    HW124308   4.234   2.453   5.485
 7803SOL    HW224309   4.101   2.506   5.563
 7804SOL     OW24310   3.091   1.876   5.301
 7804SOL    HW124311   3.067   1.917   5.389
 7804SOL    HW224312   3.155   1.936   5.253
 7805SOL     OW24313   5.927   2.664   0.516
 7805SOL    HW124314   5.956   2.570   0.496
 7805SOL    HW224315   5.839   2.662   0.564
 7806SOL     OW24316   6.985   2.522   5.680
 7806SOL    HW124317   6.986   2.555   5.775
 7806SOL    HW224318   0.050   2.537   5.639
 7807SOL     OW24319   2.787   4.687   6.118
 7807SOL    HW124320   2.797   4.606   6.177
 7807SOL    HW224321   2.699   4.683   6.071
 7808SOL     OW24322   4.870   3.419   3.203
 7808SOL    HW124323   4.826   3.395   3.290
 7808SOL    HW224324   4.903   3.513   3.208
 7809SOL     OW24325   4.495   5.072   3.280
 7809SOL    HW124326   4.456   5.157   3.316
 7809SOL    HW224327   4.461   4.995   3.333
 7810SOL     OW24328   3.571   6.729   5.408
 7810SOL    HW124329   3.570   6.804   5.474
 7810SOL    HW224330   3.627   6.756   5.329
 7811SOL     OW24331   1.460   5.540   3.117
 7811SOL    HW124332   1.368   5.502   3.124
 7811SOL    HW224333   1.459   5.635   3.150
 7812SOL     OW24334   3.034   1.901   6.444
 7812SOL    HW124335   3.089   1.821   6.466
 7812SOL    HW224336   3.063   1.978   6.502
 7813SOL     OW24337   5.382   0.837   0.716
 7813SOL    HW124338   5.441   0.887   0.780
 7813SOL    HW224339   5.430   0.826   0.629
 7814SOL     OW24340   6.893   3.217   1.872
 7814SOL    HW124341   6.825   3.226   1.944
 7814SOL    HW224342   6.941   3.303   1.859
 7815SOL     OW24343   5.635   3.552   5.128
 7815SOL    HW124344   5.621   3.649   5.111
 7815SOL    HW224345   5.716   3.521   5.079
 7816SOL     OW24346   0.795   1.211   5.006
 7816SOL    HW124347   0.784   1.119   4.969
 7816SOL    HW224348   0.847   1.206   5.092
 7817SOL     OW24349   2.936   3.243   6.410
 7817SOL    HW124350   2.874   3.322   6.416
 7817SOL    HW224351   2.908   3.174   6.477
 7818SOL     OW24352   5.688   1.084   2.180
 7818SOL    HW124353   5.644   1.032   2.253
 7818SOL    HW224354   5.769   1.131   2.216
 7819SOL     OW24355   1.338   3.807   3.621
 7819SOL    HW124356   1.401   3.741   3.582
 7819SOL    HW224357   1.380   3.898   3.621
 7820SOL     OW24358   2.075   6.879   6.458
 7820SOL    HW124359   2.073   6.790   6.413
 7820SOL    HW224360   2.053   6.950   6.392
 7821SOL     OW24361   5.401   5.607   6.794
 7821SOL    HW124362   5.491   5.567   6.811
 7821SOL    HW224363   5.374   5.588   6.699
 7822SOL     OW24364   1.636   1.252   4.600
 7822SOL    HW124365   1.658   1.350   4.608
 7822SOL    HW224366   1.547   1.235   4.641
 7823SOL     OW24367   1.568   3.365   6.086
 7823SOL    HW124368   1.500   3.309   6.134
 7823SOL    HW224369   1.630   3.407   6.153
 7824SOL     OW24370   5.303   2.566   3.143
 7824SOL    HW124371   5.268   2.583   3.235
 7824SOL    HW224372   5.302   2.652   3.091
 7825SOL     OW24373   3.490   3.541   2.505
 7825SOL    HW124374   3.474   3.465   2.442
 7825SOL    HW224375   3.402   3.580   2.533
 7826SOL     OW24376   6.732   0.700   0.694
 7826SOL    HW124377   6.777   0.622   0.738
 7826SOL    HW224378   6.636   0.679   0.677
 7827SOL     OW24379   5.475   4.783   1.469
 7827SOL    HW124380   5.561   4.835   1.469
 7827SOL    HW224381   5.472   4.724   1.550
 7828SOL     OW24382   0.640   6.624   0.744
 7828SOL    HW124383   0.695   6.642   0.663
 7828SOL    HW224384   0.593   6.708   0.771
 7829SOL     OW24385   4.179   2.692   1.584
 7829SOL    HW124386   4.191   2.593   1.585
 7829SOL    HW224387   4.084   2.714   1.609
 7830SOL     OW24388   6.446   2.700   6.774
 7830SOL    HW124389   6.471   2.795   6.792
 7830SOL    HW224390   6.413   2.692   6.680
 7831SOL     OW24391   1.547   3.110   0.180
 7831SOL    HW124392   1.592   3.156   0.256
 7831SOL    HW224393   1.448   3.119   0.189
 7832SOL     OW24394   2.646   2.659   5.547
 7832SOL    HW124395   2.707   2.677   5.470
 7832SOL    HW224396   2.590   2.739   5.565
 7833SOL     OW24397   0.536   6.853   0.162
 7833SOL    HW124398   0.510   6.798   0.241
 7833SOL    HW224399   0.475   6.932   0.155
 7834SOL     OW24400   0.720   0.431   1.321
 7834SOL    HW124401   0.628   0.467   1.304
 7834SOL    HW224402   0.781   0.506   1.348
 7835SOL     OW24403   2.186   2.604   5.210
 7835SOL    HW124404   2.271   2.637   5.169
 7835SOL    HW224405   2.202   2.514   5.251
 7836SOL     OW24406   2.259   6.691   0.384
 7836SOL    HW124407   2.249   6.709   0.286
 7836SOL    HW224408   2.176   6.720   0.432
 7837SOL     OW24409   6.327   6.863   2.827
 7837SOL    HW124410   6.250   6.863   2.763
 7837SOL    HW224411   6.390   6.937   2.805
 7838SOL     OW24412   3.558   0.134   4.293
 7838SOL    HW124413   3.549   0.209   4.227
 7838SOL    HW224414   3.655   0.115   4.308
 7839SOL     OW24415   6.341   4.621   4.612
 7839SOL    HW124416   6.325   4.580   4.702
 7839SOL    HW224417   6.395   4.704   4.622
 7840SOL     OW24418   6.125   3.017   4.824
 7840SOL    HW124419   6.137   2.947   4.894
 7840SOL    HW224420   6.088   2.975   4.741
 7841SOL     OW24421   0.774   1.771   6.540
 7841SOL    HW124422   0.690   1.720   6.563
 7841SOL    HW224423   0.751   1.848   6.480
 7842SOL     OW24424   2.866   1.021   2.792
 7842SOL    HW124425   2.770   1.002   2.816
 7842SOL    HW224426   2.925   1.000   2.870
 7843SOL     OW24427   5.288   3.606   0.671
 7843SOL    HW124428   5.315   3.511   0.684
 7843SOL    HW224429   5.277   3.651   0.760
 7844SOL     OW24430   4.416   1.019   3.504
 7844SOL    HW124431   4.329   1.010   3.455
 7844SOL    HW224432   4.477   0.944   3.477
 7845SOL     OW24433   6.772   1.664   3.816
 7845SOL    HW124434   6.724   1.745   3.849
 7845SOL    HW224435   6.738   1.583   3.863
 7846SOL     OW24436   2.814   6.710   2.434
 7846SOL    HW124437   2.824   6.750   2.342
 7846SOL    HW224438   2.845   6.776   2.502
 7847SOL     OW24439   6.814   0.885   0.474
 7847SOL    HW124440   6.768   0.831   0.545
 7847SOL    HW224441   6.847   0.971   0.513
 7848SOL     OW24442   5.231   4.122   1.824
 7848SOL    HW124443   5.274   4.056   1.762
 7848SOL    HW224444   5.203   4.074   1.908
 7849SOL     OW24445   6.466   3.817   5.310
 7849SOL    HW124446   6.435   3.724   5.332
 7849SOL    HW224447   6.552   3.835   5.359
 7850SOL     OW24448   1.168   0.730   4.744
 7850SOL    HW124449   1.152   0.814   4.796
 7850SOL    HW224450   1.091   0.667   4.758
 7851SOL     OW24451   5.486   6.875   6.984
 7851SOL    HW124452   5.416   6.939   6.951
 7851SOL    HW224453   5.559   6.868   6.917
 7852SOL     OW24454   2.660   6.208   0.451
 7852SOL    HW124455   2.630   6.206   0.355
 7852SOL    HW224456   2.709   6.293   0.469
 7853SOL     OW24457   2.591   3.065   0.273
 7853SOL    HW124458   2.606   3.008   0.193
 7853SOL    HW224459   2.624   3.018   0.355
 7854SOL     OW24460   3.749   4.090   2.295
 7854SOL    HW124461   3.753   4.141   2.381
 7854SOL    HW224462   3.837   4.045   2.279
 7855SOL     OW24463   4.436   6.109   5.712
 7855SOL    HW124464   4.464   6.167   5.789
 7855SOL    HW224465   4.365   6.046   5.742
 7856SOL     OW24466   5.399   3.588   5.975
 7856SOL    HW124467   5.481   3.533   5.993
 7856SOL    HW224468   5.326   3.560   6.037
 7857SOL     OW24469   6.909   1.575   5.561
 7857SOL    HW124470   6.925   1.626   5.476
 7857SOL    HW224471   6.811   1.567   5.576
 7858SOL     OW24472   6.295   3.839   2.839
 7858SOL    HW124473   6.196   3.842   2.855
 7858SOL    HW224474   6.332   3.755   2.879
 7859SOL     OW24475   1.277   5.739   6.891
 7859SOL    HW124476   1.206   5.688   6.841
 7859SOL    HW224477   1.247   5.834   6.902
 7860SOL     OW24478   4.073   6.847   2.179
 7860SOL    HW124479   4.099   6.789   2.257
 7860SOL    HW224480   4.146   6.911   2.159
 7861SOL     OW24481   4.775   4.594   0.389
 7861SOL    HW124482   4.851   4.539   0.355
 7861SOL    HW224483   4.689   4.563   0.346
 7862SOL     OW24484   3.107   4.549   1.645
 7862SOL    HW124485   3.188   4.601   1.673
 7862SOL    HW224486   3.041   4.547   1.720
 7863SOL     OW24487   6.535   5.830   1.944
 7863SOL    HW124488   6.565   5.925   1.955
 7863SOL    HW224489   6.520   5.811   1.847
 7864SOL     OW24490   0.537   5.011   4.609
 7864SOL    HW124491   0.594   5.054   4.539
 7864SOL    HW224492   0.582   5.017   4.698
 7865SOL     OW24493   3.074   0.067   3.549
 7865SOL    HW124494   3.058   0.161   3.519
 7865SOL    HW224495   3.172   0.049   3.551
 7866SOL     OW24496   2.582   2.107   4.329
 7866SOL    HW124497   2.624   2.197   4.325
 7866SOL    HW224498   2.629   2.052   4.398
 7867SOL     OW24499   6.209   4.331   1.910
 7867SOL    HW124500   6.176   4.339   1.816
 7867SOL    HW224501   6.150   4.269   1.961
 7868SOL     OW24502   5.444   6.363   0.627
 7868SOL    HW124503   5.417   6.445   0.577
 7868SOL    HW224504   5.535   6.376   0.666
 7869SOL     OW24505   0.780   3.294   1.855
 7869SOL    HW124506   0.758   3.210   1.904
 7869SOL    HW224507   0.773   3.372   1.919
 7870SOL     OW24508   6.873   5.614   3.984
 7870SOL    HW124509   6.867   5.570   4.073
 7870SOL    HW224510   6.846   5.710   3.992
 7871SOL     OW24511   4.973   3.066   3.111
 7871SOL    HW124512   4.967   3.147   3.054
 7871SOL    HW224513   4.941   2.986   3.060
 7872SOL     OW24514   0.059   3.025   3.130
 7872SOL    HW124515   0.013   3.013   3.042
 7872SOL    HW224516   0.147   2.976   3.128
 7873SOL     OW24517   0.213   5.119   5.439
 7873SOL    HW124518   0.247   5.207   5.470
 7873SOL    HW224519   0.247   5.047   5.500
 7874SOL     OW24520   5.783   1.413   0.739
 7874SOL    HW124521   5.816   1.457   0.822
 7874SOL    HW224522   5.860   1.374   0.689
 7875SOL     OW24523   4.167   3.211   6.476
 7875SOL    HW124524   4.088   3.184   6.531
 7875SOL    HW224525   4.142   3.207   6.379
 7876SOL     OW24526   6.297   0.168   3.450
 7876SOL    HW124527   6.394   0.173   3.425
 7876SOL    HW224528   6.262   0.261   3.463
 7877SOL     OW24529   6.775   2.055   2.483
 7877SOL    HW124530   6.757   2.108   2.566
 7877SOL    HW224531   6.831   2.109   2.420
 7878SOL     OW24532   4.890   3.802   1.963
 7878SOL    HW124533   4.811   3.740   1.956
 7878SOL    HW224534   4.950   3.789   1.884
 7879SOL     OW24535   5.030   0.419   3.980
 7879SOL    HW124536   4.936   0.443   3.958
 7879SOL    HW224537   5.092   0.478   3.929
 7880SOL     OW24538   0.400   6.998   6.580
 7880SOL    HW124539   0.305   6.972   6.560
 7880SOL    HW224540   0.458   6.976   6.502
 7881SOL     OW24541   0.058   4.833   4.350
 7881SOL    HW124542   0.144   4.885   4.354
 7881SOL    HW224543   7.018   4.872   4.416
 7882SOL     OW24544   6.760   4.018   2.978
 7882SOL    HW124545   6.716   4.067   3.053
 7882SOL    HW224546   6.837   4.071   2.944
 7883SOL     OW24547   3.326   1.569   3.785
 7883SOL    HW124548   3.259   1.496   3.794
 7883SOL    HW224549   3.291   1.652   3.829
 7884SOL     OW24550   0.447   4.293   4.553
 7884SOL    HW124551   0.520   4.289   4.621
 7884SOL    HW224552   0.387   4.371   4.573
 7885SOL     OW24553   6.088   5.608   3.043
 7885SOL    HW124554   6.186   5.589   3.054
 7885SOL    HW224555   6.041   5.525   3.011
 7886SOL     OW24556   4.922   2.811   2.485
 7886SOL    HW124557   4.942   2.909   2.476
 7886SOL    HW224558   5.007   2.761   2.500
 7887SOL     OW24559   2.984   3.441   0.548
 7887SOL    HW124560   2.980   3.348   0.585
 7887SOL    HW224561   3.010   3.438   0.452
 7888SOL     OW24562   5.248   2.077   4.124
 7888SOL    HW124563   5.171   2.020   4.097
 7888SOL    HW224564   5.271   2.139   4.048
 7889SOL     OW24565   5.918   4.815   0.855
 7889SOL    HW124566   5.840   4.835   0.795
 7889SOL    HW224567   5.899   4.732   0.908
 7890SOL     OW24568   1.121   3.546   4.604
 7890SOL    HW124569   1.146   3.505   4.692
 7890SOL    HW224570   1.027   3.522   4.582
 7891SOL     OW24571   0.866   1.963   4.405
 7891SOL    HW124572   0.901   2.051   4.437
 7891SOL    HW224573   0.766   1.966   4.402
 7892SOL     OW24574   1.045   2.638   5.681
 7892SOL    HW124575   0.998   2.718   5.645
 7892SOL    HW224576   0.987   2.557   5.669
 7893SOL     OW24577   5.939   0.624   0.837
 7893SOL    HW124578   5.896   0.549   0.786
 7893SOL    HW224579   6.038   0.612   0.836
 7894SOL     OW24580   3.018   1.309   6.669
 7894SOL    HW124581   2.927   1.352   6.663
 7894SOL    HW224582   3.040   1.265   6.582
 7895SOL     OW24583   4.147   6.414   3.322
 7895SOL    HW124584   4.233   6.362   3.323
 7895SOL    HW224585   4.119   6.430   3.228
 7896SOL     OW24586   3.362   1.934   1.018
 7896SOL    HW124587   3.275   1.982   1.008
 7896SOL    HW224588   3.367   1.861   0.949
 7897SOL     OW24589   3.799   4.121   0.121
 7897SOL    HW124590   3.871   4.168   0.172
 7897SOL    HW224591   3.825   4.025   0.109
 7898SOL     OW24592   5.712   0.339   4.190
 7898SOL    HW124593   5.683   0.334   4.095
 7898SOL    HW224594   5.655   0.279   4.246
 7899SOL     OW24595   5.314   4.433   2.214
 7899SOL    HW124596   5.268   4.401   2.131
 7899SOL    HW224597   5.393   4.489   2.189
 7900SOL     OW24598   0.694   3.729   0.681
 7900SOL    HW124599   0.675   3.807   0.740
 7900SOL    HW224600   0.733   3.761   0.595
 7901SOL     OW24601   5.987   1.489   6.196
 7901SOL    HW124602   6.024   1.472   6.287
 7901SOL    HW224603   5.979   1.401   6.147
 7902SOL     OW24604   0.550   6.319   3.105
 7902SOL    HW124605   0.479   6.316   3.035
 7902SOL    HW224606   0.552   6.410   3.147
 7903SOL     OW24607   2.537   2.367   5.227
 7903SOL    HW124608   2.507   2.387   5.134
 7903SOL    HW224609   2.523   2.270   5.246
 7904SOL     OW24610   5.403   0.815   1.649
 7904SOL    HW124611   5.433   0.905   1.681
 7904SOL    HW224612   5.345   0.772   1.718
 7905SOL     OW24613   5.319   0.591   0.458
 7905SOL    HW124614   5.237   0.600   0.401
 7905SOL    HW224615   5.328   0.497   0.490
 7906SOL     OW24616   1.683   5.584   1.034
 7906SOL    HW124617   1.615   5.542   0.974
 7906SOL    HW224618   1.639   5.613   1.119
 7907SOL     OW24619   6.367   0.432   3.055
 7907SOL    HW124620   6.331   0.340   3.042
 7907SOL    HW224621   6.398   0.469   2.967
 7908SOL     OW24622   6.765   0.666   0.085
 7908SOL    HW124623   6.791   0.757   0.052
 7908SOL    HW224624   6.704   0.623   0.019
 7909SOL     OW24625   5.593   4.099   2.176
 7909SOL    HW124626   5.496   4.122   2.171
 7909SOL    HW224627   5.642   4.173   2.223
 7910SOL     OW24628   2.114   3.599   0.607
 7910SOL    HW124629   2.145   3.691   0.630
 7910SOL    HW224630   2.194   3.539   0.598
 7911SOL     OW24631   0.934   3.925   0.953
 7911SOL    HW124632   0.857   3.861   0.955
 7911SOL    HW224633   0.980   3.925   1.041
 7912SOL     OW24634   6.009   5.759   0.092
 7912SOL    HW124635   5.930   5.711   0.129
 7912SOL    HW224636   6.077   5.774   0.164
 7913SOL     OW24637   0.734   3.747   1.011
 7913SOL    HW124638   0.793   3.683   0.963
 7913SOL    HW224639   0.646   3.703   1.029
 7914SOL     OW24640   6.270   5.380   4.695
 7914SOL    HW124641   6.366   5.397   4.719
 7914SOL    HW224642   6.242   5.292   4.732
 7915SOL     OW24643   3.688   6.838   3.178
 7915SOL    HW124644   3.737   6.754   3.204
 7915SOL    HW224645   3.622   6.861   3.250
 7916SOL     OW24646   1.700   0.613   4.422
 7916SOL    HW124647   1.742   0.608   4.331
 7916SOL    HW224648   1.747   0.683   4.476
 7917SOL     OW24649   3.930   3.358   0.600
 7917SOL    HW124650   3.837   3.367   0.565
 7917SOL    HW224651   3.944   3.425   0.673
 7918SOL     OW24652   2.619   1.187   4.902
 7918SOL    HW124653   2.521   1.200   4.921
 7918SOL    HW224654   2.644   1.092   4.919
 7919SOL     OW24655   1.504   5.939   2.828
 7919SOL    HW124656   1.511   5.845   2.863
 7919SOL    HW224657   1.451   5.938   2.743
 7920SOL     OW24658   4.850   6.967   0.874
 7920SOL    HW124659   4.923   6.922   0.924
 7920SOL    HW224660   4.874   0.039   0.860
 7921SOL     OW24661   4.727   1.350   2.053
 7921SOL    HW124662   4.741   1.349   1.954
 7921SOL    HW224663   4.635   1.383   2.074
 7922SOL     OW24664   0.434   5.497   1.079
 7922SOL    HW124665   0.397   5.590   1.073
 7922SOL    HW224666   0.485   5.477   0.995
 7923SOL     OW24667   3.947   1.503   0.137
 7923SOL    HW124668   3.940   1.444   0.056
 7923SOL    HW224669   4.033   1.485   0.184
 7924SOL     OW24670   6.225   0.137   0.267
 7924SOL    HW124671   6.238   0.084   0.183
 7924SOL    HW224672   6.148   0.100   0.318
 7925SOL     OW24673   2.052   6.389   0.622
 7925SOL    HW124674   1.992   6.333   0.565
 7925SOL    HW224675   2.017   6.482   0.626
 7926SOL     OW24676   4.109   5.753   6.488
 7926SOL    HW124677   4.050   5.727   6.565
 7926SOL    HW224678   4.099   5.686   6.415
 7927SOL     OW24679   4.471   6.775   1.999
 7927SOL    HW124680   4.567   6.759   2.020
 7927SOL    HW224681   4.455   6.873   1.988
 7928SOL     OW24682   6.647   1.504   3.012
 7928SOL    HW124683   6.616   1.445   3.086
 7928SOL    HW224684   6.740   1.479   2.986
 7929SOL     OW24685   3.592   4.488   5.589
 7929SOL    HW124686   3.550   4.397   5.597
 7929SOL    HW224687   3.634   4.497   5.499
 7930SOL     OW24688   4.314   5.766   5.318
 7930SOL    HW124689   4.288   5.711   5.397
 7930SOL    HW224690   4.286   5.719   5.234
 7931SOL     OW24691   3.383   2.115   0.585
 7931SOL    HW124692   3.442   2.040   0.614
 7931SOL    HW224693   3.312   2.080   0.524
 7932SOL     OW24694   0.710   5.355   1.910
 7932SOL    HW124695   0.631   5.331   1.855
 7932SOL    HW224696   0.687   5.431   1.971
 7933SOL     OW24697   0.385   0.994   6.028
 7933SOL    HW124698   0.470   1.041   6.052
 7933SOL    HW224699   0.373   0.914   6.087
 7934SOL     OW24700   0.998   4.662   0.935
 7934SOL    HW124701   0.939   4.725   0.885
 7934SOL    HW224702   0.954   4.634   1.020
 7935SOL     OW24703   5.497   3.054   2.372
 7935SOL    HW124704   5.436   3.069   2.450
 7935SOL    HW224705   5.461   2.981   2.315
 7936SOL     OW24706   3.233   5.964   4.050
 7936SOL    HW124707   3.246   5.865   4.058
 7936SOL    HW224708   3.150   5.983   3.999
 7937SOL     OW24709   3.070   6.724   7.002
 7937SOL    HW124710   3.131   6.704   0.053
 7937SOL    HW224711   3.057   6.642   6.947
 7938SOL     OW24712   3.490   6.502   4.640
 7938SOL    HW124713   3.477   6.601   4.634
 7938SOL    HW224714   3.577   6.477   4.597
 7939SOL     OW24715   0.420   1.620   4.550
 7939SOL    HW124716   0.403   1.676   4.630
 7939SOL    HW224717   0.333   1.593   4.508
 7940SOL     OW24718   4.854   0.797   3.404
 7940SOL    HW124719   4.831   0.720   3.345
 7940SOL    HW224720   4.947   0.787   3.440
 7941SOL     OW24721   3.844   6.458   1.757
 7941SOL    HW124722   3.751   6.440   1.788
 7941SOL    HW224723   3.909   6.434   1.829
 7942SOL     OW24724   1.644   4.421   1.421
 7942SOL    HW124725   1.661   4.410   1.323
 7942SOL    HW224726   1.592   4.506   1.436
 7943SOL     OW24727   1.514   6.101   6.142
 7943SOL    HW124728   1.541   6.186   6.096
 7943SOL    HW224729   1.582   6.078   6.212
 7944SOL     OW24730   1.734   2.867   0.812
 7944SOL    HW124731   1.705   2.833   0.901
 7944SOL    HW224732   1.730   2.793   0.745
 7945SOL     OW24733   5.670   4.690   2.761
 7945SOL    HW124734   5.716   4.631   2.827
 7945SOL    HW224735   5.656   4.640   2.676
 7946SOL     OW24736   3.643   1.260   5.432
 7946SOL    HW124737   3.591   1.176   5.415
 7946SOL    HW224738   3.630   1.323   5.356
 7947SOL     OW24739   1.580   3.010   5.580
 7947SOL    HW124740   1.667   2.996   5.532
 7947SOL    HW224741   1.510   2.954   5.537
 7948SOL     OW24742   1.274   4.512   2.373
 7948SOL    HW124743   1.353   4.451   2.382
 7948SOL    HW224744   1.291   4.579   2.301
 7949SOL     OW24745   3.631   5.220   6.730
 7949SOL    HW124746   3.640   5.122   6.711
 7949SOL    HW224747   3.558   5.235   6.796
 7950SOL     OW24748   5.959   5.371   5.422
 7950SOL    HW124749   6.021   5.326   5.358
 7950SOL    HW224750   5.904   5.439   5.373
 7951SOL     OW24751   2.821   5.695   3.079
 7951SOL    HW124752   2.766   5.677   3.161
 7951SOL    HW224753   2.912   5.655   3.090
 7952SOL     OW24754   4.709   3.533   0.000
 7952SOL    HW124755   4.660   3.618   0.022
 7952SOL    HW224756   4.644   3.466   6.989
 7953SOL     OW24757   2.541   1.127   1.057
 7953SOL    HW124758   2.475   1.075   1.004
 7953SOL    HW224759   2.511   1.130   1.153
 7954SOL     OW24760   3.372   3.248   0.203
 7954SOL    HW124761   3.399   3.190   0.280
 7954SOL    HW224762   3.387   3.344   0.226
 7955SOL     OW24763   1.690   0.789   6.584
 7955SOL    HW124764   1.619   0.745   6.638
 7955SOL    HW224765   1.648   0.851   6.518
 7956SOL     OW24766   6.577   6.549   0.869
 7956SOL    HW124767   6.544   6.581   0.958
 7956SOL    HW224768   6.498   6.532   0.809
 7957SOL     OW24769   4.554   0.690   5.407
 7957SOL    HW124770   4.560   0.668   5.310
 7957SOL    HW224771   4.504   0.775   5.419
 7958SOL     OW24772   5.748   2.590   0.081
 7958SOL    HW124773   5.770   2.540   7.023
 7958SOL    HW224774   5.747   2.528   0.159
 7959SOL     OW24775   5.207   1.276   5.991
 7959SOL    HW124776   5.194   1.217   5.911
 7959SOL    HW224777   5.222   1.219   6.072
 7960SOL     OW24778   0.535   0.652   5.510
 7960SOL    HW124779   0.489   0.590   5.573
 7960SOL    HW224780   0.562   0.735   5.559
 7961SOL     OW24781   6.965   0.443   0.458
 7961SOL    HW124782   6.963   0.392   0.544
 7961SOL    HW224783   6.992   0.382   0.383
 7962SOL     OW24784   6.147   0.030   5.477
 7962SOL    HW124785   6.159   7.006   5.563
 7962SOL    HW224786   6.062   7.024   5.433
 7963SOL     OW24787   0.241   5.126   5.166
 7963SOL    HW124788   0.332   5.118   5.125
 7963SOL    HW224789   0.247   5.109   5.264
 7964SOL     OW24790   6.290   3.646   2.404
 7964SOL    HW124791   6.240   3.675   2.486
 7964SOL    HW224792   6.360   3.714   2.382
 7965SOL     OW24793   4.013   1.702   6.604
 7965SOL    HW124794   4.113   1.697   6.606
 7965SOL    HW224795   3.980   1.736   6.692
 7966SOL     OW24796   4.892   3.876   5.039
 7966SOL    HW124797   4.944   3.889   5.123
 7966SOL    HW224798   4.871   3.779   5.028
 7967SOL     OW24799   1.170   4.679   2.573
 7967SOL    HW124800   1.138   4.746   2.505
 7967SOL    HW224801   1.222   4.608   2.526
 7968SOL     OW24802   6.614   2.230   4.182
 7968SOL    HW124803   6.642   2.178   4.101
 7968SOL    HW224804   6.608   2.168   4.260
 7969SOL     OW24805   4.654   5.489   7.013
 7969SOL    HW124806   4.594   5.425   0.037
 7969SOL    HW224807   4.729   5.438   6.971
 7970SOL     OW24808   6.055   2.478   2.480
 7970SOL    HW124809   5.957   2.464   2.466
 7970SOL    HW224810   6.069   2.561   2.535
 7971SOL     OW24811   3.223   1.079   0.662
 7971SOL    HW124812   3.213   1.073   0.761
 7971SOL    HW224813   3.301   1.024   0.632
 7972SOL     OW24814   4.106   3.351   3.168
 7972SOL    HW124815   4.182   3.401   3.210
 7972SOL    HW224816   4.103   3.372   3.070
 7973SOL     OW24817   6.670   3.750   2.892
 7973SOL    HW124818   6.672   3.841   2.934
 7973SOL    HW224819   6.761   3.709   2.897
 7974SOL     OW24820   6.337   1.941   5.374
 7974SOL    HW124821   6.304   1.913   5.465
 7974SOL    HW224822   6.426   1.898   5.358
 7975SOL     OW24823   5.208   0.732   0.925
 7975SOL    HW124824   5.268   0.759   0.849
 7975SOL    HW224825   5.114   0.726   0.892
 7976SOL     OW24826   0.712   0.129   6.623
 7976SOL    HW124827   0.761   0.076   6.555
 7976SOL    HW224828   0.683   0.069   6.698
 7977SOL     OW24829   5.387   6.117   2.833
 7977SOL    HW124830   5.421   6.194   2.777
 7977SOL    HW224831   5.465   6.068   2.873
 7978SOL     OW24832   0.327   5.013   0.876
 7978SOL    HW124833   0.295   5.038   0.967
 7978SOL    HW224834   0.291   4.923   0.852
 7979SOL     OW24835   1.233   3.261   4.840
 7979SOL    HW124836   1.209   3.274   4.937
 7979SOL    HW224837   1.295   3.333   4.811
 7980SOL     OW24838   4.256   4.917   6.611
 7980SOL    HW124839   4.209   4.909   6.699
 7980SOL    HW224840   4.195   4.958   6.543
 7981SOL     OW24841   1.693   4.609   3.372
 7981SOL    HW124842   1.607   4.581   3.414
 7981SOL    HW224843   1.757   4.638   3.443
 7982SOL     OW24844   0.837   1.691   6.114
 7982SOL    HW124845   0.937   1.686   6.124
 7982SOL    HW224846   0.813   1.766   6.053
 7983SOL     OW24847   4.937   1.025   1.548
 7983SOL    HW124848   4.847   1.049   1.584
 7983SOL    HW224849   4.936   0.931   1.514
 7984SOL     OW24850   1.159   2.071   2.055
 7984SOL    HW124851   1.081   2.133   2.063
 7984SOL    HW224852   1.238   2.108   2.104
 7985SOL     OW24853   1.978   2.013   5.664
 7985SOL    HW124854   1.903   2.041   5.725
 7985SOL    HW224855   2.060   1.996   5.719
 7986SOL     OW24856   2.548   1.311   3.673
 7986SOL    HW124857   2.617   1.364   3.625
 7986SOL    HW224858   2.496   1.372   3.733
 7987SOL     OW24859   1.543   3.304   0.956
 7987SOL    HW124860   1.627   3.322   0.905
 7987SOL    HW224861   1.534   3.373   1.029
 7988SOL     OW24862   0.537   1.807   0.890
 7988SOL    HW124863   0.450   1.758   0.880
 7988SOL    HW224864   0.522   1.905   0.879
 7989SOL     OW24865   1.169   4.725   0.659
 7989SOL    HW124866   1.154   4.815   0.699
 7989SOL    HW224867   1.209   4.665   0.728
 7990SOL     OW24868   3.123   5.312   5.688
 7990SOL    HW124869   3.063   5.253   5.635
 7990SOL    HW224870   3.163   5.260   5.764
 7991SOL     OW24871   5.482   1.557   4.696
 7991SOL    HW124872   5.436   1.469   4.686
 7991SOL    HW224873   5.537   1.558   4.779
 7992SOL     OW24874   2.703   0.493   0.753
 7992SOL    HW124875   2.654   0.558   0.695
 7992SOL    HW224876   2.797   0.484   0.719
 7993SOL     OW24877   6.606   5.705   1.308
 7993SOL    HW124878   6.642   5.794   1.337
 7993SOL    HW224879   6.637   5.635   1.371
 7994SOL     OW24880   5.244   0.512   3.244
 7994SOL    HW124881   5.280   0.555   3.327
 7994SOL    HW224882   5.150   0.481   3.261
 7995SOL     OW24883   0.082   4.663   1.515
 7995SOL    HW124884   0.086   4.649   1.415
 7995SOL    HW224885   0.129   4.748   1.538
 7996SOL     OW24886   3.751   0.472   2.941
 7996SOL    HW124887   3.836   0.452   2.892
 7996SOL    HW224888   3.761   0.447   3.037
 7997SOL     OW24889   0.692   2.327   0.127
 7997SOL    HW124890   0.661   2.381   0.205
 7997SOL    HW224891   0.781   2.361   0.096
 7998SOL     OW24892   2.892   0.880   0.479
 7998SOL    HW124893   2.845   0.936   0.546
 7998SOL    HW224894   2.983   0.918   0.461
 7999SOL     OW24895   1.384   1.022   5.214
 7999SOL    HW124896   1.399   1.083   5.291
 7999SOL    HW224897   1.353   1.076   5.135
 8000SOL     OW24898   5.678   5.501   6.862
 8000SOL    HW124899   5.706   5.548   6.946
 8000SOL    HW224900   5.719   5.410   6.859
 8001SOL     OW24901   4.951   0.350   1.272
 8001SOL    HW124902   4.902   0.294   1.205
 8001SOL    HW224903   4.912   0.442   1.274
 8002SOL     OW24904   0.757   6.891   5.430
 8002SOL    HW124905   0.726   6.922   5.520
 8002SOL    HW224906   0.830   6.952   5.398
 8003SOL     OW24907   2.434   6.667   3.319
 8003SOL    HW124908   2.513   6.635   3.266
 8003SOL    HW224909   2.350   6.648   3.268
 8004SOL     OW24910   1.114   3.268   4.112
 8004SOL    HW124911   1.207   3.261   4.076
 8004SOL    HW224912   1.072   3.353   4.079
 8005SOL     OW24913   2.498   0.347   3.664
 8005SOL    HW124914   2.441   0.299   3.596
 8005SOL    HW224915   2.594   0.334   3.641
 8006SOL     OW24916   3.457   4.581   5.323
 8006SOL    HW124917   3.450   4.677   5.296
 8006SOL    HW224918   3.552   4.552   5.316
 8007SOL     OW24919   6.007   1.159   6.877
 8007SOL    HW124920   5.950   1.226   6.829
 8007SOL    HW224921   6.094   1.200   6.901
 8008SOL     OW24922   5.022   6.547   6.381
 8008SOL    HW124923   5.028   6.480   6.307
 8008SOL    HW224924   4.974   6.628   6.349
 8009SOL     OW24925   5.006   1.303   6.915
 8009SOL    HW124926   5.006   1.209   6.950
 8009SOL    HW224927   5.007   1.367   6.991
 8010SOL     OW24928   2.383   2.842   5.336
 8010SOL    HW124929   2.394   2.919   5.272
 8010SOL    HW224930   2.454   2.848   5.407
 8011SOL     OW24931   4.104   1.909   1.852
 8011SOL    HW124932   4.178   1.917   1.918
 8011SOL    HW224933   4.097   1.994   1.799
 8012SOL     OW24934   0.977   2.794   5.346
 8012SOL    HW124935   0.986   2.893   5.356
 8012SOL    HW224936   0.940   2.773   5.256
 8013SOL     OW24937   2.101   2.623   3.171
 8013SOL    HW124938   2.188   2.608   3.122
 8013SOL    HW224939   2.113   2.696   3.238
 8014SOL     OW24940   1.866   1.059   2.723
 8014SOL    HW124941   1.825   0.970   2.744
 8014SOL    HW224942   1.820   1.130   2.776
 8015SOL     OW24943   2.037   0.182   5.378
 8015SOL    HW124944   2.043   0.123   5.298
 8015SOL    HW224945   1.946   0.224   5.382
 8016SOL     OW24946   4.605   1.336   5.309
 8016SOL    HW124947   4.640   1.343   5.216
 8016SOL    HW224948   4.603   1.240   5.337
 8017SOL     OW24949   6.488   6.931   0.515
 8017SOL    HW124950   6.478   6.989   0.596
 8017SOL    HW224951   6.506   6.837   0.543
 8018SOL     OW24952   4.411   1.708   6.881
 8018SOL    HW124953   4.338   1.678   6.942
 8018SOL    HW224954   4.395   1.670   6.790
 8019SOL     OW24955   3.310   2.954   1.027
 8019SOL    HW124956   3.360   2.902   1.096
 8019SOL    HW224957   3.225   2.905   1.004
 8020SOL     OW24958   0.324   0.531   5.117
 8020SOL    HW124959   0.306   0.627   5.096
 8020SOL    HW224960   0.418   0.508   5.094
 8021SOL     OW24961   1.460   2.185   2.568
 8021SOL    HW124962   1.532   2.254   2.555
 8021SOL    HW224963   1.448   2.168   2.665
 8022SOL     OW24964   4.502   1.488   2.129
 8022SOL    HW124965   4.462   1.546   2.058
 8022SOL    HW224966   4.435   1.473   2.201
 8023SOL     OW24967   4.669   5.769   3.559
 8023SOL    HW124968   4.671   5.715   3.643
 8023SOL    HW224969   4.578   5.764   3.518
 8024SOL     OW24970   2.358   6.588   6.398
 8024SOL    HW124971   2.425   6.658   6.375
 8024SOL    HW224972   2.350   6.581   6.498
 8025SOL     OW24973   1.989   5.074   1.424
 8025SOL    HW124974   2.064   5.100   1.484
 8025SOL    HW224975   1.924   5.016   1.474
 8026SOL     OW24976   0.939   5.901   6.831
 8026SOL    HW124977   0.893   5.812   6.837
 8026SOL    HW224978   0.874   5.970   6.802
 8027SOL     OW24979   3.485   6.641   6.701
 8027SOL    HW124980   3.475   6.635   6.602
 8027SOL    HW224981   3.582   6.645   6.725
 8028SOL     OW24982   2.894   5.763   4.920
 8028SOL    HW124983   2.941   5.758   5.008
 8028SOL    HW224984   2.952   5.724   4.849
 8029SOL     OW24985   6.200   0.566   0.859
 8029SOL    HW124986   6.268   0.591   0.928
 8029SOL    HW224987   6.189   0.466   0.858
 8030SOL     OW24988   0.037   4.336   0.649
 8030SOL    HW124989   6.994   4.293   0.590
 8030SOL    HW224990   0.000   4.422   0.685
 8031SOL     OW24991   0.093   0.683   2.441
 8031SOL    HW124992   0.162   0.633   2.494
 8031SOL    HW224993   0.131   0.769   2.408
 8032SOL     OW24994   5.548   2.701   1.368
 8032SOL    HW124995   5.523   2.612   1.407
 8032SOL    HW224996   5.584   2.760   1.439
 8033SOL     OW24997   4.219   3.904   1.088
 8033SOL    HW124998   4.191   3.971   1.020
 8033SOL    HW224999   4.289   3.844   1.049
 8034SOL     OW25000   5.712   0.486   5.333
 8034SOL    HW125001   5.751   0.395   5.320
 8034SOL    HW225002   5.613   0.479   5.340
 8035SOL     OW25003   5.263   1.452   2.866
 8035SOL    HW125004   5.274   1.353   2.864
 8035SOL    HW225005   5.168   1.476   2.845
 8036SOL     OW25006   6.557   3.257   3.449
 8036SOL    HW125007   6.640   3.267   3.505
 8036SOL    HW225008   6.583   3.231   3.357
 8037SOL     OW25009   0.554   2.535   6.068
 8037SOL    HW125010   0.594   2.475   5.999
 8037SOL    HW225011   0.468   2.496   6.101
 8038SOL     OW25012   6.627   6.167   2.516
 8038SOL    HW125013   6.582   6.081   2.489
 8038SOL    HW225014   6.632   6.172   2.615
 8039SOL     OW25015   1.333   1.990   5.104
 8039SOL    HW125016   1.270   1.993   5.027
 8039SOL    HW225017   1.361   1.895   5.120
 8040SOL     OW25018   1.828   5.230   6.220
 8040SOL    HW125019   1.782   5.146   6.251
 8040SOL    HW225020   1.911   5.245   6.274
 8041SOL     OW25021   3.508   1.725   3.211
 8041SOL    HW125022   3.608   1.721   3.205
 8041SOL    HW225023   3.482   1.748   3.305
 8042SOL     OW25024   3.926   4.308   5.463
 8042SOL    HW125025   3.850   4.367   5.435
 8042SOL    HW225026   3.892   4.216   5.480
 8043SOL     OW25027   5.398   4.764   0.417
 8043SOL    HW125028   5.396   4.779   0.318
 8043SOL    HW225029   5.392   4.666   0.435
 8044SOL     OW25030   3.106   3.418   1.179
 8044SOL    HW125031   3.158   3.350   1.230
 8044SOL    HW225032   3.037   3.460   1.239
 8045SOL     OW25033   0.634   1.356   2.762
 8045SOL    HW125034   0.611   1.429   2.698
 8045SOL    HW225035   0.568   1.281   2.753
 8046SOL     OW25036   0.314   5.278   2.349
 8046SOL    HW125037   0.400   5.289   2.399
 8046SOL    HW225038   0.241   5.324   2.399
 8047SOL     OW25039   4.192   6.670   5.649
 8047SOL    HW125040   4.280   6.696   5.610
 8047SOL    HW225041   4.139   6.752   5.670
 8048SOL     OW25042   3.805   3.648   0.278
 8048SOL    HW125043   3.749   3.581   0.325
 8048SOL    HW225044   3.798   3.635   0.179
 8049SOL     OW25045   2.040   0.187   1.077
 8049SOL    HW125046   2.068   0.271   1.032
 8049SOL    HW225047   2.118   0.124   1.082
 8050SOL     OW25048   1.517   4.390   4.741
 8050SOL    HW125049   1.467   4.470   4.775
 8050SOL    HW225050   1.582   4.359   4.811
 8051SOL     OW25051   3.594   5.795   4.347
 8051SOL    HW125052   3.571   5.876   4.401
 8051SOL    HW225053   3.522   5.778   4.279
 8052SOL     OW25054   2.427   2.674   2.381
 8052SOL    HW125055   2.369   2.605   2.338
 8052SOL    HW225056   2.491   2.709   2.314
 8053SOL     OW25057   2.494   2.976   6.160
 8053SOL    HW125058   2.438   3.055   6.134
 8053SOL    HW225059   2.436   2.897   6.175
 8054SOL     OW25060   5.552   3.993   5.154
 8054SOL    HW125061   5.624   4.062   5.159
 8054SOL    HW225062   5.463   4.035   5.173
 8055SOL     OW25063   6.930   0.852   5.139
 8055SOL    HW125064   6.887   0.763   5.123
 8055SOL    HW225065   6.932   0.903   5.053
 8056SOL     OW25066   3.010   0.955   4.735
 8056SOL    HW125067   3.062   1.033   4.698
 8056SOL    HW225068   2.912   0.972   4.722
 8057SOL     OW25069   2.587   2.444   2.238
 8057SOL    HW125070   2.631   2.358   2.214
 8057SOL    HW225071   2.539   2.434   2.325
 8058SOL     OW25072   3.059   6.705   3.446
 8058SOL    HW125073   3.064   6.666   3.354
 8058SOL    HW225074   3.151   6.707   3.487
 8059SOL     OW25075   2.594   3.394   6.372
 8059SOL    HW125076   2.618   3.299   6.353
 8059SOL    HW225077   2.523   3.397   6.442
 8060SOL     OW25078   6.378   0.261   5.418
 8060SOL    HW125079   6.384   0.235   5.322
 8060SOL    HW225080   6.282   0.280   5.441
 8061SOL     OW25081   0.423   1.283   2.257
 8061SOL    HW125082   0.330   1.302   2.288
 8061SOL    HW225083   0.429   1.189   2.223
 8062SOL     OW25084   4.389   5.998   5.040
 8062SOL    HW125085   4.361   6.016   5.134
 8062SOL    HW225086   4.432   6.080   5.001
 8063SOL     OW25087   3.341   6.777   3.262
 8063SOL    HW125088   3.374   6.694   3.308
 8063SOL    HW225089   3.341   6.762   3.163
 8064SOL     OW25090   6.036   2.578   6.936
 8064SOL    HW125091   5.965   2.508   6.942
 8064SOL    HW225092   6.062   2.608   0.003
 8065SOL     OW25093   3.396   6.641   4.996
 8065SOL    HW125094   3.383   6.736   4.968
 8065SOL    HW225095   3.494   6.621   5.000
 8066SOL     OW25096   0.160   0.543   4.408
 8066SOL    HW125097   0.188   0.601   4.331
 8066SOL    HW225098   0.073   0.499   4.387
 8067SOL     OW25099   4.947   3.261   3.702
 8067SOL    HW125100   5.042   3.251   3.734
 8067SOL    HW225101   4.885   3.245   3.779
 8068SOL     OW25102   6.410   4.363   1.000
 8068SOL    HW125103   6.372   4.351   1.092
 8068SOL    HW225104   6.339   4.344   0.932
 8069SOL     OW25105   2.415   4.415   2.468
 8069SOL    HW125106   2.455   4.457   2.386
 8069SOL    HW225107   2.353   4.341   2.442
 8070SOL     OW25108   5.444   4.698   0.001
 8070SOL    HW125109   5.453   4.603   0.030
 8070SOL    HW225110   5.364   4.739   0.044
 8071SOL     OW25111   3.605   6.557   5.983
 8071SOL    HW125112   3.580   6.607   5.900
 8071SOL    HW225113   3.549   6.475   5.991
 8072SOL     OW25114   1.800   2.969   6.746
 8072SOL    HW125115   1.869   3.041   6.742
 8072SOL    HW225116   1.721   3.002   6.798
 8073SOL     OW25117   3.751   0.353   6.202
 8073SOL    HW125118   3.679   0.418   6.227
 8073SOL    HW225119   3.724   0.261   6.230
 8074SOL     OW25120   1.480   1.483   0.109
 8074SOL    HW125121   1.539   1.524   0.040
 8074SOL    HW225122   1.385   1.513   0.094
 8075SOL     OW25123   0.327   6.437   6.979
 8075SOL    HW125124   0.370   6.483   6.901
 8075SOL    HW225125   0.396   6.420   0.024
 8076SOL     OW25126   6.895   6.732   0.105
 8076SOL    HW125127   6.900   6.635   0.081
 8076SOL    HW225128   6.811   6.771   0.068
 8077SOL     OW25129   3.991   5.271   0.832
 8077SOL    HW125130   4.046   5.318   0.762
 8077SOL    HW225131   4.039   5.274   0.919
 8078SOL     OW25132   0.526   0.855   1.248
 8078SOL    HW125133   0.610   0.897   1.283
 8078SOL    HW225134   0.538   0.756   1.241
 8079SOL     OW25135   1.633   1.648   4.902
 8079SOL    HW125136   1.583   1.673   4.819
 8079SOL    HW225137   1.728   1.680   4.894
 8080SOL     OW25138   1.138   3.420   2.647
 8080SOL    HW125139   1.220   3.432   2.592
 8080SOL    HW225140   1.061   3.398   2.587
 8081SOL     OW25141   6.115   5.170   4.773
 8081SOL    HW125142   6.066   5.177   4.686
 8081SOL    HW225143   6.118   5.075   4.803
 8082SOL     OW25144   3.274   2.099   2.454
 8082SOL    HW125145   3.299   2.007   2.425
 8082SOL    HW225146   3.216   2.142   2.385
 8083SOL     OW25147   5.728   1.886   4.960
 8083SOL    HW125148   5.741   1.969   5.015
 8083SOL    HW225149   5.660   1.827   5.004
 8084SOL     OW25150   2.451   0.175   6.550
 8084SOL    HW125151   2.471   0.245   6.482
 8084SOL    HW225152   2.359   0.189   6.586
 8085SOL     OW25153   0.118   5.718   4.273
 8085SOL    HW125154   0.029   5.764   4.277
 8085SOL    HW225155   0.189   5.786   4.255
 8086SOL     OW25156   0.599   1.490   2.312
 8086SOL    HW125157   0.538   1.411   2.325
 8086SOL    HW225158   0.571   1.541   2.231
 8087SOL     OW25159   1.344   0.663   0.143
 8087SOL    HW125160   1.416   0.693   0.080
 8087SOL    HW225161   1.258   0.655   0.093
 8088SOL     OW25162   5.206   6.959   5.565
 8088SOL    HW125163   5.233   6.981   5.658
 8088SOL    HW225164   5.127   7.014   5.539
 8089SOL     OW25165   5.860   2.556   5.975
 8089SOL    HW125166   5.839   2.652   5.958
 8089SOL    HW225167   5.813   2.526   6.058
 8090SOL     OW25168   4.290   1.708   6.439
 8090SOL    HW125169   4.317   1.650   6.516
 8090SOL    HW225170   4.347   1.687   6.360
 8091SOL     OW25171   1.231   4.247   4.888
 8091SOL    HW125172   1.296   4.204   4.826
 8091SOL    HW225173   1.153   4.281   4.835
 8092SOL     OW25174   5.317   2.269   5.630
 8092SOL    HW125175   5.249   2.211   5.674
 8092SOL    HW225176   5.307   2.363   5.663
 8093SOL     OW25177   3.256   6.566   2.455
 8093SOL    HW125178   3.286   6.484   2.406
 8093SOL    HW225179   3.160   6.584   2.434
 8094SOL     OW25180   1.626   4.265   3.940
 8094SOL    HW125181   1.720   4.253   3.971
 8094SOL    HW225182   1.566   4.277   4.020
 8095SOL     OW25183   1.351   4.606   5.337
 8095SOL    HW125184   1.393   4.523   5.300
 8095SOL    HW225185   1.257   4.586   5.366
 8096SOL     OW25186   0.779   6.749   2.377
 8096SOL    HW125187   0.690   6.794   2.376
 8096SOL    HW225188   0.769   6.653   2.404
 8097SOL     OW25189   2.999   6.065   5.158
 8097SOL    HW125190   2.900   6.077   5.167
 8097SOL    HW225191   3.036   6.025   5.242
 8098SOL     OW25192   1.029   5.291   4.076
 8098SOL    HW125193   1.082   5.247   4.004
 8098SOL    HW225194   1.087   5.357   4.124
 8099SOL     OW25195   2.744   5.847   4.652
 8099SOL    HW125196   2.795   5.929   4.629
 8099SOL    HW225197   2.803   5.784   4.703
 8100SOL     OW25198   6.795   0.819   6.486
 8100SOL    HW125199   6.869   0.768   6.530
 8100SOL    HW225200   6.786   0.909   6.530
 8101SOL     OW25201   1.806   6.325   1.304
 8101SOL    HW125202   1.868   6.246   1.307
 8101SOL    HW225203   1.745   6.322   1.383
 8102SOL     OW25204   0.741   3.104   4.331
 8102SOL    HW125205   0.736   3.198   4.296
 8102SOL    HW225206   0.764   3.042   4.257
 8103SOL     OW25207   3.553   1.337   2.221
 8103SOL    HW125208   3.488   1.392   2.273
 8103SOL    HW225209   3.509   1.251   2.194
 8104SOL     OW25210   2.353   6.565   6.672
 8104SOL    HW125211   2.292   6.486   6.666
 8104SOL    HW225212   2.423   6.547   6.741
 8105SOL     OW25213   6.747   1.644   2.346
 8105SOL    HW125214   6.709   1.552   2.357
 8105SOL    HW225215   6.814   1.661   2.418
 8106SOL     OW25216   1.869   5.885   4.983
 8106SOL    HW125217   1.781   5.894   5.030
 8106SOL    HW225218   1.890   5.788   4.970
 8107SOL     OW25219   1.586   5.225   5.252
 8107SOL    HW125220   1.627   5.141   5.286
 8107SOL    HW225221   1.656   5.280   5.206
 8108SOL     OW25222   0.190   0.909   6.781
 8108SOL    HW125223   0.111   0.948   6.732
 8108SOL    HW225224   0.158   0.860   6.862
 8109SOL     OW25225   6.409   3.366   6.510
 8109SOL    HW125226   6.310   3.357   6.525
 8109SOL    HW225227   6.427   3.372   6.412
 8110SOL     OW25228   4.776   5.048   0.869
 8110SOL    HW125229   4.753   5.069   0.964
 8110SOL    HW225230   4.753   5.127   0.812
 8111SOL     OW25231   5.892   0.845   2.929
 8111SOL    HW125232   5.927   0.935   2.953
 8111SOL    HW225233   5.967   0.788   2.895
 8112SOL     OW25234   0.725   2.223   5.474
 8112SOL    HW125235   0.637   2.268   5.457
 8112SOL    HW225236   0.786   2.240   5.396
 8113SOL     OW25237   6.291   2.605   0.712
 8113SOL    HW125238   6.341   2.622   0.627
 8113SOL    HW225239   6.265   2.693   0.753
 8114SOL     OW25240   1.506   4.228   1.601
 8114SOL    HW125241   1.436   4.257   1.666
 8114SOL    HW225242   1.506   4.289   1.522
 8115SOL     OW25243   2.785   6.803   0.018
 8115SOL    HW125244   2.772   6.715   0.063
 8115SOL    HW225245   2.882   6.815   7.020
 8116SOL     OW25246   3.380   5.140   1.054
 8116SOL    HW125247   3.390   5.133   0.955
 8116SOL    HW225248   3.326   5.062   1.087
 8117SOL     OW25249   2.550   0.295   2.947
 8117SOL    HW125250   2.468   0.338   2.985
 8117SOL    HW225251   2.623   0.363   2.940
 8118SOL     OW25252   6.397   3.205   6.872
 8118SOL    HW125253   6.304   3.242   6.862
 8118SOL    HW225254   6.462   3.281   6.880
 8119SOL     OW25255   6.085   5.678   5.946
 8119SOL    HW125256   6.075   5.682   5.847
 8119SOL    HW225257   6.182   5.669   5.969
 8120SOL     OW25258   1.891   5.695   0.469
 8120SOL    HW125259   1.933   5.621   0.523
 8120SOL    HW225260   1.902   5.782   0.518
 8121SOL     OW25261   1.260   3.847   2.788
 8121SOL    HW125262   1.241   3.749   2.790
 8121SOL    HW225263   1.226   3.885   2.702
 8122SOL     OW25264   0.929   4.147   2.482
 8122SOL    HW125265   0.867   4.166   2.405
 8122SOL    HW225266   0.987   4.227   2.498
 8123SOL     OW25267   0.123   1.807   6.197
 8123SOL    HW125268   0.164   1.886   6.151
 8123SOL    HW225269   0.188   1.731   6.195
 8124SOL     OW25270   5.267   5.388   3.598
 8124SOL    HW125271   5.345   5.346   3.551
 8124SOL    HW225272   5.254   5.343   3.686
 8125SOL     OW25273   0.778   0.490   3.179
 8125SOL    HW125274   0.678   0.494   3.177
 8125SOL    HW225275   0.809   0.484   3.273
 8126SOL     OW25276   3.554   5.372   3.980
 8126SOL    HW125277   3.491   5.347   4.054
 8126SOL    HW225278   3.544   5.306   3.905
 8127SOL     OW25279   2.584   2.505   0.426
 8127SOL    HW125280   2.620   2.436   0.489
 8127SOL    HW225281   2.500   2.543   0.463
 8128SOL     OW25282   3.068   3.156   2.362
 8128SOL    HW125283   3.080   3.061   2.331
 8128SOL    HW225284   3.043   3.157   2.458
 8129SOL     OW25285   1.233   2.441   0.514
 8129SOL    HW125286   1.284   2.521   0.481
 8129SOL    HW225287   1.293   2.361   0.513
 8130SOL     OW25288   1.438   5.514   6.970
 8130SOL    HW125289   1.354   5.565   6.951
 8130SOL    HW225290   1.470   5.536   0.037
 8131SOL     OW25291   2.139   2.965   0.837
 8131SOL    HW125292   2.054   3.005   0.872
 8131SOL    HW225293   2.118   2.910   0.756
 8132SOL     OW25294   6.177   0.193   3.882
 8132SOL    HW125295   6.268   0.189   3.840
 8132SOL    HW225296   6.139   0.285   3.870
 8133SOL     OW25297   3.586   5.194   1.247
 8133SOL    HW125298   3.498   5.218   1.289
 8133SOL    HW225299   3.570   5.157   1.156
 8134SOL     OW25300   6.581   0.703   5.119
 8134SOL    HW125301   6.531   0.643   5.056
 8134SOL    HW225302   6.670   0.663   5.139
 8135SOL     OW25303   2.817   0.046   2.155
 8135SOL    HW125304   2.752   0.080   2.087
 8135SOL    HW225305   2.877   7.003   2.113
 8136SOL     OW25306   4.826   4.832   2.522
 8136SOL    HW125307   4.900   4.845   2.456
 8136SOL    HW225308   4.821   4.735   2.547
 8137SOL     OW25309   3.990   1.913   4.694
 8137SOL    HW125310   3.899   1.877   4.714
 8137SOL    HW225311   4.052   1.838   4.672
 8138SOL     OW25312   5.478   1.064   1.789
 8138SOL    HW125313   5.491   1.158   1.821
 8138SOL    HW225314   5.566   1.016   1.791
 8139SOL     OW25315   1.154   1.349   2.622
 8139SOL    HW125316   1.149   1.333   2.721
 8139SOL    HW225317   1.234   1.405   2.601
 8140SOL     OW25318   4.233   0.819   4.034
 8140SOL    HW125319   4.238   0.777   3.944
 8140SOL    HW225320   4.164   0.892   4.033
 8141SOL     OW25321   4.323   5.221   5.485
 8141SOL    HW125322   4.330   5.250   5.581
 8141SOL    HW225323   4.273   5.135   5.480
 8142SOL     OW25324   5.630   4.485   0.530
 8142SOL    HW125325   5.611   4.387   0.533
 8142SOL    HW225326   5.712   4.504   0.584
 8143SOL     OW25327   5.864   4.360   6.169
 8143SOL    HW125328   5.890   4.456   6.160
 8143SOL    HW225329   5.766   4.350   6.158
 8144SOL     OW25330   5.576   0.208   7.005
 8144SOL    HW125331   5.656   0.169   0.025
 8144SOL    HW225332   5.536   0.279   0.038
 8145SOL     OW25333   6.307   5.774   2.815
 8145SOL    HW125334   6.285   5.835   2.738
 8145SOL    HW225335   6.261   5.807   2.897
 8146SOL     OW25336   3.543   0.962   5.856
 8146SOL    HW125337   3.560   0.869   5.821
 8146SOL    HW225338   3.567   1.029   5.785
 8147SOL     OW25339   4.546   2.074   4.229
 8147SOL    HW125340   4.507   2.074   4.137
 8147SOL    HW225341   4.646   2.068   4.222
 8148SOL     OW25342   5.452   2.770   2.670
 8148SOL    HW125343   5.427   2.730   2.582
 8148SOL    HW225344   5.401   2.855   2.684
 8149SOL     OW25345   3.785   5.344   2.725
 8149SOL    HW125346   3.820   5.281   2.795
 8149SOL    HW225347   3.690   5.366   2.745
 8150SOL     OW25348   0.776   5.194   0.261
 8150SOL    HW125349   0.770   5.272   0.323
 8150SOL    HW225350   0.861   5.200   0.209
 8151SOL     OW25351   1.352   2.142   4.620
 8151SOL    HW125352   1.386   2.231   4.591
 8151SOL    HW225353   1.406   2.109   4.698
 8152SOL     OW25354   1.822   0.625   3.569
 8152SOL    HW125355   1.799   0.707   3.516
 8152SOL    HW225356   1.754   0.612   3.641
 8153SOL     OW25357   2.607   6.923   1.441
 8153SOL    HW125358   2.591   6.995   1.508
 8153SOL    HW225359   2.525   6.908   1.386
 8154SOL     OW25360   1.885   6.293   4.070
 8154SOL    HW125361   1.797   6.321   4.032
 8154SOL    HW225362   1.926   6.370   4.118
 8155SOL     OW25363   3.062   3.165   2.637
 8155SOL    HW125364   2.994   3.154   2.709
 8155SOL    HW225365   3.152   3.180   2.677
 8156SOL     OW25366   5.754   1.052   5.355
 8156SOL    HW125367   5.694   0.973   5.364
 8156SOL    HW225368   5.849   1.023   5.354
 8157SOL     OW25369   5.781   4.089   6.766
 8157SOL    HW125370   5.751   4.181   6.742
 8157SOL    HW225371   5.708   4.023   6.746
 8158SOL     OW25372   1.248   5.592   1.481
 8158SOL    HW125373   1.288   5.527   1.417
 8158SOL    HW225374   1.234   5.680   1.435
 8159SOL     OW25375   2.196   5.111   2.032
 8159SOL    HW125376   2.128   5.094   2.103
 8159SOL    HW225377   2.256   5.032   2.024
 8160SOL     OW25378   4.376   2.228   1.298
 8160SOL    HW125379   4.276   2.236   1.302
 8160SOL    HW225380   4.415   2.243   1.389
 8161SOL     OW25381   4.900   1.315   0.419
 8161SOL    HW125382   4.894   1.355   0.328
 8161SOL    HW225383   4.870   1.382   0.487
 8162SOL     OW25384   5.712   6.816   1.319
 8162SOL    HW125385   5.660   6.739   1.282
 8162SOL    HW225386   5.776   6.849   1.249
 8163SOL     OW25387   2.328   4.404   5.105
 8163SOL    HW125388   2.306   4.496   5.136
 8163SOL    HW225389   2.409   4.370   5.153
 8164SOL     OW25390   4.337   2.484   1.522
 8164SOL    HW125391   4.408   2.432   1.570
 8164SOL    HW225392   4.378   2.531   1.444
 8165SOL     OW25393   2.228   4.105   1.494
 8165SOL    HW125394   2.319   4.115   1.535
 8165SOL    HW225395   2.171   4.049   1.554
 8166SOL     OW25396   2.798   0.642   2.012
 8166SOL    HW125397   2.898   0.648   2.016
 8166SOL    HW225398   2.763   0.719   1.960
 8167SOL     OW25399   6.040   2.527   3.970
 8167SOL    HW125400   5.962   2.578   3.934
 8167SOL    HW225401   6.087   2.582   4.039
 8168SOL     OW25402   3.654   1.292   2.950
 8168SOL    HW125403   3.575   1.320   3.005
 8168SOL    HW225404   3.731   1.354   2.967
 8169SOL     OW25405   4.349   3.815   6.942
 8169SOL    HW125406   4.284   3.762   6.997
 8169SOL    HW225407   4.439   3.814   6.986
 8170SOL     OW25408   0.715   5.832   4.205
 8170SOL    HW125409   0.796   5.861   4.155
 8170SOL    HW225410   0.742   5.780   4.286
 8171SOL     OW25411   0.832   2.186   6.131
 8171SOL    HW125412   0.869   2.178   6.224
 8171SOL    HW225413   0.899   2.150   6.066
 8172SOL     OW25414   0.527   6.882   0.804
 8172SOL    HW125415   0.439   6.925   0.781
 8172SOL    HW225416   0.588   6.887   0.725
 8173SOL     OW25417   3.565   2.924   0.162
 8173SOL    HW125418   3.569   2.824   0.169
 8173SOL    HW225419   3.657   2.962   0.171
 8174SOL     OW25420   5.672   0.752   1.512
 8174SOL    HW125421   5.740   0.688   1.475
 8174SOL    HW225422   5.657   0.733   1.609
 8175SOL     OW25423   0.438   1.978   6.586
 8175SOL    HW125424   0.487   1.994   6.500
 8175SOL    HW225425   0.419   2.066   6.630
 8176SOL     OW25426   2.405   5.557   2.103
 8176SOL    HW125427   2.490   5.574   2.053
 8176SOL    HW225428   2.427   5.510   2.189
 8177SOL     OW25429   6.981   6.615   4.618
 8177SOL    HW125430   6.980   6.714   4.636
 8177SOL    HW225431   7.000   6.567   4.704
 8178SOL     OW25432   1.410   6.365   6.601
 8178SOL    HW125433   1.411   6.288   6.665
 8178SOL    HW225434   1.503   6.390   6.577
 8179SOL     OW25435   3.306   2.991   0.093
 8179SOL    HW125436   3.301   3.074   0.149
 8179SOL    HW225437   3.397   2.951   0.103
 8180SOL     OW25438   6.573   6.676   4.884
 8180SOL    HW125439   6.643   6.738   4.920
 8180SOL    HW225440   6.614   6.618   4.813
 8181SOL     OW25441   2.285   2.035   3.237
 8181SOL    HW125442   2.335   2.119   3.217
 8181SOL    HW225443   2.344   1.956   3.224
 8182SOL     OW25444   4.258   2.100   5.213
 8182SOL    HW125445   4.261   2.185   5.267
 8182SOL    HW225446   4.347   2.055   5.219
 8183SOL     OW25447   1.397   3.863   4.457
 8183SOL    HW125448   1.361   3.919   4.531
 8183SOL    HW225449   1.321   3.821   4.406
 8184SOL     OW25450   6.829   0.036   5.483
 8184SOL    HW125451   6.859   0.129   5.503
 8184SOL    HW225452   6.817   0.025   5.384
 8185SOL     OW25453   3.193   1.528   2.170
 8185SOL    HW125454   3.220   1.557   2.261
 8185SOL    HW225455   3.189   1.607   2.109
 8186SOL     OW25456   4.086   6.240   5.676
 8186SOL    HW125457   4.179   6.241   5.640
 8186SOL    HW225458   4.075   6.313   5.744
 8187SOL     OW25459   1.678   1.884   5.262
 8187SOL    HW125460   1.722   1.925   5.182
 8187SOL    HW225461   1.686   1.947   5.339
 8188SOL     OW25462   6.244   2.596   3.017
 8188SOL    HW125463   6.145   2.603   3.002
 8188SOL    HW225464   6.278   2.683   3.052
 8189SOL     OW25465   6.334   4.276   2.720
 8189SOL    HW125466   6.350   4.360   2.667
 8189SOL    HW225467   6.274   4.215   2.668
 8190SOL     OW25468   5.185   3.597   4.178
 8190SOL    HW125469   5.219   3.672   4.121
 8190SOL    HW225470   5.089   3.614   4.200
 8191SOL     OW25471   0.796   5.457   4.093
 8191SOL    HW125472   0.885   5.420   4.067
 8191SOL    HW225473   0.734   5.454   4.014
 8192SOL     OW25474   1.793   4.481   2.161
 8192SOL    HW125475   1.871   4.529   2.120
 8192SOL    HW225476   1.820   4.387   2.184
 8193SOL     OW25477   3.894   0.016   5.261
 8193SOL    HW125478   3.797   0.006   5.281
 8193SOL    HW225479   3.948   7.003   5.336
 8194SOL     OW25480   6.485   0.739   0.300
 8194SOL    HW125481   6.511   0.835   0.297
 8194SOL    HW225482   6.563   0.685   0.334
 8195SOL     OW25483   6.867   6.428   0.214
 8195SOL    HW125484   6.782   6.400   0.260
 8195SOL    HW225485   6.934   6.456   0.283
 8196SOL     OW25486   2.902   6.592   6.146
 8196SOL    HW125487   2.923   6.667   6.082
 8196SOL    HW225488   2.839   6.625   6.216
 8197SOL     OW25489   0.654   0.524   6.027
 8197SOL    HW125490   0.600   0.481   6.100
 8197SOL    HW225491   0.615   0.501   5.938
 8198SOL     OW25492   2.834   6.785   3.296
 8198SOL    HW125493   2.910   6.786   3.361
 8198SOL    HW225494   2.763   6.848   3.326
 8199SOL     OW25495   6.912   3.376   0.020
 8199SOL    HW125496   6.865   3.350   6.960
 8199SOL    HW225497   6.963   3.460   0.005
 8200SOL     OW25498   5.617   4.160   0.948
 8200SOL    HW125499   5.556   4.105   1.005
 8200SOL    HW225500   5.712   4.145   0.977
 8201SOL     OW25501   5.687   6.721   3.475
 8201SOL    HW125502   5.606   6.766   3.514
 8201SOL    HW225503   5.738   6.786   3.419
 8202SOL     OW25504   1.472   4.062   3.591
 8202SOL    HW125505   1.459   4.072   3.492
 8202SOL    HW225506   1.570   4.051   3.610
 8203SOL     OW25507   5.937   3.763   1.464
 8203SOL    HW125508   5.947   3.811   1.377
 8203SOL    HW225509   5.849   3.715   1.465
 8204SOL     OW25510   3.534   0.271   1.956
 8204SOL    HW125511   3.577   0.213   1.886
 8204SOL    HW225512   3.454   0.223   1.994
 8205SOL     OW25513   5.581   5.492   1.560
 8205SOL    HW125514   5.530   5.413   1.593
 8205SOL    HW225515   5.636   5.465   1.480
 8206SOL     OW25516   4.469   2.022   4.904
 8206SOL    HW125517   4.411   1.946   4.875
 8206SOL    HW225518   4.502   2.005   4.997
 8207SOL     OW25519   2.803   5.995   6.876
 8207SOL    HW125520   2.824   5.955   6.787
 8207SOL    HW225521   2.783   5.922   6.942
 8208SOL     OW25522   1.706   4.643   0.862
 8208SOL    HW125523   1.683   4.579   0.788
 8208SOL    HW225524   1.736   4.591   0.942
 8209SOL     OW25525   0.472   0.246   5.023
 8209SOL    HW125526   0.536   0.318   4.999
 8209SOL    HW225527   0.511   0.189   5.096
 8210SOL     OW25528   2.499   1.009   0.219
 8210SOL    HW125529   2.417   0.986   0.167
 8210SOL    HW225530   2.564   0.933   0.215
 8211SOL     OW25531   3.428   2.886   4.425
 8211SOL    HW125532   3.518   2.865   4.463
 8211SOL    HW225533   3.434   2.886   4.325
 8212SOL     OW25534   3.474   0.345   1.139
 8212SOL    HW125535   3.535   0.421   1.114
 8212SOL    HW225536   3.522   0.258   1.127
 8213SOL     OW25537   4.555   4.041   1.674
 8213SOL    HW125538   4.649   4.060   1.645
 8213SOL    HW225539   4.535   4.092   1.758
 8214SOL     OW25540   3.768   5.629   4.513
 8214SOL    HW125541   3.720   5.691   4.451
 8214SOL    HW225542   3.746   5.652   4.608
 8215SOL     OW25543   4.271   6.818   6.881
 8215SOL    HW125544   4.257   6.892   6.946
 8215SOL    HW225545   4.183   6.789   6.844
 8216SOL     OW25546   5.263   5.167   1.416
 8216SOL    HW125547   5.172   5.207   1.401
 8216SOL    HW225548   5.330   5.214   1.358
 8217SOL     OW25549   1.915   5.985   3.840
 8217SOL    HW125550   1.969   5.905   3.814
 8217SOL    HW225551   1.935   6.010   3.935
 8218SOL     OW25552   1.563   6.897   4.618
 8218SOL    HW125553   1.533   6.934   4.530
 8218SOL    HW225554   1.597   6.971   4.676
 8219SOL     OW25555   3.778   3.662   0.950
 8219SOL    HW125556   3.679   3.668   0.943
 8219SOL    HW225557   3.805   3.671   1.046
 8220SOL     OW25558   4.114   3.375   4.293
 8220SOL    HW125559   4.058   3.399   4.214
 8220SOL    HW225560   4.206   3.413   4.282
 8221SOL     OW25561   5.846   3.348   3.332
 8221SOL    HW125562   5.751   3.380   3.327
 8221SOL    HW225563   5.898   3.411   3.390
 8222SOL     OW25564   6.307   3.494   0.462
 8222SOL    HW125565   6.375   3.438   0.414
 8222SOL    HW225566   6.219   3.486   0.416
 8223SOL     OW25567   0.645   5.607   5.200
 8223SOL    HW125568   0.666   5.561   5.287
 8223SOL    HW225569   0.570   5.559   5.154
 8224SOL     OW25570   5.148   1.681   0.459
 8224SOL    HW125571   5.156   1.612   0.387
 8224SOL    HW225572   5.184   1.643   0.545
 8225SOL     OW25573   5.264   1.297   0.646
 8225SOL    HW125574   5.286   1.273   0.551
 8225SOL    HW225575   5.216   1.385   0.647
 8226SOL     OW25576   4.059   0.393   0.351
 8226SOL    HW125577   4.151   0.370   0.319
 8226SOL    HW225578   4.059   0.485   0.391
 8227SOL     OW25579   4.949   2.129   2.995
 8227SOL    HW125580   5.006   2.052   2.966
 8227SOL    HW225581   4.914   2.176   2.914
 8228SOL     OW25582   2.018   0.511   4.993
 8228SOL    HW125583   1.941   0.571   4.973
 8228SOL    HW225584   2.091   0.565   5.036
 8229SOL     OW25585   4.710   4.333   1.027
 8229SOL    HW125586   4.781   4.392   1.066
 8229SOL    HW225587   4.683   4.265   1.095
 8230SOL     OW25588   5.870   0.744   6.067
 8230SOL    HW125589   5.816   0.758   5.984
 8230SOL    HW225590   5.941   0.676   6.050
 8231SOL     OW25591   2.132   1.369   2.512
 8231SOL    HW125592   2.048   1.334   2.471
 8231SOL    HW225593   2.149   1.462   2.479
 8232SOL     OW25594   3.444   6.211   2.690
 8232SOL    HW125595   3.516   6.224   2.622
 8232SOL    HW225596   3.485   6.180   2.776
 8233SOL     OW25597   0.915   1.334   5.891
 8233SOL    HW125598   0.922   1.245   5.937
 8233SOL    HW225599   1.000   1.351   5.841
 8234SOL     OW25600   1.163   1.959   0.473
 8234SOL    HW125601   1.215   1.943   0.389
 8234SOL    HW225602   1.191   1.892   0.542
 8235SOL     OW25603   0.483   5.714   1.320
 8235SOL    HW125604   0.459   5.716   1.224
 8235SOL    HW225605   0.574   5.754   1.332
 8236SOL     OW25606   0.690   6.510   0.985
 8236SOL    HW125607   0.664   6.514   0.888
 8236SOL    HW225608   0.788   6.493   0.992
 8237SOL     OW25609   4.477   4.652   0.194
 8237SOL    HW125610   4.402   4.706   0.156
 8237SOL    HW225611   4.562   4.674   0.146
 8238SOL     OW25612   0.810   4.185   0.637
 8238SOL    HW125613   0.827   4.183   0.736
 8238SOL    HW225614   0.727   4.132   0.617
 8239SOL     OW25615   1.673   1.370   5.534
 8239SOL    HW125616   1.578   1.359   5.560
 8239SOL    HW225617   1.681   1.445   5.468
 8240SOL     OW25618   3.488   3.853   4.498
 8240SOL    HW125619   3.510   3.886   4.590
 8240SOL    HW225620   3.488   3.929   4.434
 8241SOL     OW25621   1.980   3.884   6.149
 8241SOL    HW125622   2.010   3.827   6.226
 8241SOL    HW225623   2.057   3.898   6.087
 8242SOL     OW25624   1.063   3.487   3.692
 8242SOL    HW125625   0.967   3.512   3.675
 8242SOL    HW225626   1.102   3.548   3.761
 8243SOL     OW25627   0.145   5.175   4.655
 8243SOL    HW125628   0.216   5.244   4.668
 8243SOL    HW225629   0.154   5.105   4.725
 8244SOL     OW25630   0.838   0.615   4.539
 8244SOL    HW125631   0.846   0.516   4.552
 8244SOL    HW225632   0.909   0.647   4.476
 8245SOL     OW25633   5.453   1.884   3.490
 8245SOL    HW125634   5.353   1.884   3.503
 8245SOL    HW225635   5.498   1.889   3.579
 8246SOL     OW25636   2.323   5.319   6.722
 8246SOL    HW125637   2.243   5.331   6.781
 8246SOL    HW225638   2.341   5.405   6.673
 8247SOL     OW25639   2.769   5.108   2.742
 8247SOL    HW125640   2.781   5.195   2.695
 8247SOL    HW225641   2.706   5.050   2.690
 8248SOL     OW25642   0.063   5.193   2.962
 8248SOL    HW125643   0.022   5.159   3.046
 8248SOL    HW225644   0.155   5.228   2.982
 8249SOL     OW25645   3.312   2.061   6.233
 8249SOL    HW125646   3.318   2.063   6.333
 8249SOL    HW225647   3.226   2.103   6.205
 8250SOL     OW25648   1.202   1.483   0.137
 8250SOL    HW125649   1.160   1.409   0.190
 8250SOL    HW225650   1.163   1.571   0.166
 8251SOL     OW25651   0.424   2.027   4.554
 8251SOL    HW125652   0.380   2.104   4.507
 8251SOL    HW225653   0.438   2.050   4.650
 8252SOL     OW25654   1.367   1.803   6.329
 8252SOL    HW125655   1.452   1.855   6.323
 8252SOL    HW225656   1.380   1.725   6.391
 8253SOL     OW25657   4.771   5.939   0.802
 8253SOL    HW125658   4.770   5.914   0.706
 8253SOL    HW225659   4.770   6.039   0.811
 8254SOL     OW25660   5.266   4.955   6.507
 8254SOL    HW125661   5.363   4.969   6.489
 8254SOL    HW225662   5.247   4.972   6.604
 8255SOL     OW25663   0.862   6.709   6.666
 8255SOL    HW125664   0.852   6.646   6.742
 8255SOL    HW225665   0.905   6.794   6.698
 8256SOL     OW25666   1.416   5.287   3.584
 8256SOL    HW125667   1.375   5.377   3.601
 8256SOL    HW225668   1.435   5.243   3.672
 8257SOL     OW25669   4.947   3.331   2.962
 8257SOL    HW125670   4.993   3.408   2.919
 8257SOL    HW225671   4.916   3.357   3.053
 8258SOL     OW25672   6.443   3.145   1.922
 8258SOL    HW125673   6.378   3.096   1.981
 8258SOL    HW225674   6.403   3.156   1.831
 8259SOL     OW25675   5.359   1.297   4.257
 8259SOL    HW125676   5.383   1.393   4.251
 8259SOL    HW225677   5.260   1.288   4.273
 8260SOL     OW25678   3.983   1.564   1.385
 8260SOL    HW125679   3.911   1.505   1.420
 8260SOL    HW225680   4.068   1.547   1.434
 8261SOL     OW25681   5.922   0.411   2.828
 8261SOL    HW125682   5.941   0.331   2.771
 8261SOL    HW225683   5.828   0.442   2.811
 8262SOL     OW25684   5.980   3.875   2.130
 8262SOL    HW125685   5.988   3.778   2.105
 8262SOL    HW225686   5.959   3.929   2.048
 8263SOL     OW25687   0.028   2.256   5.847
 8263SOL    HW125688   0.071   2.343   5.822
 8263SOL    HW225689   0.040   2.190   5.773
 8264SOL     OW25690   2.930   7.015   3.093
 8264SOL    HW125691   2.898   0.005   3.000
 8264SOL    HW225692   2.868   6.951   3.139
 8265SOL     OW25693   5.226   0.357   0.240
 8265SOL    HW125694   5.220   0.331   0.336
 8265SOL    HW225695   5.168   0.436   0.223
 8266SOL     OW25696   2.454   0.740   3.876
 8266SOL    HW125697   2.515   0.771   3.803
 8266SOL    HW225698   2.477   0.786   3.961
 8267SOL     OW25699   1.496   4.331   2.803
 8267SOL    HW125700   1.558   4.372   2.737
 8267SOL    HW225701   1.513   4.232   2.807
 8268SOL     OW25702   3.488   4.902   6.365
 8268SOL    HW125703   3.494   4.865   6.458
 8268SOL    HW225704   3.451   4.832   6.303
 8269SOL     OW25705   6.073   2.546   3.616
 8269SOL    HW125706   6.146   2.498   3.568
 8269SOL    HW225707   6.110   2.630   3.657
 8270SOL     OW25708   3.693   0.088   6.266
 8270SOL    HW125709   3.640   0.044   6.339
 8270SOL    HW225710   3.742   0.019   6.214
 8271SOL     OW25711   3.927   5.979   5.674
 8271SOL    HW125712   3.957   5.919   5.601
 8271SOL    HW225713   3.979   6.065   5.671
 8272SOL     OW25714   0.553   0.259   1.460
 8272SOL    HW125715   0.617   0.323   1.417
 8272SOL    HW225716   0.591   0.227   1.547
 8273SOL     OW25717   3.475   0.298   7.014
 8273SOL    HW125718   3.486   0.397   7.001
 8273SOL    HW225719   3.426   0.260   6.936
 8274SOL     OW25720   5.613   6.440   5.857
 8274SOL    HW125721   5.606   6.418   5.759
 8274SOL    HW225722   5.649   6.362   5.906
 8275SOL     OW25723   5.739   0.370   3.415
 8275SOL    HW125724   5.796   0.292   3.440
 8275SOL    HW225725   5.722   0.370   3.316
 8276SOL     OW25726   0.354   2.372   6.155
 8276SOL    HW125727   0.292   2.357   6.232
 8276SOL    HW225728   0.414   2.292   6.144
 8277SOL     OW25729   1.010   6.247   6.569
 8277SOL    HW125730   0.951   6.302   6.629
 8277SOL    HW225731   1.061   6.182   6.624
 8278SOL     OW25732   3.809   1.069   0.243
 8278SOL    HW125733   3.884   1.134   0.261
 8278SOL    HW225734   3.839   0.977   0.268
 8279SOL     OW25735   4.954   5.075   5.609
 8279SOL    HW125736   5.022   5.083   5.536
 8279SOL    HW225737   4.975   5.141   5.682
 8280SOL     OW25738   5.275   3.207   0.111
 8280SOL    HW125739   5.333   3.138   0.156
 8280SOL    HW225740   5.179   3.187   0.130
 8281SOL     OW25741   2.295   5.079   0.208
 8281SOL    HW125742   2.378   5.099   0.156
 8281SOL    HW225743   2.312   5.002   0.270
 8282SOL     OW25744   2.851   2.233   0.692
 8282SOL    HW125745   2.932   2.185   0.726
 8282SOL    HW225746   2.769   2.185   0.722
 8283SOL     OW25747   6.975   5.700   3.077
 8283SOL    HW125748   6.977   5.629   3.148
 8283SOL    HW225749   6.970   5.657   2.987
 8284SOL     OW25750   2.921   1.886   2.204
 8284SOL    HW125751   2.972   1.872   2.289
 8284SOL    HW225752   2.869   1.971   2.211
 8285SOL     OW25753   3.094   4.368   6.106
 8285SOL    HW125754   3.121   4.446   6.050
 8285SOL    HW225755   3.023   4.396   6.171
 8286SOL     OW25756   5.577   1.651   5.533
 8286SOL    HW125757   5.618   1.607   5.453
 8286SOL    HW225758   5.526   1.583   5.585
 8287SOL     OW25759   2.085   0.705   3.672
 8287SOL    HW125760   2.122   0.722   3.581
 8287SOL    HW225761   1.988   0.681   3.665
 8288SOL     OW25762   2.332   1.233   3.045
 8288SOL    HW125763   2.354   1.207   3.140
 8288SOL    HW225764   2.242   1.277   3.043
 8289SOL     OW25765   6.654   1.527   5.618
 8289SOL    HW125766   6.565   1.505   5.578
 8289SOL    HW225767   6.651   1.514   5.717
 8290SOL     OW25768   4.620   2.799   1.742
 8290SOL    HW125769   4.657   2.859   1.813
 8290SOL    HW225770   4.521   2.814   1.734
 8291SOL     OW25771   4.052   5.010   6.473
 8291SOL    HW125772   3.996   4.942   6.520
 8291SOL    HW225773   4.011   5.101   6.486
 8292SOL     OW25774   0.735   4.091   4.427
 8292SOL    HW125775   0.719   4.076   4.524
 8292SOL    HW225776   0.765   4.006   4.384
 8293SOL     OW25777   2.949   4.850   4.237
 8293SOL    HW125778   3.038   4.896   4.233
 8293SOL    HW225779   2.914   4.855   4.331
 8294SOL     OW25780   4.618   3.301   5.662
 8294SOL    HW125781   4.543   3.350   5.708
 8294SOL    HW225782   4.580   3.234   5.599
 8295SOL     OW25783   5.240   4.387   1.911
 8295SOL    HW125784   5.231   4.291   1.885
 8295SOL    HW225785   5.150   4.422   1.938
 8296SOL     OW25786   3.570   6.464   1.788
 8296SOL    HW125787   3.572   6.502   1.880
 8296SOL    HW225788   3.516   6.380   1.788
 8297SOL     OW25789   5.781   4.142   3.505
 8297SOL    HW125790   5.853   4.151   3.573
 8297SOL    HW225791   5.733   4.229   3.496
 8298SOL     OW25792   6.612   6.951   6.115
 8298SOL    HW125793   6.674   6.885   6.074
 8298SOL    HW225794   6.518   6.921   6.101
 8299SOL     OW25795   0.291   3.591   0.867
 8299SOL    HW125796   0.310   3.679   0.822
 8299SOL    HW225797   0.328   3.517   0.811
 8300SOL     OW25798   5.081   4.689   2.770
 8300SOL    HW125799   5.064   4.644   2.857
 8300SOL    HW225800   5.101   4.786   2.785
 8301SOL     OW25801   4.624   6.778   0.431
 8301SOL    HW125802   4.708   6.827   0.406
 8301SOL    HW225803   4.632   6.743   0.524
 8302SOL     OW25804   3.304   6.761   5.553
 8302SOL    HW125805   3.215   6.749   5.597
 8302SOL    HW225806   3.324   6.859   5.545
 8303SOL     OW25807   0.029   6.197   2.953
 8303SOL    HW125808   7.017   6.115   2.997
 8303SOL    HW225809   0.067   6.172   2.864
 8304SOL     OW25810   5.543   4.050   3.305
 8304SOL    HW125811   5.445   4.057   3.324
 8304SOL    HW225812   5.595   4.092   3.379
 8305SOL     OW25813   4.645   6.320   4.576
 8305SOL    HW125814   4.589   6.335   4.658
 8305SOL    HW225815   4.686   6.407   4.549
 8306SOL     OW25816   6.660   0.778   1.921
 8306SOL    HW125817   6.724   0.726   1.865
 8306SOL    HW225818   6.579   0.799   1.868
 8307SOL     OW25819   1.596   3.778   2.488
 8307SOL    HW125820   1.586   3.745   2.394
 8307SOL    HW225821   1.532   3.730   2.547
 8308SOL     OW25822   1.560   5.483   0.745
 8308SOL    HW125823   1.635   5.466   0.682
 8308SOL    HW225824   1.517   5.570   0.724
 8309SOL     OW25825   6.066   4.570   4.340
 8309SOL    HW125826   6.068   4.470   4.348
 8309SOL    HW225827   6.159   4.605   4.350
 8310SOL     OW25828   1.214   6.693   0.774
 8310SOL    HW125829   1.116   6.675   0.766
 8310SOL    HW225830   1.263   6.644   0.702
 8311SOL     OW25831   5.971   6.542   3.392
 8311SOL    HW125832   6.041   6.478   3.423
 8311SOL    HW225833   5.970   6.622   3.453
 8312SOL     OW25834   5.458   1.756   0.505
 8312SOL    HW125835   5.541   1.766   0.559
 8312SOL    HW225836   5.396   1.691   0.549
 8313SOL     OW25837   5.479   2.770   4.994
 8313SOL    HW125838   5.503   2.799   4.902
 8313SOL    HW225839   5.380   2.764   5.002
 8314SOL     OW25840   5.131   6.082   4.556
 8314SOL    HW125841   5.210   6.109   4.501
 8314SOL    HW225842   5.107   6.156   4.618
 8315SOL     OW25843   4.007   4.167   5.161
 8315SOL    HW125844   4.017   4.090   5.099
 8315SOL    HW225845   4.090   4.222   5.159
 8316SOL     OW25846   2.365   2.077   6.371
 8316SOL    HW125847   2.342   2.170   6.341
 8316SOL    HW225848   2.420   2.082   6.454
 8317SOL     OW25849   1.751   1.328   3.945
 8317SOL    HW125850   1.849   1.351   3.941
 8317SOL    HW225851   1.735   1.244   3.894
 8318SOL     OW25852   4.673   0.066   0.283
 8318SOL    HW125853   4.680   0.118   0.368
 8318SOL    HW225854   4.585   0.086   0.239
 8319SOL     OW25855   1.322   6.473   6.823
 8319SOL    HW125856   1.391   6.439   6.886
 8319SOL    HW225857   1.345   6.444   6.730
 8320SOL     OW25858   3.256   3.062   4.548
 8320SOL    HW125859   3.232   3.017   4.634
 8320SOL    HW225860   3.318   3.004   4.496
 8321SOL     OW25861   0.623   6.439   1.468
 8321SOL    HW125862   0.591   6.486   1.550
 8321SOL    HW225863   0.551   6.377   1.436
 8322SOL     OW25864   0.663   0.183   0.268
 8322SOL    HW125865   0.669   0.164   0.170
 8322SOL    HW225866   0.569   0.168   0.299
 8323SOL     OW25867   6.064   4.144   0.291
 8323SOL    HW125868   6.045   4.118   0.385
 8323SOL    HW225869   6.004   4.220   0.264
 8324SOL     OW25870   4.699   5.788   6.219
 8324SOL    HW125871   4.721   5.753   6.128
 8324SOL    HW225872   4.757   5.744   6.287
 8325SOL     OW25873   1.375   5.546   6.561
 8325SOL    HW125874   1.360   5.523   6.658
 8325SOL    HW225875   1.307   5.498   6.505
 8326SOL     OW25876   1.282   3.532   0.550
 8326SOL    HW125877   1.213   3.542   0.478
 8326SOL    HW225878   1.310   3.622   0.583
 8327SOL     OW25879   0.739   6.835   4.798
 8327SOL    HW125880   0.726   6.934   4.805
 8327SOL    HW225881   0.680   6.798   4.727
 8328SOL     OW25882   1.001   0.316   0.088
 8328SOL    HW125883   1.045   0.385   0.146
 8328SOL    HW225884   0.975   0.237   0.144
 8329SOL     OW25885   1.952   2.893   4.730
 8329SOL    HW125886   1.984   2.890   4.824
 8329SOL    HW225887   1.867   2.945   4.725
 8330SOL     OW25888   3.887   1.111   6.586
 8330SOL    HW125889   3.929   1.039   6.532
 8330SOL    HW225890   3.899   1.199   6.539
 8331SOL     OW25891   1.819   2.464   6.207
 8331SOL    HW125892   1.804   2.545   6.150
 8331SOL    HW225893   1.877   2.488   6.285
 8332SOL     OW25894   5.871   5.081   1.463
 8332SOL    HW125895   5.965   5.107   1.488
 8332SOL    HW225896   5.810   5.158   1.482
 8333SOL     OW25897   2.076   4.863   0.503
 8333SOL    HW125898   2.173   4.843   0.495
 8333SOL    HW225899   2.050   4.865   0.600
 8334SOL     OW25900   3.735   2.199   6.735
 8334SOL    HW125901   3.808   2.262   6.760
 8334SOL    HW225902   3.646   2.246   6.742
 8335SOL     OW25903   5.530   3.788   6.316
 8335SOL    HW125904   5.627   3.771   6.337
 8335SOL    HW225905   5.495   3.712   6.261
 8336SOL     OW25906   1.144   4.271   3.877
 8336SOL    HW125907   1.162   4.236   3.969
 8336SOL    HW225908   1.230   4.280   3.827
 8337SOL     OW25909   0.733   0.861   4.642
 8337SOL    HW125910   0.762   0.778   4.594
 8337SOL    HW225911   0.771   0.941   4.596
 8338SOL     OW25912   4.249   5.931   2.229
 8338SOL    HW125913   4.301   5.908   2.147
 8338SOL    HW225914   4.160   5.885   2.226
 8339SOL     OW25915   5.952   6.587   0.601
 8339SOL    HW125916   6.010   6.657   0.558
 8339SOL    HW225917   5.970   6.585   0.699
 8340SOL     OW25918   6.425   2.145   6.808
 8340SOL    HW125919   6.453   2.162   6.713
 8340SOL    HW225920   6.379   2.226   6.844
 8341SOL     OW25921   3.361   0.588   0.556
 8341SOL    HW125922   3.331   0.502   0.596
 8341SOL    HW225923   3.431   0.630   0.614
 8342SOL     OW25924   4.583   0.736   0.048
 8342SOL    HW125925   4.683   0.739   0.051
 8342SOL    HW225926   4.546   0.762   0.137
 8343SOL     OW25927   5.525   4.223   4.010
 8343SOL    HW125928   5.619   4.250   3.990
 8343SOL    HW225929   5.481   4.294   4.065
 8344SOL     OW25930   1.325   5.249   5.364
 8344SOL    HW125931   1.322   5.286   5.457
 8344SOL    HW225932   1.409   5.280   5.319
 8345SOL     OW25933   4.401   1.456   3.408
 8345SOL    HW125934   4.335   1.399   3.359
 8345SOL    HW225935   4.479   1.400   3.435
 8346SOL     OW25936   6.149   3.819   4.917
 8346SOL    HW125937   6.245   3.798   4.901
 8346SOL    HW225938   6.092   3.748   4.875
 8347SOL     OW25939   2.805   0.619   0.469
 8347SOL    HW125940   2.838   0.713   0.476
 8347SOL    HW225941   2.705   0.619   0.471
 8348SOL     OW25942   3.282   6.400   1.797
 8348SOL    HW125943   3.243   6.473   1.740
 8348SOL    HW225944   3.318   6.328   1.739
 8349SOL     OW25945   0.311   6.335   1.782
 8349SOL    HW125946   0.298   6.287   1.869
 8349SOL    HW225947   0.364   6.276   1.720
 8350SOL     OW25948   2.553   0.646   1.017
 8350SOL    HW125949   2.590   0.692   1.098
 8350SOL    HW225950   2.594   0.555   1.009
 8351SOL     OW25951   6.655   3.406   3.229
 8351SOL    HW125952   6.556   3.417   3.221
 8351SOL    HW225953   6.699   3.442   3.146
 8352SOL     OW25954   2.273   6.116   1.942
 8352SOL    HW125955   2.224   6.138   2.026
 8352SOL    HW225956   2.272   6.195   1.881
 8353SOL     OW25957   1.325   4.436   2.013
 8353SOL    HW125958   1.289   4.357   2.064
 8353SOL    HW225959   1.340   4.512   2.076
 8354SOL     OW25960   3.016   0.253   3.162
 8354SOL    HW125961   2.996   0.155   3.166
 8354SOL    HW225962   3.104   0.268   3.118
 8355SOL     OW25963   2.690   6.248   6.762
 8355SOL    HW125964   2.726   6.168   6.810
 8355SOL    HW225965   2.733   6.254   6.671
 8356SOL     OW25966   1.896   5.370   0.883
 8356SOL    HW125967   1.838   5.444   0.916
 8356SOL    HW225968   1.931   5.394   0.792
 8357SOL     OW25969   4.276   6.051   5.300
 8357SOL    HW125970   4.313   6.105   5.376
 8357SOL    HW225971   4.282   5.954   5.322
 8358SOL     OW25972   0.781   1.323   4.723
 8358SOL    HW125973   0.809   1.321   4.819
 8358SOL    HW225974   0.788   1.231   4.684
 8359SOL     OW25975   3.459   2.093   5.492
 8359SOL    HW125976   3.531   2.108   5.424
 8359SOL    HW225977   3.376   2.141   5.465
 8360SOL     OW25978   4.504   0.126   1.654
 8360SOL    HW125979   4.569   0.079   1.593
 8360SOL    HW225980   4.522   0.224   1.652
 8361SOL     OW25981   3.932   0.370   6.859
 8361SOL    HW125982   3.958   0.340   6.767
 8361SOL    HW225983   3.992   0.326   6.926
 8362SOL     OW25984   0.103   4.202   1.508
 8362SOL    HW125985   0.066   4.293   1.523
 8362SOL    HW225986   0.186   4.190   1.563
 8363SOL     OW25987   2.577   3.301   0.069
 8363SOL    HW125988   2.666   3.311   0.024
 8363SOL    HW225989   2.585   3.233   0.142
 8364SOL     OW25990   0.053   3.450   4.566
 8364SOL    HW125991   0.047   3.515   4.642
 8364SOL    HW225992   0.132   3.390   4.580
 8365SOL     OW25993   2.000   2.695   2.346
 8365SOL    HW125994   2.027   2.620   2.286
 8365SOL    HW225995   2.063   2.772   2.334
 8366SOL     OW25996   4.959   5.418   1.782
 8366SOL    HW125997   4.925   5.349   1.719
 8366SOL    HW225998   5.020   5.375   1.849
 8367SOL     OW25999   3.560   5.465   4.447
 8367SOL    HW126000   3.657   5.484   4.441
 8367SOL    HW226001   3.518   5.525   4.515
 8368SOL     OW26002   6.660   6.248   0.340
 8368SOL    HW126003   6.613   6.249   0.251
 8368SOL    HW226004   6.731   6.177   0.339
 8369SOL     OW26005   2.399   6.995   1.044
 8369SOL    HW126006   2.455   0.048   1.017
 8369SOL    HW226007   2.391   6.993   1.143
 8370SOL     OW26008   2.453   3.210   0.505
 8370SOL    HW126009   2.419   3.121   0.535
 8370SOL    HW226010   2.514   3.198   0.426
 8371SOL     OW26011   1.778   4.365   6.554
 8371SOL    HW126012   1.760   4.291   6.619
 8371SOL    HW226013   1.730   4.346   6.468
 8372SOL     OW26014   2.434   5.598   2.565
 8372SOL    HW126015   2.520   5.564   2.602
 8372SOL    HW226016   2.415   5.689   2.603
 8373SOL     OW26017   0.065   1.661   4.101
 8373SOL    HW126018   7.021   1.732   4.084
 8373SOL    HW226019   0.034   1.602   4.176
 8374SOL     OW26020   1.462   0.507   4.405
 8374SOL    HW126021   1.476   0.450   4.323
 8374SOL    HW226022   1.544   0.562   4.421
 8375SOL     OW26023   3.624   0.704   4.504
 8375SOL    HW126024   3.533   0.735   4.475
 8375SOL    HW226025   3.619   0.671   4.598
 8376SOL     OW26026   2.157   0.853   2.979
 8376SOL    HW126027   2.104   0.930   3.013
 8376SOL    HW226028   2.196   0.802   3.057
 8377SOL     OW26029   4.330   5.370   7.009
 8377SOL    HW126030   4.287   5.454   6.976
 8377SOL    HW226031   4.283   5.291   6.969
 8378SOL     OW26032   5.134   5.804   4.510
 8378SOL    HW126033   5.101   5.896   4.530
 8378SOL    HW226034   5.109   5.778   4.417
 8379SOL     OW26035   5.716   0.919   1.761
 8379SOL    HW126036   5.741   0.925   1.664
 8379SOL    HW226037   5.705   0.823   1.787
 8380SOL     OW26038   6.409   5.737   0.749
 8380SOL    HW126039   6.334   5.689   0.705
 8380SOL    HW226040   6.432   5.819   0.697
 8381SOL     OW26041   0.315   2.062   2.014
 8381SOL    HW126042   0.319   2.155   2.051
 8381SOL    HW226043   0.228   2.020   2.040
 8382SOL     OW26044   2.332   0.494   1.251
 8382SOL    HW126045   2.333   0.479   1.153
 8382SOL    HW226046   2.346   0.592   1.270
 8383SOL     OW26047   2.841   6.251   6.518
 8383SOL    HW126048   2.854   6.176   6.453
 8383SOL    HW226049   2.928   6.272   6.563
 8384SOL     OW26050   0.606   2.394   1.591
 8384SOL    HW126051   0.532   2.327   1.598
 8384SOL    HW226052   0.583   2.474   1.645
 8385SOL     OW26053   3.627   3.470   1.547
 8385SOL    HW126054   3.687   3.391   1.563
 8385SOL    HW226055   3.670   3.552   1.584
 8386SOL     OW26056   2.119   5.885   1.950
 8386SOL    HW126057   2.074   5.890   1.860
 8386SOL    HW226058   2.182   5.961   1.960
 8387SOL     OW26059   1.460   1.145   2.555
 8387SOL    HW126060   1.530   1.132   2.625
 8387SOL    HW226061   1.441   1.243   2.545
 8388SOL     OW26062   3.960   6.331   1.258
 8388SOL    HW126063   4.001   6.365   1.342
 8388SOL    HW226064   3.937   6.408   1.198
 8389SOL     OW26065   0.417   2.674   4.000
 8389SOL    HW126066   0.348   2.660   4.071
 8389SOL    HW226067   0.504   2.635   4.029
 8390SOL     OW26068   3.291   1.114   5.865
 8390SOL    HW126069   3.379   1.076   5.833
 8390SOL    HW226070   3.267   1.071   5.952
 8391SOL     OW26071   4.812   5.968   1.235
 8391SOL    HW126072   4.908   5.939   1.235
 8391SOL    HW226073   4.767   5.935   1.318
 8392SOL     OW26074   5.510   6.138   5.430
 8392SOL    HW126075   5.418   6.102   5.441
 8392SOL    HW226076   5.575   6.063   5.427
 8393SOL     OW26077   6.706   5.976   2.971
 8393SOL    HW126078   6.757   6.003   3.053
 8393SOL    HW226079   6.614   5.948   2.997
 8394SOL     OW26080   0.619   1.964   2.814
 8394SOL    HW126081   0.676   1.958   2.732
 8394SOL    HW226082   0.613   1.874   2.857
 8395SOL     OW26083   6.855   5.997   5.311
 8395SOL    HW126084   6.825   6.021   5.219
 8395SOL    HW226085   6.954   5.985   5.312
 8396SOL     OW26086   4.900   3.272   1.892
 8396SOL    HW126087   4.845   3.205   1.943
 8396SOL    HW226088   4.997   3.252   1.906
 8397SOL     OW26089   2.005   5.623   3.577
 8397SOL    HW126090   1.984   5.690   3.506
 8397SOL    HW226091   1.920   5.588   3.616
 8398SOL     OW26092   4.320   1.928   0.562
 8398SOL    HW126093   4.256   2.000   0.589
 8398SOL    HW226094   4.302   1.846   0.617
 8399SOL     OW26095   5.602   5.730   0.352
 8399SOL    HW126096   5.554   5.803   0.401
 8399SOL    HW226097   5.599   5.749   0.254
 8400SOL     OW26098   6.808   0.950   2.702
 8400SOL    HW126099   6.719   0.951   2.656
 8400SOL    HW226100   6.793   0.944   2.801
 8401SOL     OW26101   3.174   4.460   6.474
 8401SOL    HW126102   3.199   4.403   6.552
 8401SOL    HW226103   3.161   4.554   6.505
 8402SOL     OW26104   4.519   1.979   6.978
 8402SOL    HW126105   4.493   1.900   6.924
 8402SOL    HW226106   4.500   1.961   0.050
 8403SOL     OW26107   2.084   1.334   4.668
 8403SOL    HW126108   2.155   1.352   4.736
 8403SOL    HW226109   2.109   1.379   4.582
 8404SOL     OW26110   4.318   5.286   5.762
 8404SOL    HW126111   4.244   5.220   5.763
 8404SOL    HW226112   4.384   5.263   5.834
 8405SOL     OW26113   0.753   2.694   5.493
 8405SOL    HW126114   0.695   2.775   5.486
 8405SOL    HW226115   0.848   2.718   5.473
 8406SOL     OW26116   5.109   3.327   1.610
 8406SOL    HW126117   5.067   3.238   1.633
 8406SOL    HW226118   5.205   3.313   1.587
 8407SOL     OW26119   4.898   3.943   2.942
 8407SOL    HW126120   4.893   4.033   2.987
 8407SOL    HW226121   4.982   3.938   2.887
 8408SOL     OW26122   4.988   2.352   4.854
 8408SOL    HW126123   5.005   2.387   4.946
 8408SOL    HW226124   5.055   2.389   4.790
 8409SOL     OW26125   1.122   1.591   3.871
 8409SOL    HW126126   1.050   1.526   3.849
 8409SOL    HW226127   1.200   1.576   3.810
 8410SOL     OW26128   3.985   6.932   1.746
 8410SOL    HW126129   4.030   6.865   1.805
 8410SOL    HW226130   4.019   6.924   1.653
 8411SOL     OW26131   1.362   3.477   4.743
 8411SOL    HW126132   1.410   3.502   4.659
 8411SOL    HW226133   1.395   3.534   4.818
 8412SOL     OW26134   5.483   2.367   3.452
 8412SOL    HW126135   5.419   2.355   3.376
 8412SOL    HW226136   5.559   2.303   3.441
 8413SOL     OW26137   3.780   4.645   0.734
 8413SOL    HW126138   3.813   4.630   0.641
 8413SOL    HW226139   3.856   4.674   0.793
 8414SOL     OW26140   4.140   6.379   3.025
 8414SOL    HW126141   4.217   6.348   2.970
 8414SOL    HW226142   4.057   6.382   2.969
 8415SOL     OW26143   6.567   4.160   2.798
 8415SOL    HW126144   6.574   4.081   2.859
 8415SOL    HW226145   6.488   4.216   2.824
 8416SOL     OW26146   5.404   3.796   2.532
 8416SOL    HW126147   5.489   3.764   2.490
 8416SOL    HW226148   5.425   3.854   2.610
 8417SOL     OW26149   2.747   6.135   5.998
 8417SOL    HW126150   2.762   6.232   5.981
 8417SOL    HW226151   2.749   6.117   6.096
 8418SOL     OW26152   6.530   5.141   2.986
 8418SOL    HW126153   6.519   5.055   3.035
 8418SOL    HW226154   6.623   5.175   2.999
 8419SOL     OW26155   4.505   0.614   3.401
 8419SOL    HW126156   4.489   0.712   3.392
 8419SOL    HW226157   4.458   0.580   3.482
 8420SOL     OW26158   4.010   0.911   6.403
 8420SOL    HW126159   4.021   0.812   6.411
 8420SOL    HW226160   3.937   0.932   6.337
 8421SOL     OW26161   1.891   6.847   1.858
 8421SOL    HW126162   1.942   6.932   1.872
 8421SOL    HW226163   1.949   6.769   1.883
 8422SOL     OW26164   4.523   0.114   0.767
 8422SOL    HW126165   4.475   0.030   0.794
 8422SOL    HW226166   4.588   0.139   0.839
 8423SOL     OW26167   3.556   3.829   1.319
 8423SOL    HW126168   3.492   3.772   1.266
 8423SOL    HW226169   3.512   3.917   1.339
 8424SOL     OW26170   3.357   1.201   2.738
 8424SOL    HW126171   3.320   1.265   2.806
 8424SOL    HW226172   3.447   1.233   2.708
 8425SOL     OW26173   6.503   4.573   0.152
 8425SOL    HW126174   6.512   4.581   0.053
 8425SOL    HW226175   6.483   4.663   0.190
 8426SOL     OW26176   4.095   3.614   3.382
 8426SOL    HW126177   4.117   3.575   3.471
 8426SOL    HW226178   4.070   3.711   3.392
 8427SOL     OW26179   2.143   3.925   6.775
 8427SOL    HW126180   2.078   3.897   6.704
 8427SOL    HW226181   2.133   4.023   6.794
 8428SOL     OW26182   6.588   4.248   2.077
 8428SOL    HW126183   6.642   4.214   2.153
 8428SOL    HW226184   6.648   4.273   2.001
 8429SOL     OW26185   1.796   6.244   3.407
 8429SOL    HW126186   1.827   6.250   3.501
 8429SOL    HW226187   1.744   6.326   3.383
 8430SOL     OW26188   4.219   4.885   2.772
 8430SOL    HW126189   4.199   4.837   2.687
 8430SOL    HW226190   4.284   4.960   2.753
 8431SOL     OW26191   3.092   4.986   1.318
 8431SOL    HW126192   3.004   5.012   1.355
 8431SOL    HW226193   3.144   4.936   1.387
 8432SOL     OW26194   4.312   6.777   6.470
 8432SOL    HW126195   4.374   6.855   6.462
 8432SOL    HW226196   4.218   6.809   6.480
 8433SOL     OW26197   1.149   2.318   6.121
 8433SOL    HW126198   1.104   2.321   6.032
 8433SOL    HW226199   1.082   2.335   6.194
 8434SOL     OW26200   5.639   0.113   5.258
 8434SOL    HW126201   5.567   0.051   5.291
 8434SOL    HW226202   5.608   0.159   5.175
 8435SOL     OW26203   4.340   1.656   1.354
 8435SOL    HW126204   4.431   1.697   1.352
 8435SOL    HW226205   4.314   1.628   1.262
 8436SOL     OW26206   4.334   4.326   1.654
 8436SOL    HW126207   4.325   4.266   1.575
 8436SOL    HW226208   4.380   4.278   1.728
 8437SOL     OW26209   0.731   1.237   1.268
 8437SOL    HW126210   0.688   1.325   1.285
 8437SOL    HW226211   0.777   1.205   1.351
 8438SOL     OW26212   1.592   5.563   2.222
 8438SOL    HW126213   1.687   5.536   2.211
 8438SOL    HW226214   1.585   5.639   2.286
 8439SOL     OW26215   0.213   5.037   2.476
 8439SOL    HW126216   0.245   5.131   2.464
 8439SOL    HW226217   0.114   5.036   2.490
 8440SOL     OW26218   0.774   1.014   2.722
 8440SOL    HW126219   0.832   1.095   2.721
 8440SOL    HW226220   0.694   1.029   2.664
 8441SOL     OW26221   3.949   5.288   6.633
 8441SOL    HW126222   4.048   5.278   6.638
 8441SOL    HW226223   3.925   5.341   6.552
 8442SOL     OW26224   2.502   4.753   0.035
 8442SOL    HW126225   2.513   4.848   0.007
 8442SOL    HW226226   2.405   4.733   0.050
 8443SOL     OW26227   1.975   0.498   3.087
 8443SOL    HW126228   1.967   0.566   3.014
 8443SOL    HW226229   2.014   0.414   3.049
 8444SOL     OW26230   3.433   6.322   3.311
 8444SOL    HW126231   3.525   6.300   3.342
 8444SOL    HW226232   3.371   6.247   3.334
 8445SOL     OW26233   3.761   4.894   2.882
 8445SOL    HW126234   3.704   4.889   2.964
 8445SOL    HW226235   3.702   4.904   2.801
 8446SOL     OW26236   5.599   4.565   2.509
 8446SOL    HW126237   5.527   4.514   2.556
 8446SOL    HW226238   5.610   4.531   2.416
 8447SOL     OW26239   4.647   2.605   2.141
 8447SOL    HW126240   4.642   2.696   2.182
 8447SOL    HW226241   4.723   2.602   2.075
 8448SOL     OW26242   0.856   3.564   6.662
 8448SOL    HW126243   0.760   3.580   6.637
 8448SOL    HW226244   0.888   3.640   6.718
 8449SOL     OW26245   1.768   3.284   4.626
 8449SOL    HW126246   1.769   3.383   4.613
 8449SOL    HW226247   1.711   3.241   4.555
 8450SOL     OW26248   2.138   5.498   2.890
 8450SOL    HW126249   2.198   5.465   2.963
 8450SOL    HW226250   2.105   5.590   2.913
 8451SOL     OW26251   3.601   2.405   1.227
 8451SOL    HW126252   3.640   2.414   1.135
 8451SOL    HW226253   3.672   2.373   1.290
 8452SOL     OW26254   6.707   6.453   0.544
 8452SOL    HW126255   6.757   6.399   0.613
 8452SOL    HW226256   6.689   6.395   0.464
 8453SOL     OW26257   6.339   3.712   6.052
 8453SOL    HW126258   6.298   3.629   6.091
 8453SOL    HW226259   6.330   3.787   6.118
 8454SOL     OW26260   1.993   0.168   4.116
 8454SOL    HW126261   1.969   0.185   4.211
 8454SOL    HW226262   1.933   0.098   4.078
 8455SOL     OW26263   4.804   1.639   1.055
 8455SOL    HW126264   4.867   1.637   1.132
 8455SOL    HW226265   4.824   1.563   0.993
 8456SOL     OW26266   5.704   5.586   3.037
 8456SOL    HW126267   5.647   5.536   2.972
 8456SOL    HW226268   5.669   5.680   3.046
 8457SOL     OW26269   6.967   5.862   5.755
 8457SOL    HW126270   6.876   5.828   5.732
 8457SOL    HW226271   6.989   5.839   5.850
 8458SOL     OW26272   1.011   1.559   0.449
 8458SOL    HW126273   0.945   1.578   0.522
 8458SOL    HW226274   0.991   1.619   0.371
 8459SOL     OW26275   3.095   5.828   2.018
 8459SOL    HW126276   3.062   5.886   1.944
 8459SOL    HW226277   3.028   5.827   2.092
 8460SOL     OW26278   4.775   1.287   0.816
 8460SOL    HW126279   4.805   1.200   0.776
 8460SOL    HW226280   4.717   1.336   0.751
 8461SOL     OW26281   6.509   3.881   1.787
 8461SOL    HW126282   6.570   3.815   1.831
 8461SOL    HW226283   6.541   3.974   1.808
 8462SOL     OW26284   3.423   4.733   6.588
 8462SOL    HW126285   3.473   4.650   6.612
 8462SOL    HW226286   3.354   4.752   6.658
 8463SOL     OW26287   6.861   1.709   0.245
 8463SOL    HW126288   6.821   1.782   0.299
 8463SOL    HW226289   6.879   1.741   0.152
 8464SOL     OW26290   0.401   3.452   0.099
 8464SOL    HW126291   0.358   3.443   0.188
 8464SOL    HW226292   0.366   3.533   0.052
 8465SOL     OW26293   4.189   3.261   1.407
 8465SOL    HW126294   4.240   3.338   1.367
 8465SOL    HW226295   4.149   3.206   1.334
 8466SOL     OW26296   6.066   0.563   5.989
 8466SOL    HW126297   6.166   0.552   5.991
 8466SOL    HW226298   6.029   0.507   5.915
 8467SOL     OW26299   3.558   1.212   1.334
 8467SOL    HW126300   3.550   1.301   1.289
 8467SOL    HW226301   3.500   1.210   1.415
 8468SOL     OW26302   6.324   2.945   7.006
 8468SOL    HW126303   6.316   3.036   6.964
 8468SOL    HW226304   6.234   2.918   0.016
 8469SOL     OW26305   3.848   2.942   5.748
 8469SOL    HW126306   3.852   3.039   5.774
 8469SOL    HW226307   3.874   2.932   5.652
 8470SOL     OW26308   1.633   5.140   1.440
 8470SOL    HW126309   1.583   5.221   1.467
 8470SOL    HW226310   1.660   5.148   1.344
 8471SOL     OW26311   3.656   2.150   5.297
 8471SOL    HW126312   3.738   2.206   5.288
 8471SOL    HW226313   3.644   2.096   5.214
 8472SOL     OW26314   5.687   1.812   5.962
 8472SOL    HW126315   5.617   1.740   5.958
 8472SOL    HW226316   5.672   1.868   6.044
 8473SOL     OW26317   4.881   4.198   6.032
 8473SOL    HW126318   4.877   4.144   5.948
 8473SOL    HW226319   4.901   4.294   6.009
 8474SOL     OW26320   3.815   3.605   3.008
 8474SOL    HW126321   3.787   3.683   2.952
 8474SOL    HW226322   3.914   3.606   3.018
 8475SOL     OW26323   6.409   2.557   1.843
 8475SOL    HW126324   6.388   2.546   1.941
 8475SOL    HW226325   6.461   2.641   1.829
 8476SOL     OW26326   6.217   7.018   1.860
 8476SOL    HW126327   6.254   0.053   1.789
 8476SOL    HW226328   6.144   0.039   1.909
 8477SOL     OW26329   5.900   6.684   1.673
 8477SOL    HW126330   5.889   6.608   1.610
 8477SOL    HW226331   5.824   6.748   1.663
 8478SOL     OW26332   6.746   0.008   5.205
 8478SOL    HW126333   6.654   7.024   5.244
 8478SOL    HW226334   6.759   6.966   5.132
 8479SOL     OW26335   0.836   2.278   1.680
 8479SOL    HW126336   0.821   2.229   1.765
 8479SOL    HW226337   0.748   2.304   1.640
 8480SOL     OW26338   5.008   4.477   0.298
 8480SOL    HW126339   4.974   4.407   0.236
 8480SOL    HW226340   5.097   4.449   0.334
 8481SOL     OW26341   3.819   2.113   3.787
 8481SOL    HW126342   3.914   2.138   3.766
 8481SOL    HW226343   3.764   2.121   3.704
 8482SOL     OW26344   4.564   1.080   0.134
 8482SOL    HW126345   4.466   1.099   0.131
 8482SOL    HW226346   4.607   1.108   0.048
 8483SOL     OW26347   3.132   5.682   3.188
 8483SOL    HW126348   3.149   5.594   3.231
 8483SOL    HW226349   3.167   5.681   3.094
 8484SOL     OW26350   5.524   6.128   4.101
 8484SOL    HW126351   5.623   6.119   4.090
 8484SOL    HW226352   5.504   6.187   4.179
 8485SOL     OW26353   2.798   2.260   0.047
 8485SOL    HW126354   2.818   2.358   0.052
 8485SOL    HW226355   2.701   2.246   0.027
 8486SOL     OW26356   0.837   0.802   2.520
 8486SOL    HW126357   0.826   0.860   2.600
 8486SOL    HW226358   0.899   0.727   2.542
 8487SOL     OW26359   6.203   1.679   5.865
 8487SOL    HW126360   6.122   1.715   5.911
 8487SOL    HW226361   6.285   1.709   5.914
 8488SOL     OW26362   4.953   4.976   1.494
 8488SOL    HW126363   5.000   5.035   1.559
 8488SOL    HW226364   5.015   4.955   1.418
 8489SOL     OW26365   5.236   1.237   1.336
 8489SOL    HW126366   5.239   1.137   1.343
 8489SOL    HW226367   5.169   1.272   1.401
 8490SOL     OW26368   2.520   0.417   6.789
 8490SOL    HW126369   2.594   0.361   6.754
 8490SOL    HW226370   2.483   0.474   6.715
 8491SOL     OW26371   3.278   5.336   2.194
 8491SOL    HW126372   3.259   5.424   2.152
 8491SOL    HW226373   3.258   5.341   2.292
 8492SOL     OW26374   5.798   5.418   4.473
 8492SOL    HW126375   5.759   5.423   4.381
 8492SOL    HW226376   5.735   5.460   4.539
 8493SOL     OW26377   3.860   0.224   0.232
 8493SOL    HW126378   3.894   0.292   0.297
 8493SOL    HW226379   3.761   0.216   0.240
 8494SOL     OW26380   5.717   5.297   1.999
 8494SOL    HW126381   5.717   5.229   1.926
 8494SOL    HW226382   5.626   5.338   2.005
 8495SOL     OW26383   6.808   5.851   0.156
 8495SOL    HW126384   6.853   5.839   0.068
 8495SOL    HW226385   6.771   5.763   0.187
 8496SOL     OW26386   5.030   2.064   2.622
 8496SOL    HW126387   4.977   2.133   2.671
 8496SOL    HW226388   5.009   2.069   2.524
 8497SOL     OW26389   6.499   0.681   3.705
 8497SOL    HW126390   6.494   0.756   3.771
 8497SOL    HW226391   6.507   0.594   3.753
 8498SOL     OW26392   4.832   0.330   4.671
 8498SOL    HW126393   4.910   0.327   4.733
 8498SOL    HW226394   4.827   0.244   4.620
 8499SOL     OW26395   6.353   6.431   6.231
 8499SOL    HW126396   6.277   6.401   6.288
 8499SOL    HW226397   6.383   6.355   6.173
 8500SOL     OW26398   1.845   0.810   5.185
 8500SOL    HW126399   1.930   0.818   5.237
 8500SOL    HW226400   1.798   0.898   5.186
 8501SOL     OW26401   0.658   1.464   6.574
 8501SOL    HW126402   0.576   1.519   6.556
 8501SOL    HW226403   0.688   1.481   6.668
 8502SOL     OW26404   0.508   2.839   6.602
 8502SOL    HW126405   0.549   2.925   6.633
 8502SOL    HW226406   0.409   2.851   6.591
 8503SOL     OW26407   5.938   6.389   4.149
 8503SOL    HW126408   5.844   6.374   4.180
 8503SOL    HW226409   5.998   6.399   4.229
 8504SOL     OW26410   2.186   5.109   2.837
 8504SOL    HW126411   2.091   5.091   2.810
 8504SOL    HW226412   2.192   5.109   2.937
 8505SOL     OW26413   5.396   3.041   2.656
 8505SOL    HW126414   5.425   3.079   2.744
 8505SOL    HW226415   5.299   3.060   2.642
 8506SOL     OW26416   2.395   0.237   0.183
 8506SOL    HW126417   2.473   0.273   0.233
 8506SOL    HW226418   2.311   0.278   0.218
 8507SOL     OW26419   4.579   5.605   5.284
 8507SOL    HW126420   4.507   5.537   5.268
 8507SOL    HW226421   4.539   5.688   5.321
 8508SOL     OW26422   3.907   2.012   0.289
 8508SOL    HW126423   3.919   2.095   0.344
 8508SOL    HW226424   3.821   2.017   0.239
 8509SOL     OW26425   5.333   0.644   3.468
 8509SOL    HW126426   5.374   0.621   3.557
 8509SOL    HW226427   5.393   0.707   3.419
 8510SOL     OW26428   6.507   1.685   4.651
 8510SOL    HW126429   6.546   1.774   4.674
 8510SOL    HW226430   6.580   1.618   4.640
 8511SOL     OW26431   6.124   2.765   1.801
 8511SOL    HW126432   6.125   2.676   1.756
 8511SOL    HW226433   6.169   2.833   1.742
 8512SOL     OW26434   1.339   6.759   4.742
 8512SOL    HW126435   1.316   6.673   4.696
 8512SOL    HW226436   1.411   6.806   4.690
 8513SOL     OW26437   5.692   6.214   6.293
 8513SOL    HW126438   5.737   6.270   6.363
 8513SOL    HW226439   5.648   6.274   6.226
 8514SOL     OW26440   2.445   6.171   4.450
 8514SOL    HW126441   2.491   6.083   4.437
 8514SOL    HW226442   2.409   6.176   4.543
 8515SOL     OW26443   4.759   2.110   1.737
 8515SOL    HW126444   4.818   2.041   1.779
 8515SOL    HW226445   4.688   2.066   1.683
 8516SOL     OW26446   0.045   2.325   2.075
 8516SOL    HW126447   6.989   2.356   2.125
 8516SOL    HW226448   0.056   2.381   1.992
 8517SOL     OW26449   2.113   2.516   6.327
 8517SOL    HW126450   2.141   2.487   6.419
 8517SOL    HW226451   2.047   2.590   6.334
 8518SOL     OW26452   3.728   5.668   0.710
 8518SOL    HW126453   3.759   5.736   0.643
 8518SOL    HW226454   3.628   5.666   0.712
 8519SOL     OW26455   0.890   5.943   3.240
 8519SOL    HW126456   0.891   6.040   3.263
 8519SOL    HW226457   0.955   5.924   3.167
 8520SOL     OW26458   3.802   0.837   7.011
 8520SOL    HW126459   3.750   0.810   0.067
 8520SOL    HW226460   3.810   0.759   6.949
 8521SOL     OW26461   1.359   6.464   6.215
 8521SOL    HW126462   1.362   6.445   6.117
 8521SOL    HW226463   1.309   6.391   6.261
 8522SOL     OW26464   1.081   5.727   4.939
 8522SOL    HW126465   1.126   5.639   4.926
 8522SOL    HW226466   1.132   5.798   4.890
 8523SOL     OW26467   1.330   6.818   0.091
 8523SOL    HW126468   1.257   6.866   0.139
 8523SOL    HW226469   1.290   6.759   0.021
 8524SOL     OW26470   1.264   3.221   6.542
 8524SOL    HW126471   1.173   3.250   6.513
 8524SOL    HW226472   1.301   3.287   6.606
 8525SOL     OW26473   6.156   3.290   3.297
 8525SOL    HW126474   6.067   3.334   3.305
 8525SOL    HW226475   6.221   3.334   3.360
 8526SOL     OW26476   2.176   2.813   2.606
 8526SOL    HW126477   2.154   2.907   2.582
 8526SOL    HW226478   2.122   2.750   2.551
 8527SOL     OW26479   4.426   0.931   4.434
 8527SOL    HW126480   4.448   0.971   4.345
 8527SOL    HW226481   4.437   0.832   4.429
 8528SOL     OW26482   4.935   2.897   6.274
 8528SOL    HW126483   4.919   2.837   6.196
 8528SOL    HW226484   4.979   2.981   6.242
 8529SOL     OW26485   0.500   4.502   0.049
 8529SOL    HW126486   0.592   4.483   0.015
 8529SOL    HW226487   0.485   4.600   0.053
 8530SOL     OW26488   2.001   3.666   5.434
 8530SOL    HW126489   2.100   3.663   5.447
 8530SOL    HW226490   1.978   3.736   5.366
 8531SOL     OW26491   4.897   4.505   2.387
 8531SOL    HW126492   4.909   4.497   2.486
 8531SOL    HW226493   4.978   4.549   2.347
 8532SOL     OW26494   2.927   4.077   6.160
 8532SOL    HW126495   2.930   4.166   6.114
 8532SOL    HW226496   2.882   4.087   6.249
 8533SOL     OW26497   3.257   0.601   4.739
 8533SOL    HW126498   3.276   0.559   4.828
 8533SOL    HW226499   3.295   0.694   4.738
 8534SOL     OW26500   1.455   2.702   3.010
 8534SOL    HW126501   1.517   2.644   2.956
 8534SOL    HW226502   1.379   2.732   2.952
 8535SOL     OW26503   0.425   2.138   4.810
 8535SOL    HW126504   0.496   2.132   4.880
 8535SOL    HW226505   0.360   2.210   4.834
 8536SOL     OW26506   0.286   1.403   6.083
 8536SOL    HW126507   0.324   1.373   5.995
 8536SOL    HW226508   0.311   1.498   6.099
 8537SOL     OW26509   5.664   0.491   2.290
 8537SOL    HW126510   5.670   0.397   2.325
 8537SOL    HW226511   5.599   0.543   2.345
 8538SOL     OW26512   5.870   0.647   4.410
 8538SOL    HW126513   5.822   0.731   4.385
 8538SOL    HW226514   5.916   0.610   4.330
 8539SOL     OW26515   0.340   3.380   1.838
 8539SOL    HW126516   0.306   3.405   1.929
 8539SOL    HW226517   0.284   3.306   1.801
 8540SOL     OW26518   4.398   0.094   0.165
 8540SOL    HW126519   4.406   0.053   0.256
 8540SOL    HW226520   4.305   0.081   0.130
 8541SOL     OW26521   3.078   0.707   5.154
 8541SOL    HW126522   3.095   0.779   5.221
 8541SOL    HW226523   2.980   0.700   5.136
 8542SOL     OW26524   1.831   4.619   6.702
 8542SOL    HW126525   1.923   4.620   6.664
 8542SOL    HW226526   1.790   4.529   6.688
 8543SOL     OW26527   2.302   1.976   6.079
 8543SOL    HW126528   2.354   1.994   6.163
 8543SOL    HW226529   2.217   1.928   6.102
 8544SOL     OW26530   5.357   3.718   5.046
 8544SOL    HW126531   5.278   3.757   4.998
 8544SOL    HW226532   5.343   3.726   5.145
 8545SOL     OW26533   3.191   0.665   6.184
 8545SOL    HW126534   3.265   0.725   6.153
 8545SOL    HW226535   3.174   0.595   6.114
 8546SOL     OW26536   5.552   0.195   1.188
 8546SOL    HW126537   5.573   0.217   1.283
 8546SOL    HW226538   5.529   0.098   1.180
 8547SOL     OW26539   6.029   6.224   5.386
 8547SOL    HW126540   5.956   6.237   5.454
 8547SOL    HW226541   6.114   6.201   5.433
 8548SOL     OW26542   0.697   3.172   5.903
 8548SOL    HW126543   0.630   3.217   5.844
 8548SOL    HW226544   0.657   3.157   5.994
 8549SOL     OW26545   1.676   0.826   3.088
 8549SOL    HW126546   1.625   0.853   3.007
 8549SOL    HW226547   1.770   0.802   3.062
 8550SOL     OW26548   6.860   4.272   6.441
 8550SOL    HW126549   6.783   4.318   6.396
 8550SOL    HW226550   6.861   4.296   6.538
 8551SOL     OW26551   2.294   1.340   6.231
 8551SOL    HW126552   2.310   1.333   6.329
 8551SOL    HW226553   2.233   1.266   6.201
 8552SOL     OW26554   2.889   1.872   2.879
 8552SOL    HW126555   2.928   1.963   2.873
 8552SOL    HW226556   2.962   1.804   2.872
 8553SOL     OW26557   5.284   3.104   6.866
 8553SOL    HW126558   5.275   3.011   6.903
 8553SOL    HW226559   5.291   3.169   6.942
 8554SOL     OW26560   1.398   0.721   0.442
 8554SOL    HW126561   1.344   0.669   0.375
 8554SOL    HW226562   1.457   0.786   0.394
 8555SOL     OW26563   4.630   1.209   4.068
 8555SOL    HW126564   4.726   1.237   4.075
 8555SOL    HW226565   4.625   1.120   4.023
 8556SOL     OW26566   1.574   6.183   0.903
 8556SOL    HW126567   1.508   6.187   0.828
 8556SOL    HW226568   1.666   6.203   0.868
 8557SOL     OW26569   0.265   0.727   0.471
 8557SOL    HW126570   0.246   0.686   0.381
 8557SOL    HW226571   0.356   0.769   0.470
 8558SOL     OW26572   2.680   5.540   4.041
 8558SOL    HW126573   2.678   5.625   3.990
 8558SOL    HW226574   2.681   5.560   4.139
 8559SOL     OW26575   1.268   5.576   2.854
 8559SOL    HW126576   1.316   5.504   2.803
 8559SOL    HW226577   1.253   5.546   2.948
 8560SOL     OW26578   3.023   4.214   1.744
 8560SOL    HW126579   3.119   4.239   1.742
 8560SOL    HW226580   2.967   4.297   1.755
 8561SOL     OW26581   4.289   6.588   2.112
 8561SOL    HW126582   4.352   6.661   2.085
 8561SOL    HW226583   4.237   6.617   2.192
 8562SOL     OW26584   4.573   1.445   6.861
 8562SOL    HW126585   4.636   1.369   6.869
 8562SOL    HW226586   4.515   1.450   6.942
 8563SOL     OW26587   2.424   4.813   2.204
 8563SOL    HW126588   2.519   4.795   2.229
 8563SOL    HW226589   2.373   4.727   2.200
 8564SOL     OW26590   4.490   0.163   6.634
 8564SOL    HW126591   4.565   0.185   6.696
 8564SOL    HW226592   4.426   0.101   6.680
 8565SOL     OW26593   2.367   5.306   0.964
 8565SOL    HW126594   2.324   5.396   0.956
 8565SOL    HW226595   2.319   5.241   0.905
 8566SOL     OW26596   3.153   1.063   3.109
 8566SOL    HW126597   3.246   1.081   3.078
 8566SOL    HW226598   3.092   1.135   3.075
 8567SOL     OW26599   2.237   2.552   1.587
 8567SOL    HW126600   2.304   2.478   1.599
 8567SOL    HW226601   2.150   2.513   1.558
 8568SOL     OW26602   6.616   0.876   6.730
 8568SOL    HW126603   6.648   0.963   6.692
 8568SOL    HW226604   6.517   0.870   6.722
 8569SOL     OW26605   4.705   2.160   6.285
 8569SOL    HW126606   4.779   2.093   6.274
 8569SOL    HW226607   4.741   2.243   6.327
 8570SOL     OW26608   1.473   2.816   3.759
 8570SOL    HW126609   1.464   2.769   3.671
 8570SOL    HW226610   1.524   2.758   3.823
 8571SOL     OW26611   1.766   0.807   2.725
 8571SOL    HW126612   1.813   0.723   2.695
 8571SOL    HW226613   1.667   0.795   2.718
 8572SOL     OW26614   3.065   4.030   5.793
 8572SOL    HW126615   2.987   4.000   5.738
 8572SOL    HW226616   3.057   4.128   5.812
 8573SOL     OW26617   3.794   6.062   0.598
 8573SOL    HW126618   3.832   5.993   0.538
 8573SOL    HW226619   3.701   6.038   0.623
 8574SOL     OW26620   5.227   0.420   4.599
 8574SOL    HW126621   5.221   0.399   4.502
 8574SOL    HW226622   5.173   0.354   4.652
 8575SOL     OW26623   2.874   6.278   3.449
 8575SOL    HW126624   2.948   6.261   3.384
 8575SOL    HW226625   2.827   6.363   3.424
 8576SOL     OW26626   0.720   4.893   3.314
 8576SOL    HW126627   0.794   4.933   3.368
 8576SOL    HW226628   0.755   4.867   3.224
 8577SOL     OW26629   1.459   1.761   0.338
 8577SOL    HW126630   1.522   1.715   0.275
 8577SOL    HW226631   1.404   1.827   0.287
 8578SOL     OW26632   6.931   6.944   5.879
 8578SOL    HW126633   6.938   7.004   5.959
 8578SOL    HW226634   7.022   6.910   5.855
 8579SOL     OW26635   3.131   6.492   2.944
 8579SOL    HW126636   3.216   6.462   2.987
 8579SOL    HW226637   3.079   6.412   2.914
 8580SOL     OW26638   2.499   0.643   1.760
 8580SOL    HW126639   2.410   0.621   1.800
 8580SOL    HW226640   2.554   0.560   1.754
 8581SOL     OW26641   3.095   4.467   1.380
 8581SOL    HW126642   3.113   4.534   1.308
 8581SOL    HW226643   3.098   4.513   1.469
 8582SOL     OW26644   3.787   4.368   5.746
 8582SOL    HW126645   3.714   4.422   5.704
 8582SOL    HW226646   3.750   4.313   5.821
 8583SOL     OW26647   4.484   0.543   2.897
 8583SOL    HW126648   4.524   0.578   2.812
 8583SOL    HW226649   4.556   0.533   2.966
 8584SOL     OW26650   6.750   1.417   4.250
 8584SOL    HW126651   6.708   1.327   4.247
 8584SOL    HW226652   6.681   1.487   4.228
 8585SOL     OW26653   5.457   2.029   2.510
 8585SOL    HW126654   5.391   2.102   2.491
 8585SOL    HW226655   5.503   2.004   2.425
 8586SOL     OW26656   6.024   5.643   1.261
 8586SOL    HW126657   6.105   5.600   1.300
 8586SOL    HW226658   5.946   5.630   1.322
 8587SOL     OW26659   1.741   1.400   6.225
 8587SOL    HW126660   1.807   1.475   6.225
 8587SOL    HW226661   1.765   1.334   6.296
 8588SOL     OW26662   2.924   1.229   0.111
 8588SOL    HW126663   2.953   1.136   0.134
 8588SOL    HW226664   2.892   1.275   0.194
 8589SOL     OW26665   6.641   2.920   6.140
 8589SOL    HW126666   6.555   2.960   6.174
 8589SOL    HW226667   6.711   2.992   6.137
 8590SOL     OW26668   1.545   1.401   3.198
 8590SOL    HW126669   1.583   1.481   3.152
 8590SOL    HW226670   1.473   1.362   3.140
 8591SOL     OW26671   6.761   4.412   6.872
 8591SOL    HW126672   6.694   4.387   6.943
 8591SOL    HW226673   6.819   4.487   6.906
 8592SOL     OW26674   1.471   1.412   6.263
 8592SOL    HW126675   1.569   1.431   6.257
 8592SOL    HW226676   1.456   1.314   6.255
 8593SOL     OW26677   3.560   1.364   6.556
 8593SOL    HW126678   3.474   1.341   6.602
 8593SOL    HW226679   3.591   1.286   6.502
 8594SOL     OW26680   6.385   2.740   5.508
 8594SOL    HW126681   6.358   2.793   5.589
 8594SOL    HW226682   6.355   2.788   5.425
 8595SOL     OW26683   6.024   6.235   2.151
 8595SOL    HW126684   6.110   6.237   2.202
 8595SOL    HW226685   5.991   6.328   2.138
 8596SOL     OW26686   0.943   1.492   3.566
 8596SOL    HW126687   0.943   1.472   3.664
 8596SOL    HW226688   1.038   1.499   3.534
 8597SOL     OW26689   5.828   3.158   0.016
 8597SOL    HW126690   5.749   3.203   7.000
 8597SOL    HW226691   5.880   3.111   6.969
 8598SOL     OW26692   6.119   6.828   4.225
 8598SOL    HW126693   6.217   6.820   4.205
 8598SOL    HW226694   6.093   6.758   4.291
 8599SOL     OW26695   0.631   3.304   4.008
 8599SOL    HW126696   0.534   3.327   4.006
 8599SOL    HW226697   0.656   3.254   3.925
 8600SOL     OW26698   4.076   2.138   1.347
 8600SOL    HW126699   4.004   2.166   1.410
 8600SOL    HW226700   4.094   2.040   1.358
 8601SOL     OW26701   1.206   6.840   3.278
 8601SOL    HW126702   1.229   6.855   3.182
 8601SOL    HW226703   1.113   6.804   3.284
 8602SOL     OW26704   1.938   0.022   4.840
 8602SOL    HW126705   1.945   6.969   4.902
 8602SOL    HW226706   1.980   0.102   4.883
 8603SOL     OW26707   0.036   0.751   0.630
 8603SOL    HW126708   0.121   0.769   0.580
 8603SOL    HW226709   6.991   0.719   0.566
 8604SOL     OW26710   0.545   4.090   6.342
 8604SOL    HW126711   0.576   4.178   6.377
 8604SOL    HW226712   0.487   4.104   6.261
 8605SOL     OW26713   6.757   5.258   4.481
 8605SOL    HW126714   6.833   5.235   4.421
 8605SOL    HW226715   6.751   5.358   4.490
 8606SOL     OW26716   1.801   2.966   0.198
 8606SOL    HW126717   1.705   2.976   0.170
 8606SOL    HW226718   1.844   3.057   0.200
 8607SOL     OW26719   2.661   4.203   1.540
 8607SOL    HW126720   2.721   4.272   1.580
 8607SOL    HW226721   2.568   4.239   1.533
 8608SOL     OW26722   2.389   5.422   3.154
 8608SOL    HW126723   2.441   5.337   3.167
 8608SOL    HW226724   2.309   5.421   3.215
 8609SOL     OW26725   4.593   0.956   3.972
 8609SOL    HW126726   4.534   0.927   3.898
 8609SOL    HW226727   4.636   0.877   4.014
 8610SOL     OW26728   0.854   6.333   2.684
 8610SOL    HW126729   0.814   6.326   2.775
 8610SOL    HW226730   0.811   6.265   2.623
 8611SOL     OW26731   2.700   1.358   4.728
 8611SOL    HW126732   2.629   1.390   4.665
 8611SOL    HW226733   2.658   1.311   4.805
 8612SOL     OW26734   3.978   3.927   3.663
 8612SOL    HW126735   3.896   3.969   3.703
 8612SOL    HW226736   4.035   3.889   3.736
 8613SOL     OW26737   3.398   2.806   1.252
 8613SOL    HW126738   3.385   2.714   1.288
 8613SOL    HW226739   3.423   2.868   1.327
 8614SOL     OW26740   1.154   2.592   3.039
 8614SOL    HW126741   1.214   2.516   3.013
 8614SOL    HW226742   1.167   2.668   2.976
 8615SOL     OW26743   4.239   1.251   3.809
 8615SOL    HW126744   4.334   1.281   3.818
 8615SOL    HW226745   4.185   1.288   3.884
 8616SOL     OW26746   4.349   4.661   2.831
 8616SOL    HW126747   4.284   4.735   2.814
 8616SOL    HW226748   4.409   4.650   2.752
 8617SOL     OW26749   3.622   0.117   3.642
 8617SOL    HW126750   3.697   0.182   3.626
 8617SOL    HW226751   3.658   0.035   3.686
 8618SOL     OW26752   5.703   4.031   0.710
 8618SOL    HW126753   5.775   3.964   0.724
 8618SOL    HW226754   5.688   4.083   0.795
 8619SOL     OW26755   5.185   4.359   0.779
 8619SOL    HW126756   5.233   4.399   0.857
 8619SOL    HW226757   5.188   4.259   0.785
 8620SOL     OW26758   1.958   0.194   4.436
 8620SOL    HW126759   1.882   0.249   4.471
 8620SOL    HW226760   2.044   0.242   4.454
 8621SOL     OW26761   5.207   2.886   1.101
 8621SOL    HW126762   5.151   2.967   1.086
 8621SOL    HW226763   5.252   2.893   1.190
 8622SOL     OW26764   6.545   4.676   2.857
 8622SOL    HW126765   6.579   4.751   2.914
 8622SOL    HW226766   6.621   4.638   2.804
 8623SOL     OW26767   0.241   3.435   4.379
 8623SOL    HW126768   0.189   3.499   4.435
 8623SOL    HW226769   0.178   3.382   4.322
 8624SOL     OW26770   2.886   3.972   5.609
 8624SOL    HW126771   2.807   3.955   5.667
 8624SOL    HW226772   2.909   3.889   5.558
 8625SOL     OW26773   3.717   2.167   5.740
 8625SOL    HW126774   3.702   2.070   5.719
 8625SOL    HW226775   3.631   2.217   5.729
 8626SOL     OW26776   4.233   4.351   0.653
 8626SOL    HW126777   4.284   4.367   0.568
 8626SOL    HW226778   4.147   4.305   0.632
 8627SOL     OW26779   2.155   0.599   2.844
 8627SOL    HW126780   2.250   0.572   2.823
 8627SOL    HW226781   2.152   0.697   2.862
 8628SOL     OW26782   0.961   6.598   0.750
 8628SOL    HW126783   0.894   6.671   0.763
 8628SOL    HW226784   0.950   6.529   0.822
 8629SOL     OW26785   6.864   6.909   4.550
 8629SOL    HW126786   6.950   6.960   4.557
 8629SOL    HW226787   6.850   6.880   4.455
 8630SOL     OW26788   5.093   2.914   2.214
 8630SOL    HW126789   5.117   2.817   2.212
 8630SOL    HW226790   5.168   2.967   2.255
 8631SOL     OW26791   3.265   6.661   0.161
 8631SOL    HW126792   3.239   6.749   0.200
 8631SOL    HW226793   3.252   6.588   0.228
 8632SOL     OW26794   4.929   4.808   6.019
 8632SOL    HW126795   4.919   4.718   6.062
 8632SOL    HW226796   5.023   4.839   6.030
 8633SOL     OW26797   5.467   3.520   6.432
 8633SOL    HW126798   5.498   3.473   6.515
 8633SOL    HW226799   5.374   3.555   6.446
 8634SOL     OW26800   5.230   4.295   0.313
 8634SOL    HW126801   5.179   4.222   0.358
 8634SOL    HW226802   5.218   4.287   0.214
 8635SOL     OW26803   5.732   2.523   6.223
 8635SOL    HW126804   5.639   2.491   6.243
 8635SOL    HW226805   5.759   2.593   6.289
 8636SOL     OW26806   5.178   6.651   1.154
 8636SOL    HW126807   5.225   6.636   1.241
 8636SOL    HW226808   5.234   6.613   1.080
 8637SOL     OW26809   2.125   1.715   6.861
 8637SOL    HW126810   2.027   1.698   6.849
 8637SOL    HW226811   2.174   1.685   6.779
 8638SOL     OW26812   4.738   2.447   4.711
 8638SOL    HW126813   4.816   2.409   4.760
 8638SOL    HW226814   4.750   2.432   4.613
 8639SOL     OW26815   3.452   4.136   6.697
 8639SOL    HW126816   3.506   4.090   6.626
 8639SOL    HW226817   3.501   4.132   6.784
 8640SOL     OW26818   2.562   3.754   1.410
 8640SOL    HW126819   2.604   3.770   1.499
 8640SOL    HW226820   2.464   3.742   1.421
 8641SOL     OW26821   4.189   6.084   2.464
 8641SOL    HW126822   4.203   6.035   2.378
 8641SOL    HW226823   4.237   6.036   2.537
 8642SOL     OW26824   0.460   5.845   3.892
 8642SOL    HW126825   0.436   5.789   3.812
 8642SOL    HW226826   0.510   5.790   3.958
 8643SOL     OW26827   4.235   6.667   0.843
 8643SOL    HW126828   4.252   6.569   0.839
 8643SOL    HW226829   4.216   6.701   0.751
 8644SOL     OW26830   5.956   2.046   0.068
 8644SOL    HW126831   6.040   2.090   0.099
 8644SOL    HW226832   5.955   1.951   0.099
 8645SOL     OW26833   5.860   3.397   2.442
 8645SOL    HW126834   5.938   3.416   2.501
 8645SOL    HW226835   5.891   3.351   2.359
 8646SOL     OW26836   0.288   1.988   5.128
 8646SOL    HW126837   0.215   2.008   5.194
 8646SOL    HW226838   0.359   1.934   5.173
 8647SOL     OW26839   2.130   4.772   2.279
 8647SOL    HW126840   2.067   4.849   2.279
 8647SOL    HW226841   2.224   4.805   2.272
 8648SOL     OW26842   5.231   5.572   0.478
 8648SOL    HW126843   5.281   5.647   0.435
 8648SOL    HW226844   5.226   5.495   0.415
 8649SOL     OW26845   4.202   0.070   1.520
 8649SOL    HW126846   4.115   0.106   1.488
 8649SOL    HW226847   4.251   0.140   1.571
 8650SOL     OW26848   1.885   6.974   4.578
 8650SOL    HW126849   1.886   7.015   4.669
 8650SOL    HW226850   1.925   0.013   4.512
 8651SOL     OW26851   3.622   1.872   0.864
 8651SOL    HW126852   3.578   1.918   0.941
 8651SOL    HW226853   3.607   1.773   0.871
 8652SOL     OW26854   1.308   3.424   3.561
 8652SOL    HW126855   1.400   3.422   3.599
 8652SOL    HW226856   1.241   3.417   3.636
 8653SOL     OW26857   7.019   1.441   6.052
 8653SOL    HW126858   0.087   1.439   6.088
 8653SOL    HW226859   6.967   1.514   6.097
 8654SOL     OW26860   0.697   4.254   1.579
 8654SOL    HW126861   0.678   4.210   1.666
 8654SOL    HW226862   0.792   4.284   1.577
 8655SOL     OW26863   0.974   0.595   5.186
 8655SOL    HW126864   0.979   0.690   5.217
 8655SOL    HW226865   1.050   0.576   5.124
 8656SOL     OW26866   4.749   0.227   1.503
 8656SOL    HW126867   4.723   0.255   1.411
 8656SOL    HW226868   4.788   0.135   1.501
 8657SOL     OW26869   4.734   1.436   2.861
 8657SOL    HW126870   4.665   1.448   2.932
 8657SOL    HW226871   4.696   1.463   2.772
 8658SOL     OW26872   7.025   5.041   0.890
 8658SOL    HW126873   0.059   5.063   0.968
 8658SOL    HW226874   6.971   4.959   0.911
 8659SOL     OW26875   4.259   1.160   2.398
 8659SOL    HW126876   4.287   1.253   2.374
 8659SOL    HW226877   4.182   1.164   2.461
 8660SOL     OW26878   6.778   3.902   1.431
 8660SOL    HW126879   6.758   3.974   1.497
 8660SOL    HW226880   6.859   3.851   1.460
 8661SOL     OW26881   6.773   3.416   2.981
 8661SOL    HW126882   6.769   3.317   2.994
 8661SOL    HW226883   6.869   3.445   2.979
 8662SOL     OW26884   2.533   4.882   3.240
 8662SOL    HW126885   2.580   4.810   3.292
 8662SOL    HW226886   2.583   4.968   3.249
 8663SOL     OW26887   3.805   5.668   2.894
 8663SOL    HW126888   3.875   5.662   2.823
 8663SOL    HW226889   3.830   5.739   2.959
 8664SOL     OW26890   3.146   5.673   4.130
 8664SOL    HW126891   3.071   5.615   4.099
 8664SOL    HW226892   3.119   5.724   4.211
 8665SOL     OW26893   5.312   3.136   6.131
 8665SOL    HW126894   5.362   3.217   6.160
 8665SOL    HW226895   5.347   3.056   6.180
 8666SOL     OW26896   4.561   6.394   2.639
 8666SOL    HW126897   4.529   6.412   2.546
 8666SOL    HW226898   4.660   6.381   2.638
 8667SOL     OW26899   5.189   2.025   3.751
 8667SOL    HW126900   5.222   2.116   3.725
 8667SOL    HW226901   5.174   1.970   3.669
 8668SOL     OW26902   4.826   2.654   5.218
 8668SOL    HW126903   4.878   2.603   5.149
 8668SOL    HW226904   4.734   2.673   5.183
 8669SOL     OW26905   5.962   6.159   5.835
 8669SOL    HW126906   6.042   6.218   5.843
 8669SOL    HW226907   5.969   6.103   5.753
 8670SOL     OW26908   6.163   4.234   5.689
 8670SOL    HW126909   6.069   4.226   5.656
 8670SOL    HW226910   6.211   4.148   5.672
 8671SOL     OW26911   6.935   1.840   2.554
 8671SOL    HW126912   6.882   1.922   2.532
 8671SOL    HW226913   7.001   1.823   2.481
 8672SOL     OW26914   0.822   1.256   3.363
 8672SOL    HW126915   0.917   1.265   3.394
 8672SOL    HW226916   0.787   1.347   3.337
 8673SOL     OW26917   0.961   1.485   1.272
 8673SOL    HW126918   0.869   1.450   1.285
 8673SOL    HW226919   1.022   1.410   1.246
 8674SOL     OW26920   6.482   4.823   3.304
 8674SOL    HW126921   6.459   4.880   3.383
 8674SOL    HW226922   6.425   4.741   3.304
 8675SOL     OW26923   3.911   1.854   6.036
 8675SOL    HW126924   3.877   1.879   6.126
 8675SOL    HW226925   3.835   1.820   5.980
 8676SOL     OW26926   5.504   0.794   0.489
 8676SOL    HW126927   5.468   0.704   0.463
 8676SOL    HW226928   5.603   0.794   0.477
 8677SOL     OW26929   1.666   6.619   5.981
 8677SOL    HW126930   1.685   6.620   6.079
 8677SOL    HW226931   1.657   6.713   5.947
 8678SOL     OW26932   1.904   1.284   1.193
 8678SOL    HW126933   1.818   1.239   1.216
 8678SOL    HW226934   1.973   1.260   1.261
 8679SOL     OW26935   2.178   1.419   4.430
 8679SOL    HW126936   2.239   1.488   4.391
 8679SOL    HW226937   2.176   1.339   4.371
 8680SOL     OW26938   6.376   1.975   6.478
 8680SOL    HW126939   6.416   1.956   6.388
 8680SOL    HW226940   6.303   2.043   6.468
 8681SOL     OW26941   5.584   5.731   1.767
 8681SOL    HW126942   5.673   5.759   1.802
 8681SOL    HW226943   5.598   5.664   1.693
 8682SOL     OW26944   1.150   1.011   1.004
 8682SOL    HW126945   1.060   1.020   1.047
 8682SOL    HW226946   1.144   0.948   0.927
 8683SOL     OW26947   1.888   4.363   4.545
 8683SOL    HW126948   1.876   4.334   4.639
 8683SOL    HW226949   1.972   4.417   4.537
 8684SOL     OW26950   0.947   3.805   4.960
 8684SOL    HW126951   0.929   3.741   5.034
 8684SOL    HW226952   0.974   3.893   4.997
 8685SOL     OW26953   4.987   2.388   5.149
 8685SOL    HW126954   4.948   2.417   5.236
 8685SOL    HW226955   5.042   2.305   5.164
 8686SOL     OW26956   6.973   5.541   2.821
 8686SOL    HW126957   6.973   5.603   2.741
 8686SOL    HW226958   6.900   5.473   2.810
 8687SOL     OW26959   6.058   3.275   4.279
 8687SOL    HW126960   6.115   3.247   4.356
 8687SOL    HW226961   6.078   3.218   4.200
 8688SOL     OW26962   1.092   4.542   6.474
 8688SOL    HW126963   1.141   4.611   6.526
 8688SOL    HW226964   0.995   4.567   6.469
 8689SOL     OW26965   4.926   3.869   6.796
 8689SOL    HW126966   4.856   3.837   6.733
 8689SOL    HW226967   5.009   3.891   6.746
 8690SOL     OW26968   1.655   2.379   3.718
 8690SOL    HW126969   1.597   2.351   3.642
 8690SOL    HW226970   1.667   2.303   3.781
 8691SOL     OW26971   3.007   2.492   5.370
 8691SOL    HW126972   3.079   2.466   5.305
 8691SOL    HW226973   3.005   2.427   5.446
 8692SOL     OW26974   4.493   1.966   5.539
 8692SOL    HW126975   4.438   1.898   5.490
 8692SOL    HW226976   4.439   2.007   5.612
 8693SOL     OW26977   6.738   0.095   6.308
 8693SOL    HW126978   6.678   0.044   6.246
 8693SOL    HW226979   6.701   0.092   6.400
 8694SOL     OW26980   5.855   3.030   4.190
 8694SOL    HW126981   5.808   3.071   4.269
 8694SOL    HW226982   5.954   3.041   4.200
 8695SOL     OW26983   3.740   4.211   5.971
 8695SOL    HW126984   3.730   4.120   5.930
 8695SOL    HW226985   3.819   4.212   6.031
 8696SOL     OW26986   3.246   5.780   6.345
 8696SOL    HW126987   3.227   5.769   6.248
 8696SOL    HW226988   3.200   5.708   6.397
 8697SOL     OW26989   1.512   3.527   5.593
 8697SOL    HW126990   1.525   3.445   5.648
 8697SOL    HW226991   1.458   3.505   5.512
 8698SOL     OW26992   5.649   5.679   5.070
 8698SOL    HW126993   5.663   5.593   5.020
 8698SOL    HW226994   5.652   5.661   5.168
 8699SOL     OW26995   1.670   3.332   0.017
 8699SOL    HW126996   1.750   3.371   0.063
 8699SOL    HW226997   1.639   3.252   0.068
 8700SOL     OW26998   0.977   0.153   4.971
 8700SOL    HW126999   0.945   0.071   4.924
 8700SOL    HW227000   1.076   0.159   4.965
 8701SOL     OW27001   0.925   2.474   0.009
 8701SOL    HW127002   0.977   2.487   6.949
 8701SOL    HW227003   0.916   2.561   0.057
 8702SOL     OW27004   5.826   4.485   1.502
 8702SOL    HW127005   5.731   4.457   1.489
 8702SOL    HW227006   5.830   4.556   1.572
 8703SOL     OW27007   2.807   4.769   1.205
 8703SOL    HW127008   2.887   4.711   1.190
 8703SOL    HW227009   2.770   4.751   1.296
 8704SOL     OW27010   0.794   1.776   3.842
 8704SOL    HW127011   0.728   1.762   3.916
 8704SOL    HW227012   0.846   1.692   3.828
 8705SOL     OW27013   4.088   2.874   0.266
 8705SOL    HW127014   4.087   2.895   0.169
 8705SOL    HW227015   4.183   2.866   0.298
 8706SOL     OW27016   4.755   3.568   6.494
 8706SOL    HW127017   4.666   3.524   6.480
 8706SOL    HW227018   4.742   3.660   6.531
 8707SOL     OW27019   1.755   2.061   5.044
 8707SOL    HW127020   1.722   2.077   4.951
 8707SOL    HW227021   1.827   2.127   5.066
 8708SOL     OW27022   5.974   2.125   1.783
 8708SOL    HW127023   5.973   2.120   1.883
 8708SOL    HW227024   5.884   2.101   1.748
 8709SOL     OW27025   6.858   0.280   5.611
 8709SOL    HW127026   6.939   0.276   5.669
 8709SOL    HW227027   6.776   0.267   5.666
 8710SOL     OW27028   2.319   1.171   3.618
 8710SOL    HW127029   2.393   1.224   3.659
 8710SOL    HW227030   2.358   1.104   3.554
 8711SOL     OW27031   1.920   0.492   1.929
 8711SOL    HW127032   1.836   0.507   1.875
 8711SOL    HW227033   1.965   0.580   1.946
 8712SOL     OW27034   1.701   3.111   6.004
 8712SOL    HW127035   1.782   3.128   6.060
 8712SOL    HW227036   1.646   3.195   6.000
 8713SOL     OW27037   0.569   4.942   2.115
 8713SOL    HW127038   0.642   4.939   2.047
 8713SOL    HW227039   0.482   4.961   2.069
 8714SOL     OW27040   6.892   6.311   6.930
 8714SOL    HW127041   6.925   6.338   7.020
 8714SOL    HW227042   6.859   6.391   6.881
 8715SOL     OW27043   2.317   2.825   0.999
 8715SOL    HW127044   2.272   2.738   1.021
 8715SOL    HW227045   2.250   2.888   0.960
 8716SOL     OW27046   6.765   6.500   1.738
 8716SOL    HW127047   6.805   6.448   1.663
 8716SOL    HW227048   6.672   6.527   1.715
 8717SOL     OW27049   2.577   4.362   0.841
 8717SOL    HW127050   2.611   4.299   0.911
 8717SOL    HW227051   2.484   4.391   0.866
 8718SOL     OW27052   2.707   4.717   6.882
 8718SOL    HW127053   2.715   4.682   6.788
 8718SOL    HW227054   2.612   4.709   6.913
 8719SOL     OW27055   3.999   0.463   5.499
 8719SOL    HW127056   4.092   0.468   5.461
 8719SOL    HW227057   3.936   0.513   5.440
 8720SOL     OW27058   6.704   4.457   5.197
 8720SOL    HW127059   6.671   4.537   5.147
 8720SOL    HW227060   6.672   4.374   5.151
 8721SOL     OW27061   0.400   6.764   6.116
 8721SOL    HW127062   0.373   6.761   6.020
 8721SOL    HW227063   0.404   6.860   6.145
 8722SOL     OW27064   3.992   1.107   1.496
 8722SOL    HW127065   4.005   1.107   1.595
 8722SOL    HW227066   4.081   1.104   1.450
 8723SOL     OW27067   4.689   6.841   2.293
 8723SOL    HW127068   4.709   6.768   2.358
 8723SOL    HW227069   4.735   6.823   2.206
 8724SOL     OW27070   4.150   0.883   4.884
 8724SOL    HW127071   4.211   0.914   4.957
 8724SOL    HW227072   4.113   0.962   4.835
 8725SOL     OW27073   0.126   6.483   3.623
 8725SOL    HW127074   0.152   6.467   3.718
 8725SOL    HW227075   0.199   6.454   3.562
 8726SOL     OW27076   0.427   1.019   0.625
 8726SOL    HW127077   0.373   1.065   0.554
 8726SOL    HW227078   0.425   1.073   0.709
 8727SOL     OW27079   4.469   4.963   6.323
 8727SOL    HW127080   4.545   5.010   6.367
 8727SOL    HW227081   4.483   4.962   6.224
 8728SOL     OW27082   6.910   0.493   3.483
 8728SOL    HW127083   7.010   0.489   3.485
 8728SOL    HW227084   6.877   0.455   3.397
 8729SOL     OW27085   3.593   6.118   6.773
 8729SOL    HW127086   3.498   6.111   6.803
 8729SOL    HW227087   3.605   6.070   6.686
 8730SOL     OW27088   5.023   4.875   2.324
 8730SOL    HW127089   4.976   4.900   2.239
 8730SOL    HW227090   5.060   4.783   2.315
 8731SOL     OW27091   1.183   1.467   3.242
 8731SOL    HW127092   1.156   1.431   3.331
 8731SOL    HW227093   1.103   1.506   3.197
 8732SOL     OW27094   5.433   6.144   0.468
 8732SOL    HW127095   5.342   6.107   0.451
 8732SOL    HW227096   5.428   6.215   0.539
 8733SOL     OW27097   6.490   5.367   1.854
 8733SOL    HW127098   6.525   5.276   1.878
 8733SOL    HW227099   6.390   5.366   1.861
 8734SOL     OW27100   0.198   3.642   2.121
 8734SOL    HW127101   0.192   3.663   2.218
 8734SOL    HW227102   0.172   3.546   2.105
 8735SOL     OW27103   1.532   3.994   5.813
 8735SOL    HW127104   1.493   3.903   5.808
 8735SOL    HW227105   1.584   4.013   5.729
 8736SOL     OW27106   1.087   6.021   2.983
 8736SOL    HW127107   1.128   6.019   2.892
 8736SOL    HW227108   1.048   5.931   3.004
 8737SOL     OW27109   1.729   6.471   6.942
 8737SOL    HW127110   1.775   6.490   6.855
 8737SOL    HW227111   1.728   6.554   6.998
 8738SOL     OW27112   1.201   3.214   3.415
 8738SOL    HW127113   1.271   3.143   3.410
 8738SOL    HW227114   1.242   3.297   3.453
 8739SOL     OW27115   5.406   4.152   5.329
 8739SOL    HW127116   5.497   4.160   5.368
 8739SOL    HW227117   5.367   4.244   5.315
 8740SOL     OW27118   3.043   1.629   4.822
 8740SOL    HW127119   3.012   1.538   4.795
 8740SOL    HW227120   3.102   1.622   4.903
 8741SOL     OW27121   0.912   6.963   2.812
 8741SOL    HW127122   0.925   0.004   2.886
 8741SOL    HW227123   0.899   6.872   2.851
 8742SOL     OW27124   3.321   1.764   2.624
 8742SOL    HW127125   3.304   1.774   2.526
 8742SOL    HW227126   3.346   1.852   2.663
 8743SOL     OW27127   1.123   1.787   1.420
 8743SOL    HW127128   1.216   1.779   1.384
 8743SOL    HW227129   1.062   1.821   1.348
 8744SOL     OW27130   3.227   4.756   6.776
 8744SOL    HW127131   3.252   4.677   6.832
 8744SOL    HW227132   3.223   4.837   6.833
 8745SOL     OW27133   5.930   1.663   5.996
 8745SOL    HW127134   5.944   1.608   6.079
 8745SOL    HW227135   5.850   1.721   6.008
 8746SOL     OW27136   4.552   4.884   4.281
 8746SOL    HW127137   4.485   4.919   4.216
 8746SOL    HW227138   4.525   4.792   4.311
 8747SOL     OW27139   0.394   1.068   1.718
 8747SOL    HW127140   0.394   1.045   1.620
 8747SOL    HW227141   0.457   1.008   1.766
 8748SOL     OW27142   0.634   2.397   3.858
 8748SOL    HW127143   0.666   2.482   3.817
 8748SOL    HW227144   0.630   2.326   3.787
 8749SOL     OW27145   3.014   1.356   5.226
 8749SOL    HW127146   2.929   1.311   5.251
 8749SOL    HW227147   3.050   1.316   5.142
 8750SOL     OW27148   3.952   2.880   6.228
 8750SOL    HW127149   3.891   2.937   6.283
 8750SOL    HW227150   3.907   2.856   6.142
 8751SOL     OW27151   0.927   5.873   1.820
 8751SOL    HW127152   0.931   5.773   1.807
 8751SOL    HW227153   1.002   5.902   1.879
 8752SOL     OW27154   5.122   3.556   6.679
 8752SOL    HW127155   5.109   3.457   6.692
 8752SOL    HW227156   5.116   3.603   6.767
 8753SOL     OW27157   2.308   2.616   0.000
 8753SOL    HW127158   2.258   2.628   0.086
 8753SOL    HW227159   2.396   2.572   0.019
 8754SOL     OW27160   2.483   5.218   0.613
 8754SOL    HW127161   2.510   5.310   0.639
 8754SOL    HW227162   2.488   5.158   0.693
 8755SOL     OW27163   0.009   2.487   2.468
 8755SOL    HW127164   0.040   2.396   2.498
 8755SOL    HW227165   6.976   2.477   2.388
 8756SOL     OW27166   2.086   1.767   2.991
 8756SOL    HW127167   2.038   1.808   3.069
 8756SOL    HW227168   2.183   1.790   2.996
 8757SOL     OW27169   5.077   6.415   4.986
 8757SOL    HW127170   5.171   6.437   4.960
 8757SOL    HW227171   5.077   6.339   5.051
 8758SOL     OW27172   3.227   6.490   4.541
 8758SOL    HW127173   3.231   6.533   4.451
 8758SOL    HW227174   3.313   6.505   4.590
 8759SOL     OW27175   5.632   1.229   0.877
 8759SOL    HW127176   5.702   1.270   0.819
 8759SOL    HW227177   5.649   1.254   0.972
 8760SOL     OW27178   2.169   2.518   3.973
 8760SOL    HW127179   2.133   2.532   3.881
 8760SOL    HW227180   2.106   2.556   4.040
 8761SOL     OW27181   4.845   0.729   2.073
 8761SOL    HW127182   4.766   0.719   2.134
 8761SOL    HW227183   4.877   0.823   2.075
 8762SOL     OW27184   1.197   4.914   2.933
 8762SOL    HW127185   1.176   4.833   2.878
 8762SOL    HW227186   1.294   4.914   2.957
 8763SOL     OW27187   0.895   1.074   6.437
 8763SOL    HW127188   0.821   1.030   6.487
 8763SOL    HW227189   0.868   1.167   6.413
 8764SOL     OW27190   3.159   4.713   5.689
 8764SOL    HW127191   3.222   4.653   5.638
 8764SOL    HW227192   3.143   4.674   5.779
 8765SOL     OW27193   5.118   0.477   4.979
 8765SOL    HW127194   5.077   0.414   5.045
 8765SOL    HW227195   5.059   0.486   4.899
 8766SOL     OW27196   5.255   5.220   5.384
 8766SOL    HW127197   5.163   5.243   5.349
 8766SOL    HW227198   5.323   5.274   5.334
 8767SOL     OW27199   3.035   1.033   4.120
 8767SOL    HW127200   3.013   0.936   4.115
 8767SOL    HW227201   2.969   1.085   4.065
 8768SOL     OW27202   6.649   2.254   6.935
 8768SOL    HW127203   6.638   2.350   6.908
 8768SOL    HW227204   6.573   2.201   6.899
 8769SOL     OW27205   6.170   0.749   0.597
 8769SOL    HW127206   6.121   0.725   0.681
 8769SOL    HW227207   6.126   0.704   0.519
 8770SOL     OW27208   4.789   4.100   1.272
 8770SOL    HW127209   4.692   4.111   1.252
 8770SOL    HW227210   4.800   4.064   1.365
 8771SOL     OW27211   0.430   3.619   0.349
 8771SOL    HW127212   0.331   3.622   0.335
 8771SOL    HW227213   0.475   3.673   0.278
 8772SOL     OW27214   5.875   6.575   3.845
 8772SOL    HW127215   5.834   6.595   3.934
 8772SOL    HW227216   5.895   6.660   3.797
 8773SOL     OW27217   0.218   1.761   3.703
 8773SOL    HW127218   0.121   1.760   3.679
 8773SOL    HW227219   0.272   1.789   3.624
 8774SOL     OW27220   1.670   0.998   0.917
 8774SOL    HW127221   1.757   1.025   0.959
 8774SOL    HW227222   1.594   1.041   0.966
 8775SOL     OW27223   5.217   1.740   4.282
 8775SOL    HW127224   5.255   1.767   4.371
 8775SOL    HW227225   5.179   1.820   4.236
 8776SOL     OW27226   3.957   3.199   0.358
 8776SOL    HW127227   3.986   3.262   0.286
 8776SOL    HW227228   3.935   3.250   0.441
 8777SOL     OW27229   1.059   2.480   3.377
 8777SOL    HW127230   1.123   2.534   3.432
 8777SOL    HW227231   0.971   2.527   3.371
 8778SOL     OW27232   4.130   4.916   6.840
 8778SOL    HW127233   4.055   4.855   6.865
 8778SOL    HW227234   4.109   5.009   6.868
 8779SOL     OW27235   3.615   4.895   3.566
 8779SOL    HW127236   3.643   4.958   3.493
 8779SOL    HW227237   3.695   4.871   3.621
 8780SOL     OW27238   5.837   5.249   3.717
 8780SOL    HW127239   5.925   5.297   3.705
 8780SOL    HW227240   5.810   5.209   3.629
 8781SOL     OW27241   3.302   6.685   2.070
 8781SOL    HW127242   3.373   6.622   2.103
 8781SOL    HW227243   3.344   6.752   2.008
 8782SOL     OW27244   5.161   1.446   1.728
 8782SOL    HW127245   5.258   1.422   1.742
 8782SOL    HW227246   5.128   1.405   1.644
 8783SOL     OW27247   4.867   3.308   5.119
 8783SOL    HW127248   4.831   3.401   5.133
 8783SOL    HW227249   4.925   3.307   5.038
 8784SOL     OW27250   5.665   6.768   0.694
 8784SOL    HW127251   5.569   6.787   0.714
 8784SOL    HW227252   5.679   6.768   0.595
 8785SOL     OW27253   0.775   5.423   6.587
 8785SOL    HW127254   0.731   5.353   6.531
 8785SOL    HW227255   0.828   5.380   6.659
 8786SOL     OW27256   4.321   2.036   2.024
 8786SOL    HW127257   4.249   2.106   2.024
 8786SOL    HW227258   4.401   2.071   1.976
 8787SOL     OW27259   3.414   6.963   1.234
 8787SOL    HW127260   3.488   6.944   1.298
 8787SOL    HW227261   3.411   6.891   1.165
 8788SOL     OW27262   0.497   0.618   4.509
 8788SOL    HW127263   0.405   0.658   4.511
 8788SOL    HW227264   0.504   0.553   4.434
 8789SOL     OW27265   6.816   2.768   4.970
 8789SOL    HW127266   6.841   2.709   5.046
 8789SOL    HW227267   6.887   2.764   4.900
 8790SOL     OW27268   5.641   3.049   5.995
 8790SOL    HW127269   5.703   2.970   5.994
 8790SOL    HW227270   5.608   3.065   6.088
 8791SOL     OW27271   3.964   5.358   5.982
 8791SOL    HW127272   3.951   5.283   5.916
 8791SOL    HW227273   4.050   5.405   5.961
 8792SOL     OW27274   5.316   5.153   1.066
 8792SOL    HW127275   5.317   5.057   1.093
 8792SOL    HW227276   5.226   5.176   1.029
 8793SOL     OW27277   6.960   5.149   4.331
 8793SOL    HW127278   0.032   5.170   4.318
 8793SOL    HW227279   6.925   5.101   4.250
 8794SOL     OW27280   0.558   0.611   1.890
 8794SOL    HW127281   0.566   0.573   1.982
 8794SOL    HW227282   0.615   0.559   1.827
 8795SOL     OW27283   1.688   5.454   6.170
 8795SOL    HW127284   1.601   5.434   6.214
 8795SOL    HW227285   1.750   5.376   6.180
 8796SOL     OW27286   6.715   3.702   3.252
 8796SOL    HW127287   6.687   3.663   3.340
 8796SOL    HW227288   6.637   3.700   3.188
 8797SOL     OW27289   4.778   6.865   4.322
 8797SOL    HW127290   4.810   6.770   4.325
 8797SOL    HW227291   4.787   6.901   4.229
 8798SOL     OW27292   3.547   6.063   5.790
 8798SOL    HW127293   3.571   6.129   5.861
 8798SOL    HW227294   3.568   6.101   5.700
 8799SOL     OW27295   1.540   5.453   1.894
 8799SOL    HW127296   1.569   5.441   1.988
 8799SOL    HW227297   1.526   5.550   1.874
 8800SOL     OW27298   6.733   5.705   5.703
 8800SOL    HW127299   6.696   5.670   5.789
 8800SOL    HW227300   6.664   5.759   5.656
 8801SOL     OW27301   6.065   2.784   5.279
 8801SOL    HW127302   6.079   2.797   5.377
 8801SOL    HW227303   6.026   2.694   5.262
 8802SOL     OW27304   1.131   6.491   5.922
 8802SOL    HW127305   1.201   6.421   5.936
 8802SOL    HW227306   1.133   6.521   5.827
 8803SOL     OW27307   6.513   0.070   6.749
 8803SOL    HW127308   6.428   0.123   6.744
 8803SOL    HW227309   6.565   0.082   6.665
 8804SOL     OW27310   1.585   6.603   2.785
 8804SOL    HW127311   1.565   6.538   2.859
 8804SOL    HW227312   1.561   6.562   2.697
 8805SOL     OW27313   4.898   4.982   3.104
 8805SOL    HW127314   4.845   5.060   3.071
 8805SOL    HW227315   4.991   5.012   3.127
 8806SOL     OW27316   2.169   0.619   0.725
 8806SOL    HW127317   2.202   0.665   0.807
 8806SOL    HW227318   2.146   0.524   0.746
 8807SOL     OW27319   4.890   2.890   1.189
 8807SOL    HW127320   4.898   2.801   1.146
 8807SOL    HW227321   4.848   2.955   1.125
 8808SOL     OW27322   2.189   2.587   0.970
 8808SOL    HW127323   2.089   2.581   0.978
 8808SOL    HW227324   2.213   2.605   0.874
 8809SOL     OW27325   0.785   3.852   2.751
 8809SOL    HW127326   0.803   3.848   2.850
 8809SOL    HW227327   0.871   3.848   2.701
 8810SOL     OW27328   0.819   0.783   6.095
 8810SOL    HW127329   0.801   0.799   5.998
 8810SOL    HW227330   0.750   0.721   6.132
 8811SOL     OW27331   3.338   5.356   2.591
 8811SOL    HW127332   3.246   5.345   2.554
 8811SOL    HW227333   3.373   5.446   2.568
 8812SOL     OW27334   5.095   1.344   6.348
 8812SOL    HW127335   5.131   1.430   6.310
 8812SOL    HW227336   5.051   1.363   6.436
 8813SOL     OW27337   2.530   4.643   3.731
 8813SOL    HW127338   2.466   4.710   3.769
 8813SOL    HW227339   2.534   4.564   3.793
 8814SOL     OW27340   5.357   6.726   6.567
 8814SOL    HW127341   5.452   6.740   6.537
 8814SOL    HW227342   5.326   6.636   6.537
 8815SOL     OW27343   5.817   1.697   6.976
 8815SOL    HW127344   5.886   1.626   6.989
 8815SOL    HW227345   5.813   1.754   0.033
 8816SOL     OW27346   0.646   6.375   5.027
 8816SOL    HW127347   0.733   6.420   5.006
 8816SOL    HW227348   0.581   6.443   5.062
 8817SOL     OW27349   1.546   3.304   3.655
 8817SOL    HW127350   1.509   3.232   3.713
 8817SOL    HW227351   1.642   3.320   3.680
 8818SOL     OW27352   1.467   6.939   4.293
 8818SOL    HW127353   1.454   0.000   4.342
 8818SOL    HW227354   1.440   6.951   4.198
 8819SOL     OW27355   5.638   4.232   6.078
 8819SOL    HW127356   5.620   4.149   6.025
 8819SOL    HW227357   5.556   4.258   6.129
 8820SOL     OW27358   3.084   0.233   4.606
 8820SOL    HW127359   3.016   0.242   4.533
 8820SOL    HW227360   3.167   0.283   4.582
 8821SOL     OW27361   0.384   4.358   6.666
 8821SOL    HW127362   0.335   4.358   6.754
 8821SOL    HW227363   0.351   4.282   6.610
 8822SOL     OW27364   6.572   0.059   4.157
 8822SOL    HW127365   6.636   0.088   4.086
 8822SOL    HW227366   6.551   0.136   4.217
 8823SOL     OW27367   4.072   0.893   2.632
 8823SOL    HW127368   4.074   0.992   2.619
 8823SOL    HW227369   4.164   0.861   2.657
 8824SOL     OW27370   2.262   1.055   2.344
 8824SOL    HW127371   2.195   1.082   2.413
 8824SOL    HW227372   2.352   1.090   2.370
 8825SOL     OW27373   0.053   6.223   0.146
 8825SOL    HW127374   0.024   6.319   0.158
 8825SOL    HW227375   0.135   6.206   0.200
 8826SOL     OW27376   1.086   3.593   0.379
 8826SOL    HW127377   1.104   3.559   0.286
 8826SOL    HW227378   1.018   3.536   0.423
 8827SOL     OW27379   3.902   6.350   2.358
 8827SOL    HW127380   3.940   6.284   2.294
 8827SOL    HW227381   3.975   6.385   2.417
 8828SOL     OW27382   3.492   3.318   6.224
 8828SOL    HW127383   3.453   3.227   6.237
 8828SOL    HW227384   3.432   3.386   6.265
 8829SOL     OW27385   7.010   1.459   2.441
 8829SOL    HW127386   0.076   1.474   2.478
 8829SOL    HW227387   6.942   1.467   2.515
 8830SOL     OW27388   3.110   1.573   4.121
 8830SOL    HW127389   3.020   1.561   4.163
 8830SOL    HW227390   3.150   1.484   4.100
 8831SOL     OW27391   0.250   2.508   2.230
 8831SOL    HW127392   0.296   2.520   2.318
 8831SOL    HW227393   0.168   2.452   2.244
 8832SOL     OW27394   6.155   0.774   4.299
 8832SOL    HW127395   6.159   0.759   4.398
 8832SOL    HW227396   6.225   0.841   4.273
 8833SOL     OW27397   3.243   2.603   0.967
 8833SOL    HW127398   3.321   2.568   0.915
 8833SOL    HW227399   3.276   2.645   1.051
 8834SOL     OW27400   4.853   3.317   5.550
 8834SOL    HW127401   4.915   3.261   5.604
 8834SOL    HW227402   4.769   3.333   5.602
 8835SOL     OW27403   6.620   0.800   6.011
 8835SOL    HW127404   6.667   0.758   5.933
 8835SOL    HW227405   6.666   0.774   6.096
 8836SOL     OW27406   4.417   1.768   0.997
 8836SOL    HW127407   4.368   1.840   1.045
 8836SOL    HW227408   4.495   1.807   0.949
 8837SOL     OW27409   5.441   6.971   1.320
 8837SOL    HW127410   5.363   6.909   1.318
 8837SOL    HW227411   5.524   6.921   1.296
 8838SOL     OW27412   0.379   4.151   2.923
 8838SOL    HW127413   0.391   4.054   2.898
 8838SOL    HW227414   0.467   4.189   2.950
 8839SOL     OW27415   5.022   5.619   3.111
 8839SOL    HW127416   4.949   5.642   3.046
 8839SOL    HW227417   5.104   5.671   3.088
 8840SOL     OW27418   0.012   1.038   1.203
 8840SOL    HW127419   7.007   0.960   1.257
 8840SOL    HW227420   0.067   1.006   1.126
 8841SOL     OW27421   2.927   1.447   1.361
 8841SOL    HW127422   2.858   1.433   1.290
 8841SOL    HW227423   3.018   1.444   1.320
 8842SOL     OW27424   3.725   3.688   4.458
 8842SOL    HW127425   3.645   3.747   4.467
 8842SOL    HW227426   3.782   3.720   4.382
 8843SOL     OW27427   2.763   4.641   6.625
 8843SOL    HW127428   2.839   4.698   6.656
 8843SOL    HW227429   2.796   4.547   6.609
 8844SOL     OW27430   4.447   1.699   5.166
 8844SOL    HW127431   4.542   1.706   5.134
 8844SOL    HW227432   4.413   1.606   5.152
 8845SOL     OW27433   0.198   4.864   2.056
 8845SOL    HW127434   0.175   4.955   2.022
 8845SOL    HW227435   0.228   4.871   2.151
 8846SOL     OW27436   5.657   4.844   3.659
 8846SOL    HW127437   5.620   4.923   3.610
 8846SOL    HW227438   5.658   4.862   3.757
 8847SOL     OW27439   2.363   2.255   3.100
 8847SOL    HW127440   2.311   2.233   3.018
 8847SOL    HW227441   2.461   2.259   3.078
 8848SOL     OW27442   4.060   1.911   0.829
 8848SOL    HW127443   4.117   1.840   0.788
 8848SOL    HW227444   4.037   1.884   0.923
 8849SOL     OW27445   2.575   5.499   4.862
 8849SOL    HW127446   2.668   5.533   4.845
 8849SOL    HW227447   2.550   5.434   4.791
 8850SOL     OW27448   3.127   1.598   1.662
 8850SOL    HW127449   3.076   1.537   1.723
 8850SOL    HW227450   3.063   1.657   1.613
 8851SOL     OW27451   6.961   5.035   2.762
 8851SOL    HW127452   6.958   4.941   2.795
 8851SOL    HW227453   7.020   5.089   2.823
 8852SOL     OW27454   5.082   2.742   5.460
 8852SOL    HW127455   5.040   2.832   5.461
 8852SOL    HW227456   5.180   2.750   5.441
 8853SOL     OW27457   4.539   1.134   5.696
 8853SOL    HW127458   4.583   1.110   5.609
 8853SOL    HW227459   4.444   1.103   5.695
 8854SOL     OW27460   1.716   1.652   6.558
 8854SOL    HW127461   1.676   1.725   6.503
 8854SOL    HW227462   1.805   1.626   6.519
 8855SOL     OW27463   6.333   5.150   6.383
 8855SOL    HW127464   6.305   5.233   6.431
 8855SOL    HW227465   6.340   5.075   6.448
 8856SOL     OW27466   5.618   0.997   4.701
 8856SOL    HW127467   5.622   1.089   4.662
 8856SOL    HW227468   5.529   0.956   4.682
 8857SOL     OW27469   6.898   2.477   3.684
 8857SOL    HW127470   6.887   2.404   3.616
 8857SOL    HW227471   6.837   2.553   3.661
 8858SOL     OW27472   0.375   3.257   6.635
 8858SOL    HW127473   0.401   3.351   6.656
 8858SOL    HW227474   0.276   3.248   6.639
 8859SOL     OW27475   1.868   6.014   5.902
 8859SOL    HW127476   1.865   6.037   5.999
 8859SOL    HW227477   1.783   5.968   5.876
 8860SOL     OW27478   1.533   1.920   2.800
 8860SOL    HW127479   1.579   2.009   2.808
 8860SOL    HW227480   1.527   1.878   2.890
 8861SOL     OW27481   4.011   3.433   7.023
 8861SOL    HW127482   4.036   3.405   6.930
 8861SOL    HW227483   4.087   3.415   0.060
 8862SOL     OW27484   5.612   1.614   4.469
 8862SOL    HW127485   5.571   1.568   4.391
 8862SOL    HW227486   5.554   1.602   4.549
 8863SOL     OW27487   2.028   5.640   5.612
 8863SOL    HW127488   2.100   5.614   5.548
 8863SOL    HW227489   2.005   5.561   5.670
 8864SOL     OW27490   1.310   2.409   6.807
 8864SOL    HW127491   1.298   2.309   6.807
 8864SOL    HW227492   1.380   2.433   6.740
 8865SOL     OW27493   2.764   2.392   6.347
 8865SOL    HW127494   2.823   2.381   6.267
 8865SOL    HW227495   2.669   2.380   6.321
 8866SOL     OW27496   3.145   6.237   4.707
 8866SOL    HW127497   3.071   6.278   4.654
 8866SOL    HW227498   3.201   6.309   4.748
 8867SOL     OW27499   6.827   3.075   3.515
 8867SOL    HW127500   6.908   3.040   3.561
 8867SOL    HW227501   6.752   3.083   3.580
 8868SOL     OW27502   4.265   4.060   6.870
 8868SOL    HW127503   4.284   4.115   6.952
 8868SOL    HW227504   4.258   3.963   6.896
 8869SOL     OW27505   5.339   2.640   3.642
 8869SOL    HW127506   5.435   2.615   3.653
 8869SOL    HW227507   5.292   2.629   3.729
 8870SOL     OW27508   4.164   1.045   0.692
 8870SOL    HW127509   4.190   1.084   0.780
 8870SOL    HW227510   4.161   0.945   0.700
 8871SOL     OW27511   2.480   2.273   3.488
 8871SOL    HW127512   2.423   2.338   3.436
 8871SOL    HW227513   2.523   2.210   3.425
 8872SOL     OW27514   1.677   3.983   3.929
 8872SOL    HW127515   1.670   4.072   3.884
 8872SOL    HW227516   1.687   3.996   4.028
 8873SOL     OW27517   0.513   5.385   4.430
 8873SOL    HW127518   0.570   5.307   4.452
 8873SOL    HW227519   0.442   5.358   4.364
 8874SOL     OW27520   3.095   0.741   0.755
 8874SOL    HW127521   3.037   0.694   0.821
 8874SOL    HW227522   3.153   0.807   0.803
 8875SOL     OW27523   1.926   2.566   4.385
 8875SOL    HW127524   1.908   2.479   4.430
 8875SOL    HW227525   1.993   2.619   4.438
 8876SOL     OW27526   0.591   0.534   5.026
 8876SOL    HW127527   0.613   0.495   4.937
 8876SOL    HW227528   0.603   0.633   5.023
 8877SOL     OW27529   2.734   0.144   4.871
 8877SOL    HW127530   2.817   0.109   4.915
 8877SOL    HW227531   2.702   0.225   4.921
 8878SOL     OW27532   6.899   4.238   6.728
 8878SOL    HW127533   6.862   4.145   6.718
 8878SOL    HW227534   6.827   4.299   6.761
 8879SOL     OW27535   5.335   6.707   6.186
 8879SOL    HW127536   5.414   6.732   6.242
 8879SOL    HW227537   5.366   6.685   6.093
 8880SOL     OW27538   6.861   4.950   4.887
 8880SOL    HW127539   6.864   4.860   4.843
 8880SOL    HW227540   6.882   5.021   4.821
 8881SOL     OW27541   6.440   1.333   0.984
 8881SOL    HW127542   6.367   1.339   1.053
 8881SOL    HW227543   6.517   1.390   1.013
 8882SOL     OW27544   5.392   1.635   6.514
 8882SOL    HW127545   5.428   1.724   6.544
 8882SOL    HW227546   5.378   1.576   6.594
 8883SOL     OW27547   6.607   1.010   5.485
 8883SOL    HW127548   6.577   0.915   5.479
 8883SOL    HW227549   6.535   1.070   5.450
 8884SOL     OW27550   6.613   0.461   6.124
 8884SOL    HW127551   6.674   0.535   6.150
 8884SOL    HW227552   6.598   0.462   6.025
 8885SOL     OW27553   5.602   3.475   1.761
 8885SOL    HW127554   5.636   3.569   1.765
 8885SOL    HW227555   5.509   3.474   1.724
 8886SOL     OW27556   3.044   0.007   6.074
 8886SOL    HW127557   3.004   6.943   6.049
 8886SOL    HW227558   3.108   0.036   6.002
 8887SOL     OW27559   2.730   1.391   0.710
 8887SOL    HW127560   2.822   1.375   0.746
 8887SOL    HW227561   2.670   1.316   0.738
 8888SOL     OW27562   3.466   1.785   2.118
 8888SOL    HW127563   3.534   1.858   2.106
 8888SOL    HW227564   3.511   1.696   2.108
 8889SOL     OW27565   3.826   6.605   4.886
 8889SOL    HW127566   3.806   6.649   4.798
 8889SOL    HW227567   3.744   6.562   4.922
 8890SOL     OW27568   1.365   5.218   4.651
 8890SOL    HW127569   1.383   5.314   4.675
 8890SOL    HW227570   1.285   5.186   4.700
 8891SOL     OW27571   4.624   2.831   6.387
 8891SOL    HW127572   4.631   2.931   6.385
 8891SOL    HW227573   4.625   2.797   6.293
 8892SOL     OW27574   1.991   6.874   2.877
 8892SOL    HW127575   2.064   6.927   2.921
 8892SOL    HW227576   2.024   6.782   2.857
 8893SOL     OW27577   0.670   1.494   1.339
 8893SOL    HW127578   0.659   1.575   1.282
 8893SOL    HW227579   0.588   1.481   1.395
 8894SOL     OW27580   4.045   2.815   6.572
 8894SOL    HW127581   3.980   2.744   6.599
 8894SOL    HW227582   4.021   2.849   6.481
 8895SOL     OW27583   0.932   0.005   1.830
 8895SOL    HW127584   0.861   0.048   1.885
 8895SOL    HW227585   1.019   0.008   1.880
 8896SOL     OW27586   1.742   4.056   4.717
 8896SOL    HW127587   1.695   4.130   4.766
 8896SOL    HW227588   1.831   4.039   4.760
 8897SOL     OW27589   1.342   2.523   1.790
 8897SOL    HW127590   1.417   2.489   1.734
 8897SOL    HW227591   1.344   2.479   1.880
 8898SOL     OW27592   5.399   3.616   4.340
 8898SOL    HW127593   5.490   3.586   4.312
 8898SOL    HW227594   5.332   3.588   4.271
 8899SOL     OW27595   1.525   4.666   0.345
 8899SOL    HW127596   1.592   4.721   0.395
 8899SOL    HW227597   1.572   4.613   0.274
 8900SOL     OW27598   5.728   2.272   3.532
 8900SOL    HW127599   5.799   2.218   3.486
 8900SOL    HW227600   5.698   2.223   3.614
 8901SOL     OW27601   1.661   0.411   2.756
 8901SOL    HW127602   1.664   0.329   2.699
 8901SOL    HW227603   1.665   0.384   2.852
 8902SOL     OW27604   1.442   5.054   6.726
 8902SOL    HW127605   1.422   5.064   6.628
 8902SOL    HW227606   1.432   5.142   6.771
 8903SOL     OW27607   2.071   1.710   3.514
 8903SOL    HW127608   2.137   1.783   3.531
 8903SOL    HW227609   2.047   1.665   3.601
 8904SOL     OW27610   0.887   6.187   3.352
 8904SOL    HW127611   0.936   6.136   3.422
 8904SOL    HW227612   0.831   6.258   3.395
 8905SOL     OW27613   2.459   3.809   5.321
 8905SOL    HW127614   2.428   3.885   5.264
 8905SOL    HW227615   2.380   3.759   5.357
 8906SOL     OW27616   6.198   6.473   5.495
 8906SOL    HW127617   6.131   6.477   5.421
 8906SOL    HW227618   6.283   6.518   5.465
 8907SOL     OW27619   3.241   2.769   5.785
 8907SOL    HW127620   3.320   2.822   5.753
 8907SOL    HW227621   3.179   2.829   5.836
 8908SOL     OW27622   0.933   2.835   1.510
 8908SOL    HW127623   0.972   2.751   1.472
 8908SOL    HW227624   0.838   2.820   1.536
 8909SOL     OW27625   2.165   0.761   6.604
 8909SOL    HW127626   2.152   0.738   6.700
 8909SOL    HW227627   2.082   0.740   6.553
 8910SOL     OW27628   3.092   3.826   6.658
 8910SOL    HW127629   3.065   3.888   6.732
 8910SOL    HW227630   3.139   3.878   6.587
 8911SOL     OW27631   4.005   2.119   4.034
 8911SOL    HW127632   4.057   2.182   3.976
 8911SOL    HW227633   3.916   2.101   3.993
 8912SOL     OW27634   4.587   2.639   6.157
 8912SOL    HW127635   4.532   2.639   6.073
 8912SOL    HW227636   4.532   2.606   6.233
 8913SOL     OW27637   5.189   4.447   1.360
 8913SOL    HW127638   5.097   4.479   1.383
 8913SOL    HW227639   5.194   4.348   1.376
 8914SOL     OW27640   3.482   1.785   4.851
 8914SOL    HW127641   3.519   1.854   4.788
 8914SOL    HW227642   3.461   1.702   4.800
 8915SOL     OW27643   1.785   4.058   2.069
 8915SOL    HW127644   1.808   4.109   2.152
 8915SOL    HW227645   1.820   3.964   2.077
 8916SOL     OW27646   6.822   3.362   2.675
 8916SOL    HW127647   6.741   3.387   2.623
 8916SOL    HW227648   6.812   3.392   2.770
 8917SOL     OW27649   5.956   6.158   6.890
 8917SOL    HW127650   6.048   6.174   6.855
 8917SOL    HW227651   5.948   6.197   6.982
 8918SOL     OW27652   5.539   4.958   6.413
 8918SOL    HW127653   5.598   5.019   6.466
 8918SOL    HW227654   5.592   4.879   6.382
 8919SOL     OW27655   2.960   5.227   1.037
 8919SOL    HW127656   2.933   5.131   1.049
 8919SOL    HW227657   2.907   5.284   1.100
 8920SOL     OW27658   5.998   5.671   5.270
 8920SOL    HW127659   5.973   5.768   5.271
 8920SOL    HW227660   6.063   5.652   5.343
 8921SOL     OW27661   1.680   0.185   3.639
 8921SOL    HW127662   1.589   0.223   3.653
 8921SOL    HW227663   1.677   0.086   3.647
 8922SOL     OW27664   0.430   4.314   0.261
 8922SOL    HW127665   0.408   4.350   0.352
 8922SOL    HW227666   0.463   4.389   0.203
 8923SOL     OW27667   2.194   4.103   6.173
 8923SOL    HW127668   2.116   4.157   6.142
 8923SOL    HW227669   2.168   4.046   6.250
 8924SOL     OW27670   2.499   5.681   5.583
 8924SOL    HW127671   2.591   5.675   5.544
 8924SOL    HW227672   2.498   5.748   5.656
 8925SOL     OW27673   0.006   6.830   2.300
 8925SOL    HW127674   7.002   6.894   2.371
 8925SOL    HW227675   0.039   6.882   2.221
 8926SOL     OW27676   5.368   2.524   0.966
 8926SOL    HW127677   5.283   2.568   0.996
 8926SOL    HW227678   5.435   2.594   0.942
 8927SOL     OW27679   2.242   2.490   4.678
 8927SOL    HW127680   2.315   2.512   4.743
 8927SOL    HW227681   2.154   2.510   4.720
 8928SOL     OW27682   0.742   6.649   5.611
 8928SOL    HW127683   0.729   6.551   5.597
 8928SOL    HW227684   0.738   6.696   5.523
 8929SOL     OW27685   6.038   3.860   3.371
 8929SOL    HW127686   6.072   3.778   3.326
 8929SOL    HW227687   5.938   3.854   3.380
 8930SOL     OW27688   1.148   5.157   4.801
 8930SOL    HW127689   1.176   5.088   4.868
 8930SOL    HW227690   1.087   5.114   4.734
 8931SOL     OW27691   4.537   1.213   0.474
 8931SOL    HW127692   4.623   1.206   0.424
 8931SOL    HW227693   4.540   1.294   0.534
 8932SOL     OW27694   0.002   0.128   6.708
 8932SOL    HW127695   0.000   0.139   6.609
 8932SOL    HW227696   7.012   0.032   6.732
 8933SOL     OW27697   1.596   0.553   4.975
 8933SOL    HW127698   1.614   0.500   5.058
 8933SOL    HW227699   1.558   0.642   4.999
 8934SOL     OW27700   3.158   5.771   2.652
 8934SOL    HW127701   3.191   5.856   2.693
 8934SOL    HW227702   3.235   5.719   2.616
 8935SOL     OW27703   4.972   2.683   3.351
 8935SOL    HW127704   4.979   2.616   3.278
 8935SOL    HW227705   4.881   2.723   3.352
 8936SOL     OW27706   0.902   5.505   2.094
 8936SOL    HW127707   0.804   5.522   2.100
 8936SOL    HW227708   0.932   5.449   2.171
 8937SOL     OW27709   5.580   7.022   4.105
 8937SOL    HW127710   5.640   6.970   4.044
 8937SOL    HW227711   5.608   0.093   4.105
 8938SOL     OW27712   6.090   1.136   0.903
 8938SOL    HW127713   6.178   1.092   0.887
 8938SOL    HW227714   6.103   1.216   0.962
 8939SOL     OW27715   0.306   2.932   3.771
 8939SOL    HW127716   0.243   2.955   3.845
 8939SOL    HW227717   0.382   2.877   3.807
 8940SOL     OW27718   6.588   2.904   1.178
 8940SOL    HW127719   6.496   2.889   1.215
 8940SOL    HW227720   6.644   2.951   1.246
 8941SOL     OW27721   4.433   2.889   1.306
 8941SOL    HW127722   4.357   2.934   1.353
 8941SOL    HW227723   4.514   2.889   1.366
 8942SOL     OW27724   5.694   4.801   4.143
 8942SOL    HW127725   5.747   4.728   4.187
 8942SOL    HW227726   5.627   4.760   4.081
 8943SOL     OW27727   4.904   4.309   0.004
 8943SOL    HW127728   4.922   4.270   0.094
 8943SOL    HW227729   4.991   4.322   6.981
 8944SOL     OW27730   5.461   5.870   4.987
 8944SOL    HW127731   5.396   5.796   4.999
 8944SOL    HW227732   5.547   5.847   5.033
 8945SOL     OW27733   5.934   4.008   5.361
 8945SOL    HW127734   5.874   3.959   5.425
 8945SOL    HW227735   6.028   4.004   5.394
 8946SOL     OW27736   5.307   1.070   4.930
 8946SOL    HW127737   5.250   1.007   4.983
 8946SOL    HW227738   5.340   1.023   4.847
 8947SOL     OW27739   1.964   5.189   6.791
 8947SOL    HW127740   2.000   5.197   6.698
 8947SOL    HW227741   2.001   5.264   6.847
 8948SOL     OW27742   6.856   0.520   2.867
 8948SOL    HW127743   6.911   0.562   2.796
 8948SOL    HW227744   6.821   0.432   2.835
 8949SOL     OW27745   3.544   6.213   0.645
 8949SOL    HW127746   3.576   6.292   0.593
 8949SOL    HW227747   3.597   6.206   0.730
 8950SOL     OW27748   4.922   4.174   0.919
 8950SOL    HW127749   4.910   4.206   1.013
 8950SOL    HW227750   4.999   4.222   0.877
 8951SOL     OW27751   2.133   1.701   4.728
 8951SOL    HW127752   2.195   1.623   4.730
 8951SOL    HW227753   2.185   1.786   4.735
 8952SOL     OW27754   1.979   4.054   3.776
 8952SOL    HW127755   1.881   4.038   3.773
 8952SOL    HW227756   2.000   4.118   3.850
 8953SOL     OW27757   1.257   4.855   2.002
 8953SOL    HW127758   1.300   4.859   1.912
 8953SOL    HW227759   1.233   4.947   2.032
 8954SOL     OW27760   1.948   5.145   5.546
 8954SOL    HW127761   1.902   5.234   5.545
 8954SOL    HW227762   2.046   5.158   5.534
 8955SOL     OW27763   5.725   2.762   4.149
 8955SOL    HW127764   5.753   2.851   4.186
 8955SOL    HW227765   5.697   2.702   4.224
 8956SOL     OW27766   0.954   5.653   6.518
 8956SOL    HW127767   0.926   5.557   6.522
 8956SOL    HW227768   0.873   5.711   6.524
 8957SOL     OW27769   0.740   6.370   3.498
 8957SOL    HW127770   0.709   6.451   3.448
 8957SOL    HW227771   0.753   6.392   3.594
 8958SOL     OW27772   1.674   3.978   5.577
 8958SOL    HW127773   1.681   4.041   5.500
 8958SOL    HW227774   1.641   3.889   5.545
 8959SOL     OW27775   0.293   3.144   2.986
 8959SOL    HW127776   0.208   3.196   2.986
 8959SOL    HW227777   0.352   3.177   3.060
 8960SOL     OW27778   5.124   4.273   3.530
 8960SOL    HW127779   5.126   4.350   3.594
 8960SOL    HW227780   5.218   4.243   3.511
 8961SOL     OW27781   2.572   0.082   5.479
 8961SOL    HW127782   2.597   0.156   5.542
 8961SOL    HW227783   2.581   0.115   5.385
 8962SOL     OW27784   0.488   5.802   1.806
 8962SOL    HW127785   0.396   5.840   1.811
 8962SOL    HW227786   0.485   5.710   1.767
 8963SOL     OW27787   4.426   6.268   4.409
 8963SOL    HW127788   4.512   6.244   4.454
 8963SOL    HW227789   4.361   6.301   4.476
 8964SOL     OW27790   0.693   3.368   4.270
 8964SOL    HW127791   0.622   3.434   4.293
 8964SOL    HW227792   0.673   3.327   4.181
 8965SOL     OW27793   3.941   5.346   0.441
 8965SOL    HW127794   3.994   5.375   0.520
 8965SOL    HW227795   4.002   5.338   0.361
 8966SOL     OW27796   5.342   4.992   5.984
 8966SOL    HW127797   5.278   5.047   5.931
 8966SOL    HW227798   5.391   5.050   6.048
 8967SOL     OW27799   2.820   0.055   3.942
 8967SOL    HW127800   2.754   0.070   4.015
 8967SOL    HW227801   2.771   0.027   3.859
 8968SOL     OW27802   3.818   5.076   2.178
 8968SOL    HW127803   3.752   5.001   2.178
 8968SOL    HW227804   3.869   5.075   2.091
 8969SOL     OW27805   0.239   1.232   2.800
 8969SOL    HW127806   0.252   1.154   2.862
 8969SOL    HW227807   0.197   1.308   2.850
 8970SOL     OW27808   1.811   0.688   4.951
 8970SOL    HW127809   1.819   0.742   5.035
 8970SOL    HW227810   1.754   0.608   4.969
 8971SOL     OW27811   4.146   5.375   0.637
 8971SOL    HW127812   4.203   5.457   0.634
 8971SOL    HW227813   4.199   5.296   0.605
 8972SOL     OW27814   6.535   4.454   0.629
 8972SOL    HW127815   6.553   4.358   0.651
 8972SOL    HW227816   6.508   4.462   0.533
 8973SOL     OW27817   1.302   2.981   3.120
 8973SOL    HW127818   1.386   3.033   3.102
 8973SOL    HW227819   1.223   3.043   3.113
 8974SOL     OW27820   2.267   4.194   4.752
 8974SOL    HW127821   2.282   4.158   4.844
 8974SOL    HW227822   2.263   4.118   4.687
 8975SOL     OW27823   0.122   6.327   5.936
 8975SOL    HW127824   0.204   6.270   5.928
 8975SOL    HW227825   0.044   6.270   5.960
 8976SOL     OW27826   6.839   6.742   1.574
 8976SOL    HW127827   6.873   6.667   1.631
 8976SOL    HW227828   6.913   6.777   1.517
 8977SOL     OW27829   6.831   5.161   5.930
 8977SOL    HW127830   6.908   5.224   5.930
 8977SOL    HW227831   6.859   5.073   5.892
 8978SOL     OW27832   5.433   5.616   6.465
 8978SOL    HW127833   5.483   5.703   6.459
 8978SOL    HW227834   5.498   5.540   6.458
 8979SOL     OW27835   1.216   5.265   5.837
 8979SOL    HW127836   1.228   5.287   5.934
 8979SOL    HW227837   1.124   5.227   5.824
 8980SOL     OW27838   3.538   0.516   5.209
 8980SOL    HW127839   3.444   0.541   5.231
 8980SOL    HW227840   3.544   0.416   5.200
 8981SOL     OW27841   3.855   3.009   0.179
 8981SOL    HW127842   3.920   2.941   0.146
 8981SOL    HW227843   3.897   3.065   0.250
 8982SOL     OW27844   0.864   1.392   1.670
 8982SOL    HW127845   0.834   1.300   1.645
 8982SOL    HW227846   0.847   1.455   1.594
 8983SOL     OW27847   1.100   0.022   2.156
 8983SOL    HW127848   1.188   0.069   2.160
 8983SOL    HW227849   1.062   0.016   2.249
 8984SOL     OW27850   6.228   0.509   3.821
 8984SOL    HW127851   6.229   0.539   3.916
 8984SOL    HW227852   6.309   0.452   3.803
 8985SOL     OW27853   4.567   2.839   0.731
 8985SOL    HW127854   4.533   2.912   0.791
 8985SOL    HW227855   4.495   2.771   0.717
 8986SOL     OW27856   0.046   5.465   0.029
 8986SOL    HW127857   0.013   5.372   0.013
 8986SOL    HW227858   0.144   5.463   0.048
 8987SOL     OW27859   2.160   0.715   1.588
 8987SOL    HW127860   2.209   0.656   1.652
 8987SOL    HW227861   2.062   0.697   1.594
 8988SOL     OW27862   1.511   5.714   1.863
 8988SOL    HW127863   1.534   5.789   1.925
 8988SOL    HW227864   1.584   5.704   1.795
 8989SOL     OW27865   4.984   1.473   2.049
 8989SOL    HW127866   5.048   1.445   1.977
 8989SOL    HW227867   4.909   1.408   2.054
 8990SOL     OW27868   3.717   0.503   1.678
 8990SOL    HW127869   3.686   0.538   1.590
 8990SOL    HW227870   3.638   0.491   1.738
 8991SOL     OW27871   2.074   2.577   0.368
 8991SOL    HW127872   2.050   2.556   0.463
 8991SOL    HW227873   1.993   2.614   0.321
 8992SOL     OW27874   0.205   4.122   0.655
 8992SOL    HW127875   0.143   4.199   0.643
 8992SOL    HW227876   0.201   4.063   0.575
 8993SOL     OW27877   5.931   3.493   4.241
 8993SOL    HW127878   5.834   3.510   4.260
 8993SOL    HW227879   5.958   3.405   4.278
 8994SOL     OW27880   0.783   5.242   3.409
 8994SOL    HW127881   0.836   5.171   3.362
 8994SOL    HW227882   0.814   5.248   3.504
 8995SOL     OW27883   2.014   3.974   4.788
 8995SOL    HW127884   2.107   4.003   4.808
 8995SOL    HW227885   2.012   3.926   4.700
 8996SOL     OW27886   1.068   4.020   2.066
 8996SOL    HW127887   1.039   3.936   2.113
 8996SOL    HW227888   1.148   3.999   2.009
 8997SOL     OW27889   4.790   1.505   5.415
 8997SOL    HW127890   4.720   1.439   5.385
 8997SOL    HW227891   4.765   1.542   5.504
 8998SOL     OW27892   1.478   2.819   6.590
 8998SOL    HW127893   1.403   2.865   6.542
 8998SOL    HW227894   1.565   2.848   6.551
 8999SOL     OW27895   6.461   1.301   4.053
 8999SOL    HW127896   6.397   1.230   4.026
 8999SOL    HW227897   6.481   1.293   4.151
 9000SOL     OW27898   3.335   3.897   0.876
 9000SOL    HW127899   3.274   3.877   0.800
 9000SOL    HW227900   3.357   3.994   0.878
 9001SOL     OW27901   1.626   4.933   3.468
 9001SOL    HW127902   1.697   4.983   3.519
 9001SOL    HW227903   1.663   4.905   3.380
 9002SOL     OW27904   5.442   4.934   5.370
 9002SOL    HW127905   5.382   4.950   5.292
 9002SOL    HW227906   5.453   4.836   5.385
 9003SOL     OW27907   5.754   2.748   6.360
 9003SOL    HW127908   5.665   2.755   6.404
 9003SOL    HW227909   5.771   2.831   6.306
 9004SOL     OW27910   4.324   6.529   1.115
 9004SOL    HW127911   4.404   6.472   1.131
 9004SOL    HW227912   4.280   6.502   1.030
 9005SOL     OW27913   4.912   1.577   3.134
 9005SOL    HW127914   4.973   1.656   3.126
 9005SOL    HW227915   4.959   1.495   3.101
 9006SOL     OW27916   1.013   5.884   1.151
 9006SOL    HW127917   1.109   5.859   1.148
 9006SOL    HW227918   0.989   5.934   1.068
 9007SOL     OW27919   2.547   6.791   4.363
 9007SOL    HW127920   2.457   6.816   4.400
 9007SOL    HW227921   2.595   6.873   4.333
 9008SOL     OW27922   6.430   4.339   2.300
 9008SOL    HW127923   6.486   4.343   2.382
 9008SOL    HW227924   6.488   4.320   2.221
 9009SOL     OW27925   3.295   6.538   0.946
 9009SOL    HW127926   3.336   6.446   0.941
 9009SOL    HW227927   3.368   6.606   0.946
 9010SOL     OW27928   1.088   6.377   5.078
 9010SOL    HW127929   1.065   6.280   5.087
 9010SOL    HW227930   1.005   6.432   5.081
 9011SOL     OW27931   4.666   2.153   1.203
 9011SOL    HW127932   4.624   2.105   1.280
 9011SOL    HW227933   4.603   2.222   1.169
 9012SOL     OW27934   0.042   5.606   1.535
 9012SOL    HW127935   0.063   5.688   1.483
 9012SOL    HW227936   0.107   5.597   1.611
 9013SOL     OW27937   5.999   5.903   3.471
 9013SOL    HW127938   5.909   5.868   3.497
 9013SOL    HW227939   6.069   5.853   3.521
 9014SOL     OW27940   3.187   0.976   1.296
 9014SOL    HW127941   3.120   1.008   1.229
 9014SOL    HW227942   3.168   1.018   1.385
 9015SOL     OW27943   0.235   1.083   5.446
 9015SOL    HW127944   0.227   1.055   5.542
 9015SOL    HW227945   0.154   1.053   5.395
 9016SOL     OW27946   6.160   6.045   6.502
 9016SOL    HW127947   6.235   5.979   6.506
 9016SOL    HW227948   6.079   6.001   6.461
 9017SOL     OW27949   6.747   3.136   2.984
 9017SOL    HW127950   6.800   3.143   3.068
 9017SOL    HW227951   6.769   3.050   2.937
 9018SOL     OW27952   3.621   2.556   5.366
 9018SOL    HW127953   3.640   2.458   5.371
 9018SOL    HW227954   3.522   2.570   5.363
 9019SOL     OW27955   2.104   6.878   1.166
 9019SOL    HW127956   2.061   6.863   1.077
 9019SOL    HW227957   2.200   6.904   1.152
 9020SOL     OW27958   0.507   5.037   3.238
 9020SOL    HW127959   0.588   4.991   3.274
 9020SOL    HW227960   0.535   5.121   3.190
 9021SOL     OW27961   6.713   5.681   5.168
 9021SOL    HW127962   6.692   5.774   5.136
 9021SOL    HW227963   6.778   5.686   5.244
 9022SOL     OW27964   3.189   0.797   0.440
 9022SOL    HW127965   3.111   0.760   0.491
 9022SOL    HW227966   3.274   0.775   0.488
 9023SOL     OW27967   3.432   3.506   3.487
 9023SOL    HW127968   3.419   3.424   3.542
 9023SOL    HW227969   3.364   3.575   3.513
 9024SOL     OW27970   1.923   6.805   0.312
 9024SOL    HW127971   1.848   6.835   0.371
 9024SOL    HW227972   1.977   6.885   0.283
 9025SOL     OW27973   6.146   4.517   0.749
 9025SOL    HW127974   6.138   4.430   0.702
 9025SOL    HW227975   6.115   4.507   0.844
 9026SOL     OW27976   3.313   2.832   4.997
 9026SOL    HW127977   3.279   2.811   5.088
 9026SOL    HW227978   3.314   2.749   4.941
 9027SOL     OW27979   1.702   3.113   3.526
 9027SOL    HW127980   1.610   3.133   3.560
 9027SOL    HW227981   1.767   3.176   3.568
 9028SOL     OW27982   3.003   5.040   4.882
 9028SOL    HW127983   2.909   5.013   4.862
 9028SOL    HW227984   3.021   5.027   4.980
 9029SOL     OW27985   5.243   6.024   3.092
 9029SOL    HW127986   5.301   6.034   3.012
 9029SOL    HW227987   5.147   6.016   3.064
 9030SOL     OW27988   2.880   0.982   1.700
 9030SOL    HW127989   2.957   0.919   1.706
 9030SOL    HW227990   2.802   0.945   1.750
 9031SOL     OW27991   2.741   6.703   6.316
 9031SOL    HW127992   2.732   6.614   6.361
 9031SOL    HW227993   2.651   6.745   6.306
 9032SOL     OW27994   2.073   1.767   1.860
 9032SOL    HW127995   2.101   1.821   1.940
 9032SOL    HW227996   2.051   1.674   1.889
 9033SOL     OW27997   1.387   3.980   2.496
 9033SOL    HW127998   1.459   3.914   2.477
 9033SOL    HW227999   1.415   4.040   2.571
 9034SOL     OW28000   3.355   6.419   5.994
 9034SOL    HW128001   3.327   6.473   6.073
 9034SOL    HW228002   3.285   6.427   5.922
 9035SOL     OW28003   7.021   1.443   4.358
 9035SOL    HW128004   0.037   1.360   4.397
 9035SOL    HW228005   6.928   1.423   4.328
 9036SOL     OW28006   1.288   2.027   5.437
 9036SOL    HW128007   1.364   2.091   5.447
 9036SOL    HW228008   1.294   1.981   5.349
 9037SOL     OW28009   2.032   4.197   6.775
 9037SOL    HW128010   2.095   4.274   6.781
 9037SOL    HW228011   1.947   4.219   6.823
 9038SOL     OW28012   5.285   6.320   5.699
 9038SOL    HW128013   5.307   6.223   5.702
 9038SOL    HW228014   5.322   6.361   5.616
 9039SOL     OW28015   2.188   5.722   5.888
 9039SOL    HW128016   2.190   5.802   5.828
 9039SOL    HW228017   2.100   5.675   5.876
 9040SOL     OW28018   1.862   1.426   2.718
 9040SOL    HW128019   1.813   1.366   2.781
 9040SOL    HW228020   1.860   1.387   2.626
 9041SOL     OW28021   2.175   3.120   0.356
 9041SOL    HW128022   2.261   3.088   0.394
 9041SOL    HW228023   2.193   3.180   0.278
 9042SOL     OW28024   2.714   4.695   4.098
 9042SOL    HW128025   2.772   4.740   4.166
 9042SOL    HW228026   2.744   4.721   4.006
 9043SOL     OW28027   0.445   2.129   5.664
 9043SOL    HW128028   0.464   2.031   5.677
 9043SOL    HW228029   0.450   2.176   5.752
 9044SOL     OW28030   6.135   6.098   0.329
 9044SOL    HW128031   6.221   6.132   0.293
 9044SOL    HW228032   6.118   6.139   0.419
 9045SOL     OW28033   2.933   6.622   3.805
 9045SOL    HW128034   2.997   6.562   3.756
 9045SOL    HW228035   2.975   6.712   3.818
 9046SOL     OW28036   3.250   4.172   4.717
 9046SOL    HW128037   3.263   4.255   4.771
 9046SOL    HW228038   3.193   4.107   4.769
 9047SOL     OW28039   0.926   4.805   4.587
 9047SOL    HW128040   0.907   4.755   4.671
 9047SOL    HW228041   0.954   4.741   4.515
 9048SOL     OW28042   0.503   3.395   4.584
 9048SOL    HW128043   0.501   3.425   4.489
 9048SOL    HW228044   0.443   3.453   4.639
 9049SOL     OW28045   5.283   5.362   6.366
 9049SOL    HW128046   5.288   5.427   6.291
 9049SOL    HW228047   5.301   5.270   6.331
 9050SOL     OW28048   7.013   5.185   6.219
 9050SOL    HW128049   0.073   5.216   6.261
 9050SOL    HW228050   6.987   5.248   6.146
 9051SOL     OW28051   5.124   6.283   6.680
 9051SOL    HW128052   5.221   6.272   6.662
 9051SOL    HW228053   5.109   6.364   6.736
 9052SOL     OW28054   2.169   5.129   5.002
 9052SOL    HW128055   2.177   5.178   5.089
 9052SOL    HW228056   2.133   5.191   4.932
 9053SOL     OW28057   2.964   2.124   3.757
 9053SOL    HW128058   3.061   2.111   3.740
 9053SOL    HW228059   2.951   2.181   3.838
 9054SOL     OW28060   2.862   0.603   1.349
 9054SOL    HW128061   2.837   0.593   1.446
 9054SOL    HW228062   2.814   0.534   1.295
 9055SOL     OW28063   1.254   2.744   3.928
 9055SOL    HW128064   1.284   2.650   3.943
 9055SOL    HW228065   1.312   2.787   3.860
 9056SOL     OW28066   5.387   0.240   3.250
 9056SOL    HW128067   5.345   0.324   3.216
 9056SOL    HW228068   5.346   0.161   3.204
 9057SOL     OW28069   5.240   5.503   6.004
 9057SOL    HW128070   5.272   5.551   6.086
 9057SOL    HW228071   5.166   5.441   6.029
 9058SOL     OW28072   1.530   3.084   4.577
 9058SOL    HW128073   1.535   3.080   4.677
 9058SOL    HW228074   1.434   3.084   4.548
 9059SOL     OW28075   0.397   1.848   3.058
 9059SOL    HW128076   0.402   1.948   3.059
 9059SOL    HW228077   0.304   1.819   3.035
 9060SOL     OW28078   0.621   4.111   1.331
 9060SOL    HW128079   0.647   4.154   1.417
 9060SOL    HW228080   0.522   4.115   1.320
 9061SOL     OW28081   5.460   4.913   1.995
 9061SOL    HW128082   5.506   4.831   1.961
 9061SOL    HW228083   5.524   4.966   2.050
 9062SOL     OW28084   0.438   5.765   3.465
 9062SOL    HW128085   0.445   5.701   3.389
 9062SOL    HW228086   0.426   5.715   3.551
 9063SOL     OW28087   4.002   1.121   2.218
 9063SOL    HW128088   3.991   1.206   2.269
 9063SOL    HW228089   4.034   1.141   2.125
 9064SOL     OW28090   0.632   4.866   3.662
 9064SOL    HW128091   0.623   4.790   3.598
 9064SOL    HW228092   0.727   4.899   3.661
 9065SOL     OW28093   2.319   5.036   5.698
 9065SOL    HW128094   2.381   4.960   5.715
 9065SOL    HW228095   2.331   5.106   5.768
 9066SOL     OW28096   5.137   4.962   5.381
 9066SOL    HW128097   5.188   5.048   5.379
 9066SOL    HW228098   5.172   4.905   5.456
 9067SOL     OW28099   0.094   0.173   4.360
 9067SOL    HW128100   0.191   0.184   4.338
 9067SOL    HW228101   0.046   0.259   4.346
 9068SOL     OW28102   4.765   6.548   4.536
 9068SOL    HW128103   4.789   6.529   4.441
 9068SOL    HW228104   4.833   6.609   4.576
 9069SOL     OW28105   4.902   1.871   1.848
 9069SOL    HW128106   4.840   1.793   1.860
 9069SOL    HW228107   4.993   1.837   1.825
 9070SOL     OW28108   1.599   1.623   5.857
 9070SOL    HW128109   1.599   1.658   5.951
 9070SOL    HW228110   1.692   1.595   5.832
 9071SOL     OW28111   5.200   1.797   5.364
 9071SOL    HW128112   5.136   1.858   5.317
 9071SOL    HW228113   5.162   1.772   5.453
 9072SOL     OW28114   4.843   1.007   3.022
 9072SOL    HW128115   4.845   1.060   3.106
 9072SOL    HW228116   4.916   1.037   2.961
 9073SOL     OW28117   4.437   0.903   6.400
 9073SOL    HW128118   4.384   0.831   6.355
 9073SOL    HW228119   4.458   0.975   6.334
 9074SOL     OW28120   1.728   6.885   1.634
 9074SOL    HW128121   1.780   6.858   1.715
 9074SOL    HW228122   1.789   6.928   1.568
 9075SOL     OW28123   6.497   0.158   1.036
 9075SOL    HW128124   6.497   0.255   1.013
 9075SOL    HW228125   6.408   0.132   1.072
 9076SOL     OW28126   6.957   0.585   2.094
 9076SOL    HW128127   6.931   0.560   2.187
 9076SOL    HW228128   6.957   0.684   2.084
 9077SOL     OW28129   6.514   1.408   6.115
 9077SOL    HW128130   6.545   1.385   6.207
 9077SOL    HW228131   6.498   1.324   6.063
 9078SOL     OW28132   5.510   6.040   6.851
 9078SOL    HW128133   5.486   6.064   6.945
 9078SOL    HW228134   5.450   5.967   6.818
 9079SOL     OW28135   1.038   0.303   6.424
 9079SOL    HW128136   1.116   0.345   6.471
 9079SOL    HW228137   0.954   0.321   6.476
 9080SOL     OW28138   6.156   3.512   1.152
 9080SOL    HW128139   6.218   3.486   1.078
 9080SOL    HW228140   6.061   3.501   1.123
 9081SOL     OW28141   3.649   1.928   0.570
 9081SOL    HW128142   3.672   2.025   0.570
 9081SOL    HW228143   3.701   1.881   0.640
 9082SOL     OW28144   2.840   5.810   5.652
 9082SOL    HW128145   2.853   5.712   5.640
 9082SOL    HW228146   2.922   5.850   5.691
 9083SOL     OW28147   4.602   4.742   6.988
 9083SOL    HW128148   4.684   4.797   6.972
 9083SOL    HW228149   4.522   4.788   6.950
 9084SOL     OW28150   0.954   2.942   5.619
 9084SOL    HW128151   0.916   2.995   5.543
 9084SOL    HW228152   1.042   2.982   5.646
 9085SOL     OW28153   2.499   5.135   6.585
 9085SOL    HW128154   2.431   5.080   6.537
 9085SOL    HW228155   2.454   5.192   6.653
 9086SOL     OW28156   6.895   4.183   0.458
 9086SOL    HW128157   6.852   4.120   0.523
 9086SOL    HW228158   6.864   4.161   0.366
 9087SOL     OW28159   5.869   1.293   1.644
 9087SOL    HW128160   5.892   1.208   1.597
 9087SOL    HW228161   5.859   1.367   1.578
 9088SOL     OW28162   6.533   0.438   0.506
 9088SOL    HW128163   6.449   0.410   0.458
 9088SOL    HW228164   6.599   0.473   0.439
 9089SOL     OW28165   4.428   5.853   3.920
 9089SOL    HW128166   4.370   5.798   3.859
 9089SOL    HW228167   4.450   5.940   3.876
 9090SOL     OW28168   5.589   6.334   4.912
 9090SOL    HW128169   5.500   6.298   4.882
 9090SOL    HW228170   5.631   6.384   4.837
 9091SOL     OW28171   2.415   1.901   0.929
 9091SOL    HW128172   2.358   1.837   0.878
 9091SOL    HW228173   2.502   1.856   0.952
 9092SOL     OW28174   1.152   6.583   5.677
 9092SOL    HW128175   1.132   6.681   5.671
 9092SOL    HW228176   1.224   6.560   5.612
 9093SOL     OW28177   1.622   5.382   0.310
 9093SOL    HW128178   1.603   5.316   0.237
 9093SOL    HW228179   1.577   5.469   0.289
 9094SOL     OW28180   0.145   5.970   2.065
 9094SOL    HW128181   0.200   6.054   2.064
 9094SOL    HW228182   0.157   5.922   1.978
 9095SOL     OW28183   4.185   3.552   6.497
 9095SOL    HW128184   4.149   3.645   6.505
 9095SOL    HW228185   4.110   3.486   6.508
 9096SOL     OW28186   5.869   2.705   2.720
 9096SOL    HW128187   5.799   2.638   2.694
 9096SOL    HW228188   5.837   2.797   2.698
 9097SOL     OW28189   1.451   3.888   6.674
 9097SOL    HW128190   1.516   3.934   6.613
 9097SOL    HW228191   1.501   3.832   6.740
 9098SOL     OW28192   3.914   3.900   2.040
 9098SOL    HW128193   3.953   3.813   2.012
 9098SOL    HW228194   3.919   3.965   1.964
 9099SOL     OW28195   2.280   3.395   1.425
 9099SOL    HW128196   2.342   3.359   1.495
 9099SOL    HW228197   2.301   3.355   1.337
 9100SOL     OW28198   0.801   3.215   0.981
 9100SOL    HW128199   0.718   3.268   0.963
 9100SOL    HW228200   0.872   3.242   0.916
 9101SOL     OW28201   1.590   2.689   2.583
 9101SOL    HW128202   1.550   2.773   2.620
 9101SOL    HW228203   1.627   2.634   2.658
 9102SOL     OW28204   4.076   5.496   2.160
 9102SOL    HW128205   4.095   5.539   2.248
 9102SOL    HW228206   4.007   5.424   2.172
 9103SOL     OW28207   6.847   3.775   0.525
 9103SOL    HW128208   6.816   3.867   0.548
 9103SOL    HW228209   6.849   3.764   0.426
 9104SOL     OW28210   4.780   6.379   1.346
 9104SOL    HW128211   4.851   6.433   1.302
 9104SOL    HW228212   4.820   6.296   1.384
 9105SOL     OW28213   1.532   0.901   6.373
 9105SOL    HW128214   1.594   0.936   6.303
 9105SOL    HW228215   1.480   0.824   6.337
 9106SOL     OW28216   5.915   5.049   6.974
 9106SOL    HW128217   5.916   4.954   6.945
 9106SOL    HW228218   5.852   5.061   0.025
 9107SOL     OW28219   3.489   6.917   0.596
 9107SOL    HW128220   3.439   6.843   0.640
 9107SOL    HW228221   3.425   6.977   0.548
 9108SOL     OW28222   4.737   4.598   5.720
 9108SOL    HW128223   4.749   4.679   5.662
 9108SOL    HW228224   4.826   4.563   5.747
 9109SOL     OW28225   2.630   2.456   3.612
 9109SOL    HW128226   2.560   2.387   3.594
 9109SOL    HW228227   2.720   2.413   3.612
 9110SOL     OW28228   1.877   4.677   3.587
 9110SOL    HW128229   1.945   4.745   3.562
 9110SOL    HW228230   1.826   4.708   3.668
 9111SOL     OW28231   3.918   4.180   1.359
 9111SOL    HW128232   4.010   4.150   1.336
 9111SOL    HW228233   3.878   4.119   1.428
 9112SOL     OW28234   0.963   4.405   2.545
 9112SOL    HW128235   0.942   4.378   2.639
 9112SOL    HW228236   0.879   4.425   2.496
 9113SOL     OW28237   4.954   0.402   0.574
 9113SOL    HW128238   5.000   0.490   0.583
 9113SOL    HW228239   4.998   0.349   0.501
 9114SOL     OW28240   2.180   4.305   2.178
 9114SOL    HW128241   2.222   4.218   2.154
 9114SOL    HW228242   2.172   4.362   2.096
 9115SOL     OW28243   1.726   5.127   4.240
 9115SOL    HW128244   1.756   5.121   4.145
 9115SOL    HW228245   1.750   5.217   4.277
 9116SOL     OW28246   6.286   1.918   6.856
 9116SOL    HW128247   6.271   1.879   6.765
 9116SOL    HW228248   6.341   2.001   6.848
 9117SOL     OW28249   6.052   2.850   6.107
 9117SOL    HW128250   6.123   2.900   6.157
 9117SOL    HW228251   6.033   2.764   6.154
 9118SOL     OW28252   6.104   0.013   1.193
 9118SOL    HW128253   6.183   6.987   1.226
 9118SOL    HW228254   6.127   0.059   1.107
 9119SOL     OW28255   5.994   0.732   1.921
 9119SOL    HW128256   6.013   0.823   1.885
 9119SOL    HW228257   5.969   0.739   2.018
 9120SOL     OW28258   5.841   1.996   5.785
 9120SOL    HW128259   5.776   1.927   5.820
 9120SOL    HW228260   5.813   2.086   5.817
 9121SOL     OW28261   0.566   2.770   5.205
 9121SOL    HW128262   0.664   2.751   5.197
 9121SOL    HW228263   0.551   2.835   5.279
 9122SOL     OW28264   1.672   3.102   2.705
 9122SOL    HW128265   1.757   3.091   2.757
 9122SOL    HW228266   1.595   3.111   2.768
 9123SOL     OW28267   2.635   6.348   5.273
 9123SOL    HW128268   2.565   6.386   5.334
 9123SOL    HW228269   2.627   6.390   5.183
 9124SOL     OW28270   6.383   5.874   5.342
 9124SOL    HW128271   6.461   5.863   5.403
 9124SOL    HW228272   6.405   5.839   5.251
 9125SOL     OW28273   4.907   4.173   3.645
 9125SOL    HW128274   4.843   4.206   3.576
 9125SOL    HW228275   5.001   4.178   3.610
 9126SOL     OW28276   5.948   1.075   1.496
 9126SOL    HW128277   6.019   1.122   1.444
 9126SOL    HW228278   5.984   0.990   1.534
 9127SOL     OW28279   5.652   0.167   6.061
 9127SOL    HW128280   5.691   0.257   6.080
 9127SOL    HW228281   5.689   0.101   6.126
 9128SOL     OW28282   3.724   1.047   5.118
 9128SOL    HW128283   3.665   0.982   5.166
 9128SOL    HW228284   3.685   1.139   5.124
 9129SOL     OW28285   1.611   3.061   6.906
 9129SOL    HW128286   1.617   3.154   6.869
 9129SOL    HW228287   1.576   3.065   7.000
 9130SOL     OW28288   7.002   4.718   6.868
 9130SOL    HW128289   6.936   4.661   6.819
 9130SOL    HW228290   7.024   4.675   6.955
 9131SOL     OW28291   0.427   4.648   5.122
 9131SOL    HW128292   0.502   4.582   5.123
 9131SOL    HW228293   0.343   4.604   5.153
 9132SOL     OW28294   6.815   4.155   3.788
 9132SOL    HW128295   6.840   4.107   3.704
 9132SOL    HW228296   6.741   4.105   3.834
 9133SOL     OW28297   2.607   4.568   0.434
 9133SOL    HW128298   2.659   4.495   0.479
 9133SOL    HW228299   2.542   4.608   0.499
 9134SOL     OW28300   3.471   6.219   0.252
 9134SOL    HW128301   3.569   6.225   0.271
 9134SOL    HW228302   3.424   6.182   0.333
 9135SOL     OW28303   0.181   6.644   2.114
 9135SOL    HW128304   0.280   6.658   2.119
 9135SOL    HW228305   0.136   6.695   2.187
 9136SOL     OW28306   5.269   5.241   5.833
 9136SOL    HW128307   5.277   5.283   5.923
 9136SOL    HW228308   5.174   5.244   5.803
 9137SOL     OW28309   5.243   1.290   1.067
 9137SOL    HW128310   5.300   1.369   1.046
 9137SOL    HW228311   5.291   1.230   1.132
 9138SOL     OW28312   5.882   5.278   6.235
 9138SOL    HW128313   5.887   5.319   6.327
 9138SOL    HW228314   5.956   5.212   6.224
 9139SOL     OW28315   2.955   1.484   5.919
 9139SOL    HW128316   3.004   1.550   5.863
 9139SOL    HW228317   2.858   1.484   5.894
 9140SOL     OW28318   6.592   2.358   3.001
 9140SOL    HW128319   6.530   2.383   2.927
 9140SOL    HW228320   6.584   2.424   3.076
 9141SOL     OW28321   5.262   6.971   6.515
 9141SOL    HW128322   5.251   6.972   6.416
 9141SOL    HW228323   5.280   6.877   6.545
 9142SOL     OW28324   0.312   3.203   5.296
 9142SOL    HW128325   0.314   3.272   5.224
 9142SOL    HW228326   0.268   3.120   5.262
 9143SOL     OW28327   4.576   3.773   0.080
 9143SOL    HW128328   4.603   3.854   0.027
 9143SOL    HW228329   4.560   3.799   0.175
 9144SOL     OW28330   1.993   6.281   6.488
 9144SOL    HW128331   1.950   6.317   6.405
 9144SOL    HW228332   1.926   6.227   6.539
 9145SOL     OW28333   0.221   5.159   0.641
 9145SOL    HW128334   0.208   5.120   0.731
 9145SOL    HW228335   0.140   5.212   0.615
 9146SOL     OW28336   5.088   2.140   1.356
 9146SOL    HW128337   5.113   2.227   1.312
 9146SOL    HW228338   4.993   2.144   1.386
 9147SOL     OW28339   5.473   6.640   4.313
 9147SOL    HW128340   5.401   6.634   4.382
 9147SOL    HW228341   5.547   6.577   4.337
 9148SOL     OW28342   6.234   6.464   2.142
 9148SOL    HW128343   6.216   6.394   2.073
 9148SOL    HW228344   6.229   6.423   2.234
 9149SOL     OW28345   4.860   2.675   3.786
 9149SOL    HW128346   4.830   2.746   3.724
 9149SOL    HW228347   4.841   2.585   3.746
 9150SOL     OW28348   4.348   6.194   3.292
 9150SOL    HW128349   4.442   6.228   3.287
 9150SOL    HW228350   4.329   6.135   3.214
 9151SOL     OW28351   1.498   3.749   2.223
 9151SOL    HW128352   1.439   3.829   2.212
 9151SOL    HW228353   1.585   3.765   2.176
 9152SOL     OW28354   2.423   5.695   4.249
 9152SOL    HW128355   2.368   5.750   4.187
 9152SOL    HW228356   2.477   5.755   4.308
 9153SOL     OW28357   1.853   2.880   0.470
 9153SOL    HW128358   1.797   2.820   0.527
 9153SOL    HW228359   1.826   2.869   0.374
 9154SOL     OW28360   2.791   5.854   6.621
 9154SOL    HW128361   2.713   5.915   6.612
 9154SOL    HW228362   2.790   5.786   6.547
 9155SOL     OW28363   2.338   3.442   0.262
 9155SOL    HW128364   2.398   3.466   0.185
 9155SOL    HW228365   2.282   3.363   0.237
 9156SOL     OW28366   3.336   3.070   1.392
 9156SOL    HW128367   3.430   3.048   1.420
 9156SOL    HW228368   3.326   3.169   1.383
 9157SOL     OW28369   5.843   4.750   5.440
 9157SOL    HW128370   5.800   4.826   5.490
 9157SOL    HW228371   5.911   4.787   5.376
 9158SOL     OW28372   6.423   3.254   4.361
 9158SOL    HW128373   6.372   3.218   4.440
 9158SOL    HW228374   6.518   3.223   4.367
 9159SOL     OW28375   0.005   5.974   3.139
 9159SOL    HW128376   0.094   5.967   3.184
 9159SOL    HW228377   6.995   5.882   3.119
 9160SOL     OW28378   6.797   0.001   4.783
 9160SOL    HW128379   6.874   0.049   4.823
 9160SOL    HW228380   6.820   6.997   4.690
 9161SOL     OW28381   4.849   4.049   4.787
 9161SOL    HW128382   4.813   3.987   4.856
 9161SOL    HW228383   4.949   4.053   4.795
 9162SOL     OW28384   4.991   2.138   3.281
 9162SOL    HW128385   5.087   2.115   3.261
 9162SOL    HW228386   4.947   2.174   3.199
 9163SOL     OW28387   2.091   3.432   3.485
 9163SOL    HW128388   2.155   3.463   3.556
 9163SOL    HW228389   2.112   3.337   3.461
 9164SOL     OW28390   2.697   0.973   6.672
 9164SOL    HW128391   2.657   0.882   6.685
 9164SOL    HW228392   2.699   1.021   6.760
 9165SOL     OW28393   6.264   1.196   6.419
 9165SOL    HW128394   6.332   1.268   6.433
 9165SOL    HW228395   6.258   1.174   6.322
 9166SOL     OW28396   4.560   6.371   1.127
 9166SOL    HW128397   4.619   6.376   1.208
 9166SOL    HW228398   4.541   6.275   1.105
 9167SOL     OW28399   1.867   3.241   6.195
 9167SOL    HW128400   1.950   3.221   6.143
 9167SOL    HW228401   1.870   3.192   6.282
 9168SOL     OW28402   1.904   6.643   5.608
 9168SOL    HW128403   1.943   6.581   5.677
 9168SOL    HW228404   1.849   6.590   5.543
 9169SOL     OW28405   6.795   0.866   4.745
 9169SOL    HW128406   6.709   0.919   4.741
 9169SOL    HW228407   6.851   0.899   4.821
 9170SOL     OW28408   0.195   5.175   6.869
 9170SOL    HW128409   0.117   5.167   6.931
 9170SOL    HW228410   0.247   5.257   6.891
 9171SOL     OW28411   3.235   5.514   0.174
 9171SOL    HW128412   3.192   5.526   0.263
 9171SOL    HW228413   3.328   5.548   0.176
 9172SOL     OW28414   3.591   0.570   4.739
 9172SOL    HW128415   3.549   0.480   4.746
 9172SOL    HW228416   3.630   0.597   4.827
 9173SOL     OW28417   5.650   4.637   4.619
 9173SOL    HW128418   5.725   4.697   4.591
 9173SOL    HW228419   5.679   4.580   4.696
 9174SOL     OW28420   6.251   4.036   0.520
 9174SOL    HW128421   6.335   3.992   0.550
 9174SOL    HW228422   6.183   3.967   0.495
 9175SOL     OW28423   2.060   6.320   4.964
 9175SOL    HW128424   2.054   6.238   4.907
 9175SOL    HW228425   1.968   6.347   4.992
 9176SOL     OW28426   2.466   1.276   5.664
 9176SOL    HW128427   2.495   1.356   5.717
 9176SOL    HW228428   2.545   1.234   5.621
 9177SOL     OW28429   1.422   5.264   4.027
 9177SOL    HW128430   1.435   5.361   4.043
 9177SOL    HW228431   1.414   5.216   4.115
 9178SOL     OW28432   2.135   5.261   0.621
 9178SOL    HW128433   2.181   5.221   0.700
 9178SOL    HW228434   2.200   5.269   0.545
 9179SOL     OW28435   2.722   5.576   4.317
 9179SOL    HW128436   2.654   5.598   4.388
 9179SOL    HW228437   2.812   5.608   4.346
 9180SOL     OW28438   6.097   2.346   3.361
 9180SOL    HW128439   6.048   2.416   3.309
 9180SOL    HW228440   6.123   2.271   3.300
 9181SOL     OW28441   4.415   2.435   3.088
 9181SOL    HW128442   4.411   2.422   2.989
 9181SOL    HW228443   4.472   2.514   3.110
 9182SOL     OW28444   3.037   0.185   2.817
 9182SOL    HW128445   2.939   0.171   2.832
 9182SOL    HW228446   3.088   0.105   2.849
 9183SOL     OW28447   5.470   6.064   0.176
 9183SOL    HW128448   5.463   6.057   0.276
 9183SOL    HW228449   5.448   6.157   0.147
 9184SOL     OW28450   4.995   1.463   0.096
 9184SOL    HW128451   4.941   1.546   0.097
 9184SOL    HW228452   5.073   1.473   0.158
 9185SOL     OW28453   4.434   6.849   4.634
 9185SOL    HW128454   4.472   6.933   4.595
 9185SOL    HW228455   4.383   6.871   4.717
 9186SOL     OW28456   5.904   1.029   3.876
 9186SOL    HW128457   5.982   1.007   3.817
 9186SOL    HW228458   5.903   0.967   3.955
 9187SOL     OW28459   2.718   0.390   1.576
 9187SOL    HW128460   2.686   0.406   1.669
 9187SOL    HW228461   2.798   0.330   1.578
 9188SOL     OW28462   1.916   6.725   2.218
 9188SOL    HW128463   1.855   6.790   2.173
 9188SOL    HW228464   1.983   6.691   2.152
 9189SOL     OW28465   5.423   5.671   2.381
 9189SOL    HW128466   5.467   5.620   2.307
 9189SOL    HW228467   5.487   5.738   2.419
 9190SOL     OW28468   1.456   5.028   0.489
 9190SOL    HW128469   1.431   5.116   0.531
 9190SOL    HW228470   1.374   4.984   0.453
 9191SOL     OW28471   6.214   0.782   5.659
 9191SOL    HW128472   6.115   0.765   5.662
 9191SOL    HW228473   6.236   0.859   5.719
 9192SOL     OW28474   0.526   4.052   5.587
 9192SOL    HW128475   0.593   4.097   5.527
 9192SOL    HW228476   0.489   4.119   5.651
 9193SOL     OW28477   4.620   4.314   0.311
 9193SOL    HW128478   4.589   4.314   0.406
 9193SOL    HW228479   4.662   4.226   0.290
 9194SOL     OW28480   3.198   1.054   3.424
 9194SOL    HW128481   3.280   0.997   3.415
 9194SOL    HW228482   3.190   1.113   3.343
 9195SOL     OW28483   1.637   2.119   4.502
 9195SOL    HW128484   1.690   2.041   4.469
 9195SOL    HW228485   1.560   2.136   4.439
 9196SOL     OW28486   4.093   0.522   4.677
 9196SOL    HW128487   4.010   0.542   4.728
 9196SOL    HW228488   4.116   0.601   4.619
 9197SOL     OW28489   1.292   4.293   1.357
 9197SOL    HW128490   1.209   4.349   1.361
 9197SOL    HW228491   1.310   4.255   1.448
 9198SOL     OW28492   6.303   5.322   5.450
 9198SOL    HW128493   6.259   5.296   5.536
 9198SOL    HW228494   6.235   5.322   5.376
 9199SOL     OW28495   1.165   3.772   6.422
 9199SOL    HW128496   1.097   3.760   6.350
 9199SOL    HW228497   1.255   3.744   6.388
 9200SOL     OW28498   2.620   0.237   0.801
 9200SOL    HW128499   2.649   0.330   0.778
 9200SOL    HW228500   2.661   0.210   0.888
 9201SOL     OW28501   0.622   2.987   0.453
 9201SOL    HW128502   0.711   2.998   0.496
 9201SOL    HW228503   0.619   3.040   0.369
 9202SOL     OW28504   2.445   6.936   3.412
 9202SOL    HW128505   2.411   6.848   3.379
 9202SOL    HW228506   2.461   6.931   3.510
 9203SOL     OW28507   0.545   5.541   6.586
 9203SOL    HW128508   0.501   5.539   6.496
 9203SOL    HW228509   0.639   5.508   6.577
 9204SOL     OW28510   4.508   2.876   6.731
 9204SOL    HW128511   4.459   2.884   6.644
 9204SOL    HW228512   4.605   2.895   6.717
 9205SOL     OW28513   6.133   4.169   2.569
 9205SOL    HW128514   6.057   4.158   2.633
 9205SOL    HW228515   6.148   4.084   2.519
 9206SOL     OW28516   3.789   5.529   1.253
 9206SOL    HW128517   3.817   5.590   1.179
 9206SOL    HW228518   3.789   5.580   1.339
 9207SOL     OW28519   4.148   4.544   0.090
 9207SOL    HW128520   4.217   4.528   0.019
 9207SOL    HW228521   4.143   4.642   0.110
 9208SOL     OW28522   5.990   4.272   4.184
 9208SOL    HW128523   6.084   4.269   4.151
 9208SOL    HW228524   5.989   4.298   4.280
 9209SOL     OW28525   2.921   0.738   0.096
 9209SOL    HW128526   3.016   0.761   0.116
 9209SOL    HW228527   2.903   0.644   0.125
 9210SOL     OW28528   6.773   1.279   2.848
 9210SOL    HW128529   6.682   1.247   2.824
 9210SOL    HW228530   6.830   1.282   2.766
 9211SOL     OW28531   6.701   2.717   4.233
 9211SOL    HW128532   6.610   2.691   4.198
 9211SOL    HW228533   6.763   2.639   4.223
 9212SOL     OW28534   4.002   5.179   4.163
 9212SOL    HW128535   4.081   5.195   4.103
 9212SOL    HW228536   3.937   5.254   4.154
 9213SOL     OW28537   5.595   2.915   5.228
 9213SOL    HW128538   5.510   2.943   5.272
 9213SOL    HW228539   5.576   2.838   5.167
 9214SOL     OW28540   0.246   5.569   5.628
 9214SOL    HW128541   0.247   5.663   5.594
 9214SOL    HW228542   0.241   5.505   5.551
 9215SOL     OW28543   1.227   2.472   0.214
 9215SOL    HW128544   1.197   2.508   0.302
 9215SOL    HW228545   1.207   2.374   0.209
 9216SOL     OW28546   2.743   0.272   3.291
 9216SOL    HW128547   2.779   0.279   3.384
 9216SOL    HW228548   2.795   0.333   3.230
 9217SOL     OW28549   0.303   0.602   5.804
 9217SOL    HW128550   0.240   0.667   5.762
 9217SOL    HW228551   0.380   0.652   5.843
 9218SOL     OW28552   3.862   6.330   0.498
 9218SOL    HW128553   3.789   6.294   0.439
 9218SOL    HW228554   3.887   6.261   0.566
 9219SOL     OW28555   0.505   2.801   6.958
 9219SOL    HW128556   0.438   2.727   6.955
 9219SOL    HW228557   0.582   2.778   6.897
 9220SOL     OW28558   2.485   6.372   1.481
 9220SOL    HW128559   2.497   6.323   1.567
 9220SOL    HW228560   2.474   6.470   1.499
 9221SOL     OW28561   3.156   0.604   4.296
 9221SOL    HW128562   3.098   0.530   4.329
 9221SOL    HW228563   3.111   0.692   4.312
 9222SOL     OW28564   2.826   0.288   6.877
 9222SOL    HW128565   2.779   0.243   6.953
 9222SOL    HW228566   2.898   0.347   6.913
 9223SOL     OW28567   1.489   1.737   5.140
 9223SOL    HW128568   1.542   1.803   5.193
 9223SOL    HW228569   1.551   1.683   5.083
 9224SOL     OW28570   3.116   5.293   4.812
 9224SOL    HW128571   3.176   5.315   4.888
 9224SOL    HW228572   3.078   5.201   4.824
 9225SOL     OW28573   3.721   6.916   6.057
 9225SOL    HW128574   3.632   6.953   6.031
 9225SOL    HW228575   3.757   6.860   5.983
 9226SOL     OW28576   5.421   6.555   1.795
 9226SOL    HW128577   5.461   6.597   1.876
 9226SOL    HW228578   5.441   6.613   1.715
 9227SOL     OW28579   0.686   5.359   2.999
 9227SOL    HW128580   0.655   5.321   3.086
 9227SOL    HW228581   0.782   5.386   3.007
 9228SOL     OW28582   1.258   0.603   5.842
 9228SOL    HW128583   1.164   0.597   5.878
 9228SOL    HW228584   1.261   0.670   5.768
 9229SOL     OW28585   1.518   5.746   4.635
 9229SOL    HW128586   1.510   5.761   4.537
 9229SOL    HW228587   1.439   5.784   4.682
 9230SOL     OW28588   6.055   0.288   2.547
 9230SOL    HW128589   6.111   0.371   2.543
 9230SOL    HW228590   6.058   0.242   2.458
 9231SOL     OW28591   2.052   3.741   4.006
 9231SOL    HW128592   2.041   3.765   4.102
 9231SOL    HW228593   1.965   3.754   3.958
 9232SOL     OW28594   3.339   5.391   0.803
 9232SOL    HW128595   3.289   5.405   0.889
 9232SOL    HW228596   3.408   5.319   0.817
 9233SOL     OW28597   5.755   4.835   1.481
 9233SOL    HW128598   5.801   4.914   1.441
 9233SOL    HW228599   5.785   4.824   1.576
 9234SOL     OW28600   3.371   5.423   4.173
 9234SOL    HW128601   3.298   5.358   4.192
 9234SOL    HW228602   3.390   5.476   4.256
 9235SOL     OW28603   1.440   2.388   3.403
 9235SOL    HW128604   1.540   2.388   3.398
 9235SOL    HW228605   1.405   2.464   3.347
 9236SOL     OW28606   3.563   4.052   5.350
 9236SOL    HW128607   3.625   3.981   5.384
 9236SOL    HW228608   3.616   4.127   5.310
 9237SOL     OW28609   1.992   4.329   4.845
 9237SOL    HW128610   2.040   4.260   4.790
 9237SOL    HW228611   2.058   4.383   4.897
 9238SOL     OW28612   4.319   2.298   6.352
 9238SOL    HW128613   4.350   2.246   6.432
 9238SOL    HW228614   4.398   2.342   6.309
 9239SOL     OW28615   0.325   3.990   1.124
 9239SOL    HW128616   0.308   3.972   1.027
 9239SOL    HW228617   0.403   3.935   1.155
 9240SOL     OW28618   5.639   1.405   0.507
 9240SOL    HW128619   5.692   1.412   0.592
 9240SOL    HW228620   5.700   1.415   0.429
 9241SOL     OW28621   6.555   5.669   5.907
 9241SOL    HW128622   6.543   5.580   5.953
 9241SOL    HW228623   6.561   5.741   5.975
 9242SOL     OW28624   6.570   5.396   0.371
 9242SOL    HW128625   6.545   5.493   0.360
 9242SOL    HW228626   6.488   5.343   0.392
 9243SOL     OW28627   6.114   5.877   3.009
 9243SOL    HW128628   6.095   5.934   3.089
 9243SOL    HW228629   6.094   5.781   3.030
 9244SOL     OW28630   4.461   5.267   6.028
 9244SOL    HW128631   4.472   5.359   6.065
 9244SOL    HW228632   4.441   5.203   6.103
 9245SOL     OW28633   1.153   5.285   2.498
 9245SOL    HW128634   1.200   5.350   2.557
 9245SOL    HW228635   1.206   5.200   2.494
 9246SOL     OW28636   5.718   4.645   3.454
 9246SOL    HW128637   5.706   4.713   3.526
 9246SOL    HW228638   5.800   4.665   3.401
 9247SOL     OW28639   0.298   6.712   3.203
 9247SOL    HW128640   0.332   6.765   3.125
 9247SOL    HW228641   0.370   6.651   3.236
 9248SOL     OW28642   2.095   2.670   6.012
 9248SOL    HW128643   2.146   2.685   5.927
 9248SOL    HW228644   2.003   2.636   5.989
 9249SOL     OW28645   5.531   2.806   5.614
 9249SOL    HW128646   5.467   2.792   5.539
 9249SOL    HW228647   5.605   2.739   5.608
 9250SOL     OW28648   5.324   4.089   5.014
 9250SOL    HW128649   5.403   4.090   4.953
 9250SOL    HW228650   5.304   3.995   5.042
 9251SOL     OW28651   3.665   2.108   3.542
 9251SOL    HW128652   3.655   2.014   3.574
 9251SOL    HW228653   3.747   2.116   3.485
 9252SOL     OW28654   6.700   0.643   4.276
 9252SOL    HW128655   6.730   0.646   4.371
 9252SOL    HW228656   6.710   0.734   4.235
 9253SOL     OW28657   4.281   5.962   5.888
 9253SOL    HW128658   4.285   5.891   5.818
 9253SOL    HW228659   4.196   5.952   5.940
 9254SOL     OW28660   6.059   3.790   1.759
 9254SOL    HW128661   6.040   3.880   1.798
 9254SOL    HW228662   6.007   3.779   1.674
 9255SOL     OW28663   5.116   2.884   0.154
 9255SOL    HW128664   5.055   2.805   0.159
 9255SOL    HW228665   5.063   2.967   0.139
 9256SOL     OW28666   4.049   5.043   3.425
 9256SOL    HW128667   4.053   5.016   3.522
 9256SOL    HW228668   4.122   4.998   3.375
 9257SOL     OW28669   0.764   4.116   2.712
 9257SOL    HW128670   0.756   4.017   2.719
 9257SOL    HW228671   0.833   4.139   2.644
 9258SOL     OW28672   3.847   2.988   3.909
 9258SOL    HW128673   3.792   3.037   3.842
 9258SOL    HW228674   3.940   3.025   3.909
 9259SOL     OW28675   1.441   2.420   0.986
 9259SOL    HW128676   1.369   2.365   0.944
 9259SOL    HW228677   1.405   2.511   1.008
 9260SOL     OW28678   5.047   2.180   5.376
 9260SOL    HW128679   5.114   2.253   5.392
 9260SOL    HW228680   4.955   2.214   5.397
 9261SOL     OW28681   4.073   0.080   6.395
 9261SOL    HW128682   4.103   0.093   6.301
 9261SOL    HW228683   4.088   7.010   6.422
 9262SOL     OW28684   6.219   2.489   5.672
 9262SOL    HW128685   6.206   2.573   5.725
 9262SOL    HW228686   6.144   2.426   5.691
 9263SOL     OW28687   6.400   3.733   1.403
 9263SOL    HW128688   6.466   3.791   1.356
 9263SOL    HW228689   6.351   3.788   1.472
 9264SOL     OW28690   6.181   3.729   0.061
 9264SOL    HW128691   6.136   3.794   0.123
 9264SOL    HW228692   6.276   3.757   0.046
 9265SOL     OW28693   3.543   1.463   7.005
 9265SOL    HW128694   3.596   1.379   7.016
 9265SOL    HW228695   3.483   1.476   0.059
 9266SOL     OW28696   2.600   6.478   3.185
 9266SOL    HW128697   2.520   6.429   3.219
 9266SOL    HW228698   2.637   6.430   3.105
 9267SOL     OW28699   0.051   4.065   5.584
 9267SOL    HW128700   0.114   4.125   5.634
 9267SOL    HW228701   7.005   4.032   5.647
 9268SOL     OW28702   0.783   6.503   2.473
 9268SOL    HW128703   0.790   6.442   2.393
 9268SOL    HW228704   0.837   6.465   2.548
 9269SOL     OW28705   2.892   2.039   6.953
 9269SOL    HW128706   2.858   2.124   6.994
 9269SOL    HW228707   2.936   1.984   7.024
 9270SOL     OW28708   5.396   6.548   5.527
 9270SOL    HW128709   5.366   6.582   5.438
 9270SOL    HW228710   5.341   6.591   5.599
 9271SOL     OW28711   1.519   6.108   1.171
 9271SOL    HW128712   1.590   6.042   1.195
 9271SOL    HW228713   1.550   6.164   1.094
 9272SOL     OW28714   3.145   4.716   6.150
 9272SOL    HW128715   3.100   4.731   6.238
 9272SOL    HW228716   3.244   4.715   6.163
 9273SOL     OW28717   5.242   6.012   3.628
 9273SOL    HW128718   5.160   5.956   3.645
 9273SOL    HW228719   5.309   5.995   3.700
 9274SOL     OW28720   5.769   1.903   6.492
 9274SOL    HW128721   5.864   1.880   6.471
 9274SOL    HW228722   5.741   1.858   6.576
 9275SOL     OW28723   0.304   1.067   0.013
 9275SOL    HW128724   0.288   1.132   6.964
 9275SOL    HW228725   0.261   0.979   7.015
 9276SOL     OW28726   2.352   4.872   4.477
 9276SOL    HW128727   2.412   4.950   4.493
 9276SOL    HW228728   2.269   4.882   4.532
 9277SOL     OW28729   3.976   3.894   0.282
 9277SOL    HW128730   3.938   3.802   0.287
 9277SOL    HW228731   4.028   3.913   0.366
 9278SOL     OW28732   1.838   1.048   4.140
 9278SOL    HW128733   1.809   1.143   4.130
 9278SOL    HW228734   1.934   1.039   4.112
 9279SOL     OW28735   4.689   0.694   1.828
 9279SOL    HW128736   4.734   0.714   1.915
 9279SOL    HW228737   4.607   0.750   1.819
 9280SOL     OW28738   1.652   0.263   3.946
 9280SOL    HW128739   1.623   0.298   3.857
 9280SOL    HW228740   1.714   0.185   3.933
 9281SOL     OW28741   3.243   3.535   0.679
 9281SOL    HW128742   3.156   3.497   0.646
 9281SOL    HW228743   3.250   3.520   0.778
 9282SOL     OW28744   5.047   2.401   3.962
 9282SOL    HW128745   5.074   2.308   3.940
 9282SOL    HW228746   4.948   2.412   3.949
 9283SOL     OW28747   6.488   1.190   2.497
 9283SOL    HW128748   6.518   1.103   2.457
 9283SOL    HW228749   6.412   1.226   2.444
 9284SOL     OW28750   3.927   4.757   6.969
 9284SOL    HW128751   3.829   4.740   6.979
 9284SOL    HW228752   3.970   4.681   6.922
 9285SOL     OW28753   5.200   2.837   0.474
 9285SOL    HW128754   5.156   2.817   0.386
 9285SOL    HW228755   5.133   2.831   0.547
 9286SOL     OW28756   6.083   0.303   5.483
 9286SOL    HW128757   6.085   0.205   5.502
 9286SOL    HW228758   6.027   0.320   5.402
 9287SOL     OW28759   3.527   5.610   1.216
 9287SOL    HW128760   3.612   5.563   1.239
 9287SOL    HW228761   3.460   5.544   1.183
 9288SOL     OW28762   3.559   1.186   5.709
 9288SOL    HW128763   3.485   1.244   5.675
 9288SOL    HW228764   3.647   1.223   5.677
 9289SOL     OW28765   3.966   1.834   2.452
 9289SOL    HW128766   3.931   1.774   2.524
 9289SOL    HW228767   3.894   1.851   2.384
 9290SOL     OW28768   4.290   1.556   4.702
 9290SOL    HW128769   4.335   1.494   4.637
 9290SOL    HW228770   4.191   1.549   4.692
 9291SOL     OW28771   2.198   0.737   5.754
 9291SOL    HW128772   2.257   0.794   5.811
 9291SOL    HW228773   2.192   0.776   5.662
 9292SOL     OW28774   6.505   3.185   5.776
 9292SOL    HW128775   6.467   3.218   5.690
 9292SOL    HW228776   6.536   3.263   5.831
 9293SOL     OW28777   6.278   4.184   0.807
 9293SOL    HW128778   6.236   4.131   0.881
 9293SOL    HW228779   6.259   4.138   0.719
 9294SOL     OW28780   3.833   6.314   5.889
 9294SOL    HW128781   3.743   6.351   5.911
 9294SOL    HW228782   3.829   6.214   5.891
 9295SOL     OW28783   5.121   1.496   3.387
 9295SOL    HW128784   5.162   1.418   3.339
 9295SOL    HW228785   5.099   1.568   3.321
 9296SOL     OW28786   0.103   6.712   6.136
 9296SOL    HW128787   0.047   6.634   6.109
 9296SOL    HW228788   0.173   6.683   6.201
 9297SOL     OW28789   0.055   0.400   1.202
 9297SOL    HW128790   0.136   0.352   1.237
 9297SOL    HW228791   0.056   0.495   1.233
 9298SOL     OW28792   1.896   6.465   5.955
 9298SOL    HW128793   1.910   6.405   5.876
 9298SOL    HW228794   1.821   6.529   5.935
 9299SOL     OW28795   1.227   3.369   4.391
 9299SOL    HW128796   1.167   3.316   4.331
 9299SOL    HW228797   1.179   3.389   4.477
 9300SOL     OW28798   6.449   4.878   4.619
 9300SOL    HW128799   6.449   4.952   4.552
 9300SOL    HW228800   6.436   4.915   4.711
 9301SOL     OW28801   4.854   4.463   3.436
 9301SOL    HW128802   4.830   4.546   3.386
 9301SOL    HW228803   4.952   4.447   3.430
 9302SOL     OW28804   2.217   2.913   3.854
 9302SOL    HW128805   2.205   2.818   3.824
 9302SOL    HW228806   2.275   2.916   3.935
 9303SOL     OW28807   3.514   5.915   0.673
 9303SOL    HW128808   3.508   6.015   0.666
 9303SOL    HW228809   3.431   5.879   0.716
 9304SOL     OW28810   4.380   3.937   0.670
 9304SOL    HW128811   4.455   3.871   0.673
 9304SOL    HW228812   4.379   3.990   0.755
 9305SOL     OW28813   4.862   1.425   1.377
 9305SOL    HW128814   4.807   1.390   1.301
 9305SOL    HW228815   4.946   1.467   1.341
 9306SOL     OW28816   0.486   4.972   5.136
 9306SOL    HW128817   0.568   5.028   5.124
 9306SOL    HW228818   0.488   4.896   5.071
 9307SOL     OW28819   1.018   2.930   0.910
 9307SOL    HW128820   1.113   2.925   0.941
 9307SOL    HW228821   0.977   3.015   0.943
 9308SOL     OW28822   0.731   4.376   1.279
 9308SOL    HW128823   0.646   4.331   1.308
 9308SOL    HW228824   0.793   4.309   1.240
 9309SOL     OW28825   3.945   5.265   5.181
 9309SOL    HW128826   4.032   5.273   5.229
 9309SOL    HW228827   3.887   5.343   5.204
 9310SOL     OW28828   4.255   5.939   6.326
 9310SOL    HW128829   4.193   5.964   6.252
 9310SOL    HW228830   4.208   5.879   6.391
 9311SOL     OW28831   6.104   4.464   1.034
 9311SOL    HW128832   6.017   4.513   1.041
 9311SOL    HW228833   6.099   4.381   1.089
 9312SOL     OW28834   2.323   4.573   0.708
 9312SOL    HW128835   2.332   4.532   0.799
 9312SOL    HW228836   2.289   4.505   0.644
 9313SOL     OW28837   0.171   0.718   1.428
 9313SOL    HW128838   0.084   0.686   1.466
 9313SOL    HW228839   0.163   0.726   1.328
 9314SOL     OW28840   4.475   5.051   6.681
 9314SOL    HW128841   4.549   5.041   6.614
 9314SOL    HW228842   4.391   5.011   6.644
 9315SOL     OW28843   6.477   0.465   4.972
 9315SOL    HW128844   6.413   0.403   5.016
 9315SOL    HW228845   6.571   0.434   4.988
 9316SOL     OW28846   4.437   5.722   4.967
 9316SOL    HW128847   4.409   5.818   4.970
 9316SOL    HW228848   4.531   5.714   4.999
 9317SOL     OW28849   6.099   6.264   2.752
 9317SOL    HW128850   6.039   6.183   2.753
 9317SOL    HW228851   6.185   6.241   2.797
 9318SOL     OW28852   6.661   1.268   4.677
 9318SOL    HW128853   6.684   1.364   4.688
 9318SOL    HW228854   6.643   1.228   4.767
 9319SOL     OW28855   0.652   2.776   6.147
 9319SOL    HW128856   0.715   2.796   6.071
 9319SOL    HW228857   0.598   2.694   6.125
 9320SOL     OW28858   4.378   1.878   5.975
 9320SOL    HW128859   4.297   1.900   6.029
 9320SOL    HW228860   4.361   1.797   5.919
 9321SOL     OW28861   6.271   0.027   2.225
 9321SOL    HW128862   6.328   6.998   2.163
 9321SOL    HW228863   6.317   0.038   2.313
 9322SOL     OW28864   6.933   6.176   6.065
 9322SOL    HW128865   6.928   6.154   5.968
 9322SOL    HW228866   6.904   6.096   6.119
 9323SOL     OW28867   1.567   0.557   5.661
 9323SOL    HW128868   1.616   0.597   5.584
 9323SOL    HW228869   1.476   0.528   5.630
 9324SOL     OW28870   1.585   5.149   0.156
 9324SOL    HW128871   1.621   5.140   0.064
 9324SOL    HW228872   1.639   5.094   0.220
 9325SOL     OW28873   5.086   1.947   0.995
 9325SOL    HW128874   4.987   1.950   0.994
 9325SOL    HW228875   5.123   2.039   0.992
 9326SOL     OW28876   2.691   6.807   1.198
 9326SOL    HW128877   2.666   6.833   1.291
 9326SOL    HW228878   2.705   6.708   1.193
 9327SOL     OW28879   5.257   6.652   2.896
 9327SOL    HW128880   5.197   6.660   2.976
 9327SOL    HW228881   5.260   6.740   2.849
 9328SOL     OW28882   3.970   1.306   6.209
 9328SOL    HW128883   3.902   1.355   6.264
 9328SOL    HW228884   4.039   1.265   6.269
 9329SOL     OW28885   0.234   3.646   2.748
 9329SOL    HW128886   0.293   3.566   2.735
 9329SOL    HW228887   0.138   3.619   2.736
 9330SOL     OW28888   0.193   5.798   0.342
 9330SOL    HW128889   0.231   5.707   0.330
 9330SOL    HW228890   0.134   5.799   0.423
 9331SOL     OW28891   0.614   1.167   6.037
 9331SOL    HW128892   0.592   1.216   6.122
 9331SOL    HW228893   0.627   1.234   5.964
 9332SOL     OW28894   3.323   4.070   2.985
 9332SOL    HW128895   3.286   4.115   2.904
 9332SOL    HW228896   3.259   3.999   3.016
 9333SOL     OW28897   5.412   3.861   1.325
 9333SOL    HW128898   5.315   3.843   1.338
 9333SOL    HW228899   5.447   3.805   1.250
 9334SOL     OW28900   3.816   6.903   3.494
 9334SOL    HW128901   3.823   6.926   3.592
 9334SOL    HW228902   3.824   6.804   3.483
 9335SOL     OW28903   1.379   1.158   6.427
 9335SOL    HW128904   1.309   1.133   6.494
 9335SOL    HW228905   1.416   1.076   6.384
 9336SOL     OW28906   3.454   6.111   6.418
 9336SOL    HW128907   3.363   6.153   6.419
 9336SOL    HW228908   3.450   6.023   6.465
 9337SOL     OW28909   5.020   0.598   2.831
 9337SOL    HW128910   4.987   0.687   2.797
 9337SOL    HW228911   5.045   0.541   2.753
 9338SOL     OW28912   4.459   0.527   2.260
 9338SOL    HW128913   4.461   0.469   2.178
 9338SOL    HW228914   4.365   0.533   2.293
 9339SOL     OW28915   5.881   0.089   0.370
 9339SOL    HW128916   5.905   7.017   0.361
 9339SOL    HW228917   5.841   0.122   0.285
 9340SOL     OW28918   5.339   3.693   5.329
 9340SOL    HW128919   5.352   3.615   5.391
 9340SOL    HW228920   5.410   3.762   5.347
 9341SOL     OW28921   1.514   5.876   6.889
 9341SOL    HW128922   1.439   5.818   6.856
 9341SOL    HW228923   1.479   5.936   6.962
 9342SOL     OW28924   2.483   0.701   4.468
 9342SOL    HW128925   2.558   0.649   4.427
 9342SOL    HW228926   2.487   0.693   4.567
 9343SOL     OW28927   6.051   4.508   3.899
 9343SOL    HW128928   6.043   4.465   3.989
 9343SOL    HW228929   6.134   4.563   3.896
 9344SOL     OW28930   4.567   5.816   1.358
 9344SOL    HW128931   4.511   5.760   1.419
 9344SOL    HW228932   4.566   5.777   1.266
 9345SOL     OW28933   6.286   2.803   2.055
 9345SOL    HW128934   6.247   2.801   1.963
 9345SOL    HW228935   6.281   2.711   2.094
 9346SOL     OW28936   6.074   0.879   1.035
 9346SOL    HW128937   5.983   0.865   1.076
 9346SOL    HW228938   6.068   0.949   0.964
 9347SOL     OW28939   1.851   5.312   1.331
 9347SOL    HW128940   1.896   5.223   1.340
 9347SOL    HW228941   1.777   5.306   1.264
 9348SOL     OW28942   4.321   5.435   1.289
 9348SOL    HW128943   4.415   5.438   1.323
 9348SOL    HW228944   4.292   5.527   1.263
 9349SOL     OW28945   0.682   0.213   2.404
 9349SOL    HW128946   0.756   0.151   2.376
 9349SOL    HW228947   0.719   0.284   2.464
 9350SOL     OW28948   0.716   2.370   5.951
 9350SOL    HW128949   0.762   2.314   6.020
 9350SOL    HW228950   0.734   2.332   5.860
 9351SOL     OW28951   3.547   1.561   6.762
 9351SOL    HW128952   3.554   1.470   6.721
 9351SOL    HW228953   3.545   1.552   6.862
 9352SOL     OW28954   2.636   3.776   0.154
 9352SOL    HW128955   2.551   3.763   0.104
 9352SOL    HW228956   2.664   3.689   0.195
 9353SOL     OW28957   0.834   5.107   1.785
 9353SOL    HW128958   0.864   5.074   1.874
 9353SOL    HW228959   0.736   5.127   1.788
 9354SOL     OW28960   6.629   2.753   6.447
 9354SOL    HW128961   6.614   2.664   6.492
 9354SOL    HW228962   6.726   2.777   6.451
 9355SOL     OW28963   1.112   2.037   4.557
 9355SOL    HW128964   1.202   2.068   4.588
 9355SOL    HW228965   1.124   1.970   4.483
 9356SOL     OW28966   4.146   6.732   1.224
 9356SOL    HW128967   4.196   6.650   1.198
 9356SOL    HW228968   4.170   6.807   1.163
 9357SOL     OW28969   1.209   2.154   6.753
 9357SOL    HW128970   1.242   2.059   6.757
 9357SOL    HW228971   1.112   2.154   6.732
 9358SOL     OW28972   0.019   4.057   2.457
 9358SOL    HW128973   7.016   3.977   2.404
 9358SOL    HW228974   6.966   4.120   2.466
 9359SOL     OW28975   2.003   6.011   6.304
 9359SOL    HW128976   2.021   5.926   6.255
 9359SOL    HW228977   2.068   6.081   6.275
 9360SOL     OW28978   1.587   0.026   6.759
 9360SOL    HW128979   1.520   0.030   6.833
 9360SOL    HW228980   1.618   6.957   6.747
 9361SOL     OW28981   1.644   6.387   3.965
 9361SOL    HW128982   1.656   6.485   3.951
 9361SOL    HW228983   1.566   6.355   3.910
 9362SOL     OW28984   1.874   1.076   1.996
 9362SOL    HW128985   1.935   1.048   2.070
 9362SOL    HW228986   1.816   0.998   1.971
 9363SOL     OW28987   2.910   5.201   2.434
 9363SOL    HW128988   2.956   5.114   2.454
 9363SOL    HW228989   2.852   5.190   2.353
 9364SOL     OW28990   2.403   2.509   1.975
 9364SOL    HW128991   2.475   2.552   2.030
 9364SOL    HW228992   2.323   2.569   1.974
 9365SOL     OW28993   3.278   1.920   4.463
 9365SOL    HW128994   3.276   1.883   4.370
 9365SOL    HW228995   3.217   1.865   4.521
 9366SOL     OW28996   3.464   5.640   0.829
 9366SOL    HW128997   3.385   5.700   0.838
 9366SOL    HW228998   3.435   5.544   0.839
 9367SOL     OW28999   5.172   6.868   1.377
 9367SOL    HW129000   5.184   6.895   1.472
 9367SOL    HW229001   5.129   6.943   1.326
 9368SOL     OW29002   3.995   0.447   2.799
 9368SOL    HW129003   4.076   0.500   2.773
 9368SOL    HW229004   4.024   0.359   2.837
 9369SOL     OW29005   1.203   5.690   6.375
 9369SOL    HW129006   1.146   5.704   6.456
 9369SOL    HW229007   1.172   5.749   6.301
 9370SOL     OW29008   4.062   1.379   4.451
 9370SOL    HW129009   4.135   1.392   4.518
 9370SOL    HW229010   4.025   1.468   4.423
 9371SOL     OW29011   3.747   5.694   1.485
 9371SOL    HW129012   3.701   5.781   1.504
 9371SOL    HW229013   3.683   5.619   1.502
 9372SOL     OW29014   4.643   6.903   1.543
 9372SOL    HW129015   4.563   6.856   1.582
 9372SOL    HW229016   4.672   6.855   1.460
 9373SOL     OW29017   5.859   2.227   6.705
 9373SOL    HW129018   5.806   2.200   6.625
 9373SOL    HW229019   5.920   2.153   6.731
 9374SOL     OW29020   0.800   4.898   6.240
 9374SOL    HW129021   0.847   4.850   6.314
 9374SOL    HW229022   0.797   4.839   6.159
 9375SOL     OW29023   6.826   1.720   6.560
 9375SOL    HW129024   6.842   1.777   6.479
 9375SOL    HW229025   6.908   1.720   6.617
 9376SOL     OW29026   2.067   3.438   2.283
 9376SOL    HW129027   2.126   3.455   2.205
 9376SOL    HW229028   1.987   3.385   2.254
 9377SOL     OW29029   1.761   5.324   2.349
 9377SOL    HW129030   1.854   5.356   2.332
 9377SOL    HW229031   1.755   5.287   2.441
 9378SOL     OW29032   3.720   0.972   3.783
 9378SOL    HW129033   3.786   1.047   3.788
 9378SOL    HW229034   3.628   1.008   3.799
 9379SOL     OW29035   3.522   6.290   4.830
 9379SOL    HW129036   3.580   6.233   4.773
 9379SOL    HW229037   3.484   6.365   4.776
 9380SOL     OW29038   4.151   5.590   6.291
 9380SOL    HW129039   4.170   5.496   6.319
 9380SOL    HW229040   4.233   5.630   6.251
 9381SOL     OW29041   5.340   1.331   4.583
 9381SOL    HW129042   5.391   1.316   4.498
 9381SOL    HW229043   5.291   1.418   4.577
 9382SOL     OW29044   3.336   0.431   4.190
 9382SOL    HW129045   3.301   0.496   4.258
 9382SOL    HW229046   3.267   0.361   4.172
 9383SOL     OW29047   4.795   3.971   3.802
 9383SOL    HW129048   4.787   3.989   3.900
 9383SOL    HW229049   4.820   4.056   3.755
 9384SOL     OW29050   1.606   0.078   2.178
 9384SOL    HW129051   1.669   0.154   2.159
 9384SOL    HW229052   1.512   0.108   2.164
 9385SOL     OW29053   4.106   1.551   3.730
 9385SOL    HW129054   4.046   1.474   3.750
 9385SOL    HW229055   4.189   1.544   3.785
 9386SOL     OW29056   4.206   5.619   5.067
 9386SOL    HW129057   4.295   5.652   5.037
 9386SOL    HW229058   4.136   5.645   5.000
 9387SOL     OW29059   3.477   2.159   0.136
 9387SOL    HW129060   3.404   2.115   0.188
 9387SOL    HW229061   3.553   2.095   0.123
 9388SOL     OW29062   2.201   6.825   4.152
 9388SOL    HW129063   2.121   6.769   4.173
 9388SOL    HW229064   2.247   6.788   4.071
 9389SOL     OW29065   3.766   5.202   2.425
 9389SOL    HW129066   3.826   5.165   2.496
 9389SOL    HW229067   3.789   5.163   2.336
 9390SOL     OW29068   5.012   4.696   5.623
 9390SOL    HW129069   5.058   4.608   5.607
 9390SOL    HW229070   4.965   4.724   5.539
 9391SOL     OW29071   0.989   6.303   4.376
 9391SOL    HW129072   1.088   6.312   4.361
 9391SOL    HW229073   0.946   6.268   4.293
 9392SOL     OW29074   5.176   3.904   2.870
 9392SOL    HW129075   5.177   3.944   2.779
 9392SOL    HW229076   5.262   3.923   2.917
 9393SOL     OW29077   3.125   6.425   6.161
 9393SOL    HW129078   3.060   6.500   6.148
 9393SOL    HW229079   3.088   6.341   6.122
 9394SOL     OW29080   5.058   0.105   1.315
 9394SOL    HW129081   4.971   0.065   1.285
 9394SOL    HW229082   5.050   0.205   1.314
 9395SOL     OW29083   2.886   1.772   0.615
 9395SOL    HW129084   2.823   1.724   0.554
 9395SOL    HW229085   2.853   1.765   0.709
 9396SOL     OW29086   1.436   6.152   6.787
 9396SOL    HW129087   1.355   6.093   6.796
 9396SOL    HW229088   1.507   6.103   6.737
 9397SOL     OW29089   4.107   0.128   6.065
 9397SOL    HW129090   4.159   0.043   6.056
 9397SOL    HW229091   4.040   0.134   5.992
 9398SOL     OW29092   6.535   1.726   6.586
 9398SOL    HW129093   6.635   1.726   6.573
 9398SOL    HW229094   6.499   1.817   6.565
 9399SOL     OW29095   2.056   2.704   3.788
 9399SOL    HW129096   1.992   2.771   3.826
 9399SOL    HW229097   2.013   2.615   3.783
 9400SOL     OW29098   5.394   1.022   0.376
 9400SOL    HW129099   5.404   1.009   0.277
 9400SOL    HW229100   5.400   0.933   0.422
 9401SOL     OW29101   0.902   1.591   2.688
 9401SOL    HW129102   0.849   1.583   2.603
 9401SOL    HW229103   0.851   1.646   2.754
 9402SOL     OW29104   1.287   5.535   3.596
 9402SOL    HW129105   1.191   5.534   3.566
 9402SOL    HW229106   1.341   5.591   3.533
 9403SOL     OW29107   6.415   1.829   2.033
 9403SOL    HW129108   6.500   1.851   2.081
 9403SOL    HW229109   6.353   1.782   2.097
 9404SOL     OW29110   2.174   3.401   1.010
 9404SOL    HW129111   2.140   3.396   0.916
 9404SOL    HW229112   2.272   3.421   1.008
 9405SOL     OW29113   0.192   4.666   5.504
 9405SOL    HW129114   0.113   4.667   5.443
 9405SOL    HW229115   0.208   4.759   5.539
 9406SOL     OW29116   0.156   2.833   6.875
 9406SOL    HW129117   0.183   2.873   6.788
 9406SOL    HW229118   0.196   2.886   6.950
 9407SOL     OW29119   2.021   4.996   5.245
 9407SOL    HW129120   2.064   5.086   5.242
 9407SOL    HW229121   2.003   4.964   5.152
 9408SOL     OW29122   6.656   4.832   5.054
 9408SOL    HW129123   6.688   4.752   5.003
 9408SOL    HW229124   6.714   4.911   5.032
 9409SOL     OW29125   6.398   5.040   2.341
 9409SOL    HW129126   6.390   4.942   2.356
 9409SOL    HW229127   6.491   5.070   2.364
 9410SOL     OW29128   3.983   0.441   1.592
 9410SOL    HW129129   3.997   0.535   1.561
 9410SOL    HW229130   3.887   0.428   1.617
 9411SOL     OW29131   3.745   3.125   3.706
 9411SOL    HW129132   3.775   3.208   3.660
 9411SOL    HW229133   3.757   3.047   3.644
 9412SOL     OW29134   6.796   0.109   1.371
 9412SOL    HW129135   6.792   0.196   1.322
 9412SOL    HW229136   6.712   0.098   1.424
 9413SOL     OW29137   4.059   5.124   3.688
 9413SOL    HW129138   4.150   5.093   3.662
 9413SOL    HW229139   4.067   5.211   3.738
 9414SOL     OW29140   2.202   2.015   4.896
 9414SOL    HW129141   2.151   2.046   4.815
 9414SOL    HW229142   2.300   2.028   4.880
 9415SOL     OW29143   3.954   0.626   2.416
 9415SOL    HW129144   3.890   0.580   2.477
 9415SOL    HW229145   3.924   0.720   2.400
 9416SOL     OW29146   6.617   5.295   6.237
 9416SOL    HW129147   6.634   5.349   6.320
 9416SOL    HW229148   6.524   5.259   6.240
 9417SOL     OW29149   3.589   5.927   1.478
 9417SOL    HW129150   3.535   5.971   1.549
 9417SOL    HW229151   3.666   5.986   1.453
 9418SOL     OW29152   3.261   2.129   4.667
 9418SOL    HW129153   3.235   2.033   4.665
 9418SOL    HW229154   3.333   2.146   4.601
 9419SOL     OW29155   2.643   2.899   0.027
 9419SOL    HW129156   2.714   2.946   7.001
 9419SOL    HW229157   2.684   2.841   0.097
 9420SOL     OW29158   5.230   3.461   0.020
 9420SOL    HW129159   5.249   3.372   0.061
 9420SOL    HW229160   5.141   3.459   7.000
 9421SOL     OW29161   3.538   6.539   5.660
 9421SOL    HW129162   3.619   6.481   5.655
 9421SOL    HW229163   3.558   6.618   5.718
 9422SOL     OW29164   2.170   5.922   4.774
 9422SOL    HW129165   2.100   5.990   4.752
 9422SOL    HW229166   2.148   5.878   4.861
 9423SOL     OW29167   4.160   5.707   2.957
 9423SOL    HW129168   4.130   5.620   2.995
 9423SOL    HW229169   4.176   5.697   2.859
 9424SOL     OW29170   5.645   0.589   4.565
 9424SOL    HW129171   5.590   0.508   4.581
 9424SOL    HW229172   5.729   0.564   4.517
 9425SOL     OW29173   6.659   4.872   0.664
 9425SOL    HW129174   6.658   4.774   0.680
 9425SOL    HW229175   6.753   4.904   0.657
 9426SOL     OW29176   0.116   2.601   6.188
 9426SOL    HW129177   0.144   2.509   6.216
 9426SOL    HW229178   0.020   2.615   6.212
 9427SOL     OW29179   3.775   6.203   3.184
 9427SOL    HW129180   3.756   6.257   3.267
 9427SOL    HW229181   3.715   6.123   3.182
 9428SOL     OW29182   6.536   0.171   6.497
 9428SOL    HW129183   6.551   0.263   6.462
 9428SOL    HW229184   6.456   0.130   6.453
 9429SOL     OW29185   1.980   2.200   4.333
 9429SOL    HW129186   1.902   2.257   4.358
 9429SOL    HW229187   2.054   2.215   4.399
 9430SOL     OW29188   0.783   2.306   4.540
 9430SOL    HW129189   0.847   2.322   4.615
 9430SOL    HW229190   0.832   2.309   4.453
 9431SOL     OW29191   0.284   4.770   6.447
 9431SOL    HW129192   0.220   4.797   6.520
 9431SOL    HW229193   0.237   4.710   6.382
 9432SOL     OW29194   6.985   1.539   3.215
 9432SOL    HW129195   6.956   1.521   3.309
 9432SOL    HW229196   6.952   1.629   3.186
 9433SOL     OW29197   3.923   6.391   2.825
 9433SOL    HW129198   3.890   6.299   2.800
 9433SOL    HW229199   3.933   6.446   2.742
 9434SOL     OW29200   5.148   5.134   4.051
 9434SOL    HW129201   5.217   5.121   3.978
 9434SOL    HW229202   5.193   5.170   4.132
 9435SOL     OW29203   0.495   3.209   1.368
 9435SOL    HW129204   0.537   3.234   1.456
 9435SOL    HW229205   0.433   3.281   1.339
 9436SOL     OW29206   0.892   0.323   3.662
 9436SOL    HW129207   0.843   0.408   3.642
 9436SOL    HW229208   0.966   0.342   3.726
 9437SOL     OW29209   6.513   5.445   4.728
 9437SOL    HW129210   6.590   5.442   4.665
 9437SOL    HW229211   6.522   5.525   4.788
 9438SOL     OW29212   2.979   5.993   1.790
 9438SOL    HW129213   2.926   6.077   1.805
 9438SOL    HW229214   2.917   5.915   1.792
 9439SOL     OW29215   1.182   2.839   0.263
 9439SOL    HW129216   1.210   2.815   0.170
 9439SOL    HW229217   1.101   2.785   0.288
 9440SOL     OW29218   2.453   5.188   2.790
 9440SOL    HW129219   2.517   5.130   2.840
 9440SOL    HW229220   2.359   5.163   2.814
 9441SOL     OW29221   6.544   6.279   4.505
 9441SOL    HW129222   6.584   6.227   4.580
 9441SOL    HW229223   6.504   6.217   4.438
 9442SOL     OW29224   4.424   4.009   0.327
 9442SOL    HW129225   4.405   3.911   0.329
 9442SOL    HW229226   4.486   4.033   0.402
 9443SOL     OW29227   2.070   4.292   2.967
 9443SOL    HW129228   2.044   4.327   2.877
 9443SOL    HW229229   2.092   4.195   2.960
 9444SOL     OW29230   1.421   4.258   0.297
 9444SOL    HW129231   1.332   4.301   0.318
 9444SOL    HW229232   1.474   4.252   0.381
 9445SOL     OW29233   0.364   2.019   4.016
 9445SOL    HW129234   0.292   1.968   3.969
 9445SOL    HW229235   0.366   2.113   3.982
 9446SOL     OW29236   6.583   4.867   3.051
 9446SOL    HW129237   6.678   4.885   3.078
 9446SOL    HW229238   6.526   4.862   3.133
 9447SOL     OW29239   5.611   5.129   2.213
 9447SOL    HW129240   5.631   5.032   2.203
 9447SOL    HW229241   5.652   5.180   2.138
 9448SOL     OW29242   5.538   0.418   5.639
 9448SOL    HW129243   5.504   0.446   5.549
 9448SOL    HW229244   5.464   0.376   5.691
 9449SOL     OW29245   6.303   0.290   1.969
 9449SOL    HW129246   6.367   0.304   1.894
 9449SOL    HW229247   6.217   0.254   1.932
 9450SOL     OW29248   1.863   6.036   4.185
 9450SOL    HW129249   1.826   6.125   4.158
 9450SOL    HW229250   1.959   6.046   4.210
 9451SOL     OW29251   3.799   6.169   6.441
 9451SOL    HW129252   3.836   6.234   6.508
 9451SOL    HW229253   3.719   6.209   6.396
 9452SOL     OW29254   6.789   4.003   0.671
 9452SOL    HW129255   6.706   4.047   0.706
 9452SOL    HW229256   6.865   4.018   0.735
 9453SOL     OW29257   4.036   6.122   3.110
 9453SOL    HW129258   4.052   6.210   3.065
 9453SOL    HW229259   3.955   6.128   3.168
 9454SOL     OW29260   5.080   4.072   0.407
 9454SOL    HW129261   5.066   4.025   0.494
 9454SOL    HW229262   5.106   4.005   0.337
 9455SOL     OW29263   2.791   2.131   2.204
 9455SOL    HW129264   2.697   2.129   2.238
 9455SOL    HW229265   2.803   2.213   2.146
 9456SOL     OW29266   6.585   2.890   2.112
 9456SOL    HW129267   6.489   2.867   2.099
 9456SOL    HW229268   6.636   2.807   2.137
 9457SOL     OW29269   6.881   5.334   3.867
 9457SOL    HW129270   6.859   5.431   3.871
 9457SOL    HW229271   6.980   5.322   3.869
 9458SOL     OW29272   6.097   3.767   6.830
 9458SOL    HW129273   6.154   3.717   6.764
 9458SOL    HW229274   6.136   3.757   6.922
 9459SOL     OW29275   5.149   5.106   4.811
 9459SOL    HW129276   5.182   5.103   4.717
 9459SOL    HW229277   5.054   5.077   4.815
 9460SOL     OW29278   1.235   2.148   2.811
 9460SOL    HW129279   1.249   2.063   2.759
 9460SOL    HW229280   1.211   2.125   2.906
 9461SOL     OW29281   1.226   2.239   2.454
 9461SOL    HW129282   1.201   2.327   2.495
 9461SOL    HW229283   1.314   2.208   2.493
 9462SOL     OW29284   1.873   1.680   4.594
 9462SOL    HW129285   1.954   1.707   4.646
 9462SOL    HW229286   1.847   1.587   4.617
 9463SOL     OW29287   5.779   5.587   0.601
 9463SOL    HW129288   5.734   5.636   0.527
 9463SOL    HW229289   5.750   5.491   0.600
 9464SOL     OW29290   0.748   0.929   1.391
 9464SOL    HW129291   0.759   1.019   1.433
 9464SOL    HW229292   0.823   0.869   1.420
 9465SOL     OW29293   6.842   4.063   1.220
 9465SOL    HW129294   6.839   3.986   1.283
 9465SOL    HW229295   6.749   4.094   1.200
 9466SOL     OW29296   3.886   5.122   6.863
 9466SOL    HW129297   3.831   5.041   6.844
 9466SOL    HW229298   3.876   5.188   6.788
 9467SOL     OW29299   2.367   3.204   1.192
 9467SOL    HW129300   2.417   3.246   1.115
 9467SOL    HW229301   2.427   3.139   1.238
 9468SOL     OW29302   6.608   2.385   0.556
 9468SOL    HW129303   6.545   2.360   0.630
 9468SOL    HW229304   6.557   2.427   0.481
 9469SOL     OW29305   0.871   6.453   1.358
 9469SOL    HW129306   0.896   6.380   1.294
 9469SOL    HW229307   0.783   6.432   1.400
 9470SOL     OW29308   4.060   4.287   1.068
 9470SOL    HW129309   4.039   4.206   1.013
 9470SOL    HW229310   3.986   4.303   1.134
 9471SOL     OW29311   6.195   2.649   5.046
 9471SOL    HW129312   6.200   2.549   5.044
 9471SOL    HW229313   6.159   2.682   4.958
 9472SOL     OW29314   1.730   3.179   6.454
 9472SOL    HW129315   1.713   3.176   6.553
 9472SOL    HW229316   1.677   3.253   6.413
 9473SOL     OW29317   3.136   4.577   0.653
 9473SOL    HW129318   3.057   4.637   0.645
 9473SOL    HW229319   3.173   4.557   0.563
 9474SOL     OW29320   5.377   3.309   1.496
 9474SOL    HW129321   5.396   3.248   1.573
 9474SOL    HW229322   5.424   3.276   1.415
 9475SOL     OW29323   4.576   3.488   6.044
 9475SOL    HW129324   4.524   3.571   6.066
 9475SOL    HW229325   4.618   3.452   6.127
 9476SOL     OW29326   3.322   3.879   6.159
 9476SOL    HW129327   3.343   3.787   6.129
 9476SOL    HW229328   3.236   3.909   6.118
 9477SOL     OW29329   1.913   4.115   1.158
 9477SOL    HW129330   1.959   4.065   1.085
 9477SOL    HW229331   1.867   4.050   1.219
 9478SOL     OW29332   5.182   2.334   0.066
 9478SOL    HW129333   5.130   2.256   0.101
 9478SOL    HW229334   5.130   2.418   0.080
 9479SOL     OW29335   3.773   0.787   1.509
 9479SOL    HW129336   3.687   0.745   1.480
 9479SOL    HW229337   3.767   0.886   1.499
 9480SOL     OW29338   6.326   0.180   6.982
 9480SOL    HW129339   6.342   0.261   6.925
 9480SOL    HW229340   6.381   0.187   0.041
 9481SOL     OW29341   4.384   1.799   2.875
 9481SOL    HW129342   4.436   1.865   2.929
 9481SOL    HW229343   4.286   1.814   2.889
 9482SOL     OW29344   5.889   0.240   0.951
 9482SOL    HW129345   5.829   0.320   0.954
 9482SOL    HW229346   5.840   0.162   0.912
 9483SOL     OW29347   0.166   0.899   0.932
 9483SOL    HW129348   0.123   0.947   0.856
 9483SOL    HW229349   0.264   0.890   0.915
 9484SOL     OW29350   3.331   5.870   4.897
 9484SOL    HW129351   3.374   5.891   4.810
 9484SOL    HW229352   3.263   5.940   4.918
 9485SOL     OW29353   6.710   1.357   6.710
 9485SOL    HW129354   6.656   1.437   6.735
 9485SOL    HW229355   6.781   1.343   6.779
 9486SOL     OW29356   4.764   5.597   0.211
 9486SOL    HW129357   4.856   5.637   0.205
 9486SOL    HW229358   4.727   5.584   0.119
 9487SOL     OW29359   3.485   3.322   3.749
 9487SOL    HW129360   3.424   3.262   3.698
 9487SOL    HW229361   3.572   3.276   3.766
 9488SOL     OW29362   1.175   1.965   0.858
 9488SOL    HW129363   1.165   1.884   0.916
 9488SOL    HW229364   1.091   1.978   0.805
 9489SOL     OW29365   4.789   4.275   0.576
 9489SOL    HW129366   4.878   4.311   0.546
 9489SOL    HW229367   4.763   4.317   0.662
 9490SOL     OW29368   5.512   3.576   3.596
 9490SOL    HW129369   5.493   3.564   3.694
 9490SOL    HW229370   5.472   3.662   3.565
 9491SOL     OW29371   5.058   6.482   2.739
 9491SOL    HW129372   5.105   6.526   2.815
 9491SOL    HW229373   5.101   6.393   2.721
 9492SOL     OW29374   5.003   2.674   4.424
 9492SOL    HW129375   5.018   2.654   4.327
 9492SOL    HW229376   4.983   2.590   4.473
 9493SOL     OW29377   4.710   6.522   2.844
 9493SOL    HW129378   4.636   6.482   2.897
 9493SOL    HW229379   4.683   6.526   2.747
 9494SOL     OW29380   5.436   2.269   1.933
 9494SOL    HW129381   5.485   2.182   1.939
 9494SOL    HW229382   5.474   2.324   1.860
 9495SOL     OW29383   0.969   0.595   2.677
 9495SOL    HW129384   0.949   0.573   2.773
 9495SOL    HW229385   1.068   0.585   2.661
 9496SOL     OW29386   4.188   1.970   2.582
 9496SOL    HW129387   4.098   1.939   2.551
 9496SOL    HW229388   4.253   1.967   2.506
 9497SOL     OW29389   5.335   5.027   4.553
 9497SOL    HW129390   5.416   5.074   4.589
 9497SOL    HW229391   5.310   4.952   4.614
 9498SOL     OW29392   6.430   5.348   3.970
 9498SOL    HW129393   6.435   5.264   3.917
 9498SOL    HW229394   6.508   5.353   4.033
 9499SOL     OW29395   5.986   6.000   5.632
 9499SOL    HW129396   5.951   5.913   5.667
 9499SOL    HW229397   5.919   6.042   5.571
 9500SOL     OW29398   4.473   1.074   1.068
 9500SOL    HW129399   4.569   1.055   1.051
 9500SOL    HW229400   4.437   1.008   1.134
 9501SOL     OW29401   1.586   2.814   4.803
 9501SOL    HW129402   1.569   2.913   4.800
 9501SOL    HW229403   1.527   2.768   4.737
 9502SOL     OW29404   5.698   4.553   5.326
 9502SOL    HW129405   5.757   4.606   5.387
 9502SOL    HW229406   5.679   4.605   5.243
 9503SOL     OW29407   0.300   2.626   6.463
 9503SOL    HW129408   0.287   2.684   6.382
 9503SOL    HW229409   0.398   2.610   6.476
 9504SOL     OW29410   6.328   5.036   2.068
 9504SOL    HW129411   6.259   5.109   2.076
 9504SOL    HW229412   6.373   5.023   2.156
 9505SOL     OW29413   4.261   4.838   5.083
 9505SOL    HW129414   4.272   4.937   5.081
 9505SOL    HW229415   4.200   4.812   5.157
 9506SOL     OW29416   3.428   1.840   1.247
 9506SOL    HW129417   3.474   1.756   1.219
 9506SOL    HW229418   3.396   1.889   1.166
 9507SOL     OW29419   5.673   7.007   1.988
 9507SOL    HW129420   5.573   7.014   1.981
 9507SOL    HW229421   5.698   6.984   2.083
 9508SOL     OW29422   4.962   1.306   3.001
 9508SOL    HW129423   4.877   1.322   2.951
 9508SOL    HW229424   5.013   1.231   2.959
 9509SOL     OW29425   6.629   6.974   2.456
 9509SOL    HW129426   6.649   6.966   2.358
 9509SOL    HW229427   6.603   6.884   2.492
 9510SOL     OW29428   0.692   2.595   3.701
 9510SOL    HW129429   0.788   2.582   3.676
 9510SOL    HW229430   0.640   2.623   3.621
 9511SOL     OW29431   1.310   1.074   0.620
 9511SOL    HW129432   1.246   1.017   0.568
 9511SOL    HW229433   1.390   1.021   0.645
 9512SOL     OW29434   6.701   2.073   1.177
 9512SOL    HW129435   6.627   2.123   1.223
 9512SOL    HW229436   6.745   2.011   1.242
 9513SOL     OW29437   4.088   5.148   0.056
 9513SOL    HW129438   4.114   5.235   0.098
 9513SOL    HW229439   4.039   5.166   6.996
 9514SOL     OW29440   3.436   3.416   6.743
 9514SOL    HW129441   3.390   3.349   6.802
 9514SOL    HW229442   3.368   3.463   6.687
 9515SOL     OW29443   2.420   5.181   4.118
 9515SOL    HW129444   2.376   5.257   4.166
 9515SOL    HW229445   2.483   5.218   4.050
 9516SOL     OW29446   6.856   3.737   0.257
 9516SOL    HW129447   6.781   3.774   0.202
 9516SOL    HW229448   6.896   3.658   0.211
 9517SOL     OW29449   1.348   4.883   0.991
 9517SOL    HW129450   1.283   4.807   0.995
 9517SOL    HW229451   1.413   4.868   0.916
 9518SOL     OW29452   1.956   1.069   0.251
 9518SOL    HW129453   1.884   1.030   0.308
 9518SOL    HW229454   1.974   1.163   0.278
 9519SOL     OW29455   1.366   2.855   5.495
 9519SOL    HW129456   1.272   2.876   5.524
 9519SOL    HW229457   1.363   2.804   5.409
 9520SOL     OW29458   2.137   6.613   2.898
 9520SOL    HW129459   2.214   6.617   2.834
 9520SOL    HW229460   2.088   6.527   2.886
 9521SOL     OW29461   5.079   5.674   4.269
 9521SOL    HW129462   5.154   5.628   4.317
 9521SOL    HW229463   5.052   5.619   4.190
 9522SOL     OW29464   3.864   6.063   0.873
 9522SOL    HW129465   3.961   6.081   0.887
 9522SOL    HW229466   3.845   6.055   0.776
 9523SOL     OW29467   3.291   5.523   4.700
 9523SOL    HW129468   3.312   5.461   4.776
 9523SOL    HW229469   3.232   5.477   4.634
 9524SOL     OW29470   4.270   3.503   1.070
 9524SOL    HW129471   4.308   3.438   1.136
 9524SOL    HW229472   4.176   3.477   1.048
 9525SOL     OW29473   2.962   1.061   6.312
 9525SOL    HW129474   2.885   1.069   6.375
 9525SOL    HW229475   2.958   0.974   6.264
 9526SOL     OW29476   5.107   5.313   2.455
 9526SOL    HW129477   5.107   5.266   2.543
 9526SOL    HW229478   5.128   5.410   2.469
 9527SOL     OW29479   0.467   1.509   2.056
 9527SOL    HW129480   0.410   1.449   2.112
 9527SOL    HW229481   0.412   1.584   2.020
 9528SOL     OW29482   0.166   0.849   1.973
 9528SOL    HW129483   0.221   0.894   2.043
 9528SOL    HW229484   0.196   0.753   1.965
 9529SOL     OW29485   0.760   2.908   5.835
 9529SOL    HW129486   0.737   3.001   5.864
 9529SOL    HW229487   0.828   2.912   5.762
 9530SOL     OW29488   1.056   2.233   3.536
 9530SOL    HW129489   1.084   2.310   3.479
 9530SOL    HW229490   1.121   2.157   3.525
 9531SOL     OW29491   3.313   0.317   3.227
 9531SOL    HW129492   3.389   0.338   3.289
 9531SOL    HW229493   3.313   0.219   3.206
 9532SOL     OW29494   1.945   0.269   1.668
 9532SOL    HW129495   1.954   0.287   1.570
 9532SOL    HW229496   2.033   0.282   1.713
 9533SOL     OW29497   1.719   1.048   6.228
 9533SOL    HW129498   1.732   1.117   6.300
 9533SOL    HW229499   1.720   1.093   6.139
 9534SOL     OW29500   5.522   2.455   4.876
 9534SOL    HW129501   5.444   2.474   4.935
 9534SOL    HW229502   5.537   2.532   4.815
 9535SOL     OW29503   2.547   1.149   5.319
 9535SOL    HW129504   2.639   1.183   5.301
 9535SOL    HW229505   2.483   1.226   5.320
 9536SOL     OW29506   1.579   6.146   5.767
 9536SOL    HW129507   1.567   6.230   5.715
 9536SOL    HW229508   1.522   6.073   5.728
 9537SOL     OW29509   2.945   0.057   1.833
 9537SOL    HW129510   2.851   0.038   1.860
 9537SOL    HW229511   2.947   0.137   1.773
 9538SOL     OW29512   6.698   2.438   4.357
 9538SOL    HW129513   6.652   2.413   4.442
 9538SOL    HW229514   6.671   2.375   4.285
 9539SOL     OW29515   0.678   6.115   0.472
 9539SOL    HW129516   0.710   6.038   0.527
 9539SOL    HW229517   0.663   6.085   0.377
 9540SOL     OW29518   4.745   4.513   4.342
 9540SOL    HW129519   4.709   4.473   4.258
 9540SOL    HW229520   4.674   4.513   4.412
 9541SOL     OW29521   2.023   2.732   4.172
 9541SOL    HW129522   1.970   2.662   4.221
 9541SOL    HW229523   2.073   2.788   4.238
 9542SOL     OW29524   4.870   3.467   4.498
 9542SOL    HW129525   4.885   3.549   4.443
 9542SOL    HW229526   4.881   3.386   4.441
 9543SOL     OW29527   5.475   1.427   2.609
 9543SOL    HW129528   5.558   1.483   2.610
 9543SOL    HW229529   5.434   1.428   2.701
 9544SOL     OW29530   4.700   1.414   2.545
 9544SOL    HW129531   4.646   1.490   2.583
 9544SOL    HW229532   4.749   1.445   2.464
 9545SOL     OW29533   6.744   1.018   3.682
 9545SOL    HW129534   6.843   1.028   3.689
 9545SOL    HW229535   6.722   0.939   3.624
 9546SOL     OW29536   2.604   5.442   0.755
 9546SOL    HW129537   2.575   5.477   0.844
 9546SOL    HW229538   2.674   5.371   0.768
 9547SOL     OW29539   0.775   6.475   3.758
 9547SOL    HW129540   0.778   6.554   3.819
 9547SOL    HW229541   0.728   6.400   3.804
 9548SOL     OW29542   4.819   6.061   3.735
 9548SOL    HW129543   4.721   6.048   3.722
 9548SOL    HW229544   4.869   6.006   3.669
 9549SOL     OW29545   2.422   5.853   0.750
 9549SOL    HW129546   2.382   5.803   0.828
 9549SOL    HW229547   2.349   5.902   0.702
 9550SOL     OW29548   1.018   1.334   0.270
 9550SOL    HW129549   0.958   1.353   0.193
 9550SOL    HW229550   0.998   1.398   0.344
 9551SOL     OW29551   0.981   6.529   4.748
 9551SOL    HW129552   0.923   6.564   4.675
 9551SOL    HW229553   1.077   6.530   4.719
 9552SOL     OW29554   1.826   5.679   3.122
 9552SOL    HW129555   1.841   5.690   3.220
 9552SOL    HW229556   1.914   5.678   3.074
 9553SOL     OW29557   5.686   4.144   5.707
 9553SOL    HW129558   5.753   4.202   5.754
 9553SOL    HW229559   5.594   4.181   5.721
 9554SOL     OW29560   2.052   1.535   1.996
 9554SOL    HW129561   2.118   1.549   2.069
 9554SOL    HW229562   1.978   1.476   2.029
 9555SOL     OW29563   0.211   2.282   0.675
 9555SOL    HW129564   0.250   2.221   0.744
 9555SOL    HW229565   0.256   2.266   0.587
 9556SOL     OW29566   2.257   2.060   1.521
 9556SOL    HW129567   2.345   2.089   1.483
 9556SOL    HW229568   2.272   1.987   1.588
 9557SOL     OW29569   5.390   0.797   2.194
 9557SOL    HW129570   5.309   0.828   2.144
 9557SOL    HW229571   5.467   0.790   2.131
 9558SOL     OW29572   6.076   4.819   2.444
 9558SOL    HW129573   6.095   4.814   2.346
 9558SOL    HW229574   5.997   4.760   2.465
 9559SOL     OW29575   0.049   3.020   1.845
 9559SOL    HW129576   6.988   3.069   1.860
 9559SOL    HW229577   0.032   2.937   1.793
 9560SOL     OW29578   3.196   1.783   3.902
 9560SOL    HW129579   3.137   1.842   3.846
 9560SOL    HW229580   3.139   1.731   3.966
 9561SOL     OW29581   4.333   6.487   0.487
 9561SOL    HW129582   4.398   6.551   0.529
 9561SOL    HW229583   4.368   6.458   0.398
 9562SOL     OW29584   5.341   5.057   2.672
 9562SOL    HW129585   5.433   5.061   2.710
 9562SOL    HW229586   5.340   5.102   2.583
 9563SOL     OW29587   6.445   5.955   0.073
 9563SOL    HW129588   6.380   5.938   7.024
 9563SOL    HW229589   6.511   6.024   0.044
 9564SOL     OW29590   2.489   6.725   0.105
 9564SOL    HW129591   2.401   6.770   0.090
 9564SOL    HW229592   2.538   6.717   0.019
 9565SOL     OW29593   3.691   6.174   4.660
 9565SOL    HW129594   3.656   6.135   4.575
 9565SOL    HW229595   3.765   6.116   4.695
 9566SOL     OW29596   2.820   4.514   5.411
 9566SOL    HW129597   2.883   4.471   5.474
 9566SOL    HW229598   2.861   4.519   5.320
 9567SOL     OW29599   6.038   5.583   5.689
 9567SOL    HW129600   6.107   5.536   5.745
 9567SOL    HW229601   6.065   5.580   5.593
 9568SOL     OW29602   4.982   3.646   6.317
 9568SOL    HW129603   4.981   3.628   6.218
 9568SOL    HW229604   4.927   3.578   6.364
 9569SOL     OW29605   6.285   0.964   0.434
 9569SOL    HW129606   6.250   0.903   0.362
 9569SOL    HW229607   6.270   0.923   0.523
 9570SOL     OW29608   0.548   0.894   0.399
 9570SOL    HW129609   0.483   0.939   0.339
 9570SOL    HW229610   0.556   0.945   0.485
 9571SOL     OW29611   2.084   3.661   0.363
 9571SOL    HW129612   2.103   3.641   0.459
 9571SOL    HW229613   2.164   3.704   0.321
 9572SOL     OW29614   1.534   4.690   1.365
 9572SOL    HW129615   1.490   4.632   1.295
 9572SOL    HW229616   1.579   4.767   1.320
 9573SOL     OW29617   1.555   1.746   0.929
 9573SOL    HW129618   1.589   1.814   0.864
 9573SOL    HW229619   1.487   1.788   0.989
 9574SOL     OW29620   2.760   1.808   5.617
 9574SOL    HW129621   2.822   1.873   5.574
 9574SOL    HW229622   2.779   1.803   5.715
 9575SOL     OW29623   5.856   0.687   2.147
 9575SOL    HW129624   5.834   0.595   2.181
 9575SOL    HW229625   5.772   0.735   2.123
 9576SOL     OW29626   3.266   1.875   5.847
 9576SOL    HW129627   3.201   1.943   5.814
 9576SOL    HW229628   3.295   1.898   5.940
 9577SOL     OW29629   1.005   6.505   3.079
 9577SOL    HW129630   1.000   6.410   3.048
 9577SOL    HW229631   1.085   6.515   3.139
 9578SOL     OW29632   6.148   3.314   2.010
 9578SOL    HW129633   6.195   3.365   2.082
 9578SOL    HW229634   6.189   3.224   2.001
 9579SOL     OW29635   1.003   6.728   2.562
 9579SOL    HW129636   1.099   6.700   2.552
 9579SOL    HW229637   0.970   6.766   2.475
 9580SOL     OW29638   4.204   3.472   6.023
 9580SOL    HW129639   4.146   3.546   5.988
 9580SOL    HW229640   4.260   3.507   6.098
 9581SOL     OW29641   0.905   4.624   5.790
 9581SOL    HW129642   0.978   4.555   5.797
 9581SOL    HW229643   0.945   4.714   5.774
 9582SOL     OW29644   4.380   4.886   4.527
 9582SOL    HW129645   4.304   4.881   4.462
 9582SOL    HW229646   4.465   4.902   4.477
 9583SOL     OW29647   2.136   4.358   1.393
 9583SOL    HW129648   2.120   4.413   1.475
 9583SOL    HW229649   2.171   4.268   1.420
 9584SOL     OW29650   5.754   5.984   6.162
 9584SOL    HW129651   5.853   5.977   6.167
 9584SOL    HW229652   5.723   6.059   6.220
 9585SOL     OW29653   5.973   0.340   4.544
 9585SOL    HW129654   6.047   0.306   4.602
 9585SOL    HW229655   5.945   0.269   4.480
 9586SOL     OW29656   5.812   3.105   3.223
 9586SOL    HW129657   5.812   3.127   3.126
 9586SOL    HW229658   5.805   3.189   3.276
 9587SOL     OW29659   4.740   6.815   2.024
 9587SOL    HW129660   4.730   6.890   1.959
 9587SOL    HW229661   4.808   6.750   1.989
 9588SOL     OW29662   0.162   0.427   2.034
 9588SOL    HW129663   0.195   0.487   1.962
 9588SOL    HW229664   0.088   0.473   2.083
 9589SOL     OW29665   2.752   1.423   6.702
 9589SOL    HW129666   2.696   1.435   6.620
 9589SOL    HW229667   2.697   1.439   6.784
 9590SOL     OW29668   6.612   4.548   4.672
 9590SOL    HW129669   6.638   4.468   4.618
 9590SOL    HW229670   6.658   4.629   4.636
 9591SOL     OW29671   1.654   4.976   1.731
 9591SOL    HW129672   1.559   4.961   1.705
 9591SOL    HW229673   1.658   5.041   1.807
 9592SOL     OW29674   4.865   4.990   1.808
 9592SOL    HW129675   4.792   5.059   1.805
 9592SOL    HW229676   4.828   4.902   1.781
 9593SOL     OW29677   0.763   2.972   4.081
 9593SOL    HW129678   0.713   2.885   4.077
 9593SOL    HW229679   0.730   3.033   4.009
 9594SOL     OW29680   5.973   6.933   2.214
 9594SOL    HW129681   6.061   6.978   2.202
 9594SOL    HW229682   5.977   6.842   2.171
 9595SOL     OW29683   1.203   5.167   3.871
 9595SOL    HW129684   1.293   5.139   3.904
 9595SOL    HW229685   1.149   5.086   3.849
 9596SOL     OW29686   5.369   6.272   4.746
 9596SOL    HW129687   5.370   6.366   4.779
 9596SOL    HW229688   5.334   6.212   4.817
 9597SOL     OW29689   2.061   3.974   0.965
 9597SOL    HW129690   2.152   3.939   0.942
 9597SOL    HW229691   1.993   3.930   0.906
 9598SOL     OW29692   6.906   5.532   5.587
 9598SOL    HW129693   6.995   5.576   5.602
 9598SOL    HW229694   6.835   5.582   5.636
 9599SOL     OW29695   4.687   1.754   4.786
 9599SOL    HW129696   4.783   1.727   4.772
 9599SOL    HW229697   4.677   1.851   4.764
 9600SOL     OW29698   1.164   6.695   6.885
 9600SOL    HW129699   1.078   6.673   6.932
 9600SOL    HW229700   1.219   6.612   6.875
 9601SOL     OW29701   0.638   5.074   5.760
 9601SOL    HW129702   0.580   5.146   5.798
 9601SOL    HW229703   0.650   5.089   5.662
 9602SOL     OW29704   1.010   5.653   0.619
 9602SOL    HW129705   0.974   5.560   0.618
 9602SOL    HW229706   0.979   5.700   0.702
 9603SOL     OW29707   1.683   5.787   3.991
 9603SOL    HW129708   1.642   5.870   4.027
 9603SOL    HW229709   1.780   5.784   4.016
 9604SOL     OW29710   6.508   1.311   6.959
 9604SOL    HW129711   6.597   1.349   6.932
 9604SOL    HW229712   6.522   1.220   6.999
 9605SOL     OW29713   1.756   6.207   6.640
 9605SOL    HW129714   1.689   6.150   6.590
 9605SOL    HW229715   1.741   6.303   6.617
 9606SOL     OW29716   6.271   6.435   4.282
 9606SOL    HW129717   6.336   6.442   4.207
 9606SOL    HW229718   6.298   6.498   4.355
 9607SOL     OW29719   1.056   2.512   1.739
 9607SOL    HW129720   1.155   2.506   1.727
 9607SOL    HW229721   1.013   2.430   1.700
 9608SOL     OW29722   6.881   6.666   2.487
 9608SOL    HW129723   6.834   6.592   2.535
 9608SOL    HW229724   6.853   6.667   2.391
 9609SOL     OW29725   1.484   3.296   4.380
 9609SOL    HW129726   1.387   3.322   4.376
 9609SOL    HW229727   1.494   3.214   4.436
 9610SOL     OW29728   2.899   1.633   6.645
 9610SOL    HW129729   2.850   1.547   6.639
 9610SOL    HW229730   2.957   1.645   6.564
 9611SOL     OW29731   6.582   6.921   1.081
 9611SOL    HW129732   6.655   6.893   1.019
 9611SOL    HW229733   6.590   7.019   1.100
 9612SOL     OW29734   5.538   2.597   1.834
 9612SOL    HW129735   5.562   2.510   1.790
 9612SOL    HW229736   5.613   2.662   1.824
 9613SOL     OW29737   5.844   6.257   5.572
 9613SOL    HW129738   5.752   6.291   5.553
 9613SOL    HW229739   5.855   6.243   5.670
 9614SOL     OW29740   3.607   3.252   2.630
 9614SOL    HW129741   3.669   3.279   2.556
 9614SOL    HW229742   3.527   3.205   2.591
 9615SOL     OW29743   0.927   6.629   3.608
 9615SOL    HW129744   0.864   6.572   3.662
 9615SOL    HW229745   0.995   6.570   3.565
 9616SOL     OW29746   3.261   3.508   0.960
 9616SOL    HW129747   3.201   3.529   1.038
 9616SOL    HW229748   3.304   3.419   0.974
 9617SOL     OW29749   0.882   4.498   3.340
 9617SOL    HW129750   0.919   4.490   3.247
 9617SOL    HW229751   0.782   4.508   3.334
 9618SOL     OW29752   4.320   5.769   6.693
 9618SOL    HW129753   4.394   5.737   6.634
 9618SOL    HW229754   4.244   5.799   6.636
 9619SOL     OW29755   2.606   6.909   0.645
 9619SOL    HW129756   2.578   7.004   0.655
 9619SOL    HW229757   2.627   6.891   0.549
 9620SOL     OW29758   3.286   1.114   6.596
 9620SOL    HW129759   3.240   1.166   6.524
 9620SOL    HW229760   3.328   1.032   6.556
 9621SOL     OW29761   1.460   1.546   1.226
 9621SOL    HW129762   1.424   1.456   1.252
 9621SOL    HW229763   1.544   1.534   1.174
 9622SOL     OW29764   6.420   0.565   5.398
 9622SOL    HW129765   6.353   0.565   5.324
 9622SOL    HW229766   6.446   0.470   5.419
 9623SOL     OW29767   3.847   6.375   6.651
 9623SOL    HW129768   3.909   6.454   6.650
 9623SOL    HW229769   3.844   6.337   6.743
 9624SOL     OW29770   4.151   5.173   4.629
 9624SOL    HW129771   4.097   5.155   4.546
 9624SOL    HW229772   4.248   5.170   4.607
 9625SOL     OW29773   4.919   3.881   5.756
 9625SOL    HW129774   4.842   3.941   5.780
 9625SOL    HW229775   4.883   3.794   5.723
 9626SOL     OW29776   2.346   3.636   6.476
 9626SOL    HW129777   2.375   3.732   6.471
 9626SOL    HW229778   2.267   3.628   6.537
 9627SOL     OW29779   0.884   5.064   6.990
 9627SOL    HW129780   0.788   5.074   6.968
 9627SOL    HW229781   0.916   5.143   0.018
 9628SOL     OW29782   6.036   2.085   6.848
 9628SOL    HW129783   6.095   2.005   6.842
 9628SOL    HW229784   5.999   2.093   6.941
 9629SOL     OW29785   6.225   5.837   3.655
 9629SOL    HW129786   6.203   5.929   3.688
 9629SOL    HW229787   6.244   5.778   3.734
 9630SOL     OW29788   5.747   6.549   6.301
 9630SOL    HW129789   5.709   6.640   6.282
 9630SOL    HW229790   5.681   6.479   6.273
 9631SOL     OW29791   4.065   0.699   6.747
 9631SOL    HW129792   4.110   0.780   6.710
 9631SOL    HW229793   4.133   0.626   6.757
 9632SOL     OW29794   3.535   6.012   1.783
 9632SOL    HW129795   3.577   5.965   1.861
 9632SOL    HW229796   3.438   6.026   1.800
 9633SOL     OW29797   3.424   3.086   2.529
 9633SOL    HW129798   3.436   3.070   2.431
 9633SOL    HW229799   3.413   2.998   2.576
 9634SOL     OW29800   5.610   4.093   2.993
 9634SOL    HW129801   5.628   4.175   2.938
 9634SOL    HW229802   5.669   4.093   3.073
 9635SOL     OW29803   0.211   4.620   4.029
 9635SOL    HW129804   0.247   4.558   3.959
 9635SOL    HW229805   0.245   4.592   4.118
 9636SOL     OW29806   4.821   3.026   4.190
 9636SOL    HW129807   4.911   2.996   4.222
 9636SOL    HW229808   4.763   2.947   4.172
 9637SOL     OW29809   2.382   2.692   0.468
 9637SOL    HW129810   2.451   2.754   0.431
 9637SOL    HW229811   2.292   2.716   0.430
 9638SOL     OW29812   6.175   4.965   5.568
 9638SOL    HW129813   6.111   4.916   5.627
 9638SOL    HW229814   6.225   4.900   5.511
 9639SOL     OW29815   3.585   1.333   2.670
 9639SOL    HW129816   3.639   1.322   2.753
 9639SOL    HW229817   3.623   1.276   2.597
 9640SOL     OW29818   4.716   0.416   3.041
 9640SOL    HW129819   4.793   0.359   3.072
 9640SOL    HW229820   4.684   0.383   2.952
 9641SOL     OW29821   6.216   3.666   3.263
 9641SOL    HW129822   6.186   3.622   3.348
 9641SOL    HW229823   6.164   3.627   3.186
 9642SOL     OW29824   1.465   0.006   3.968
 9642SOL    HW129825   1.420   0.096   3.963
 9642SOL    HW229826   1.405   6.962   3.929
 9643SOL     OW29827   4.930   4.750   3.870
 9643SOL    HW129828   4.985   4.797   3.940
 9643SOL    HW229829   4.865   4.689   3.914
 9644SOL     OW29830   1.250   5.878   4.815
 9644SOL    HW129831   1.348   5.897   4.820
 9644SOL    HW229832   1.212   5.923   4.734
 9645SOL     OW29833   0.465   5.361   6.755
 9645SOL    HW129834   0.496   5.383   6.847
 9645SOL    HW229835   0.481   5.439   6.694
 9646SOL     OW29836   3.565   5.775   5.767
 9646SOL    HW129837   3.542   5.871   5.779
 9646SOL    HW229838   3.538   5.745   5.676
 9647SOL     OW29839   6.399   6.635   3.354
 9647SOL    HW129840   6.340   6.618   3.275
 9647SOL    HW229841   6.343   6.662   3.433
 9648SOL     OW29842   4.275   1.966   1.561
 9648SOL    HW129843   4.237   2.039   1.618
 9648SOL    HW229844   4.201   1.921   1.511
 9649SOL     OW29845   1.620   5.400   6.783
 9649SOL    HW129846   1.561   5.390   6.863
 9649SOL    HW229847   1.662   5.491   6.783
 9650SOL     OW29848   6.940   5.409   4.909
 9650SOL    HW129849   6.960   5.506   4.890
 9650SOL    HW229850   0.000   5.362   4.932
 9651SOL     OW29851   4.194   1.472   0.246
 9651SOL    HW129852   4.285   1.458   0.206
 9651SOL    HW229853   4.195   1.553   0.304
 9652SOL     OW29854   7.006   3.479   0.290
 9652SOL    HW129855   6.998   3.435   0.201
 9652SOL    HW229856   6.915   3.487   0.331
 9653SOL     OW29857   4.075   4.181   6.033
 9653SOL    HW129858   4.105   4.194   5.938
 9653SOL    HW229859   4.155   4.174   6.093
 9654SOL     OW29860   3.825   3.641   3.790
 9654SOL    HW129861   3.857   3.725   3.833
 9654SOL    HW229862   3.765   3.663   3.713
 9655SOL     OW29863   4.482   0.896   1.835
 9655SOL    HW129864   4.409   0.894   1.904
 9655SOL    HW229865   4.460   0.965   1.766
 9656SOL     OW29866   5.996   3.584   0.776
 9656SOL    HW129867   5.926   3.554   0.711
 9656SOL    HW229868   5.977   3.545   0.866
 9657SOL     OW29869   5.594   3.452   3.362
 9657SOL    HW129870   5.570   3.356   3.376
 9657SOL    HW229871   5.561   3.507   3.439
 9658SOL     OW29872   5.324   2.133   2.144
 9658SOL    HW129873   5.342   2.178   2.057
 9658SOL    HW229874   5.296   2.201   2.212
 9659SOL     OW29875   2.592   3.049   0.742
 9659SOL    HW129876   2.504   3.063   0.786
 9659SOL    HW229877   2.647   3.133   0.750
 9660SOL     OW29878   0.481   5.569   1.663
 9660SOL    HW129879   0.577   5.572   1.636
 9660SOL    HW229880   0.428   5.522   1.593
 9661SOL     OW29881   5.517   5.086   0.758
 9661SOL    HW129882   5.559   5.177   0.765
 9661SOL    HW229883   5.440   5.091   0.695
 9662SOL     OW29884   5.606   5.279   5.802
 9662SOL    HW129885   5.523   5.333   5.788
 9662SOL    HW229886   5.654   5.269   5.715
 9663SOL     OW29887   0.357   5.201   3.577
 9663SOL    HW129888   0.415   5.124   3.607
 9663SOL    HW229889   0.343   5.195   3.478
 9664SOL     OW29890   4.868   3.762   3.159
 9664SOL    HW129891   4.831   3.836   3.216
 9664SOL    HW229892   4.837   3.774   3.064
 9665SOL     OW29893   5.696   5.824   6.487
 9665SOL    HW129894   5.709   5.800   6.583
 9665SOL    HW229895   5.641   5.907   6.480
 9666SOL     OW29896   5.313   3.648   0.238
 9666SOL    HW129897   5.317   3.689   0.147
 9666SOL    HW229898   5.252   3.568   0.236
 9667SOL     OW29899   6.143   6.344   6.379
 9667SOL    HW129900   6.070   6.404   6.410
 9667SOL    HW229901   6.137   6.257   6.427
 9668SOL     OW29902   0.342   0.045   5.770
 9668SOL    HW129903   0.323   6.975   5.745
 9668SOL    HW229904   0.407   0.084   5.705
 9669SOL     OW29905   4.062   0.022   0.430
 9669SOL    HW129906   4.019   0.107   0.460
 9669SOL    HW229907   4.006   7.005   0.358
 9670SOL     OW29908   0.166   6.685   6.712
 9670SOL    HW129909   0.169   6.735   6.798
 9670SOL    HW229910   0.165   6.750   6.636
 9671SOL     OW29911   1.616   5.676   6.541
 9671SOL    HW129912   1.663   5.670   6.629
 9671SOL    HW229913   1.529   5.628   6.547
 9672SOL     OW29914   0.836   3.463   4.690
 9672SOL    HW129915   0.810   3.367   4.680
 9672SOL    HW229916   0.894   3.474   4.770
 9673SOL     OW29917   2.346   4.115   0.971
 9673SOL    HW129918   2.443   4.130   0.989
 9673SOL    HW229919   2.300   4.090   1.056
 9674SOL     OW29920   2.589   5.949   4.445
 9674SOL    HW129921   2.643   5.910   4.519
 9674SOL    HW229922   2.647   5.963   4.365
 9675SOL     OW29923   4.557   3.887   1.076
 9675SOL    HW129924   4.575   3.962   1.013
 9675SOL    HW229925   4.498   3.820   1.031
 9676SOL     OW29926   0.829   2.997   6.286
 9676SOL    HW129927   0.760   2.959   6.224
 9676SOL    HW229928   0.891   2.925   6.316
 9677SOL     OW29929   6.469   5.440   0.707
 9677SOL    HW129930   6.463   5.372   0.634
 9677SOL    HW229931   6.420   5.523   0.678
 9678SOL     OW29932   3.730   3.328   5.112
 9678SOL    HW129933   3.725   3.419   5.071
 9678SOL    HW229934   3.823   3.313   5.147
 9679SOL     OW29935   2.250   1.428   4.881
 9679SOL    HW129936   2.318   1.502   4.880
 9679SOL    HW229937   2.288   1.349   4.929
 9680SOL     OW29938   4.797   5.653   2.547
 9680SOL    HW129939   4.840   5.729   2.499
 9680SOL    HW229940   4.809   5.568   2.494
 9681SOL     OW29941   1.487   1.697   2.657
 9681SOL    HW129942   1.520   1.774   2.712
 9681SOL    HW229943   1.421   1.729   2.590
 9682SOL     OW29944   5.314   5.426   5.027
 9682SOL    HW129945   5.364   5.482   5.093
 9682SOL    HW229946   5.216   5.445   5.035
 9683SOL     OW29947   2.517   5.950   1.909
 9683SOL    HW129948   2.545   5.947   1.813
 9683SOL    HW229949   2.442   6.015   1.920
 9684SOL     OW29950   1.204   3.905   5.699
 9684SOL    HW129951   1.275   3.835   5.712
 9684SOL    HW229952   1.133   3.869   5.638
 9685SOL     OW29953   3.839   4.812   1.445
 9685SOL    HW129954   3.848   4.786   1.349
 9685SOL    HW229955   3.930   4.826   1.484
 9686SOL     OW29956   0.028   1.884   5.911
 9686SOL    HW129957   7.020   1.791   5.899
 9686SOL    HW229958   7.004   1.945   5.849
 9687SOL     OW29959   5.593   0.806   2.005
 9687SOL    HW129960   5.611   0.722   1.953
 9687SOL    HW229961   5.639   0.883   1.960
 9688SOL     OW29962   0.405   4.224   1.469
 9688SOL    HW129963   0.405   4.317   1.506
 9688SOL    HW229964   0.399   4.159   1.544
 9689SOL     OW29965   1.335   6.436   0.931
 9689SOL    HW129966   1.304   6.475   1.017
 9689SOL    HW229967   1.295   6.486   0.855
 9690SOL     OW29968   6.144   5.270   5.239
 9690SOL    HW129969   6.187   5.190   5.197
 9690SOL    HW229970   6.106   5.329   5.167
 9691SOL     OW29971   2.944   3.896   1.799
 9691SOL    HW129972   2.908   3.953   1.726
 9691SOL    HW229973   2.977   3.954   1.874
 9692SOL     OW29974   5.086   4.954   0.914
 9692SOL    HW129975   5.163   4.907   0.960
 9692SOL    HW229976   5.000   4.916   0.948
 9693SOL     OW29977   5.230   4.086   4.280
 9693SOL    HW129978   5.184   4.011   4.328
 9693SOL    HW229979   5.168   4.128   4.215
 9694SOL     OW29980   3.872   6.680   2.542
 9694SOL    HW129981   3.800   6.670   2.612
 9694SOL    HW229982   3.835   6.654   2.453
 9695SOL     OW29983   0.824   2.616   3.259
 9695SOL    HW129984   0.756   2.648   3.193
 9695SOL    HW229985   0.867   2.694   3.303
 9696SOL     OW29986   5.893   2.028   2.474
 9696SOL    HW129987   5.889   2.114   2.525
 9696SOL    HW229988   5.864   1.953   2.535
 9697SOL     OW29989   0.596   6.254   0.678
 9697SOL    HW129990   0.628   6.209   0.594
 9697SOL    HW229991   0.559   6.344   0.655
 9698SOL     OW29992   5.859   3.138   0.289
 9698SOL    HW129993   5.860   3.236   0.308
 9698SOL    HW229994   5.845   3.124   0.191
 9699SOL     OW29995   1.370   5.421   1.345
 9699SOL    HW129996   1.405   5.448   1.256
 9699SOL    HW229997   1.318   5.337   1.337
 9700SOL     OW29998   5.527   0.180   5.019
 9700SOL    HW129999   5.473   0.257   4.986
 9700SOL    HW230000   5.610   0.171   4.964
 9701SOL     OW30001   4.362   3.278   6.275
 9701SOL    HW130002   4.369   3.189   6.320
 9701SOL    HW230003   4.267   3.296   6.251
 9702SOL     OW30004   3.733   2.697   1.424
 9702SOL    HW130005   3.678   2.738   1.351
 9702SOL    HW230006   3.739   2.598   1.409
 9703SOL     OW30007   6.741   4.029   4.920
 9703SOL    HW130008   6.828   4.032   4.967
 9703SOL    HW230009   6.755   4.000   4.825
 9704SOL     OW30010   2.194   4.054   3.013
 9704SOL    HW130011   2.266   4.120   3.032
 9704SOL    HW230012   2.155   4.021   3.099
 9705SOL     OW30013   6.368   3.303   5.544
 9705SOL    HW130014   6.336   3.384   5.593
 9705SOL    HW230015   6.308   3.286   5.465
 9706SOL     OW30016   1.356   1.855   2.324
 9706SOL    HW130017   1.447   1.887   2.349
 9706SOL    HW230018   1.356   1.755   2.322
 9707SOL     OW30019   6.400   4.942   2.657
 9707SOL    HW130020   6.379   4.868   2.593
 9707SOL    HW230021   6.496   4.968   2.647
 9708SOL     OW30022   2.294   0.169   2.293
 9708SOL    HW130023   2.328   0.118   2.372
 9708SOL    HW230024   2.276   0.264   2.320
 9709SOL     OW30025   5.764   1.997   2.209
 9709SOL    HW130026   5.677   1.952   2.230
 9709SOL    HW230027   5.807   2.027   2.294
 9710SOL     OW30028   6.231   5.863   4.237
 9710SOL    HW130029   6.297   5.791   4.214
 9710SOL    HW230030   6.195   5.904   4.153
 9711SOL     OW30031   4.060   0.243   0.056
 9711SOL    HW130032   4.108   0.156   0.067
 9711SOL    HW230033   3.976   0.242   0.109
 9712SOL     OW30034   5.547   2.006   6.801
 9712SOL    HW130035   5.544   2.105   6.815
 9712SOL    HW230036   5.498   1.960   6.875
 9713SOL     OW30037   1.048   6.790   3.763
 9713SOL    HW130038   1.103   6.724   3.814
 9713SOL    HW230039   0.971   6.743   3.719
 9714SOL     OW30040   2.773   4.872   4.878
 9714SOL    HW130041   2.675   4.859   4.862
 9714SOL    HW230042   2.811   4.789   4.918
 9715SOL     OW30043   6.416   3.840   7.017
 9715SOL    HW130044   6.501   3.787   0.004
 9715SOL    HW230045   6.427   3.930   0.032
 9716SOL     OW30046   2.973   4.995   0.047
 9716SOL    HW130047   2.951   5.092   0.038
 9716SOL    HW230048   2.928   4.957   0.128
 9717SOL     OW30049   4.235   0.949   5.236
 9717SOL    HW130050   4.151   0.953   5.290
 9717SOL    HW230051   4.235   1.023   5.169
 9718SOL     OW30052   2.924   2.604   0.366
 9718SOL    HW130053   2.897   2.520   0.411
 9718SOL    HW230054   3.020   2.625   0.388
 9719SOL     OW30055   4.626   6.176   4.965
 9719SOL    HW130056   4.572   6.231   4.900
 9719SOL    HW230057   4.648   6.231   5.045
 9720SOL     OW30058   1.995   3.779   2.936
 9720SOL    HW130059   2.027   3.685   2.949
 9720SOL    HW230060   2.055   3.827   2.873
 9721SOL     OW30061   0.815   1.603   0.644
 9721SOL    HW130062   0.856   1.533   0.702
 9721SOL    HW230063   0.729   1.571   0.607
 9722SOL     OW30064   3.949   3.180   4.918
 9722SOL    HW130065   3.897   3.097   4.897
 9722SOL    HW230066   3.987   3.172   5.010
 9723SOL     OW30067   6.353   5.603   4.056
 9723SOL    HW130068   6.325   5.580   4.149
 9723SOL    HW230069   6.376   5.519   4.007
 9724SOL     OW30070   1.028   5.277   0.105
 9724SOL    HW130071   1.118   5.234   0.113
 9724SOL    HW230072   1.039   5.375   0.086
 9725SOL     OW30073   3.360   5.411   5.553
 9725SOL    HW130074   3.274   5.410   5.604
 9725SOL    HW230075   3.426   5.350   5.597
 9726SOL     OW30076   6.038   1.145   4.161
 9726SOL    HW130077   6.004   1.051   4.151
 9726SOL    HW230078   6.023   1.176   4.255
 9727SOL     OW30079   1.186   1.158   6.947
 9727SOL    HW130080   1.189   1.258   6.947
 9727SOL    HW230081   1.256   1.122   7.008
 9728SOL     OW30082   5.316   0.386   6.030
 9728SOL    HW130083   5.267   0.329   6.096
 9728SOL    HW230084   5.315   0.342   5.940
 9729SOL     OW30085   0.228   5.444   3.261
 9729SOL    HW130086   0.172   5.515   3.304
 9729SOL    HW230087   0.229   5.363   3.319
 9730SOL     OW30088   0.183   4.415   3.487
 9730SOL    HW130089   0.244   4.476   3.437
 9730SOL    HW230090   0.172   4.448   3.581
 9731SOL     OW30091   5.184   3.899   2.452
 9731SOL    HW130092   5.261   3.864   2.504
 9731SOL    HW230093   5.117   3.826   2.438
 9732SOL     OW30094   1.170   2.897   2.279
 9732SOL    HW130095   1.264   2.866   2.290
 9732SOL    HW230096   1.138   2.874   2.187
 9733SOL     OW30097   6.345   5.301   2.856
 9733SOL    HW130098   6.423   5.250   2.891
 9733SOL    HW230099   6.352   5.397   2.885
 9734SOL     OW30100   5.964   6.761   5.461
 9734SOL    HW130101   5.993   6.743   5.555
 9734SOL    HW230102   5.947   6.859   5.449
 9735SOL     OW30103   1.648   2.339   2.224
 9735SOL    HW130104   1.674   2.245   2.201
 9735SOL    HW230105   1.711   2.403   2.180
 9736SOL     OW30106   4.666   2.323   5.030
 9736SOL    HW130107   4.711   2.246   5.076
 9736SOL    HW230108   4.735   2.380   4.986
 9737SOL     OW30109   5.895   2.223   2.682
 9737SOL    HW130110   5.931   2.198   2.772
 9737SOL    HW230111   5.805   2.265   2.693
 9738SOL     OW30112   1.560   5.713   2.559
 9738SOL    HW130113   1.482   5.775   2.566
 9738SOL    HW230114   1.528   5.622   2.532
 9739SOL     OW30115   5.798   0.099   0.109
 9739SOL    HW130116   5.756   0.008   0.116
 9739SOL    HW230117   5.894   0.090   0.083
 9740SOL     OW30118   0.149   1.235   1.777
 9740SOL    HW130119   0.138   1.289   1.694
 9740SOL    HW230120   0.238   1.190   1.776
 9741SOL     OW30121   2.972   1.379   4.771
 9741SOL    HW130122   2.989   1.311   4.843
 9741SOL    HW230123   2.875   1.380   4.749
 9742SOL     OW30124   3.863   2.488   5.823
 9742SOL    HW130125   3.778   2.480   5.874
 9742SOL    HW230126   3.923   2.410   5.846
 9743SOL     OW30127   6.024   3.421   3.984
 9743SOL    HW130128   6.007   3.324   3.965
 9743SOL    HW230129   6.001   3.441   4.079
 9744SOL     OW30130   2.087   0.244   3.658
 9744SOL    HW130131   2.016   0.293   3.608
 9744SOL    HW230132   2.055   0.226   3.751
 9745SOL     OW30133   6.624   0.716   5.484
 9745SOL    HW130134   6.705   0.694   5.431
 9745SOL    HW230135   6.543   0.675   5.442
 9746SOL     OW30136   4.261   5.181   6.310
 9746SOL    HW130137   4.169   5.154   6.280
 9746SOL    HW230138   4.318   5.099   6.322
 9747SOL     OW30139   2.350   2.587   3.041
 9747SOL    HW130140   2.419   2.542   2.985
 9747SOL    HW230141   2.395   2.644   3.110
 9748SOL     OW30142   1.071   0.507   3.433
 9748SOL    HW130143   1.099   0.591   3.387
 9748SOL    HW230144   0.974   0.511   3.455
 9749SOL     OW30145   6.519   1.410   2.032
 9749SOL    HW130146   6.529   1.311   2.017
 9749SOL    HW230147   6.608   1.454   2.019
 9750SOL     OW30148   6.583   4.556   3.916
 9750SOL    HW130149   6.614   4.582   3.824
 9750SOL    HW230150   6.660   4.561   3.980
 9751SOL     OW30151   2.389   1.008   1.885
 9751SOL    HW130152   2.366   0.995   1.788
 9751SOL    HW230153   2.377   1.104   1.909
 9752SOL     OW30154   3.746   3.313   7.022
 9752SOL    HW130155   3.723   3.215   7.024
 9752SOL    HW230156   3.843   3.324   0.019
 9753SOL     OW30157   6.511   5.916   4.783
 9753SOL    HW130158   6.517   6.012   4.809
 9753SOL    HW230159   6.424   5.878   4.813
 9754SOL     OW30160   3.702   1.065   1.500
 9754SOL    HW130161   3.653   1.130   1.443
 9754SOL    HW230162   3.797   1.093   1.509
 9755SOL     OW30163   3.452   4.417   6.401
 9755SOL    HW130164   3.464   4.351   6.327
 9755SOL    HW230165   3.355   4.421   6.425
 9756SOL     OW30166   6.149   0.832   6.245
 9756SOL    HW130167   6.059   0.817   6.204
 9756SOL    HW230168   6.219   0.826   6.173
 9757SOL     OW30169   4.917   3.922   4.159
 9757SOL    HW130170   4.963   3.895   4.075
 9757SOL    HW230171   4.895   4.020   4.154
 9758SOL     OW30172   1.622   0.516   0.851
 9758SOL    HW130173   1.601   0.577   0.927
 9758SOL    HW230174   1.608   0.565   0.765
 9759SOL     OW30175   0.887   1.076   0.341
 9759SOL    HW130176   0.808   1.088   0.280
 9759SOL    HW230177   0.967   1.121   0.300
 9760SOL     OW30178   4.642   2.140   0.319
 9760SOL    HW130179   4.557   2.089   0.304
 9760SOL    HW230180   4.654   2.158   0.416
 9761SOL     OW30181   1.472   2.148   1.572
 9761SOL    HW130182   1.541   2.221   1.572
 9761SOL    HW230183   1.496   2.080   1.642
 9762SOL     OW30184   2.490   1.586   5.683
 9762SOL    HW130185   2.517   1.561   5.590
 9762SOL    HW230186   2.405   1.639   5.680
 9763SOL     OW30187   6.347   1.667   0.739
 9763SOL    HW130188   6.413   1.694   0.809
 9763SOL    HW230189   6.339   1.567   0.737
 9764SOL     OW30190   5.502   1.931   2.225
 9764SOL    HW130191   5.451   2.015   2.203
 9764SOL    HW230192   5.438   1.862   2.260
 9765SOL     OW30193   6.606   1.107   1.348
 9765SOL    HW130194   6.546   1.155   1.411
 9765SOL    HW230195   6.701   1.132   1.366
 9766SOL     OW30196   2.234   1.077   4.584
 9766SOL    HW130197   2.213   1.174   4.589
 9766SOL    HW230198   2.239   1.038   4.676
 9767SOL     OW30199   2.065   3.429   5.815
 9767SOL    HW130200   2.083   3.338   5.778
 9767SOL    HW230201   1.991   3.471   5.762
 9768SOL     OW30202   6.370   2.318   0.700
 9768SOL    HW130203   6.408   2.226   0.708
 9768SOL    HW230204   6.322   2.342   0.785
 9769SOL     OW30205   2.976   1.970   4.932
 9769SOL    HW130206   3.019   2.053   4.898
 9769SOL    HW230207   2.994   1.961   5.030
 9770SOL     OW30208   3.066   2.193   6.590
 9770SOL    HW130209   2.973   2.160   6.575
 9770SOL    HW230210   3.102   2.231   6.504
 9771SOL     OW30211   2.907   6.287   3.028
 9771SOL    HW130212   2.849   6.216   2.987
 9771SOL    HW230213   2.991   6.244   3.063
 9772SOL     OW30214   1.124   6.324   1.520
 9772SOL    HW130215   1.137   6.412   1.473
 9772SOL    HW230216   1.037   6.326   1.569
 9773SOL     OW30217   4.669   5.512   1.729
 9773SOL    HW130218   4.759   5.468   1.721
 9773SOL    HW230219   4.617   5.469   1.803
 9774SOL     OW30220   0.664   5.663   4.605
 9774SOL    HW130221   0.706   5.694   4.690
 9774SOL    HW230222   0.734   5.637   4.539
 9775SOL     OW30223   2.188   0.754   3.910
 9775SOL    HW130224   2.131   0.760   3.828
 9775SOL    HW230225   2.284   0.749   3.883
 9776SOL     OW30226   1.585   6.020   6.554
 9776SOL    HW130227   1.614   6.025   6.458
 9776SOL    HW230228   1.571   5.924   6.579
 9777SOL     OW30229   4.729   0.267   5.806
 9777SOL    HW130230   4.748   0.339   5.738
 9777SOL    HW230231   4.769   0.294   5.894
 9778SOL     OW30232   0.190   2.646   4.193
 9778SOL    HW130233   0.154   2.570   4.248
 9778SOL    HW230234   0.262   2.692   4.244
 9779SOL     OW30235   1.461   1.339   3.881
 9779SOL    HW130236   1.542   1.361   3.935
 9779SOL    HW230237   1.485   1.339   3.784
 9780SOL     OW30238   2.256   2.243   1.280
 9780SOL    HW130239   2.323   2.229   1.207
 9780SOL    HW230240   2.237   2.156   1.325
 9781SOL     OW30241   1.747   3.117   3.964
 9781SOL    HW130242   1.709   3.025   3.966
 9781SOL    HW230243   1.843   3.114   3.936
 9782SOL     OW30244   0.233   2.328   1.404
 9782SOL    HW130245   0.297   2.274   1.458
 9782SOL    HW230246   0.281   2.366   1.325
 9783SOL     OW30247   3.495   1.440   3.142
 9783SOL    HW130248   3.535   1.407   3.228
 9783SOL    HW230249   3.499   1.540   3.140
 9784SOL     OW30250   1.818   1.514   0.404
 9784SOL    HW130251   1.876   1.440   0.438
 9784SOL    HW230252   1.810   1.585   0.474
 9785SOL     OW30253   6.972   2.110   4.397
 9785SOL    HW130254   6.912   2.165   4.454
 9785SOL    HW230255   6.959   2.134   4.301
 9786SOL     OW30256   2.459   4.921   1.520
 9786SOL    HW130257   2.388   4.851   1.523
 9786SOL    HW230258   2.494   4.931   1.427
 9787SOL     OW30259   3.521   2.895   3.022
 9787SOL    HW130260   3.516   2.867   3.118
 9787SOL    HW230261   3.529   2.994   3.016
 9788SOL     OW30262   6.644   6.311   1.509
 9788SOL    HW130263   6.591   6.379   1.458
 9788SOL    HW230264   6.610   6.306   1.603
 9789SOL     OW30265   3.640   0.342   6.672
 9789SOL    HW130266   3.563   0.297   6.626
 9789SOL    HW230267   3.717   0.279   6.678
 9790SOL     OW30268   6.937   4.624   4.669
 9790SOL    HW130269   6.996   4.583   4.599
 9790SOL    HW230270   6.865   4.676   4.625
 9791SOL     OW30271   0.959   6.444   1.034
 9791SOL    HW130272   0.991   6.520   1.090
 9791SOL    HW230273   1.025   6.368   1.039
 9792SOL     OW30274   4.102   5.647   1.256
 9792SOL    HW130275   4.032   5.682   1.193
 9792SOL    HW230276   4.085   5.683   1.347
 9793SOL     OW30277   4.773   1.499   2.294
 9793SOL    HW130278   4.781   1.456   2.204
 9793SOL    HW230279   4.832   1.579   2.298
 9794SOL     OW30280   4.780   4.590   5.361
 9794SOL    HW130281   4.857   4.637   5.317
 9794SOL    HW230282   4.810   4.501   5.396
 9795SOL     OW30283   1.029   3.836   3.474
 9795SOL    HW130284   0.982   3.923   3.485
 9795SOL    HW230285   1.124   3.845   3.505
 9796SOL     OW30286   3.231   3.733   3.516
 9796SOL    HW130287   3.203   3.744   3.611
 9796SOL    HW230288   3.154   3.754   3.456
 9797SOL     OW30289   2.885   6.791   6.573
 9797SOL    HW130290   2.853   6.748   6.657
 9797SOL    HW230291   2.850   6.739   6.494
 9798SOL     OW30292   1.446   3.307   0.362
 9798SOL    HW130293   1.513   3.312   0.436
 9798SOL    HW230294   1.356   3.287   0.400
 9799SOL     OW30295   2.798   0.105   6.190
 9799SOL    HW130296   2.884   0.115   6.140
 9799SOL    HW230297   2.814   0.056   6.275
 9800SOL     OW30298   6.261   3.476   4.799
 9800SOL    HW130299   6.168   3.502   4.773
 9800SOL    HW230300   6.312   3.558   4.827
 9801SOL     OW30301   5.898   5.583   6.372
 9801SOL    HW130302   5.996   5.589   6.349
 9801SOL    HW230303   5.869   5.669   6.414
 9802SOL     OW30304   4.605   4.915   1.154
 9802SOL    HW130305   4.686   4.941   1.207
 9802SOL    HW230306   4.619   4.825   1.113
 9803SOL     OW30307   0.796   3.950   6.352
 9803SOL    HW130308   0.715   4.007   6.366
 9803SOL    HW230309   0.874   3.991   6.399
 9804SOL     OW30310   6.525   5.652   2.545
 9804SOL    HW130311   6.619   5.686   2.542
 9804SOL    HW230312   6.508   5.610   2.634
 9805SOL     OW30313   0.476   6.730   3.856
 9805SOL    HW130314   0.473   6.657   3.924
 9805SOL    HW230315   0.382   6.752   3.827
 9806SOL     OW30316   2.908   2.408   6.108
 9806SOL    HW130317   2.857   2.403   6.022
 9806SOL    HW230318   2.985   2.471   6.098
 9807SOL     OW30319   2.852   3.588   1.949
 9807SOL    HW130320   2.870   3.493   1.925
 9807SOL    HW230321   2.819   3.637   1.868
 9808SOL     OW30322   4.483   6.652   3.613
 9808SOL    HW130323   4.458   6.683   3.522
 9808SOL    HW230324   4.540   6.721   3.658
 9809SOL     OW30325   0.191   2.767   0.676
 9809SOL    HW130326   0.129   2.797   0.748
 9809SOL    HW230327   0.257   2.703   0.713
 9810SOL     OW30328   1.986   1.591   6.505
 9810SOL    HW130329   2.028   1.576   6.415
 9810SOL    HW230330   2.039   1.658   6.556
 9811SOL     OW30331   6.254   4.102   4.015
 9811SOL    HW130332   6.196   4.119   3.935
 9811SOL    HW230333   6.260   4.185   4.070
 9812SOL     OW30334   2.448   6.513   4.778
 9812SOL    HW130335   2.497   6.588   4.822
 9812SOL    HW230336   2.513   6.451   4.735
 9813SOL     OW30337   4.824   2.071   0.998
 9813SOL    HW130338   4.870   2.150   0.958
 9813SOL    HW230339   4.784   2.097   1.086
 9814SOL     OW30340   5.798   1.497   0.311
 9814SOL    HW130341   5.781   1.414   0.259
 9814SOL    HW230342   5.895   1.500   0.338
 9815SOL     OW30343   4.583   2.478   4.457
 9815SOL    HW130344   4.496   2.494   4.503
 9815SOL    HW230345   4.598   2.379   4.446
 9816SOL     OW30346   1.210   0.660   0.673
 9816SOL    HW130347   1.268   0.685   0.595
 9816SOL    HW230348   1.203   0.560   0.678
 9817SOL     OW30349   0.422   6.979   3.639
 9817SOL    HW130350   0.461   6.954   3.727
 9817SOL    HW230351   0.328   7.010   3.652
 9818SOL     OW30352   6.242   2.131   4.667
 9818SOL    HW130353   6.185   2.206   4.698
 9818SOL    HW230354   6.204   2.092   4.583
 9819SOL     OW30355   3.606   1.852   3.599
 9819SOL    HW130356   3.612   1.816   3.692
 9819SOL    HW230357   3.688   1.826   3.548
 9820SOL     OW30358   3.894   4.287   6.199
 9820SOL    HW130359   3.870   4.196   6.233
 9820SOL    HW230360   3.976   4.281   6.143
 9821SOL     OW30361   4.954   5.956   6.832
 9821SOL    HW130362   5.019   5.946   6.757
 9821SOL    HW230363   4.892   5.878   6.832
 9822SOL     OW30364   0.588   6.965   2.757
 9822SOL    HW130365   0.544   6.979   2.846
 9822SOL    HW230366   0.683   6.998   2.761
 9823SOL     OW30367   3.367   1.061   2.451
 9823SOL    HW130368   3.306   1.139   2.463
 9823SOL    HW230369   3.313   0.978   2.440
 9824SOL     OW30370   1.200   4.367   5.123
 9824SOL    HW130371   1.202   4.326   5.031
 9824SOL    HW230372   1.109   4.407   5.139
 9825SOL     OW30373   3.715   5.022   5.492
 9825SOL    HW130374   3.662   4.974   5.563
 9825SOL    HW230375   3.708   4.972   5.406
 9826SOL     OW30376   4.588   6.642   6.019
 9826SOL    HW130377   4.577   6.662   5.922
 9826SOL    HW230378   4.509   6.590   6.051
 9827SOL     OW30379   1.714   4.292   4.903
 9827SOL    HW130380   1.810   4.318   4.890
 9827SOL    HW230381   1.675   4.345   4.979
 9828SOL     OW30382   3.907   2.345   0.047
 9828SOL    HW130383   3.915   2.278   6.998
 9828SOL    HW230384   3.993   2.351   0.097
 9829SOL     OW30385   2.990   6.311   0.351
 9829SOL    HW130386   3.075   6.363   0.355
 9829SOL    HW230387   2.932   6.336   0.428
 9830SOL     OW30388   5.429   1.401   0.810
 9830SOL    HW130389   5.365   1.352   0.751
 9830SOL    HW230390   5.509   1.343   0.828
 9831SOL     OW30391   1.177   6.168   1.291
 9831SOL    HW130392   1.146   6.205   1.379
 9831SOL    HW230393   1.223   6.080   1.307
 9832SOL     OW30394   4.556   5.404   1.971
 9832SOL    HW130395   4.599   5.380   2.058
 9832SOL    HW230396   4.485   5.473   1.987
 9833SOL     OW30397   3.684   3.878   5.101
 9833SOL    HW130398   3.627   3.929   5.165
 9833SOL    HW230399   3.632   3.800   5.066
 9834SOL     OW30400   2.290   4.399   5.488
 9834SOL    HW130401   2.207   4.426   5.439
 9834SOL    HW230402   2.326   4.315   5.450
 9835SOL     OW30403   5.010   1.743   4.616
 9835SOL    HW130404   5.090   1.723   4.559
 9835SOL    HW230405   4.955   1.660   4.626
 9836SOL     OW30406   5.654   3.570   3.142
 9836SOL    HW130407   5.651   3.522   3.229
 9836SOL    HW230408   5.614   3.661   3.153
 9837SOL     OW30409   2.247   0.041   4.037
 9837SOL    HW130410   2.167   0.101   4.033
 9837SOL    HW230411   2.224   6.983   4.089
 9838SOL     OW30412   0.973   6.291   5.855
 9838SOL    HW130413   1.037   6.215   5.855
 9838SOL    HW230414   1.022   6.375   5.831
 9839SOL     OW30415   6.647   1.592   1.790
 9839SOL    HW130416   6.573   1.658   1.803
 9839SOL    HW230417   6.701   1.584   1.873
 9840SOL     OW30418   6.956   0.749   0.972
 9840SOL    HW130419   0.006   0.810   0.946
 9840SOL    HW230420   6.869   0.794   0.954
 9841SOL     OW30421   1.485   3.935   4.827
 9841SOL    HW130422   1.410   3.956   4.765
 9841SOL    HW230423   1.571   3.967   4.788
 9842SOL     OW30424   3.481   3.143   3.273
 9842SOL    HW130425   3.426   3.224   3.253
 9842SOL    HW230426   3.569   3.150   3.226
 9843SOL     OW30427   6.475   1.806   1.001
 9843SOL    HW130428   6.543   1.878   0.989
 9843SOL    HW230429   6.383   1.844   0.987
 9844SOL     OW30430   4.370   6.650   2.809
 9844SOL    HW130431   4.287   6.664   2.755
 9844SOL    HW230432   4.381   6.553   2.828
 9845SOL     OW30433   2.719   1.895   4.835
 9845SOL    HW130434   2.797   1.920   4.893
 9845SOL    HW230435   2.724   1.797   4.814
 9846SOL     OW30436   3.127   3.925   3.091
 9846SOL    HW130437   3.042   3.907   3.042
 9846SOL    HW230438   3.130   3.870   3.175
 9847SOL     OW30439   2.649   3.147   6.308
 9847SOL    HW130440   2.603   3.071   6.263
 9847SOL    HW230441   2.709   3.113   6.381
 9848SOL     OW30442   4.467   2.573   6.421
 9848SOL    HW130443   4.516   2.656   6.448
 9848SOL    HW230444   4.465   2.508   6.498
 9849SOL     OW30445   6.341   0.704   6.921
 9849SOL    HW130446   6.313   0.772   6.989
 9849SOL    HW230447   6.332   0.743   6.830
 9850SOL     OW30448   4.148   6.156   2.779
 9850SOL    HW130449   4.208   6.087   2.738
 9850SOL    HW230450   4.053   6.130   2.765
 9851SOL     OW30451   4.517   2.043   5.177
 9851SOL    HW130452   4.522   2.102   5.257
 9851SOL    HW230453   4.609   2.017   5.148
 9852SOL     OW30454   4.383   1.970   3.538
 9852SOL    HW130455   4.393   1.871   3.526
 9852SOL    HW230456   4.323   2.006   3.466
 9853SOL     OW30457   5.302   4.085   2.271
 9853SOL    HW130458   5.234   4.157   2.262
 9853SOL    HW230459   5.267   4.013   2.332
 9854SOL     OW30460   5.911   5.337   4.896
 9854SOL    HW130461   5.949   5.404   4.960
 9854SOL    HW230462   5.985   5.286   4.853
 9855SOL     OW30463   0.919   4.572   1.171
 9855SOL    HW130464   0.836   4.518   1.186
 9855SOL    HW230465   0.998   4.510   1.166
 9856SOL     OW30466   3.973   4.230   0.664
 9856SOL    HW130467   3.918   4.301   0.708
 9856SOL    HW230468   3.944   4.219   0.569
 9857SOL     OW30469   5.327   1.692   2.741
 9857SOL    HW130470   5.301   1.613   2.796
 9857SOL    HW230471   5.388   1.751   2.795
 9858SOL     OW30472   5.177   0.617   1.916
 9858SOL    HW130473   5.199   0.714   1.929
 9858SOL    HW230474   5.095   0.608   1.860
 9859SOL     OW30475   6.179   0.202   1.424
 9859SOL    HW130476   6.251   0.148   1.468
 9859SOL    HW230477   6.095   0.149   1.419
 9860SOL     OW30478   0.325   0.959   1.442
 9860SOL    HW130479   0.413   0.937   1.398
 9860SOL    HW230480   0.269   0.876   1.446
 9861SOL     OW30481   3.328   6.190   4.507
 9861SOL    HW130482   3.299   6.122   4.441
 9861SOL    HW230483   3.253   6.209   4.571
 9862SOL     OW30484   2.474   3.585   1.166
 9862SOL    HW130485   2.530   3.571   1.247
 9862SOL    HW230486   2.408   3.658   1.183
 9863SOL     OW30487   3.152   6.959   2.926
 9863SOL    HW130488   3.223   0.004   2.934
 9863SOL    HW230489   3.085   6.971   2.999
 9864SOL     OW30490   4.383   5.668   3.683
 9864SOL    HW130491   4.310   5.704   3.625
 9864SOL    HW230492   4.427   5.590   3.639
 9865SOL     OW30493   0.526   0.293   3.563
 9865SOL    HW130494   0.500   0.280   3.467
 9865SOL    HW230495   0.625   0.299   3.570
 9866SOL     OW30496   5.036   4.259   4.552
 9866SOL    HW130497   5.040   4.222   4.645
 9866SOL    HW230498   4.972   4.205   4.497
 9867SOL     OW30499   3.934   0.842   0.318
 9867SOL    HW130500   3.870   0.785   0.370
 9867SOL    HW230501   3.990   0.783   0.260
 9868SOL     OW30502   0.744   4.412   6.946
 9868SOL    HW130503   0.778   4.393   6.854
 9868SOL    HW230504   0.763   4.508   6.969
 9869SOL     OW30505   1.734   4.133   3.579
 9869SOL    HW130506   1.798   4.204   3.551
 9869SOL    HW230507   1.765   4.044   3.546
 9870SOL     OW30508   4.775   5.973   2.461
 9870SOL    HW130509   4.797   5.935   2.371
 9870SOL    HW230510   4.859   5.983   2.514
 9871SOL     OW30511   1.623   0.093   6.048
 9871SOL    HW130512   1.677   0.121   6.128
 9871SOL    HW230513   1.605   0.172   5.990
 9872SOL     OW30514   2.644   5.072   2.965
 9872SOL    HW130515   2.707   5.085   2.888
 9872SOL    HW230516   2.599   4.984   2.956
 9873SOL     OW30517   2.365   3.154   0.853
 9873SOL    HW130518   2.368   3.246   0.893
 9873SOL    HW230519   2.272   3.119   0.860
 9874SOL     OW30520   0.762   2.318   4.110
 9874SOL    HW130521   0.715   2.373   4.041
 9874SOL    HW230522   0.704   2.240   4.136
 9875SOL     OW30523   0.967   0.538   1.862
 9875SOL    HW130524   0.987   0.448   1.901
 9875SOL    HW230525   0.880   0.534   1.813
 9876SOL     OW30526   6.932   0.975   2.351
 9876SOL    HW130527   6.885   0.909   2.409
 9876SOL    HW230528   6.920   0.949   2.255
 9877SOL     OW30529   2.432   6.415   2.849
 9877SOL    HW130530   2.505   6.481   2.868
 9877SOL    HW230531   2.452   6.367   2.763
 9878SOL     OW30532   2.105   5.789   6.148
 9878SOL    HW130533   2.041   5.722   6.186
 9878SOL    HW230534   2.124   5.765   6.052
 9879SOL     OW30535   5.234   5.490   4.452
 9879SOL    HW130536   5.192   5.446   4.532
 9879SOL    HW230537   5.311   5.546   4.481
 9880SOL     OW30538   1.614   2.992   5.157
 9880SOL    HW130539   1.636   3.071   5.101
 9880SOL    HW230540   1.645   2.909   5.110
 9881SOL     OW30541   1.412   2.595   4.937
 9881SOL    HW130542   1.471   2.674   4.917
 9881SOL    HW230543   1.410   2.580   5.036
 9882SOL     OW30544   1.218   2.106   3.961
 9882SOL    HW130545   1.293   2.119   3.897
 9882SOL    HW230546   1.132   2.136   3.919
 9883SOL     OW30547   0.800   6.129   1.015
 9883SOL    HW130548   0.807   6.131   1.115
 9883SOL    HW230549   0.858   6.200   0.976
 9884SOL     OW30550   4.082   1.561   3.453
 9884SOL    HW130551   4.068   1.657   3.427
 9884SOL    HW230552   4.078   1.552   3.553
 9885SOL     OW30553   6.959   4.207   5.289
 9885SOL    HW130554   7.009   4.171   5.367
 9885SOL    HW230555   6.866   4.232   5.318
 9886SOL     OW30556   0.839   4.909   2.868
 9886SOL    HW130557   0.749   4.915   2.825
 9886SOL    HW230558   0.908   4.945   2.805
 9887SOL     OW30559   3.955   1.381   6.600
 9887SOL    HW130560   4.051   1.409   6.603
 9887SOL    HW230561   3.906   1.418   6.679
 9888SOL     OW30562   0.183   4.416   0.998
 9888SOL    HW130563   0.259   4.423   1.063
 9888SOL    HW230564   0.115   4.351   1.032
 9889SOL     OW30565   6.610   5.105   0.823
 9889SOL    HW130566   6.537   5.168   0.798
 9889SOL    HW230567   6.600   5.020   0.771
 9890SOL     OW30568   1.825   2.314   0.388
 9890SOL    HW130569   1.764   2.370   0.332
 9890SOL    HW230570   1.832   2.223   0.349
 9891SOL     OW30571   6.375   2.626   0.432
 9891SOL    HW130572   6.467   2.654   0.404
 9891SOL    HW230573   6.317   2.706   0.443
 9892SOL     OW30574   6.541   5.670   0.048
 9892SOL    HW130575   6.564   5.645   0.142
 9892SOL    HW230576   6.504   5.763   0.047
 9893SOL     OW30577   1.606   0.246   0.823
 9893SOL    HW130578   1.594   0.342   0.847
 9893SOL    HW230579   1.691   0.211   0.862
 9894SOL     OW30580   2.371   2.331   1.554
 9894SOL    HW130581   2.338   2.294   1.467
 9894SOL    HW230582   2.471   2.329   1.555
 9895SOL     OW30583   5.449   3.343   5.140
 9895SOL    HW130584   5.505   3.287   5.078
 9895SOL    HW230585   5.495   3.430   5.157
 9896SOL     OW30586   6.306   6.846   6.645
 9896SOL    HW130587   6.365   6.826   6.567
 9896SOL    HW230588   6.258   6.932   6.630
 9897SOL     OW30589   5.528   5.492   3.218
 9897SOL    HW130590   5.483   5.553   3.283
 9897SOL    HW230591   5.602   5.541   3.171
 9898SOL     OW30592   2.352   6.159   6.464
 9898SOL    HW130593   2.378   6.220   6.389
 9898SOL    HW230594   2.316   6.213   6.540
 9899SOL     OW30595   6.823   5.765   0.468
 9899SOL    HW130596   6.878   5.847   0.478
 9899SOL    HW230597   6.789   5.736   0.558
 9900SOL     OW30598   1.574   3.708   3.494
 9900SOL    HW130599   1.556   3.794   3.447
 9900SOL    HW230600   1.671   3.699   3.513
 9901SOL     OW30601   2.967   1.896   5.935
 9901SOL    HW130602   2.893   1.837   5.905
 9901SOL    HW230603   3.006   1.860   6.020
 9902SOL     OW30604   2.555   5.012   0.008
 9902SOL    HW130605   2.540   5.100   6.987
 9902SOL    HW230606   2.649   4.982   7.017
 9903SOL     OW30607   5.149   1.518   2.263
 9903SOL    HW130608   5.080   1.517   2.190
 9903SOL    HW230609   5.222   1.453   2.241
 9904SOL     OW30610   1.362   2.950   6.814
 9904SOL    HW130611   1.451   2.952   6.860
 9904SOL    HW230612   1.374   2.921   6.719
 9905SOL     OW30613   3.522   0.547   6.843
 9905SOL    HW130614   3.564   0.475   6.787
 9905SOL    HW230615   3.586   0.623   6.853
 9906SOL     OW30616   3.515   2.902   1.889
 9906SOL    HW130617   3.529   3.001   1.886
 9906SOL    HW230618   3.421   2.883   1.919
 9907SOL     OW30619   6.543   1.127   0.589
 9907SOL    HW130620   6.476   1.072   0.639
 9907SOL    HW230621   6.606   1.168   0.654
 9908SOL     OW30622   5.485   1.551   3.240
 9908SOL    HW130623   5.565   1.528   3.184
 9908SOL    HW230624   5.495   1.643   3.277
 9909SOL     OW30625   3.829   0.069   3.910
 9909SOL    HW130626   3.853   0.036   4.001
 9909SOL    HW230627   3.783   7.022   3.859
 9910SOL     OW30628   0.808   3.531   2.018
 9910SOL    HW130629   0.808   3.588   1.936
 9910SOL    HW230630   0.788   3.588   2.098
 9911SOL     OW30631   3.160   6.874   2.247
 9911SOL    HW130632   3.222   6.901   2.321
 9911SOL    HW230633   3.194   6.790   2.205
 9912SOL     OW30634   3.789   1.750   1.306
 9912SOL    HW130635   3.769   1.833   1.359
 9912SOL    HW230636   3.853   1.693   1.357
 9913SOL     OW30637   6.474   4.171   0.314
 9913SOL    HW130638   6.394   4.124   0.350
 9913SOL    HW230639   6.475   4.266   0.345
 9914SOL     OW30640   6.388   3.110   4.598
 9914SOL    HW130641   6.485   3.091   4.611
 9914SOL    HW230642   6.350   3.148   4.683
 9915SOL     OW30643   4.462   0.350   3.228
 9915SOL    HW130644   4.455   0.431   3.286
 9915SOL    HW230645   4.535   0.363   3.161
 9916SOL     OW30646   2.164   3.174   3.458
 9916SOL    HW130647   2.073   3.142   3.430
 9916SOL    HW230648   2.215   3.097   3.498
 9917SOL     OW30649   6.014   3.368   6.854
 9917SOL    HW130650   5.949   3.382   6.929
 9917SOL    HW230651   6.099   3.415   6.875
 9918SOL     OW30652   3.294   1.357   2.960
 9918SOL    HW130653   3.206   1.332   3.001
 9918SOL    HW230654   3.359   1.383   3.032
 9919SOL     OW30655   5.300   5.564   1.220
 9919SOL    HW130656   5.356   5.612   1.153
 9919SOL    HW230657   5.211   5.609   1.227
 9920SOL     OW30658   4.533   1.640   1.685
 9920SOL    HW130659   4.577   1.643   1.594
 9920SOL    HW230660   4.510   1.732   1.714
 9921SOL     OW30661   4.434   5.582   5.971
 9921SOL    HW130662   4.409   5.636   6.052
 9921SOL    HW230663   4.501   5.633   5.917
 9922SOL     OW30664   1.690   4.912   0.440
 9922SOL    HW130665   1.691   4.891   0.342
 9922SOL    HW230666   1.610   4.969   0.460
 9923SOL     OW30667   5.092   4.568   6.438
 9923SOL    HW130668   5.130   4.483   6.474
 9923SOL    HW230669   4.996   4.575   6.465
 9924SOL     OW30670   0.078   2.084   4.800
 9924SOL    HW130671   0.115   1.999   4.761
 9924SOL    HW230672   0.151   2.133   4.847
 9925SOL     OW30673   6.731   4.064   4.327
 9925SOL    HW130674   6.775   4.150   4.353
 9925SOL    HW230675   6.752   4.043   4.232
 9926SOL     OW30676   2.679   3.318   0.696
 9926SOL    HW130677   2.588   3.313   0.656
 9926SOL    HW230678   2.714   3.411   0.689
 9927SOL     OW30679   6.564   6.724   1.506
 9927SOL    HW130680   6.533   6.816   1.526
 9927SOL    HW230681   6.663   6.719   1.516
 9928SOL     OW30682   4.686   5.836   1.721
 9928SOL    HW130683   4.593   5.869   1.737
 9928SOL    HW230684   4.684   5.737   1.709
 9929SOL     OW30685   1.989   5.442   5.785
 9929SOL    HW130686   2.079   5.399   5.781
 9929SOL    HW230687   1.965   5.460   5.880
 9930SOL     OW30688   6.157   0.322   4.966
 9930SOL    HW130689   6.190   0.372   5.046
 9930SOL    HW230690   6.157   0.224   4.984
 9931SOL     OW30691   1.022   4.309   4.734
 9931SOL    HW130692   1.076   4.315   4.650
 9931SOL    HW230693   0.926   4.325   4.713
 9932SOL     OW30694   2.133   5.401   6.900
 9932SOL    HW130695   2.142   5.324   6.964
 9932SOL    HW230696   2.169   5.484   6.944
 9933SOL     OW30697   1.485   4.953   2.914
 9933SOL    HW130698   1.515   4.880   2.854
 9933SOL    HW230699   1.551   4.965   2.988
 9934SOL     OW30700   6.164   1.549   5.596
 9934SOL    HW130701   6.082   1.492   5.597
 9934SOL    HW230702   6.160   1.616   5.671
 9935SOL     OW30703   3.223   0.500   0.339
 9935SOL    HW130704   3.128   0.472   0.351
 9935SOL    HW230705   3.255   0.547   0.422
 9936SOL     OW30706   6.596   5.150   5.214
 9936SOL    HW130707   6.589   5.102   5.301
 9936SOL    HW230708   6.688   5.186   5.203
 9937SOL     OW30709   6.727   2.399   5.888
 9937SOL    HW130710   6.667   2.416   5.966
 9937SOL    HW230711   6.822   2.406   5.916
 9938SOL     OW30712   6.669   5.791   3.489
 9938SOL    HW130713   6.689   5.742   3.405
 9938SOL    HW230714   6.626   5.879   3.467
 9939SOL     OW30715   3.403   2.403   0.560
 9939SOL    HW130716   3.314   2.446   0.569
 9939SOL    HW230717   3.393   2.304   0.559
 9940SOL     OW30718   0.660   0.782   0.952
 9940SOL    HW130719   0.675   0.843   1.030
 9940SOL    HW230720   0.724   0.705   0.957
 9941SOL     OW30721   3.202   3.826   5.192
 9941SOL    HW130722   3.107   3.842   5.163
 9941SOL    HW230723   3.254   3.788   5.116
 9942SOL     OW30724   1.815   5.154   2.559
 9942SOL    HW130725   1.845   5.239   2.602
 9942SOL    HW230726   1.889   5.087   2.562
 9943SOL     OW30727   0.123   5.818   5.341
 9943SOL    HW130728   0.048   5.755   5.358
 9943SOL    HW230729   0.184   5.819   5.420
 9944SOL     OW30730   2.234   4.349   6.711
 9944SOL    HW130731   2.276   4.429   6.755
 9944SOL    HW230732   2.270   4.266   6.752
 9945SOL     OW30733   6.344   5.453   0.039
 9945SOL    HW130734   6.316   5.464   0.134
 9945SOL    HW230735   6.414   5.520   0.016
 9946SOL     OW30736   5.123   1.258   4.335
 9946SOL    HW130737   5.027   1.286   4.338
 9946SOL    HW230738   5.141   1.196   4.411
 9947SOL     OW30739   0.976   3.703   5.998
 9947SOL    HW130740   1.002   3.635   5.929
 9947SOL    HW230741   1.045   3.776   6.000
 9948SOL     OW30742   4.758   4.564   3.949
 9948SOL    HW130743   4.658   4.554   3.946
 9948SOL    HW230744   4.801   4.478   3.924
 9949SOL     OW30745   5.162   5.104   3.182
 9949SOL    HW130746   5.243   5.055   3.150
 9949SOL    HW230747   5.138   5.174   3.115
 9950SOL     OW30748   5.940   5.952   5.243
 9950SOL    HW130749   5.989   6.014   5.304
 9950SOL    HW230750   5.850   5.990   5.222
 9951SOL     OW30751   6.414   1.865   3.916
 9951SOL    HW130752   6.366   1.887   3.831
 9951SOL    HW230753   6.348   1.865   3.991
 9952SOL     OW30754   6.682   3.837   0.981
 9952SOL    HW130755   6.684   3.740   0.957
 9952SOL    HW230756   6.636   3.888   0.908
 9953SOL     OW30757   6.376   2.651   3.889
 9953SOL    HW130758   6.387   2.635   3.988
 9953SOL    HW230759   6.458   2.621   3.842
 9954SOL     OW30760   5.772   6.678   5.889
 9954SOL    HW130761   5.714   6.597   5.882
 9954SOL    HW230762   5.848   6.659   5.951
 9955SOL     OW30763   6.484   3.824   4.603
 9955SOL    HW130764   6.426   3.815   4.521
 9955SOL    HW230765   6.578   3.842   4.576
 9956SOL     OW30766   2.258   6.864   1.821
 9956SOL    HW130767   2.282   6.791   1.757
 9956SOL    HW230768   2.240   6.825   1.911
 9957SOL     OW30769   5.440   5.465   2.618
 9957SOL    HW130770   5.494   5.512   2.549
 9957SOL    HW230771   5.351   5.442   2.580
 9958SOL     OW30772   2.951   5.345   0.310
 9958SOL    HW130773   3.004   5.424   0.341
 9958SOL    HW230774   2.979   5.319   0.218
 9959SOL     OW30775   4.196   3.919   5.942
 9959SOL    HW130776   4.217   3.910   5.844
 9959SOL    HW230777   4.272   3.966   5.987
 9960SOL     OW30778   6.975   0.301   1.884
 9960SOL    HW130779   0.028   0.323   1.942
 9960SOL    HW230780   6.955   0.204   1.889
 9961SOL     OW30781   1.925   6.537   4.428
 9961SOL    HW130782   1.925   6.448   4.473
 9961SOL    HW230783   1.867   6.600   4.479
 9962SOL     OW30784   6.633   6.744   3.299
 9962SOL    HW130785   6.544   6.706   3.323
 9962SOL    HW230786   6.680   6.773   3.382
 9963SOL     OW30787   2.852   3.026   6.944
 9963SOL    HW130788   2.926   3.004   7.008
 9963SOL    HW230789   2.852   3.125   6.927
 9964SOL     OW30790   4.449   5.356   4.321
 9964SOL    HW130791   4.425   5.345   4.418
 9964SOL    HW230792   4.366   5.356   4.266
 9965SOL     OW30793   4.190   6.352   6.548
 9965SOL    HW130794   4.252   6.287   6.505
 9965SOL    HW230795   4.214   6.364   6.644
 9966SOL     OW30796   1.296   5.054   1.812
 9966SOL    HW130797   1.333   5.035   1.721
 9966SOL    HW230798   1.250   5.142   1.812
 9967SOL     OW30799   0.134   5.313   2.703
 9967SOL    HW130800   0.175   5.246   2.765
 9967SOL    HW230801   0.042   5.336   2.735
 9968SOL     OW30802   3.406   3.788   1.927
 9968SOL    HW130803   3.322   3.746   1.893
 9968SOL    HW230804   3.476   3.718   1.938
 9969SOL     OW30805   1.854   3.834   2.578
 9969SOL    HW130806   1.772   3.802   2.532
 9969SOL    HW230807   1.917   3.758   2.592
 9970SOL     OW30808   5.498   4.298   1.842
 9970SOL    HW130809   5.455   4.253   1.764
 9970SOL    HW230810   5.428   4.346   1.895
 9971SOL     OW30811   1.809   5.039   1.014
 9971SOL    HW130812   1.749   4.962   1.035
 9971SOL    HW230813   1.774   5.089   0.935
 9972SOL     OW30814   6.409   4.504   1.611
 9972SOL    HW130815   6.419   4.416   1.660
 9972SOL    HW230816   6.443   4.578   1.669
 9973SOL     OW30817   6.004   1.988   3.676
 9973SOL    HW130818   5.939   1.917   3.650
 9973SOL    HW230819   6.004   1.998   3.775
 9974SOL     OW30820   0.940   1.897   2.868
 9974SOL    HW130821   0.886   1.966   2.822
 9974SOL    HW230822   0.933   1.910   2.967
 9975SOL     OW30823   6.496   3.114   0.532
 9975SOL    HW130824   6.561   3.165   0.588
 9975SOL    HW230825   6.538   3.091   0.444
 9976SOL     OW30826   1.464   6.006   5.380
 9976SOL    HW130827   1.368   5.996   5.404
 9976SOL    HW230828   1.473   6.074   5.307
 9977SOL     OW30829   5.726   5.323   5.551
 9977SOL    HW130830   5.685   5.262   5.484
 9977SOL    HW230831   5.819   5.346   5.523
 9978SOL     OW30832   0.821   2.718   5.113
 9978SOL    HW130833   0.855   2.752   5.025
 9978SOL    HW230834   0.846   2.621   5.123
 9979SOL     OW30835   6.004   4.672   5.069
 9979SOL    HW130836   6.020   4.669   4.971
 9979SOL    HW230837   5.913   4.633   5.089
 9980SOL     OW30838   2.718   0.026   0.133
 9980SOL    HW130839   2.786   0.074   0.189
 9980SOL    HW230840   2.764   6.979   0.081
 9981SOL     OW30841   2.733   1.561   2.947
 9981SOL    HW130842   2.767   1.576   2.854
 9981SOL    HW230843   2.766   1.635   3.006
 9982SOL     OW30844   6.696   5.579   3.260
 9982SOL    HW130845   6.791   5.554   3.245
 9982SOL    HW230846   6.648   5.504   3.304
 9983SOL     OW30847   6.950   1.633   2.731
 9983SOL    HW130848   6.957   1.710   2.668
 9983SOL    HW230849   6.861   1.637   2.777
 9984SOL     OW30850   2.531   2.485   6.756
 9984SOL    HW130851   2.506   2.578   6.782
 9984SOL    HW230852   2.629   2.471   6.770
 9985SOL     OW30853   2.252   0.599   1.870
 9985SOL    HW130854   2.311   0.598   1.951
 9985SOL    HW230855   2.230   0.505   1.843
 9986SOL     OW30856   5.912   4.272   5.576
 9986SOL    HW130857   5.848   4.338   5.616
 9986SOL    HW230858   5.932   4.297   5.482
 9987SOL     OW30859   5.808   3.282   6.067
 9987SOL    HW130860   5.862   3.267   6.150
 9987SOL    HW230861   5.752   3.202   6.049
 9988SOL     OW30862   6.945   0.155   5.042
 9988SOL    HW130863   6.882   0.105   5.101
 9988SOL    HW230864   0.005   0.174   5.093
 9989SOL     OW30865   6.926   3.200   4.005
 9989SOL    HW130866   6.827   3.187   4.009
 9989SOL    HW230867   6.970   3.117   3.971
 9990SOL     OW30868   1.851   5.327   3.576
 9990SOL    HW130869   1.828   5.353   3.670
 9990SOL    HW230870   1.857   5.227   3.570
 9991SOL     OW30871   3.068   2.212   4.852
 9991SOL    HW130872   3.137   2.229   4.922
 9991SOL    HW230873   3.113   2.178   4.769
 9992SOL     OW30874   5.958   4.963   6.525
 9992SOL    HW130875   5.975   4.943   6.428
 9992SOL    HW230876   6.019   5.035   6.556
 9993SOL     OW30877   2.568   1.335   1.363
 9993SOL    HW130878   2.624   1.339   1.280
 9993SOL    HW230879   2.627   1.318   1.442
 9994SOL     OW30880   6.060   4.542   3.072
 9994SOL    HW130881   6.127   4.492   3.126
 9994SOL    HW230882   6.107   4.602   3.007
 9995SOL     OW30883   4.677   1.741   3.744
 9995SOL    HW130884   4.690   1.642   3.732
 9995SOL    HW230885   4.765   1.787   3.731
 9996SOL     OW30886   2.610   4.201   0.076
 9996SOL    HW130887   2.647   4.200   0.169
 9996SOL    HW230888   2.651   4.277   0.025
 9997SOL     OW30889   3.061   1.869   6.188
 9997SOL    HW130890   2.992   1.797   6.186
 9997SOL    HW230891   3.090   1.885   6.282
 9998SOL     OW30892   6.200   5.590   4.921
 9998SOL    HW130893   6.200   5.686   4.893
 9998SOL    HW230894   6.230   5.533   4.845
 9999SOL     OW30895   6.173   2.712   5.856
 9999SOL    HW130896   6.141   2.728   5.949
 9999SOL    HW230897   6.273   2.707   5.856
10000SOL     OW30898   6.913   2.740   0.341
10000SOL    HW130899   6.991   2.691   0.381
10000SOL    HW230900   6.867   2.793   0.412
10001SOL     OW30901   4.637   0.942   2.140
10001SOL    HW130902   4.547   0.898   2.133
10001SOL    HW230903   4.668   0.969   2.049
10002SOL     OW30904   1.256   6.194   2.152
10002SOL    HW130905   1.272   6.151   2.241
10002SOL    HW230906   1.304   6.142   2.081
10003SOL     OW30907   3.253   2.086   3.684
10003SOL    HW130908   3.317   2.083   3.761
10003SOL    HW230909   3.296   2.045   3.603
10004SOL     OW30910   6.827   2.336   3.277
10004SOL    HW130911   6.837   2.284   3.362
10004SOL    HW230912   6.796   2.429   3.299
10005SOL     OW30913   5.225   0.534   2.983
10005SOL    HW130914   5.225   0.548   3.082
10005SOL    HW230915   5.134   0.556   2.946
10006SOL     OW30916   3.859   0.201   4.300
10006SOL    HW130917   3.887   0.207   4.396
10006SOL    HW230918   3.928   0.150   4.248
10007SOL     OW30919   0.737   3.860   5.223
10007SOL    HW130920   0.658   3.834   5.279
10007SOL    HW230921   0.706   3.879   5.130
10008SOL     OW30922   3.684   0.324   4.142
10008SOL    HW130923   3.743   0.376   4.081
10008SOL    HW230924   3.740   0.275   4.209
10009SOL     OW30925   1.878   4.254   1.887
10009SOL    HW130926   1.878   4.212   1.796
10009SOL    HW230927   1.860   4.184   1.956
10010SOL     OW30928   2.312   0.856   6.911
10010SOL    HW130929   2.234   0.801   6.882
10010SOL    HW230930   2.289   0.904   6.996
10011SOL     OW30931   6.877   0.413   4.925
10011SOL    HW130932   6.902   0.317   4.941
10011SOL    HW230933   6.921   0.445   4.841
10012SOL     OW30934   6.199   1.341   3.390
10012SOL    HW130935   6.181   1.328   3.488
10012SOL    HW230936   6.117   1.379   3.346
10013SOL     OW30937   0.162   0.744   2.866
10013SOL    HW130938   0.204   0.654   2.867
10013SOL    HW230939   0.076   0.741   2.814
10014SOL     OW30940   1.216   4.182   6.367
10014SOL    HW130941   1.232   4.260   6.306
10014SOL    HW230942   1.210   4.214   6.461
10015SOL     OW30943   1.893   5.160   0.138
10015SOL    HW130944   1.976   5.183   0.088
10015SOL    HW230945   1.917   5.130   0.230
10016SOL     OW30946   1.792   1.302   6.882
10016SOL    HW130947   1.835   1.230   6.935
10016SOL    HW230948   1.842   1.316   6.796
10017SOL     OW30949   2.712   2.049   4.605
10017SOL    HW130950   2.700   2.016   4.699
10017SOL    HW230951   2.807   2.039   4.577
10018SOL     OW30952   5.725   0.454   6.184
10018SOL    HW130953   5.646   0.493   6.136
10018SOL    HW230954   5.717   0.474   6.282
10019SOL     OW30955   1.262   0.981   3.088
10019SOL    HW130956   1.264   0.883   3.066
10019SOL    HW230957   1.257   1.033   3.003
10020SOL     OW30958   1.575   2.774   1.635
10020SOL    HW130959   1.572   2.692   1.692
10020SOL    HW230960   1.616   2.850   1.686
10021SOL     OW30961   0.133   3.353   0.602
10021SOL    HW130962   0.225   3.384   0.625
10021SOL    HW230963   0.068   3.428   0.617
10022SOL     OW30964   1.802   1.215   6.429
10022SOL    HW130965   1.858   1.135   6.447
10022SOL    HW230966   1.724   1.215   6.491
10023SOL     OW30967   6.371   3.854   0.761
10023SOL    HW130968   6.321   3.784   0.710
10023SOL    HW230969   6.446   3.889   0.704
10024SOL     OW30970   1.460   4.912   3.664
10024SOL    HW130971   1.542   4.919   3.608
10024SOL    HW230972   1.394   4.852   3.620
10025SOL     OW30973   1.839   0.623   1.337
10025SOL    HW130974   1.784   0.623   1.254
10025SOL    HW230975   1.931   0.589   1.316
10026SOL     OW30976   5.733   0.630   3.425
10026SOL    HW130977   5.722   0.531   3.438
10026SOL    HW230978   5.796   0.646   3.349
10027SOL     OW30979   5.981   3.505   4.521
10027SOL    HW130980   5.968   3.558   4.437
10027SOL    HW230981   5.906   3.439   4.532
10028SOL     OW30982   2.031   1.023   0.721
10028SOL    HW130983   1.968   1.099   0.739
10028SOL    HW230984   1.980   0.937   0.717
10029SOL     OW30985   5.861   1.867   3.325
10029SOL    HW130986   5.847   1.966   3.337
10029SOL    HW230987   5.937   1.837   3.382
10030SOL     OW30988   1.847   0.445   4.086
10030SOL    HW130989   1.923   0.393   4.046
10030SOL    HW230990   1.767   0.386   4.092
10031SOL     OW30991   5.406   4.984   3.158
10031SOL    HW130992   5.415   4.923   3.080
10031SOL    HW230993   5.472   4.959   3.229
10032SOL     OW30994   2.624   1.788   5.373
10032SOL    HW130995   2.695   1.811   5.306
10032SOL    HW230996   2.659   1.807   5.465
10033SOL     OW30997   5.811   2.924   4.497
10033SOL    HW130998   5.784   3.000   4.438
10033SOL    HW230999   5.781   2.838   4.455
10034SOL     OW31000   4.141   0.180   5.342
10034SOL    HW131001   4.144   0.275   5.373
10034SOL    HW231002   4.092   0.175   5.255
10035SOL     OW31003   6.993   4.986   1.324
10035SOL    HW131004   6.931   4.908   1.325
10035SOL    HW231005   6.949   5.062   1.275
10036SOL     OW31006   6.897   1.846   0.002
10036SOL    HW131007   6.982   1.892   7.002
10036SOL    HW231008   6.864   1.792   6.949
10037SOL     OW31009   0.177   0.437   6.472
10037SOL    HW131010   0.155   0.405   6.379
10037SOL    HW231011   0.236   0.371   6.518
10038SOL     OW31012   6.421   6.646   1.089
10038SOL    HW131013   6.490   6.718   1.094
10038SOL    HW231014   6.404   6.610   1.181
10039SOL     OW31015   2.887   0.783   4.051
10039SOL    HW131016   2.840   0.818   3.971
10039SOL    HW231017   2.946   0.707   4.025
10040SOL     OW31018   6.928   3.091   0.855
10040SOL    HW131019   6.882   3.180   0.859
10040SOL    HW231020   6.982   3.085   0.770
10041SOL     OW31021   3.172   6.910   0.318
10041SOL    HW131022   3.093   6.954   0.276
10041SOL    HW231023   3.152   6.890   0.414
10042SOL     OW31024   0.100   1.967   2.786
10042SOL    HW131025   0.043   1.930   2.713
10042SOL    HW231026   0.192   1.927   2.779
10043SOL     OW31027   6.996   1.630   5.824
10043SOL    HW131028   6.971   1.547   5.873
10043SOL    HW231029   6.962   1.626   5.730
10044SOL     OW31030   3.065   2.302   5.573
10044SOL    HW131031   3.107   2.341   5.654
10044SOL    HW231032   3.136   2.267   5.511
10045SOL     OW31033   4.050   0.955   6.974
10045SOL    HW131034   3.966   0.922   7.018
10045SOL    HW231035   4.098   0.879   6.931
10046SOL     OW31036   1.465   5.340   1.588
10046SOL    HW131037   1.387   5.372   1.534
10046SOL    HW231038   1.446   5.354   1.685
10047SOL     OW31039   0.468   2.973   0.124
10047SOL    HW131040   0.370   2.977   0.145
10047SOL    HW231041   0.482   2.925   0.038
10048SOL     OW31042   5.869   6.547   2.469
10048SOL    HW131043   5.814   6.627   2.495
10048SOL    HW231044   5.850   6.523   2.374
10049SOL     OW31045   0.086   1.401   5.261
10049SOL    HW131046   0.088   1.474   5.193
10049SOL    HW231047   0.089   1.441   5.353
10050SOL     OW31048   5.898   3.326   5.380
10050SOL    HW131049   5.910   3.226   5.374
10050SOL    HW231050   5.923   3.357   5.471
10051SOL     OW31051   0.927   4.367   4.040
10051SOL    HW131052   1.021   4.349   4.008
10051SOL    HW231053   0.925   4.454   4.089
10052SOL     OW31054   1.341   0.289   3.098
10052SOL    HW131055   1.397   0.294   3.181
10052SOL    HW231056   1.319   0.194   3.078
10053SOL     OW31057   4.728   5.705   4.624
10053SOL    HW131058   4.726   5.605   4.620
10053SOL    HW231059   4.771   5.741   4.541
10054SOL     OW31060   6.043   4.315   4.435
10054SOL    HW131061   6.103   4.234   4.436
10054SOL    HW231062   6.000   4.325   4.524
10055SOL     OW31063   0.141   1.671   6.477
10055SOL    HW131064   0.096   1.711   6.397
10055SOL    HW231065   0.139   1.736   6.553
10056SOL     OW31066   6.110   2.921   3.608
10056SOL    HW131067   6.024   2.909   3.658
10056SOL    HW231068   6.107   2.868   3.523
10057SOL     OW31069   5.673   4.775   6.285
10057SOL    HW131070   5.646   4.681   6.309
10057SOL    HW231071   5.629   4.802   6.200
10058SOL     OW31072   6.686   3.885   5.492
10058SOL    HW131073   6.630   3.933   5.559
10058SOL    HW231074   6.744   3.818   5.540
10059SOL     OW31075   0.421   0.812   6.655
10059SOL    HW131076   0.398   0.775   6.565
10059SOL    HW231077   0.338   0.847   6.698
10060SOL     OW31078   2.459   2.156   2.616
10060SOL    HW131079   2.514   2.238   2.600
10060SOL    HW231080   2.518   2.085   2.655
10061SOL     OW31081   3.832   0.060   3.065
10061SOL    HW131082   3.930   0.050   3.048
10061SOL    HW231083   3.809   0.020   3.153
10062SOL     OW31084   6.384   0.489   4.363
10062SOL    HW131085   6.300   0.437   4.380
10062SOL    HW231086   6.418   0.468   4.271
10063SOL     OW31087   1.601   3.192   4.941
10063SOL    HW131088   1.555   3.276   4.971
10063SOL    HW231089   1.683   3.216   4.889
10064SOL     OW31090   2.779   6.453   0.852
10064SOL    HW131091   2.688   6.415   0.869
10064SOL    HW231092   2.771   6.553   0.843
10065SOL     OW31093   1.091   1.378   1.858
10065SOL    HW131094   1.019   1.407   1.795
10065SOL    HW231095   1.079   1.281   1.880
10066SOL     OW31096   6.340   3.868   3.751
10066SOL    HW131097   6.328   3.782   3.801
10066SOL    HW231098   6.255   3.892   3.703
10067SOL     OW31099   6.445   2.195   4.478
10067SOL    HW131100   6.388   2.158   4.552
10067SOL    HW231101   6.478   2.286   4.504
10068SOL     OW31102   1.916   2.569   2.590
10068SOL    HW131103   1.868   2.650   2.625
10068SOL    HW231104   1.962   2.593   2.504
10069SOL     OW31105   2.462   5.410   1.597
10069SOL    HW131106   2.364   5.401   1.581
10069SOL    HW231107   2.512   5.351   1.533
10070SOL     OW31108   3.764   5.757   5.371
10070SOL    HW131109   3.718   5.793   5.290
10070SOL    HW231110   3.695   5.735   5.441
10071SOL     OW31111   6.066   0.493   3.079
10071SOL    HW131112   6.165   0.478   3.072
10071SOL    HW231113   6.019   0.433   3.015
10072SOL     OW31114   6.669   2.058   1.811
10072SOL    HW131115   6.706   2.015   1.729
10072SOL    HW231116   6.583   2.014   1.835
10073SOL     OW31117   6.745   4.624   4.916
10073SOL    HW131118   6.840   4.610   4.890
10073SOL    HW231119   6.684   4.595   4.842
10074SOL     OW31120   1.245   4.645   0.415
10074SOL    HW131121   1.339   4.673   0.396
10074SOL    HW231122   1.225   4.660   0.512
10075SOL     OW31123   1.603   3.398   1.675
10075SOL    HW131124   1.509   3.415   1.702
10075SOL    HW231125   1.663   3.402   1.755
10076SOL     OW31126   5.159   5.759   3.845
10076SOL    HW131127   5.168   5.662   3.866
10076SOL    HW231128   5.073   5.794   3.884
10077SOL     OW31129   5.895   3.168   6.348
10077SOL    HW131130   5.852   3.259   6.342
10077SOL    HW231131   5.926   3.152   6.442
10078SOL     OW31132   6.455   6.375   4.820
10078SOL    HW131133   6.358   6.352   4.805
10078SOL    HW231134   6.488   6.430   4.744
10079SOL     OW31135   4.953   2.464   3.204
10079SOL    HW131136   4.854   2.450   3.193
10079SOL    HW231137   5.002   2.414   3.133
10080SOL     OW31138   5.117   0.565   6.344
10080SOL    HW131139   5.113   0.656   6.385
10080SOL    HW231140   5.209   0.549   6.307
10081SOL     OW31141   2.130   3.023   1.189
10081SOL    HW131142   2.193   3.100   1.191
10081SOL    HW231143   2.177   2.939   1.216
10082SOL     OW31144   1.147   4.418   1.132
10082SOL    HW131145   1.203   4.335   1.127
10082SOL    HW231146   1.187   4.490   1.076
10083SOL     OW31147   3.168   4.866   3.687
10083SOL    HW131148   3.135   4.947   3.640
10083SOL    HW231149   3.096   4.797   3.690
10084SOL     OW31150   1.001   0.713   4.357
10084SOL    HW131151   1.077   0.772   4.387
10084SOL    HW231152   0.982   0.731   4.261
10085SOL     OW31153   4.850   6.892   0.300
10085SOL    HW131154   4.772   6.953   0.286
10085SOL    HW231155   4.906   6.891   0.218
10086SOL     OW31156   0.122   6.494   2.541
10086SOL    HW131157   0.118   6.408   2.489
10086SOL    HW231158   0.034   6.540   2.534
10087SOL     OW31159   1.740   6.703   5.197
10087SOL    HW131160   1.791   6.774   5.246
10087SOL    HW231161   1.644   6.705   5.226
10088SOL     OW31162   0.478   2.492   6.829
10088SOL    HW131163   0.419   2.561   6.871
10088SOL    HW231164   0.536   2.536   6.760
10089SOL     OW31165   3.754   1.791   1.606
10089SOL    HW131166   3.662   1.804   1.569
10089SOL    HW231167   3.760   1.701   1.650
10090SOL     OW31168   2.685   5.993   3.000
10090SOL    HW131169   2.668   5.907   2.951
10090SOL    HW231170   2.683   6.069   2.935
10091SOL     OW31171   6.838   3.830   5.217
10091SOL    HW131172   6.931   3.801   5.239
10091SOL    HW231173   6.801   3.882   5.294
10092SOL     OW31174   0.620   2.078   4.161
10092SOL    HW131175   0.594   2.017   4.236
10092SOL    HW231176   0.558   2.064   4.084
10093SOL     OW31177   5.270   4.812   5.692
10093SOL    HW131178   5.177   4.786   5.720
10093SOL    HW231179   5.274   4.911   5.680
10094SOL     OW31180   3.559   1.337   0.734
10094SOL    HW131181   3.588   1.268   0.667
10094SOL    HW231182   3.549   1.294   0.824
10095SOL     OW31183   4.853   2.917   5.362
10095SOL    HW131184   4.874   2.976   5.285
10095SOL    HW231185   4.832   2.825   5.329
10096SOL     OW31186   5.449   1.981   2.773
10096SOL    HW131187   5.387   2.043   2.822
10096SOL    HW231188   5.455   2.008   2.677
10097SOL     OW31189   0.987   1.710   6.759
10097SOL    HW131190   0.898   1.730   6.718
10097SOL    HW231191   1.046   1.666   6.691
10098SOL     OW31192   3.226   5.417   3.764
10098SOL    HW131193   3.205   5.335   3.816
10098SOL    HW231194   3.266   5.486   3.824
10099SOL     OW31195   0.059   4.570   1.259
10099SOL    HW131196   0.030   4.480   1.227
10099SOL    HW231197   7.004   4.625   1.283
10100SOL     OW31198   4.972   5.416   4.191
10100SOL    HW131199   4.902   5.346   4.204
10100SOL    HW231200   5.061   5.374   4.180
10101SOL     OW31201   0.803   1.823   1.532
10101SOL    HW131202   0.890   1.856   1.571
10101SOL    HW231203   0.738   1.806   1.605
10102SOL     OW31204   6.458   6.013   3.094
10102SOL    HW131205   6.376   5.967   3.130
10102SOL    HW231206   6.482   6.089   3.155
10103SOL     OW31207   6.536   6.287   6.020
10103SOL    HW131208   6.491   6.236   5.946
10103SOL    HW231209   6.609   6.344   5.981
10104SOL     OW31210   2.460   0.164   4.227
10104SOL    HW131211   2.389   0.148   4.158
10104SOL    HW231212   2.420   0.157   4.318
10105SOL     OW31213   3.240   0.977   6.106
10105SOL    HW131214   3.145   1.006   6.122
10105SOL    HW231215   3.281   0.950   6.193
10106SOL     OW31216   5.049   5.299   1.293
10106SOL    HW131217   4.988   5.374   1.317
10106SOL    HW231218   5.092   5.317   1.204
10107SOL     OW31219   5.213   4.318   6.498
10107SOL    HW131220   5.151   4.257   6.546
10107SOL    HW231221   5.217   4.293   6.401
10108SOL     OW31222   1.887   2.710   0.213
10108SOL    HW131223   1.938   2.669   0.138
10108SOL    HW231224   1.845   2.795   0.182
10109SOL     OW31225   1.493   2.170   1.106
10109SOL    HW131226   1.502   2.257   1.154
10109SOL    HW231227   1.410   2.123   1.136
10110SOL     OW31228   4.824   6.352   2.625
10110SOL    HW131229   4.848   6.303   2.541
10110SOL    HW231230   4.904   6.401   2.659
10111SOL     OW31231   1.379   2.426   2.083
10111SOL    HW131232   1.424   2.351   2.132
10111SOL    HW231233   1.449   2.492   2.054
10112SOL     OW31234   0.192   2.127   3.242
10112SOL    HW131235   0.174   2.185   3.321
10112SOL    HW231236   0.203   2.184   3.161
10113SOL     OW31237   6.750   0.744   5.732
10113SOL    HW131238   6.777   0.839   5.716
10113SOL    HW231239   6.701   0.710   5.651
10114SOL     OW31240   4.730   1.662   1.483
10114SOL    HW131241   4.790   1.644   1.560
10114SOL    HW231242   4.759   1.607   1.404
10115SOL     OW31243   3.529   2.985   6.427
10115SOL    HW131244   3.533   2.982   6.526
10115SOL    HW231245   3.621   2.998   6.390
10116SOL     OW31246   6.661   1.036   4.525
10116SOL    HW131247   6.752   1.022   4.486
10116SOL    HW231248   6.652   1.130   4.555
10117SOL     OW31249   6.176   4.273   3.798
10117SOL    HW131250   6.236   4.256   3.720
10117SOL    HW231251   6.129   4.360   3.786
10118SOL     OW31252   4.535   6.379   4.103
10118SOL    HW131253   4.491   6.454   4.054
10118SOL    HW231254   4.506   6.381   4.199
10119SOL     OW31255   0.147   5.216   5.740
10119SOL    HW131256   0.101   5.258   5.818
10119SOL    HW231257   0.085   5.216   5.661
10120SOL     OW31258   1.999   3.393   2.542
10120SOL    HW131259   2.015   3.436   2.453
10120SOL    HW231260   1.938   3.314   2.530
10121SOL     OW31261   5.862   4.074   1.044
10121SOL    HW131262   5.833   4.061   1.138
10121SOL    HW231263   5.945   4.130   1.042
10122SOL     OW31264   1.229   0.201   3.952
10122SOL    HW131265   1.178   0.271   3.902
10122SOL    HW231266   1.168   0.125   3.975
10123SOL     OW31267   6.484   5.262   6.909
10123SOL    HW131268   6.541   5.326   6.858
10123SOL    HW231269   6.441   5.310   6.985
10124SOL     OW31270   1.582   5.236   2.836
10124SOL    HW131271   1.586   5.151   2.887
10124SOL    HW231272   1.660   5.294   2.861
10125SOL     OW31273   2.167   1.358   5.162
10125SOL    HW131274   2.086   1.343   5.106
10125SOL    HW231275   2.150   1.433   5.226
10126SOL     OW31276   6.622   6.356   6.373
10126SOL    HW131277   6.707   6.408   6.374
10126SOL    HW231278   6.552   6.408   6.324
10127SOL     OW31279   2.488   6.815   6.226
10127SOL    HW131280   2.446   6.860   6.305
10127SOL    HW231281   2.454   6.857   6.142
10128SOL     OW31282   2.816   1.791   6.883
10128SOL    HW131283   2.857   1.883   6.884
10128SOL    HW231284   2.844   1.743   6.800
10129SOL     OW31285   6.090   1.768   4.830
10129SOL    HW131286   6.012   1.741   4.886
10129SOL    HW231287   6.059   1.795   4.739
10130SOL     OW31288   1.170   1.151   2.859
10130SOL    HW131289   1.079   1.120   2.887
10130SOL    HW231290   1.167   1.182   2.764
10131SOL     OW31291   1.174   6.580   3.895
10131SOL    HW131292   1.135   6.508   3.837
10131SOL    HW231293   1.272   6.564   3.906
10132SOL     OW31294   6.705   0.633   1.556
10132SOL    HW131295   6.721   0.699   1.629
10132SOL    HW231296   6.626   0.662   1.502
10133SOL     OW31297   5.831   6.620   0.209
10133SOL    HW131298   5.879   6.558   0.147
10133SOL    HW231299   5.800   6.570   0.289
10134SOL     OW31300   6.734   6.803   1.932
10134SOL    HW131301   6.769   6.715   1.901
10134SOL    HW231302   6.722   6.801   2.031
10135SOL     OW31303   6.365   0.032   2.495
10135SOL    HW131304   6.366   0.113   2.554
10135SOL    HW231305   6.459   0.009   2.470
10136SOL     OW31306   4.993   2.111   2.365
10136SOL    HW131307   4.985   2.094   2.267
10136SOL    HW231308   5.081   2.154   2.384
10137SOL     OW31309   6.186   5.623   5.441
10137SOL    HW131310   6.216   5.529   5.426
10137SOL    HW231311   6.258   5.686   5.414
10138SOL     OW31312   0.930   2.072   0.381
10138SOL    HW131313   1.012   2.024   0.412
10138SOL    HW231314   0.851   2.041   0.433
10139SOL     OW31315   3.229   2.987   6.794
10139SOL    HW131316   3.175   2.920   6.845
10139SOL    HW231317   3.255   2.948   6.706
10140SOL     OW31318   0.608   6.424   5.473
10140SOL    HW131319   0.655   6.371   5.544
10140SOL    HW231320   0.592   6.366   5.393
10141SOL     OW31321   2.229   3.040   4.577
10141SOL    HW131322   2.318   3.071   4.611
10141SOL    HW231323   2.222   2.941   4.589
10142SOL     OW31324   4.040   6.574   3.981
10142SOL    HW131325   4.111   6.585   3.912
10142SOL    HW231326   4.066   6.501   4.044
10143SOL     OW31327   4.887   3.190   6.883
10143SOL    HW131328   4.880   3.149   6.792
10143SOL    HW231329   4.830   3.138   6.947
10144SOL     OW31330   4.048   6.837   6.475
10144SOL    HW131331   4.012   6.746   6.456
10144SOL    HW231332   3.998   6.878   6.551
10145SOL     OW31333   5.516   6.410   6.172
10145SOL    HW131334   5.491   6.462   6.091
10145SOL    HW231335   5.434   6.369   6.212
10146SOL     OW31336   0.248   2.833   4.570
10146SOL    HW131337   0.292   2.848   4.481
10146SOL    HW231338   0.313   2.854   4.643
10147SOL     OW31339   5.005   5.257   5.800
10147SOL    HW131340   4.936   5.224   5.864
10147SOL    HW231341   4.966   5.331   5.744
10148SOL     OW31342   1.010   4.402   0.837
10148SOL    HW131343   0.991   4.498   0.859
10148SOL    HW231344   0.928   4.348   0.851
10149SOL     OW31345   3.486   4.566   0.443
10149SOL    HW131346   3.501   4.618   0.359
10149SOL    HW231347   3.531   4.477   0.435
10150SOL     OW31348   4.136   4.492   1.260
10150SOL    HW131349   4.125   4.456   1.168
10150SOL    HW231350   4.162   4.588   1.256
10151SOL     OW31351   5.950   0.036   5.947
10151SOL    HW131352   6.047   0.048   5.927
10151SOL    HW231353   5.898   0.108   5.900
10152SOL     OW31354   4.166   6.654   2.338
10152SOL    HW131355   4.135   6.593   2.411
10152SOL    HW231356   4.189   6.743   2.377
10153SOL     OW31357   4.648   4.437   2.475
10153SOL    HW131358   4.734   4.426   2.426
10153SOL    HW231359   4.572   4.420   2.413
10154SOL     OW31360   4.821   5.476   5.697
10154SOL    HW131361   4.790   5.552   5.753
10154SOL    HW231362   4.746   5.444   5.640
10155SOL     OW31363   4.307   1.803   4.838
10155SOL    HW131364   4.356   1.719   4.814
10155SOL    HW231365   4.244   1.784   4.913
10156SOL     OW31366   5.022   2.324   0.344
10156SOL    HW131367   5.119   2.306   0.358
10156SOL    HW231368   4.985   2.372   0.424
10157SOL     OW31369   0.411   3.491   1.370
10157SOL    HW131370   0.313   3.477   1.383
10157SOL    HW231371   0.456   3.504   1.458
10158SOL     OW31372   6.093   4.789   0.163
10158SOL    HW131373   6.046   4.739   0.090
10158SOL    HW231374   6.191   4.770   0.159
10159SOL     OW31375   3.159   2.915   2.196
10159SOL    HW131376   3.161   2.933   2.098
10159SOL    HW231377   3.099   2.837   2.214
10160SOL     OW31378   1.125   5.156   2.844
10160SOL    HW131379   1.094   5.118   2.757
10160SOL    HW231380   1.156   5.082   2.903
10161SOL     OW31381   5.265   3.273   5.342
10161SOL    HW131382   5.313   3.310   5.262
10161SOL    HW231383   5.186   3.330   5.363
10162SOL     OW31384   1.549   3.070   2.434
10162SOL    HW131385   1.512   2.978   2.422
10162SOL    HW231386   1.600   3.073   2.520
10163SOL     OW31387   2.072   6.352   5.433
10163SOL    HW131388   2.141   6.349   5.360
10163SOL    HW231389   2.115   6.381   5.518
10164SOL     OW31390   1.376   2.610   3.234
10164SOL    HW131391   1.428   2.651   3.159
10164SOL    HW231392   1.286   2.582   3.201
10165SOL     OW31393   0.213   3.759   4.306
10165SOL    HW131394   0.124   3.746   4.351
10165SOL    HW231395   0.278   3.796   4.372
10166SOL     OW31396   2.497   0.879   1.568
10166SOL    HW131397   2.417   0.936   1.585
10166SOL    HW231398   2.499   0.803   1.633
10167SOL     OW31399   2.328   1.123   6.708
10167SOL    HW131400   2.346   1.050   6.773
10167SOL    HW231401   2.365   1.098   6.619
10168SOL     OW31402   6.501   0.666   6.485
10168SOL    HW131403   6.557   0.732   6.534
10168SOL    HW231404   6.443   0.714   6.419
10169SOL     OW31405   5.642   3.171   3.692
10169SOL    HW131406   5.701   3.249   3.711
10169SOL    HW231407   5.625   3.120   3.776
10170SOL     OW31408   5.772   5.577   0.093
10170SOL    HW131409   5.820   5.489   0.092
10170SOL    HW231410   5.713   5.582   0.174
10171SOL     OW31411   2.472   3.831   6.150
10171SOL    HW131412   2.507   3.745   6.113
10171SOL    HW231413   2.386   3.854   6.104
10172SOL     OW31414   5.912   0.643   3.238
10172SOL    HW131415   5.964   0.589   3.173
10172SOL    HW231416   5.972   0.674   3.312
10173SOL     OW31417   3.432   4.093   5.056
10173SOL    HW131418   3.461   4.103   5.151
10173SOL    HW231419   3.510   4.114   4.996
10174SOL     OW31420   4.149   5.241   2.818
10174SOL    HW131421   4.180   5.183   2.894
10174SOL    HW231422   4.050   5.231   2.807
10175SOL     OW31423   0.392   0.930   3.221
10175SOL    HW131424   0.316   0.866   3.209
10175SOL    HW231425   0.469   0.901   3.163
10176SOL     OW31426   6.584   1.142   5.715
10176SOL    HW131427   6.612   1.237   5.701
10176SOL    HW231428   6.570   1.098   5.626
10177SOL     OW31429   2.642   0.846   3.702
10177SOL    HW131430   2.709   0.779   3.670
10177SOL    HW231431   2.668   0.937   3.668
10178SOL     OW31432   0.871   2.184   0.700
10178SOL    HW131433   0.971   2.184   0.697
10178SOL    HW231434   0.838   2.095   0.731
10179SOL     OW31435   0.100   4.622   0.839
10179SOL    HW131436   0.191   4.651   0.810
10179SOL    HW231437   0.106   4.539   0.893
10180SOL     OW31438   4.493   6.735   5.473
10180SOL    HW131439   4.412   6.722   5.415
10180SOL    HW231440   4.549   6.652   5.471
10181SOL     OW31441   6.013   3.485   2.690
10181SOL    HW131442   6.051   3.576   2.671
10181SOL    HW231443   5.914   3.493   2.701
10182SOL     OW31444   5.220   2.098   0.720
10182SOL    HW131445   5.288   2.038   0.762
10182SOL    HW231446   5.237   2.193   0.748
10183SOL     OW31447   6.098   1.514   6.451
10183SOL    HW131448   6.194   1.492   6.431
10183SOL    HW231449   6.057   1.440   6.504
10184SOL     OW31450   5.809   1.947   5.524
10184SOL    HW131451   5.825   1.967   5.621
10184SOL    HW231452   5.711   1.932   5.509
10185SOL     OW31453   3.774   5.716   2.328
10185SOL    HW131454   3.734   5.793   2.378
10185SOL    HW231455   3.807   5.648   2.394
10186SOL     OW31456   3.254   3.625   5.741
10186SOL    HW131457   3.309   3.551   5.704
10186SOL    HW231458   3.251   3.701   5.676
10187SOL     OW31459   2.024   4.451   6.577
10187SOL    HW131460   1.942   4.394   6.571
10187SOL    HW231461   2.099   4.397   6.615
10188SOL     OW31462   3.540   0.500   6.293
10188SOL    HW131463   3.520   0.522   6.389
10188SOL    HW231464   3.474   0.433   6.259
10189SOL     OW31465   1.118   1.921   6.273
10189SOL    HW131466   1.093   1.894   6.180
10189SOL    HW231467   1.203   1.875   6.299
10190SOL     OW31468   4.301   5.645   1.676
10190SOL    HW131469   4.292   5.568   1.613
10190SOL    HW231470   4.210   5.673   1.708
10191SOL     OW31471   5.517   6.849   6.363
10191SOL    HW131472   5.561   6.837   6.274
10191SOL    HW231473   5.542   6.939   6.399
10192SOL     OW31474   1.929   1.857   4.207
10192SOL    HW131475   1.962   1.866   4.113
10192SOL    HW231476   1.964   1.772   4.246
10193SOL     OW31477   3.370   3.570   3.788
10193SOL    HW131478   3.443   3.501   3.787
10193SOL    HW231479   3.407   3.657   3.818
10194SOL     OW31480   2.796   0.411   3.602
10194SOL    HW131481   2.814   0.456   3.689
10194SOL    HW231482   2.882   0.381   3.561
10195SOL     OW31483   3.623   6.253   2.515
10195SOL    HW131484   3.663   6.164   2.493
10195SOL    HW231485   3.690   6.325   2.499
10196SOL     OW31486   6.035   2.050   3.944
10196SOL    HW131487   6.098   1.978   3.972
10196SOL    HW231488   6.071   2.139   3.972
10197SOL     OW31489   5.584   0.086   1.682
10197SOL    HW131490   5.629   0.096   1.771
10197SOL    HW231491   5.492   0.125   1.687
10198SOL     OW31492   2.202   6.857   0.636
10198SOL    HW131493   2.271   6.902   0.579
10198SOL    HW231494   2.245   6.784   0.689
10199SOL     OW31495   1.057   0.949   0.499
10199SOL    HW131496   1.004   0.894   0.564
10199SOL    HW231497   0.995   0.994   0.435
10200SOL     OW31498   5.405   3.990   4.675
10200SOL    HW131499   5.381   4.057   4.605
10200SOL    HW231500   5.324   3.937   4.700
10201SOL     OW31501   1.571   5.069   2.616
10201SOL    HW131502   1.663   5.102   2.593
10201SOL    HW231503   1.536   5.121   2.694
10202SOL     OW31504   0.887   3.375   2.249
10202SOL    HW131505   0.852   3.395   2.158
10202SOL    HW231506   0.981   3.408   2.258
10203SOL     OW31507   1.783   3.542   2.343
10203SOL    HW131508   1.748   3.458   2.385
10203SOL    HW231509   1.763   3.541   2.245
10204SOL     OW31510   3.063   4.866   5.106
10204SOL    HW131511   3.050   4.885   5.203
10204SOL    HW231512   3.016   4.780   5.082
10205SOL     OW31513   4.651   1.354   3.436
10205SOL    HW131514   4.614   1.321   3.522
10205SOL    HW231515   4.740   1.396   3.451
10206SOL     OW31516   5.120   0.042   6.721
10206SOL    HW131517   5.189   0.055   6.792
10206SOL    HW231518   5.162   7.023   6.641
10207SOL     OW31519   4.461   1.267   3.021
10207SOL    HW131520   4.518   1.207   2.965
10207SOL    HW231521   4.364   1.243   3.008
10208SOL     OW31522   5.988   4.166   5.163
10208SOL    HW131523   5.952   4.088   5.214
10208SOL    HW231524   6.025   4.134   5.076
10209SOL     OW31525   6.103   0.234   6.409
10209SOL    HW131526   6.133   0.296   6.481
10209SOL    HW231527   6.065   0.286   6.333
10210SOL     OW31528   4.854   5.758   1.494
10210SOL    HW131529   4.942   5.799   1.521
10210SOL    HW231530   4.783   5.786   1.559
10211SOL     OW31531   4.220   5.568   5.472
10211SOL    HW131532   4.135   5.534   5.512
10211SOL    HW231533   4.252   5.505   5.401
10212SOL     OW31534   6.820   0.591   5.134
10212SOL    HW131535   6.816   0.546   5.223
10212SOL    HW231536   6.830   0.522   5.062
10213SOL     OW31537   6.248   1.140   2.905
10213SOL    HW131538   6.197   1.054   2.903
10213SOL    HW231539   6.337   1.124   2.949
10214SOL     OW31540   6.879   0.602   1.831
10214SOL    HW131541   6.946   0.554   1.776
10214SOL    HW231542   6.908   0.603   1.927
10215SOL     OW31543   4.053   3.854   7.005
10215SOL    HW131544   3.978   3.788   6.999
10215SOL    HW231545   4.047   3.903   0.067
10216SOL     OW31546   5.207   6.984   1.624
10216SOL    HW131547   5.149   6.962   1.703
10216SOL    HW231548   5.204   0.057   1.607
10217SOL     OW31549   2.458   2.110   5.278
10217SOL    HW131550   2.450   2.056   5.362
10217SOL    HW231551   2.531   2.072   5.221
10218SOL     OW31552   2.289   1.791   0.505
10218SOL    HW131553   2.303   1.875   0.453
10218SOL    HW231554   2.247   1.722   0.446
10219SOL     OW31555   0.863   3.777   0.404
10219SOL    HW131556   0.802   3.763   0.325
10219SOL    HW231557   0.941   3.716   0.397
10220SOL     OW31558   4.305   1.985   1.124
10220SOL    HW131559   4.240   1.927   1.173
10220SOL    HW231560   4.317   2.071   1.174
10221SOL     OW31561   2.697   0.223   5.208
10221SOL    HW131562   2.601   0.246   5.222
10221SOL    HW231563   2.706   0.126   5.189
10222SOL     OW31564   1.631   5.547   5.914
10222SOL    HW131565   1.621   5.646   5.912
10222SOL    HW231566   1.651   5.517   6.007
10223SOL     OW31567   0.342   4.740   0.768
10223SOL    HW131568   0.437   4.764   0.787
10223SOL    HW231569   0.320   4.766   0.674
10224SOL     OW31570   1.723   0.000   4.045
10224SOL    HW131571   1.628   7.021   4.013
10224SOL    HW231572   1.726   7.012   4.144
10225SOL     OW31573   6.193   6.153   4.145
10225SOL    HW131574   6.165   6.222   4.078
10225SOL    HW231575   6.149   6.171   4.233
10226SOL     OW31576   1.203   1.691   0.607
10226SOL    HW131577   1.288   1.639   0.599
10226SOL    HW231578   1.132   1.649   0.549
10227SOL     OW31579   5.503   4.912   6.725
10227SOL    HW131580   5.552   4.859   6.794
10227SOL    HW231581   5.414   4.869   6.707
10228SOL     OW31582   1.015   5.658   3.292
10228SOL    HW131583   1.084   5.730   3.306
10228SOL    HW231584   0.925   5.700   3.282
10229SOL     OW31585   1.322   6.907   2.583
10229SOL    HW131586   1.374   6.952   2.511
10229SOL    HW231587   1.363   6.928   2.672
10230SOL     OW31588   6.638   0.776   3.296
10230SOL    HW131589   6.675   0.712   3.229
10230SOL    HW231590   6.694   0.774   3.379
10231SOL     OW31591   5.088   0.230   4.742
10231SOL    HW131592   5.071   0.157   4.676
10231SOL    HW231593   5.136   0.194   4.821
10232SOL     OW31594   3.423   2.145   4.913
10232SOL    HW131595   3.399   2.127   4.818
10232SOL    HW231596   3.360   2.213   4.951
10233SOL     OW31597   4.562   1.507   5.940
10233SOL    HW131598   4.505   1.580   5.904
10233SOL    HW231599   4.637   1.546   5.994
10234SOL     OW31600   4.840   6.285   1.766
10234SOL    HW131601   4.912   6.314   1.829
10234SOL    HW231602   4.772   6.357   1.756
10235SOL     OW31603   5.832   1.326   6.739
10235SOL    HW131604   5.898   1.317   6.665
10235SOL    HW231605   5.768   1.400   6.719
10236SOL     OW31606   2.126   5.529   2.088
10236SOL    HW131607   2.064   5.593   2.043
10236SOL    HW231608   2.220   5.550   2.062
10237SOL     OW31609   6.459   3.047   2.740
10237SOL    HW131610   6.554   3.059   2.711
10237SOL    HW231611   6.438   2.949   2.745
10238SOL     OW31612   4.893   4.986   4.918
10238SOL    HW131613   4.812   5.019   4.869
10238SOL    HW231614   4.886   4.887   4.931
10239SOL     OW31615   0.148   4.238   4.191
10239SOL    HW131616   0.240   4.277   4.191
10239SOL    HW231617   0.132   4.189   4.106
10240SOL     OW31618   0.073   4.396   3.838
10240SOL    HW131619   7.007   4.435   3.848
10240SOL    HW231620   0.076   4.307   3.884
10241SOL     OW31621   2.160   0.966   2.052
10241SOL    HW131622   2.182   1.052   2.097
10241SOL    HW231623   2.239   0.936   1.998
10242SOL     OW31624   6.938   0.115   6.066
10242SOL    HW131625   6.918   0.070   6.154
10242SOL    HW231626   6.908   0.210   6.070
10243SOL     OW31627   1.192   5.577   1.748
10243SOL    HW131628   1.211   5.604   1.654
10243SOL    HW231629   1.227   5.647   1.811
10244SOL     OW31630   2.512   6.191   0.156
10244SOL    HW131631   2.470   6.281   0.167
10244SOL    HW231632   2.466   6.141   0.083
10245SOL     OW31633   2.552   2.290   6.978
10245SOL    HW131634   2.542   2.332   6.887
10245SOL    HW231635   2.526   2.356   0.023
10246SOL     OW31636   3.260   4.124   4.452
10246SOL    HW131637   3.163   4.106   4.468
10246SOL    HW231638   3.302   4.156   4.537
10247SOL     OW31639   0.965   4.613   5.068
10247SOL    HW131640   1.034   4.626   5.139
10247SOL    HW231641   0.941   4.517   5.061
10248SOL     OW31642   3.905   0.178   1.743
10248SOL    HW131643   3.929   0.081   1.754
10248SOL    HW231644   3.971   0.234   1.794
10249SOL     OW31645   4.824   1.012   6.524
10249SOL    HW131646   4.807   0.913   6.529
10249SOL    HW231647   4.922   1.029   6.523
10250SOL     OW31648   6.279   0.560   0.244
10250SOL    HW131649   6.300   0.477   0.294
10250SOL    HW231650   6.351   0.628   0.259
10251SOL     OW31651   2.575   3.885   0.403
10251SOL    HW131652   2.476   3.877   0.393
10251SOL    HW231653   2.620   3.843   0.324
10252SOL     OW31654   6.712   5.000   2.124
10252SOL    HW131655   6.784   4.932   2.129
10252SOL    HW231656   6.700   5.043   2.214
10253SOL     OW31657   3.819   5.366   6.997
10253SOL    HW131658   3.835   5.279   6.949
10253SOL    HW231659   3.853   5.441   6.941
10254SOL     OW31660   2.253   2.348   5.336
10254SOL    HW131661   2.206   2.279   5.392
10254SOL    HW231662   2.344   2.315   5.312
10255SOL     OW31663   2.987   5.876   2.299
10255SOL    HW131664   2.976   5.975   2.287
10255SOL    HW231665   3.039   5.857   2.382
10256SOL     OW31666   6.114   0.036   6.611
10256SOL    HW131667   6.094   0.095   6.533
10256SOL    HW231668   6.067   0.071   6.692
10257SOL     OW31669   1.153   6.073   5.774
10257SOL    HW131670   1.232   6.054   5.716
10257SOL    HW231671   1.102   5.988   5.790
10258SOL     OW31672   3.989   0.632   3.167
10258SOL    HW131673   3.939   0.688   3.101
10258SOL    HW231674   3.927   0.568   3.210
10259SOL     OW31675   7.015   4.094   3.154
10259SOL    HW131676   6.943   4.154   3.189
10259SOL    HW231677   6.979   4.002   3.143
10260SOL     OW31678   1.219   6.647   1.651
10260SOL    HW131679   1.287   6.604   1.710
10260SOL    HW231680   1.127   6.631   1.687
10261SOL     OW31681   1.162   5.698   2.630
10261SOL    HW131682   1.215   5.633   2.684
10261SOL    HW231683   1.213   5.783   2.620
10262SOL     OW31684   1.206   4.648   4.791
10262SOL    HW131685   1.251   4.668   4.878
10262SOL    HW231686   1.118   4.604   4.808
10263SOL     OW31687   6.431   2.197   6.169
10263SOL    HW131688   6.344   2.235   6.137
10263SOL    HW231689   6.421   2.098   6.183
10264SOL     OW31690   0.489   0.760   5.888
10264SOL    HW131691   0.575   0.721   5.921
10264SOL    HW231692   0.467   0.842   5.941
10265SOL     OW31693   4.129   1.758   2.244
10265SOL    HW131694   4.076   1.819   2.185
10265SOL    HW231695   4.081   1.748   2.332
10266SOL     OW31696   2.900   4.401   6.576
10266SOL    HW131697   2.846   4.319   6.554
10266SOL    HW231698   2.997   4.379   6.568
10267SOL     OW31699   6.806   2.101   6.258
10267SOL    HW131700   6.720   2.141   6.226
10267SOL    HW231701   6.875   2.109   6.187
10268SOL     OW31702   5.861   5.584   1.447
10268SOL    HW131703   5.779   5.600   1.391
10268SOL    HW231704   5.862   5.648   1.523
10269SOL     OW31705   2.789   2.751   6.290
10269SOL    HW131706   2.703   2.701   6.296
10269SOL    HW231707   2.782   2.835   6.345
10270SOL     OW31708   1.856   5.825   0.843
10270SOL    HW131709   1.853   5.730   0.876
10270SOL    HW231710   1.944   5.865   0.866
10271SOL     OW31711   4.685   4.617   1.315
10271SOL    HW131712   4.611   4.562   1.276
10271SOL    HW231713   4.648   4.701   1.353
10272SOL     OW31714   0.806   0.756   5.812
10272SOL    HW131715   0.718   0.771   5.765
10272SOL    HW231716   0.825   0.658   5.816
10273SOL     OW31717   4.054   5.690   4.631
10273SOL    HW131718   3.974   5.672   4.575
10273SOL    HW231719   4.113   5.609   4.633
10274SOL     OW31720   1.308   5.613   5.953
10274SOL    HW131721   1.343   5.573   6.038
10274SOL    HW231722   1.247   5.689   5.974
10275SOL     OW31723   1.224   6.392   2.446
10275SOL    HW131724   1.187   6.370   2.536
10275SOL    HW231725   1.254   6.487   2.444
10276SOL     OW31726   6.156   5.473   6.266
10276SOL    HW131727   6.202   5.464   6.355
10276SOL    HW231728   6.121   5.385   6.237
10277SOL     OW31729   2.377   6.149   4.708
10277SOL    HW131730   2.340   6.203   4.783
10277SOL    HW231731   2.334   6.059   4.707
10278SOL     OW31732   6.086   0.566   5.423
10278SOL    HW131733   6.095   0.497   5.494
10278SOL    HW231734   6.026   0.639   5.455
10279SOL     OW31735   3.323   6.802   4.119
10279SOL    HW131736   3.340   6.789   4.022
10279SOL    HW231737   3.409   6.823   4.166
10280SOL     OW31738   1.830   3.852   0.005
10280SOL    HW131739   1.830   3.787   0.081
10280SOL    HW231740   1.744   3.903   0.005
10281SOL     OW31741   4.326   0.556   3.591
10281SOL    HW131742   4.289   0.642   3.628
10281SOL    HW231743   4.264   0.519   3.522
10282SOL     OW31744   0.826   1.758   4.228
10282SOL    HW131745   0.764   1.700   4.282
10282SOL    HW231746   0.867   1.827   4.286
10283SOL     OW31747   1.159   3.920   6.906
10283SOL    HW131748   1.128   3.971   6.986
10283SOL    HW231749   1.130   3.824   6.913
10284SOL     OW31750   5.768   3.026   5.424
10284SOL    HW131751   5.827   2.947   5.404
10284SOL    HW231752   5.683   3.019   5.371
10285SOL     OW31753   5.732   6.949   0.902
10285SOL    HW131754   5.670   7.016   0.861
10285SOL    HW231755   5.737   6.868   0.843
10286SOL     OW31756   3.900   0.627   3.467
10286SOL    HW131757   3.910   0.662   3.373
10286SOL    HW231758   3.970   0.558   3.485
10287SOL     OW31759   2.164   6.223   1.677
10287SOL    HW131760   2.212   6.148   1.631
10287SOL    HW231761   2.066   6.209   1.671
10288SOL     OW31762   6.100   6.321   3.936
10288SOL    HW131763   6.044   6.361   4.008
10288SOL    HW231764   6.132   6.393   3.875
10289SOL     OW31765   3.417   0.873   1.735
10289SOL    HW131766   3.511   0.894   1.709
10289SOL    HW231767   3.393   0.926   1.816
10290SOL     OW31768   4.069   3.557   2.481
10290SOL    HW131769   4.057   3.458   2.471
10290SOL    HW231770   4.084   3.579   2.578
10291SOL     OW31771   3.291   0.504   5.281
10291SOL    HW131772   3.289   0.452   5.195
10291SOL    HW231773   3.199   0.509   5.319
10292SOL     OW31774   0.612   1.098   4.425
10292SOL    HW131775   0.595   1.107   4.523
10292SOL    HW231776   0.624   1.002   4.402
10293SOL     OW31777   1.962   5.822   3.375
10293SOL    HW131778   1.874   5.869   3.367
10293SOL    HW231779   1.993   5.793   3.285
10294SOL     OW31780   5.710   1.520   3.091
10294SOL    HW131781   5.768   1.584   3.041
10294SOL    HW231782   5.712   1.431   3.047
10295SOL     OW31783   0.490   5.498   6.323
10295SOL    HW131784   0.394   5.486   6.345
10295SOL    HW231785   0.528   5.412   6.291
10296SOL     OW31786   6.772   2.596   0.683
10296SOL    HW131787   6.791   2.681   0.633
10296SOL    HW231788   6.731   2.530   0.621
10297SOL     OW31789   1.784   5.378   5.117
10297SOL    HW131790   1.857   5.391   5.184
10297SOL    HW231791   1.742   5.466   5.095
10298SOL     OW31792   5.091   3.389   3.978
10298SOL    HW131793   5.139   3.302   3.972
10298SOL    HW231794   5.154   3.460   4.010
10299SOL     OW31795   5.175   4.214   3.222
10299SOL    HW131796   5.179   4.121   3.258
10299SOL    HW231797   5.172   4.279   3.298
10300SOL     OW31798   0.989   4.983   2.636
10300SOL    HW131799   0.924   5.051   2.603
10300SOL    HW231800   1.032   4.936   2.558
10301SOL     OW31801   5.265   1.623   1.322
10301SOL    HW131802   5.322   1.546   1.295
10301SOL    HW231803   5.277   1.698   1.257
10302SOL     OW31804   1.569   5.803   3.219
10302SOL    HW131805   1.618   5.872   3.273
10302SOL    HW231806   1.626   5.774   3.142
10303SOL     OW31807   3.332   3.326   1.341
10303SOL    HW131808   3.352   3.393   1.413
10303SOL    HW231809   3.369   3.359   1.254
10304SOL     OW31810   6.914   6.860   2.690
10304SOL    HW131811   6.908   6.787   2.621
10304SOL    HW231812   6.838   6.851   2.754
10305SOL     OW31813   1.514   5.709   1.216
10305SOL    HW131814   1.523   5.726   1.314
10305SOL    HW231815   1.418   5.692   1.193
10306SOL     OW31816   4.008   5.974   0.077
10306SOL    HW131817   4.054   5.885   0.085
10306SOL    HW231818   4.047   6.024   7.025
10307SOL     OW31819   2.081   1.493   5.702
10307SOL    HW131820   2.059   1.452   5.613
10307SOL    HW231821   2.089   1.421   5.770
10308SOL     OW31822   3.310   5.882   3.259
10308SOL    HW131823   3.227   5.879   3.204
10308SOL    HW231824   3.297   5.828   3.342
10309SOL     OW31825   0.071   6.293   3.209
10309SOL    HW131826   0.063   6.286   3.110
10309SOL    HW231827   0.018   6.372   3.242
10310SOL     OW31828   3.831   4.059   3.289
10310SOL    HW131829   3.757   4.088   3.228
10310SOL    HW231830   3.804   4.077   3.384
10311SOL     OW31831   6.782   5.268   0.409
10311SOL    HW131832   6.695   5.313   0.389
10311SOL    HW231833   6.794   5.191   0.348
10312SOL     OW31834   2.351   4.470   0.980
10312SOL    HW131835   2.275   4.435   1.035
10312SOL    HW231836   2.428   4.491   1.040
10313SOL     OW31837   5.315   7.010   3.146
10313SOL    HW131838   5.258   6.950   3.201
10313SOL    HW231839   5.294   6.997   3.049
10314SOL     OW31840   6.670   6.273   0.899
10314SOL    HW131841   6.581   6.227   0.898
10314SOL    HW231842   6.656   6.372   0.891
10315SOL     OW31843   6.131   4.907   4.844
10315SOL    HW131844   6.104   4.811   4.843
10315SOL    HW231845   6.230   4.914   4.839
10316SOL     OW31846   6.891   4.457   3.470
10316SOL    HW131847   6.916   4.375   3.521
10316SOL    HW231848   6.966   4.523   3.476
10317SOL     OW31849   3.851   4.780   0.250
10317SOL    HW131850   3.763   4.794   0.207
10317SOL    HW231851   3.908   4.862   0.238
10318SOL     OW31852   6.005   5.186   2.095
10318SOL    HW131853   5.914   5.225   2.090
10318SOL    HW231854   6.046   5.208   2.184
10319SOL     OW31855   5.799   6.297   3.092
10319SOL    HW131856   5.771   6.390   3.069
10319SOL    HW231857   5.734   6.258   3.156
10320SOL     OW31858   6.273   6.333   1.324
10320SOL    HW131859   6.187   6.285   1.344
10320SOL    HW231860   6.341   6.268   1.291
10321SOL     OW31861   4.346   5.448   3.850
10321SOL    HW131862   4.439   5.414   3.863
10321SOL    HW231863   4.347   5.530   3.793
10322SOL     OW31864   6.098   3.292   0.115
10322SOL    HW131865   6.018   3.232   0.123
10322SOL    HW231866   6.127   3.323   0.205
10323SOL     OW31867   5.188   3.009   5.192
10323SOL    HW131868   5.239   3.071   5.251
10323SOL    HW231869   5.091   3.032   5.195
10324SOL     OW31870   3.259   2.966   3.483
10324SOL    HW131871   3.273   2.936   3.577
10324SOL    HW231872   3.183   3.031   3.479
10325SOL     OW31873   0.204   3.352   3.129
10325SOL    HW131874   0.169   3.300   3.207
10325SOL    HW231875   0.272   3.418   3.160
10326SOL     OW31876   5.690   2.167   0.649
10326SOL    HW131877   5.599   2.142   0.615
10326SOL    HW231878   5.757   2.151   0.576
10327SOL     OW31879   6.958   0.972   3.300
10327SOL    HW131880   6.994   0.959   3.207
10327SOL    HW231881   6.874   1.025   3.296
10328SOL     OW31882   6.206   2.518   1.662
10328SOL    HW131883   6.241   2.442   1.607
10328SOL    HW231884   6.273   2.542   1.732
10329SOL     OW31885   3.281   6.715   2.989
10329SOL    HW131886   3.203   6.653   2.977
10329SOL    HW231887   3.251   6.809   2.977
10330SOL     OW31888   3.941   5.225   1.317
10330SOL    HW131889   3.916   5.182   1.404
10330SOL    HW231890   4.037   5.207   1.298
10331SOL     OW31891   6.116   0.783   3.374
10331SOL    HW131892   6.209   0.782   3.339
10331SOL    HW231893   6.117   0.781   3.474
10332SOL     OW31894   0.120   2.911   6.160
10332SOL    HW131895   0.210   2.944   6.187
10332SOL    HW231896   0.119   2.811   6.162
10333SOL     OW31897   4.820   4.383   4.820
10333SOL    HW131898   4.753   4.423   4.883
10333SOL    HW231899   4.775   4.320   4.758
10334SOL     OW31900   1.572   4.500   4.383
10334SOL    HW131901   1.589   4.580   4.439
10334SOL    HW231902   1.658   4.462   4.350
10335SOL     OW31903   1.971   5.598   1.686
10335SOL    HW131904   1.910   5.520   1.673
10335SOL    HW231905   2.064   5.572   1.662
10336SOL     OW31906   3.665   6.633   2.753
10336SOL    HW131907   3.590   6.636   2.686
10336SOL    HW231908   3.639   6.574   2.830
10337SOL     OW31909   0.955   5.006   5.193
10337SOL    HW131910   0.931   4.912   5.216
10337SOL    HW231911   0.931   5.066   5.270
10338SOL     OW31912   3.095   5.952   3.077
10338SOL    HW131913   3.063   5.911   2.991
10338SOL    HW231914   3.140   6.039   3.058
10339SOL     OW31915   2.824   5.722   1.202
10339SOL    HW131916   2.868   5.633   1.184
10339SOL    HW231917   2.789   5.723   1.295
10340SOL     OW31918   2.180   0.374   0.298
10340SOL    HW131919   2.182   0.297   0.361
10340SOL    HW231920   2.086   0.396   0.274
10341SOL     OW31921   1.833   1.312   2.447
10341SOL    HW131922   1.824   1.212   2.449
10341SOL    HW231923   1.760   1.350   2.390
10342SOL     OW31924   2.162   6.595   5.241
10342SOL    HW131925   2.142   6.666   5.309
10342SOL    HW231926   2.197   6.638   5.157
10343SOL     OW31927   2.196   3.340   5.096
10343SOL    HW131928   2.130   3.410   5.125
10343SOL    HW231929   2.179   3.314   5.001
10344SOL     OW31930   3.682   4.890   5.250
10344SOL    HW131931   3.599   4.842   5.224
10344SOL    HW231932   3.711   4.951   5.175
10345SOL     OW31933   2.061   1.156   6.666
10345SOL    HW131934   2.027   1.250   6.674
10345SOL    HW231935   2.154   1.152   6.702
10346SOL     OW31936   5.086   6.113   0.016
10346SOL    HW131937   5.056   6.082   6.951
10346SOL    HW231938   5.167   6.171   0.006
10347SOL     OW31939   5.707   1.798   1.891
10347SOL    HW131940   5.703   1.711   1.841
10347SOL    HW231941   5.685   1.781   1.987
10348SOL     OW31942   0.510   5.944   5.518
10348SOL    HW131943   0.495   6.038   5.548
10348SOL    HW231944   0.569   5.943   5.437
10349SOL     OW31945   0.280   1.884   0.464
10349SOL    HW131946   0.219   1.891   0.543
10349SOL    HW231947   0.229   1.909   0.381
10350SOL     OW31948   1.999   4.560   5.089
10350SOL    HW131949   1.911   4.578   5.134
10350SOL    HW231950   2.072   4.559   5.157
10351SOL     OW31951   5.072   4.491   4.891
10351SOL    HW131952   4.984   4.451   4.865
10351SOL    HW231953   5.146   4.442   4.845
10352SOL     OW31954   5.425   2.058   0.543
10352SOL    HW131955   5.343   2.054   0.600
10352SOL    HW231956   5.413   1.999   0.463
10353SOL     OW31957   6.771   2.722   3.674
10353SOL    HW131958   6.691   2.782   3.663
10353SOL    HW231959   6.838   2.745   3.603
10354SOL     OW31960   0.373   3.449   0.635
10354SOL    HW131961   0.430   3.376   0.598
10354SOL    HW231962   0.341   3.508   0.561
10355SOL     OW31963   1.100   1.288   1.170
10355SOL    HW131964   1.121   1.191   1.186
10355SOL    HW231965   1.161   1.323   1.099
10356SOL     OW31966   6.251   3.466   6.173
10356SOL    HW131967   6.244   3.449   6.075
10356SOL    HW231968   6.325   3.411   6.211
10357SOL     OW31969   1.286   2.874   5.864
10357SOL    HW131970   1.379   2.906   5.884
10357SOL    HW231971   1.276   2.780   5.896
10358SOL     OW31972   0.835   2.299   2.544
10358SOL    HW131973   0.786   2.320   2.629
10358SOL    HW231974   0.825   2.202   2.522
10359SOL     OW31975   6.250   1.669   2.443
10359SOL    HW131976   6.189   1.608   2.494
10359SOL    HW231977   6.211   1.687   2.353
10360SOL     OW31978   6.045   4.243   1.679
10360SOL    HW131979   6.076   4.280   1.591
10360SOL    HW231980   5.945   4.236   1.678
10361SOL     OW31981   0.786   1.724   2.044
10361SOL    HW131982   0.817   1.784   1.971
10361SOL    HW231983   0.739   1.644   2.005
10362SOL     OW31984   0.860   5.215   2.089
10362SOL    HW131985   0.804   5.259   2.018
10362SOL    HW231986   0.957   5.228   2.068
10363SOL     OW31987   5.074   4.513   6.787
10363SOL    HW131988   5.025   4.456   6.720
10363SOL    HW231989   5.008   4.571   6.835
10364SOL     OW31990   5.929   4.490   2.230
10364SOL    HW131991   6.023   4.466   2.204
10364SOL    HW231992   5.901   4.574   2.183
10365SOL     OW31993   5.569   5.804   0.088
10365SOL    HW131994   5.617   5.807   0.000
10365SOL    HW231995   5.544   5.897   0.115
10366SOL     OW31996   2.306   6.111   3.597
10366SOL    HW131997   2.397   6.108   3.556
10366SOL    HW231998   2.287   6.203   3.631
10367SOL     OW31999   5.792   1.481   1.438
10367SOL    HW132000   5.861   1.546   1.472
10367SOL    HW232001   5.707   1.530   1.420
10368SOL     OW32002   2.323   6.055   2.331
10368SOL    HW132003   2.362   5.987   2.268
10368SOL    HW232004   2.240   6.093   2.291
10369SOL     OW32005   3.113   0.256   6.173
10369SOL    HW132006   3.087   0.259   6.269
10369SOL    HW232007   3.070   0.177   6.130
10370SOL     OW32008   1.169   0.725   5.390
10370SOL    HW132009   1.161   0.625   5.394
10370SOL    HW232010   1.121   0.765   5.468
10371SOL     OW32011   3.659   5.603   2.685
10371SOL    HW132012   3.691   5.667   2.755
10371SOL    HW232013   3.737   5.557   2.643
10372SOL     OW32014   2.965   6.807   1.909
10372SOL    HW132015   2.973   6.903   1.882
10372SOL    HW232016   3.037   6.755   1.864
10373SOL     OW32017   0.785   1.717   5.746
10373SOL    HW132018   0.883   1.739   5.746
10373SOL    HW232019   0.771   1.627   5.705
10374SOL     OW32020   3.707   5.684   4.114
10374SOL    HW132021   3.792   5.653   4.157
10374SOL    HW232022   3.653   5.736   4.180
10375SOL     OW32023   2.257   3.863   7.016
10375SOL    HW132024   2.315   3.935   0.030
10375SOL    HW232025   2.233   3.887   6.922
10376SOL     OW32026   1.812   4.776   3.001
10376SOL    HW132027   1.741   4.706   3.003
10376SOL    HW232028   1.892   4.744   3.051
10377SOL     OW32029   1.389   0.499   2.873
10377SOL    HW132030   1.343   0.442   2.941
10377SOL    HW232031   1.486   0.506   2.895
10378SOL     OW32032   0.002   4.706   3.603
10378SOL    HW132033   0.101   4.689   3.607
10378SOL    HW232034   6.981   4.652   3.673
10379SOL     OW32035   1.898   6.134   4.838
10379SOL    HW132036   1.916   6.064   4.907
10379SOL    HW232037   1.821   6.105   4.781
10380SOL     OW32038   2.310   2.811   4.795
10380SOL    HW132039   2.384   2.744   4.802
10380SOL    HW232040   2.314   2.874   4.873
10381SOL     OW32041   4.788   4.616   2.133
10381SOL    HW132042   4.858   4.686   2.145
10381SOL    HW232043   4.786   4.556   2.213
10382SOL     OW32044   3.772   5.220   1.927
10382SOL    HW132045   3.815   5.301   1.966
10382SOL    HW232046   3.743   5.240   1.833
10383SOL     OW32047   2.244   4.343   0.521
10383SOL    HW132048   2.159   4.395   0.510
10383SOL    HW232049   2.275   4.312   0.431
10384SOL     OW32050   6.143   6.539   1.572
10384SOL    HW132051   6.224   6.482   1.557
10384SOL    HW232052   6.117   6.583   1.486
10385SOL     OW32053   4.592   4.574   6.616
10385SOL    HW132054   4.581   4.526   6.704
10385SOL    HW232055   4.521   4.644   6.607
10386SOL     OW32056   0.028   1.518   0.259
10386SOL    HW132057   6.979   1.579   0.230
10386SOL    HW232058   0.113   1.571   0.268
10387SOL     OW32059   4.897   3.238   2.216
10387SOL    HW132060   4.845   3.186   2.149
10387SOL    HW232061   4.856   3.328   2.228
10388SOL     OW32062   3.011   0.878   5.793
10388SOL    HW132063   3.045   0.963   5.833
10388SOL    HW232064   3.087   0.831   5.747
10389SOL     OW32065   0.935   3.409   0.516
10389SOL    HW132066   0.871   3.402   0.593
10389SOL    HW232067   0.895   3.364   0.436
10390SOL     OW32068   2.954   2.321   1.573
10390SOL    HW132069   2.966   2.419   1.555
10390SOL    HW232070   2.988   2.299   1.664
10391SOL     OW32071   5.573   6.669   4.733
10391SOL    HW132072   5.595   6.705   4.642
10391SOL    HW232073   5.475   6.651   4.739
10392SOL     OW32074   6.915   4.984   4.084
10392SOL    HW132075   6.980   4.916   4.050
10392SOL    HW232076   6.822   4.947   4.078
10393SOL     OW32077   1.931   4.432   3.681
10393SOL    HW132078   1.893   4.516   3.642
10393SOL    HW232079   1.974   4.378   3.609
10394SOL     OW32080   2.543   5.673   4.542
10394SOL    HW132081   2.611   5.732   4.586
10394SOL    HW232082   2.453   5.717   4.544
10395SOL     OW32083   0.200   6.929   0.363
10395SOL    HW132084   0.268   6.919   0.435
10395SOL    HW232085   0.236   6.989   0.291
10396SOL     OW32086   2.820   1.576   5.095
10396SOL    HW132087   2.732   1.599   5.054
10396SOL    HW232088   2.816   1.485   5.136
10397SOL     OW32089   3.087   2.171   2.276
10397SOL    HW132090   2.996   2.140   2.249
10397SOL    HW232091   3.084   2.269   2.296
10398SOL     OW32092   7.010   2.742   2.062
10398SOL    HW132093   0.078   2.714   2.038
10398SOL    HW232094   6.970   2.793   1.986
10399SOL     OW32095   6.477   2.783   1.716
10399SOL    HW132096   6.564   2.831   1.720
10399SOL    HW232097   6.403   2.849   1.703
10400SOL     OW32098   3.896   6.776   0.478
10400SOL    HW132099   3.966   6.705   0.475
10400SOL    HW232100   3.840   6.771   0.395
10401SOL     OW32101   6.409   0.923   4.471
10401SOL    HW132102   6.398   0.833   4.513
10401SOL    HW232103   6.501   0.958   4.492
10402SOL     OW32104   6.520   2.476   4.581
10402SOL    HW132105   6.546   2.496   4.676
10402SOL    HW232106   6.474   2.556   4.541
10403SOL     OW32107   2.823   0.678   3.578
10403SOL    HW132108   2.923   0.674   3.582
10403SOL    HW232109   2.786   0.586   3.566
10404SOL     OW32110   0.195   6.802   5.880
10404SOL    HW132111   0.192   6.718   5.826
10404SOL    HW232112   0.174   6.780   5.976
10405SOL     OW32113   0.374   1.296   5.586
10405SOL    HW132114   0.364   1.204   5.550
10405SOL    HW232115   0.360   1.362   5.512
10406SOL     OW32116   3.249   4.911   1.552
10406SOL    HW132117   3.243   4.843   1.626
10406SOL    HW232118   3.225   5.001   1.588
10407SOL     OW32119   3.595   6.349   6.416
10407SOL    HW132120   3.636   6.357   6.507
10407SOL    HW232121   3.542   6.264   6.411
10408SOL     OW32122   4.932   1.063   0.025
10408SOL    HW132123   4.977   0.999   6.989
10408SOL    HW232124   4.893   1.014   0.103
10409SOL     OW32125   6.379   4.673   0.714
10409SOL    HW132126   6.446   4.613   0.671
10409SOL    HW232127   6.300   4.619   0.744
10410SOL     OW32128   5.490   1.812   0.031
10410SOL    HW132129   5.422   1.756   7.010
10410SOL    HW232130   5.528   1.761   0.109
10411SOL     OW32131   2.953   5.335   2.907
10411SOL    HW132132   2.882   5.362   2.842
10411SOL    HW232133   2.978   5.239   2.892
10412SOL     OW32134   5.945   1.183   0.681
10412SOL    HW132135   5.993   1.134   0.609
10412SOL    HW232136   5.992   1.170   0.768
10413SOL     OW32137   0.156   1.882   1.525
10413SOL    HW132138   0.208   1.863   1.442
10413SOL    HW232139   0.213   1.861   1.605
10414SOL     OW32140   4.869   3.634   5.653
10414SOL    HW132141   4.811   3.613   5.732
10414SOL    HW232142   4.822   3.609   5.569
10415SOL     OW32143   0.705   5.676   6.267
10415SOL    HW132144   0.708   5.767   6.309
10415SOL    HW232145   0.635   5.621   6.313
10416SOL     OW32146   6.010   2.751   4.210
10416SOL    HW132147   6.020   2.690   4.288
10416SOL    HW232148   5.920   2.737   4.167
10417SOL     OW32149   3.338   5.132   4.546
10417SOL    HW132150   3.254   5.083   4.524
10417SOL    HW232151   3.346   5.141   4.645
10418SOL     OW32152   0.178   4.222   5.729
10418SOL    HW132153   0.130   4.272   5.802
10418SOL    HW232154   0.272   4.254   5.724
10419SOL     OW32155   0.644   0.521   6.975
10419SOL    HW132156   0.574   0.464   6.932
10419SOL    HW232157   0.731   0.472   6.975
10420SOL     OW32158   0.182   3.429   2.396
10420SOL    HW132159   0.232   3.394   2.475
10420SOL    HW232160   0.093   3.384   2.390
10421SOL     OW32161   1.573   1.169   3.396
10421SOL    HW132162   1.477   1.147   3.378
10421SOL    HW232163   1.590   1.264   3.373
10422SOL     OW32164   6.536   2.497   5.693
10422SOL    HW132165   6.586   2.556   5.630
10422SOL    HW232166   6.599   2.465   5.764
10423SOL     OW32167   4.746   4.925   4.078
10423SOL    HW132168   4.838   4.889   4.091
10423SOL    HW232169   4.685   4.886   4.146
10424SOL     OW32170   5.067   1.829   6.617
10424SOL    HW132171   5.001   1.821   6.542
10424SOL    HW232172   5.157   1.853   6.579
10425SOL     OW32173   1.633   0.149   2.671
10425SOL    HW132174   1.565   0.150   2.744
10425SOL    HW232175   1.723   0.128   2.708
10426SOL     OW32176   6.519   3.945   0.535
10426SOL    HW132177   6.527   3.848   0.556
10426SOL    HW232178   6.575   3.967   0.455
10427SOL     OW32179   4.159   2.142   0.570
10427SOL    HW132180   4.184   2.232   0.606
10427SOL    HW232181   4.075   2.150   0.517
10428SOL     OW32182   3.543   0.441   4.432
10428SOL    HW132183   3.539   0.432   4.333
10428SOL    HW232184   3.591   0.525   4.457
10429SOL     OW32185   6.757   5.575   1.477
10429SOL    HW132186   6.848   5.610   1.497
10429SOL    HW232187   6.736   5.499   1.539
10430SOL     OW32188   4.470   6.862   3.008
10430SOL    HW132189   4.548   6.862   3.070
10430SOL    HW232190   4.454   6.770   2.973
10431SOL     OW32191   2.989   0.156   5.360
10431SOL    HW132192   2.939   0.174   5.275
10431SOL    HW232193   2.966   0.065   5.393
10432SOL     OW32194   6.528   0.784   4.008
10432SOL    HW132195   6.624   0.766   3.984
10432SOL    HW232196   6.486   0.843   3.939
10433SOL     OW32197   1.881   6.441   1.905
10433SOL    HW132198   1.928   6.446   1.817
10433SOL    HW232199   1.794   6.490   1.900
10434SOL     OW32200   3.360   0.054   3.517
10434SOL    HW132201   3.446   0.051   3.569
10434SOL    HW232202   3.381   0.057   3.419
10435SOL     OW32203   6.359   6.377   5.170
10435SOL    HW132204   6.389   6.413   5.082
10435SOL    HW232205   6.261   6.395   5.183
10436SOL     OW32206   0.396   4.965   4.232
10436SOL    HW132207   0.464   4.913   4.283
10436SOL    HW232208   0.337   5.015   4.295
10437SOL     OW32209   6.165   5.221   5.695
10437SOL    HW132210   6.074   5.202   5.734
10437SOL    HW232211   6.201   5.138   5.653
10438SOL     OW32212   5.149   6.668   0.249
10438SOL    HW132213   5.122   6.745   0.191
10438SOL    HW232214   5.118   6.684   0.343
10439SOL     OW32215   3.619   0.323   5.483
10439SOL    HW132216   3.670   0.377   5.416
10439SOL    HW232217   3.526   0.307   5.450
10440SOL     OW32218   0.986   6.874   1.070
10440SOL    HW132219   0.895   6.896   1.036
10440SOL    HW232220   0.983   6.789   1.122
10441SOL     OW32221   5.286   1.345   6.635
10441SOL    HW132222   5.315   1.330   6.540
10441SOL    HW232223   5.190   1.371   6.637
10442SOL     OW32224   3.540   5.234   5.672
10442SOL    HW132225   3.537   5.297   5.750
10442SOL    HW232226   3.563   5.142   5.705
10443SOL     OW32227   5.815   4.062   4.780
10443SOL    HW132228   5.893   4.010   4.814
10443SOL    HW232229   5.755   4.002   4.727
10444SOL     OW32230   3.683   5.520   4.875
10444SOL    HW132231   3.639   5.506   4.964
10444SOL    HW232232   3.639   5.462   4.807
10445SOL     OW32233   6.849   5.184   4.736
10445SOL    HW132234   6.881   5.253   4.801
10445SOL    HW232235   6.828   5.227   4.648
10446SOL     OW32236   0.581   3.958   6.607
10446SOL    HW132237   0.555   4.009   6.525
10446SOL    HW232238   0.516   3.979   6.680
10447SOL     OW32239   6.966   1.773   1.116
10447SOL    HW132240   6.924   1.682   1.125
10447SOL    HW232241   6.914   1.839   1.169
10448SOL     OW32242   3.802   3.760   1.231
10448SOL    HW132243   3.861   3.734   1.307
10448SOL    HW232244   3.713   3.788   1.267
10449SOL     OW32245   2.491   5.408   4.636
10449SOL    HW132246   2.532   5.483   4.584
10449SOL    HW232247   2.502   5.323   4.584
10450SOL     OW32248   6.923   2.807   6.872
10450SOL    HW132249   6.913   2.745   6.950
10450SOL    HW232250   7.015   2.846   6.873
10451SOL     OW32251   2.650   4.600   3.139
10451SOL    HW132252   2.611   4.578   3.228
10451SOL    HW232253   2.594   4.560   3.067
10452SOL     OW32254   0.568   3.725   3.815
10452SOL    HW132255   0.662   3.730   3.780
10452SOL    HW232256   0.510   3.679   3.748
10453SOL     OW32257   5.812   5.869   1.560
10453SOL    HW132258   5.752   5.948   1.563
10453SOL    HW232259   5.840   5.845   1.652
10454SOL     OW32260   5.148   2.777   1.727
10454SOL    HW132261   5.194   2.691   1.703
10454SOL    HW232262   5.071   2.757   1.787
10455SOL     OW32263   0.609   5.406   3.907
10455SOL    HW132264   0.625   5.406   3.809
10455SOL    HW232265   0.534   5.344   3.929
10456SOL     OW32266   3.372   5.893   1.293
10456SOL    HW132267   3.457   5.878   1.344
10456SOL    HW232268   3.353   5.812   1.237
10457SOL     OW32269   3.492   4.153   3.799
10457SOL    HW132270   3.438   4.129   3.719
10457SOL    HW232271   3.504   4.252   3.803
10458SOL     OW32272   0.792   0.103   0.653
10458SOL    HW132273   0.757   0.165   0.723
10458SOL    HW232274   0.883   0.071   0.679
10459SOL     OW32275   5.461   5.412   2.049
10459SOL    HW132276   5.396   5.446   1.982
10459SOL    HW232277   5.413   5.358   2.119
10460SOL     OW32278   2.670   5.666   1.971
10460SOL    HW132279   2.655   5.754   1.926
10460SOL    HW232280   2.744   5.675   2.038
10461SOL     OW32281   2.229   6.840   6.759
10461SOL    HW132282   2.311   6.793   6.726
10461SOL    HW232283   2.166   6.853   6.684
10462SOL     OW32284   5.759   0.494   0.625
10462SOL    HW132285   5.711   0.564   0.573
10462SOL    HW232286   5.720   0.404   0.604
10463SOL     OW32287   3.062   4.491   0.036
10463SOL    HW132288   3.023   4.434   6.989
10463SOL    HW232289   3.022   4.582   0.032
10464SOL     OW32290   4.686   0.210   1.201
10464SOL    HW132291   4.658   0.146   1.130
10464SOL    HW232292   4.605   0.240   1.252
10465SOL     OW32293   0.236   5.522   5.914
10465SOL    HW132294   0.236   5.505   5.816
10465SOL    HW232295   0.314   5.476   5.956
10466SOL     OW32296   5.050   5.479   5.033
10466SOL    HW132297   5.033   5.495   4.936
10466SOL    HW232298   4.997   5.545   5.087
10467SOL     OW32299   2.371   1.726   5.276
10467SOL    HW132300   2.471   1.726   5.275
10467SOL    HW232301   2.338   1.813   5.311
10468SOL     OW32302   3.508   6.334   4.308
10468SOL    HW132303   3.454   6.305   4.387
10468SOL    HW232304   3.511   6.434   4.304
10469SOL     OW32305   1.889   4.086   0.606
10469SOL    HW132306   1.978   4.101   0.649
10469SOL    HW232307   1.887   4.131   0.517
10470SOL     OW32308   2.329   1.756   3.705
10470SOL    HW132309   2.307   1.850   3.681
10470SOL    HW232310   2.254   1.696   3.677
10471SOL     OW32311   2.827   3.971   1.542
10471SOL    HW132312   2.917   3.999   1.509
10471SOL    HW232313   2.766   4.050   1.542
10472SOL     OW32314   3.858   7.002   2.271
10472SOL    HW132315   3.898   0.067   2.286
10472SOL    HW232316   3.924   6.942   2.226
10473SOL     OW32317   5.704   6.234   6.759
10473SOL    HW132318   5.783   6.209   6.816
10473SOL    HW232319   5.634   6.163   6.766
10474SOL     OW32320   3.891   0.960   4.236
10474SOL    HW132321   3.919   1.023   4.310
10474SOL    HW232322   3.936   0.986   4.151
10475SOL     OW32323   4.076   6.862   1.465
10475SOL    HW132324   4.126   6.947   1.449
10475SOL    HW232325   4.081   6.804   1.384
10476SOL     OW32326   6.150   5.212   6.185
10476SOL    HW132327   6.176   5.169   6.099
10476SOL    HW232328   6.214   5.183   6.257
10477SOL     OW32329   5.788   4.256   4.976
10477SOL    HW132330   5.860   4.254   5.046
10477SOL    HW232331   5.815   4.197   4.900
10478SOL     OW32332   0.322   6.325   0.905
10478SOL    HW132333   0.248   6.257   0.899
10478SOL    HW232334   0.402   6.282   0.948
10479SOL     OW32335   2.122   3.691   2.354
10479SOL    HW132336   2.096   3.602   2.318
10479SOL    HW232337   2.093   3.698   2.450
10480SOL     OW32338   5.345   0.011   2.308
10480SOL    HW132339   5.347   0.109   2.328
10480SOL    HW232340   5.404   6.987   2.371
10481SOL     OW32341   2.082   0.819   5.334
10481SOL    HW132342   2.096   0.912   5.367
10481SOL    HW232343   2.074   0.757   5.412
10482SOL     OW32344   0.773   6.059   4.803
10482SOL    HW132345   0.842   6.124   4.772
10482SOL    HW232346   0.726   6.019   4.724
10483SOL     OW32347   6.389   5.836   6.503
10483SOL    HW132348   6.416   5.758   6.446
10483SOL    HW232349   6.433   5.829   6.593
10484SOL     OW32350   0.769   1.036   1.772
10484SOL    HW132351   0.697   0.991   1.824
10484SOL    HW232352   0.828   1.088   1.834
10485SOL     OW32353   3.400   3.805   3.305
10485SOL    HW132354   3.488   3.761   3.322
10485SOL    HW232355   3.346   3.806   3.389
10486SOL     OW32356   6.327   6.173   5.496
10486SOL    HW132357   6.281   6.183   5.584
10486SOL    HW232358   6.388   6.251   5.481
10487SOL     OW32359   4.538   2.122   1.898
10487SOL    HW132360   4.630   2.084   1.889
10487SOL    HW232361   4.541   2.221   1.887
10488SOL     OW32362   0.261   2.267   5.526
10488SOL    HW132363   0.172   2.228   5.549
10488SOL    HW232364   0.333   2.213   5.569
10489SOL     OW32365   5.730   4.532   3.955
10489SOL    HW132366   5.767   4.523   4.047
10489SOL    HW232367   5.786   4.480   3.890
10490SOL     OW32368   5.927   6.472   6.797
10490SOL    HW132369   5.978   6.496   6.715
10490SOL    HW232370   5.885   6.382   6.786
10491SOL     OW32371   1.022   2.814   6.440
10491SOL    HW132372   0.957   2.866   6.495
10491SOL    HW232373   1.115   2.848   6.457
10492SOL     OW32374   4.301   0.513   0.656
10492SOL    HW132375   4.226   0.551   0.601
10492SOL    HW232376   4.362   0.587   0.685
10493SOL     OW32377   3.976   5.616   0.820
10493SOL    HW132378   4.045   5.649   0.755
10493SOL    HW232379   3.888   5.610   0.774
10494SOL     OW32380   0.958   4.252   5.969
10494SOL    HW132381   0.983   4.219   6.060
10494SOL    HW232382   1.026   4.317   5.937
10495SOL     OW32383   0.832   6.260   6.341
10495SOL    HW132384   0.827   6.350   6.297
10495SOL    HW232385   0.905   6.261   6.409
10496SOL     OW32386   6.959   3.516   5.416
10496SOL    HW132387   6.902   3.452   5.365
10496SOL    HW232388   6.989   3.591   5.356
10497SOL     OW32389   2.366   6.920   1.333
10497SOL    HW132390   2.346   6.827   1.364
10497SOL    HW232391   2.307   6.985   1.381
10498SOL     OW32392   4.165   5.783   0.475
10498SOL    HW132393   4.202   5.741   0.558
10498SOL    HW232394   4.228   5.767   0.399
10499SOL     OW32395   5.877   4.698   2.084
10499SOL    HW132396   5.855   4.688   1.987
10499SOL    HW232397   5.961   4.750   2.095
10500SOL     OW32398   6.324   4.276   5.898
10500SOL    HW132399   6.395   4.344   5.913
10500SOL    HW232400   6.284   4.289   5.807
10501SOL     OW32401   2.587   5.414   2.747
10501SOL    HW132402   2.546   5.328   2.777
10501SOL    HW232403   2.670   5.394   2.694
10502SOL     OW32404   3.016   3.934   2.328
10502SOL    HW132405   3.004   3.839   2.299
10502SOL    HW232406   3.002   3.994   2.249
10503SOL     OW32407   6.017   2.797   6.441
10503SOL    HW132408   5.934   2.744   6.422
10503SOL    HW232409   6.095   2.754   6.395
10504SOL     OW32410   1.471   2.739   6.161
10504SOL    HW132411   1.515   2.763   6.248
10504SOL    HW232412   1.389   2.686   6.180
10505SOL     OW32413   6.075   6.173   1.385
10505SOL    HW132414   6.084   6.074   1.376
10505SOL    HW232415   5.993   6.195   1.437
10506SOL     OW32416   0.992   2.539   0.612
10506SOL    HW132417   0.918   2.479   0.583
10506SOL    HW232418   1.080   2.498   0.585
10507SOL     OW32419   1.554   4.714   6.589
10507SOL    HW132420   1.638   4.769   6.589
10507SOL    HW232421   1.532   4.687   6.495
10508SOL     OW32422   1.425   5.372   5.010
10508SOL    HW132423   1.436   5.272   5.014
10508SOL    HW232424   1.461   5.405   4.922
10509SOL     OW32425   5.383   2.888   3.440
10509SOL    HW132426   5.355   2.793   3.429
10509SOL    HW232427   5.346   2.942   3.365
10510SOL     OW32428   4.783   5.749   4.371
10510SOL    HW132429   4.840   5.787   4.298
10510SOL    HW232430   4.719   5.683   4.332
10511SOL     OW32431   3.709   1.879   2.317
10511SOL    HW132432   3.682   1.789   2.281
10511SOL    HW232433   3.731   1.939   2.240
10512SOL     OW32434   4.262   1.091   4.563
10512SOL    HW132435   4.313   1.019   4.515
10512SOL    HW232436   4.185   1.049   4.612
10513SOL     OW32437   5.306   2.957   1.559
10513SOL    HW132438   5.233   2.906   1.603
10513SOL    HW232439   5.362   3.001   1.629
10514SOL     OW32440   1.210   3.006   1.421
10514SOL    HW132441   1.198   3.001   1.322
10514SOL    HW232442   1.121   2.993   1.466
10515SOL     OW32443   2.012   2.923   5.004
10515SOL    HW132444   2.091   2.983   5.002
10515SOL    HW232445   1.991   2.898   5.099
10516SOL     OW32446   3.151   2.099   1.079
10516SOL    HW132447   3.061   2.069   1.109
10516SOL    HW232448   3.179   2.180   1.131
10517SOL     OW32449   1.011   3.219   3.595
10517SOL    HW132450   1.003   3.309   3.638
10517SOL    HW232451   1.063   3.227   3.511
10518SOL     OW32452   0.724   5.381   2.596
10518SOL    HW132453   0.687   5.439   2.668
10518SOL    HW232454   0.683   5.407   2.508
10519SOL     OW32455   2.566   6.334   1.056
10519SOL    HW132456   2.619   6.337   1.140
10519SOL    HW232457   2.588   6.250   1.006
10520SOL     OW32458   0.395   1.707   5.425
10520SOL    HW132459   0.440   1.753   5.349
10520SOL    HW232460   0.356   1.775   5.487
10521SOL     OW32461   6.547   3.134   0.984
10521SOL    HW132462   6.517   3.049   1.028
10521SOL    HW232463   6.550   3.207   1.052
10522SOL     OW32464   5.073   2.344   3.499
10522SOL    HW132465   5.115   2.422   3.452
10522SOL    HW232466   5.040   2.278   3.431
10523SOL     OW32467   6.892   4.928   3.512
10523SOL    HW132468   6.872   5.009   3.567
10523SOL    HW232469   6.946   4.864   3.566
10524SOL     OW32470   6.313   6.662   4.455
10524SOL    HW132471   6.313   6.697   4.549
10524SOL    HW232472   6.396   6.691   4.408
10525SOL     OW32473   4.658   1.327   5.016
10525SOL    HW132474   4.647   1.293   4.922
10525SOL    HW232475   4.686   1.423   5.013
10526SOL     OW32476   1.266   5.184   0.627
10526SOL    HW132477   1.284   5.235   0.711
10526SOL    HW232478   1.200   5.233   0.571
10527SOL     OW32479   0.582   0.436   4.764
10527SOL    HW132480   0.556   0.513   4.705
10527SOL    HW232481   0.614   0.360   4.708
10528SOL     OW32482   1.007   4.065   6.185
10528SOL    HW132483   0.947   4.024   6.254
10528SOL    HW232484   1.088   4.103   6.229
10529SOL     OW32485   0.783   6.272   0.175
10529SOL    HW132486   0.721   6.267   0.097
10529SOL    HW232487   0.878   6.266   0.144
10530SOL     OW32488   0.304   6.509   0.713
10530SOL    HW132489   0.325   6.454   0.794
10530SOL    HW232490   0.332   6.604   0.728
10531SOL     OW32491   2.941   3.027   5.290
10531SOL    HW132492   2.928   2.935   5.326
10531SOL    HW232493   2.865   3.085   5.321
10532SOL     OW32494   5.522   6.043   6.465
10532SOL    HW132495   5.536   6.103   6.544
10532SOL    HW232496   5.525   6.098   6.382
10533SOL     OW32497   2.811   5.342   3.564
10533SOL    HW132498   2.789   5.279   3.638
10533SOL    HW232499   2.908   5.365   3.568
10534SOL     OW32500   1.357   5.946   2.587
10534SOL    HW132501   1.388   5.998   2.508
10534SOL    HW232502   1.270   5.984   2.620
10535SOL     OW32503   2.992   2.165   2.911
10535SOL    HW132504   2.990   2.222   2.829
10535SOL    HW232505   3.087   2.147   2.936
10536SOL     OW32506   5.437   1.844   4.037
10536SOL    HW132507   5.375   1.913   4.076
10536SOL    HW232508   5.530   1.864   4.067
10537SOL     OW32509   4.655   6.800   3.224
10537SOL    HW132510   4.708   6.732   3.173
10537SOL    HW232511   4.713   6.878   3.247
10538SOL     OW32512   6.428   2.743   2.618
10538SOL    HW132513   6.418   2.739   2.519
10538SOL    HW232514   6.338   2.738   2.662
10539SOL     OW32515   6.637   0.304   2.975
10539SOL    HW132516   6.630   0.220   3.030
10539SOL    HW232517   6.570   0.371   3.008
10540SOL     OW32518   2.728   3.859   5.816
10540SOL    HW132519   2.637   3.842   5.776
10540SOL    HW232520   2.789   3.783   5.792
10541SOL     OW32521   2.920   3.356   4.926
10541SOL    HW132522   2.961   3.301   4.999
10541SOL    HW232523   2.823   3.331   4.917
10542SOL     OW32524   5.390   6.910   4.264
10542SOL    HW132525   5.464   6.965   4.225
10542SOL    HW232526   5.421   6.815   4.273
10543SOL     OW32527   0.261   3.321   5.038
10543SOL    HW132528   0.307   3.248   4.988
10543SOL    HW232529   0.281   3.409   4.994
10544SOL     OW32530   1.483   0.763   3.578
10544SOL    HW132531   1.564   0.808   3.540
10544SOL    HW232532   1.401   0.816   3.554
10545SOL     OW32533   1.811   2.061   2.963
10545SOL    HW132534   1.731   2.117   2.943
10545SOL    HW232535   1.836   2.008   2.882
10546SOL     OW32536   3.095   6.830   0.843
10546SOL    HW132537   3.120   6.891   0.918
10546SOL    HW232538   3.003   6.794   0.857
10547SOL     OW32539   4.232   0.106   4.850
10547SOL    HW132540   4.177   0.045   4.907
10547SOL    HW232541   4.172   0.163   4.794
10548SOL     OW32542   0.995   4.879   4.206
10548SOL    HW132543   1.027   4.864   4.113
10548SOL    HW232544   1.072   4.903   4.265
10549SOL     OW32545   0.105   1.324   1.234
10549SOL    HW132546   0.183   1.329   1.172
10549SOL    HW232547   0.075   1.229   1.242
10550SOL     OW32548   3.668   6.311   3.475
10550SOL    HW132549   3.754   6.261   3.468
10550SOL    HW232550   3.639   6.314   3.571
10551SOL     OW32551   2.825   2.085   6.078
10551SOL    HW132552   2.831   2.166   6.019
10551SOL    HW232553   2.871   2.008   6.033
10552SOL     OW32554   3.281   0.407   4.517
10552SOL    HW132555   3.247   0.474   4.583
10552SOL    HW232556   3.375   0.428   4.492
10553SOL     OW32557   0.092   5.184   0.287
10553SOL    HW132558   0.106   5.257   0.353
10553SOL    HW232559   0.048   5.106   0.331
10554SOL     OW32560   5.897   4.843   2.781
10554SOL    HW132561   5.966   4.775   2.755
10554SOL    HW232562   5.807   4.813   2.750
10555SOL     OW32563   3.490   2.570   0.755
10555SOL    HW132564   3.451   2.504   0.690
10555SOL    HW232565   3.519   2.652   0.706
10556SOL     OW32566   1.925   1.933   3.180
10556SOL    HW132567   1.902   1.971   3.090
10556SOL    HW232568   1.954   2.007   3.241
10557SOL     OW32569   2.244   4.355   3.764
10557SOL    HW132570   2.159   4.338   3.814
10557SOL    HW232571   2.320   4.363   3.829
10558SOL     OW32572   2.647   5.721   6.065
10558SOL    HW132573   2.573   5.763   6.118
10558SOL    HW232574   2.626   5.625   6.051
10559SOL     OW32575   4.166   6.817   6.014
10559SOL    HW132576   4.159   6.721   5.985
10559SOL    HW232577   4.092   6.837   6.078
10560SOL     OW32578   5.115   6.294   1.947
10560SOL    HW132579   5.086   6.302   2.042
10560SOL    HW232580   5.210   6.325   1.938
10561SOL     OW32581   6.116   4.494   0.334
10561SOL    HW132582   6.071   4.577   0.366
10561SOL    HW232583   6.051   4.436   0.286
10562SOL     OW32584   3.288   6.230   2.040
10562SOL    HW132585   3.196   6.267   2.050
10562SOL    HW232586   3.347   6.299   1.998
10563SOL     OW32587   0.263   0.560   0.770
10563SOL    HW132588   0.336   0.628   0.760
10563SOL    HW232589   0.181   0.591   0.723
10564SOL     OW32590   5.617   5.761   3.876
10564SOL    HW132591   5.663   5.849   3.866
10564SOL    HW232592   5.598   5.744   3.972
10565SOL     OW32593   0.032   6.595   5.347
10565SOL    HW132594   0.062   6.685   5.379
10565SOL    HW232595   7.025   6.541   5.425
10566SOL     OW32596   2.665   2.731   0.277
10566SOL    HW132597   2.688   2.792   0.353
10566SOL    HW232598   2.658   2.637   0.310
10567SOL     OW32599   0.985   2.372   6.349
10567SOL    HW132600   1.045   2.437   6.396
10567SOL    HW232601   0.893   2.412   6.341
10568SOL     OW32602   5.224   2.503   5.763
10568SOL    HW132603   5.129   2.476   5.774
10568SOL    HW232604   5.237   2.596   5.798
10569SOL     OW32605   5.556   6.634   1.207
10569SOL    HW132606   5.555   6.568   1.132
10569SOL    HW232607   5.486   6.608   1.275
10570SOL     OW32608   0.659   5.048   4.011
10570SOL    HW132609   0.583   4.983   4.018
10570SOL    HW232610   0.657   5.110   4.090
10571SOL     OW32611   0.244   4.084   6.245
10571SOL    HW132612   0.247   4.133   6.158
10571SOL    HW232613   0.219   3.988   6.229
10572SOL     OW32614   6.102   4.193   1.145
10572SOL    HW132615   6.171   4.131   1.108
10572SOL    HW232616   6.116   4.203   1.243
10573SOL     OW32617   5.746   1.301   3.485
10573SOL    HW132618   5.808   1.232   3.521
10573SOL    HW232619   5.652   1.266   3.486
10574SOL     OW32620   0.642   2.196   3.703
10574SOL    HW132621   0.656   2.147   3.618
10574SOL    HW232622   0.683   2.145   3.779
10575SOL     OW32623   6.077   0.873   1.598
10575SOL    HW132624   6.173   0.881   1.571
10575SOL    HW232625   6.036   0.794   1.554
10576SOL     OW32626   2.447   4.631   4.024
10576SOL    HW132627   2.421   4.719   3.982
10576SOL    HW232628   2.542   4.637   4.056
10577SOL     OW32629   4.189   6.062   0.427
10577SOL    HW132630   4.281   6.061   0.388
10577SOL    HW232631   4.161   5.969   0.449
10578SOL     OW32632   6.904   2.880   3.974
10578SOL    HW132633   6.807   2.881   3.998
10578SOL    HW232634   6.939   2.786   3.984
10579SOL     OW32635   1.862   3.872   0.773
10579SOL    HW132636   1.845   3.949   0.713
10579SOL    HW232637   1.917   3.804   0.725
10580SOL     OW32638   6.760   6.597   6.186
10580SOL    HW132639   6.823   6.531   6.145
10580SOL    HW232640   6.795   6.624   6.276
10581SOL     OW32641   5.578   0.132   2.922
10581SOL    HW132642   5.550   0.227   2.939
10581SOL    HW232643   5.607   0.091   3.008
10582SOL     OW32644   5.664   4.333   6.694
10582SOL    HW132645   5.586   4.392   6.674
10582SOL    HW232646   5.745   4.368   6.647
10583SOL     OW32647   2.851   1.041   5.124
10583SOL    HW132648   2.805   0.952   5.122
10583SOL    HW232649   2.857   1.072   5.219
10584SOL     OW32650   0.114   0.040   5.598
10584SOL    HW132651   0.045   0.096   5.644
10584SOL    HW232652   0.203   0.054   5.642
10585SOL     OW32653   0.805   0.469   5.372
10585SOL    HW132654   0.848   0.516   5.294
10585SOL    HW232655   0.719   0.515   5.395
10586SOL     OW32656   4.223   4.671   5.344
10586SOL    HW132657   4.202   4.652   5.440
10586SOL    HW232658   4.244   4.586   5.296
10587SOL     OW32659   1.413   5.947   5.678
10587SOL    HW132660   1.404   5.988   5.587
10587SOL    HW232661   1.368   5.858   5.679
10588SOL     OW32662   1.128   4.984   4.430
10588SOL    HW132663   1.168   4.899   4.464
10588SOL    HW232664   1.072   5.026   4.501
10589SOL     OW32665   5.593   6.060   3.708
10589SOL    HW132666   5.525   6.019   3.769
10589SOL    HW232667   5.551   6.079   3.619
10590SOL     OW32668   0.569   5.532   2.826
10590SOL    HW132669   0.577   5.466   2.900
10590SOL    HW232670   0.625   5.613   2.846
10591SOL     OW32671   1.290   1.923   1.823
10591SOL    HW132672   1.253   1.996   1.881
10591SOL    HW232673   1.386   1.941   1.803
10592SOL     OW32674   6.026   2.135   5.454
10592SOL    HW132675   5.929   2.113   5.464
10592SOL    HW232676   6.047   2.150   5.357
10593SOL     OW32677   2.849   6.227   1.790
10593SOL    HW132678   2.761   6.225   1.837
10593SOL    HW232679   2.835   6.253   1.694
10594SOL     OW32680   3.026   0.212   3.829
10594SOL    HW132681   2.956   0.141   3.841
10594SOL    HW232682   3.065   0.205   3.737
10595SOL     OW32683   6.134   6.761   0.788
10595SOL    HW132684   6.075   6.729   0.862
10595SOL    HW232685   6.181   6.844   0.817
10596SOL     OW32686   5.070   2.231   6.660
10596SOL    HW132687   5.030   2.168   6.726
10596SOL    HW232688   5.122   2.301   6.708
10597SOL     OW32689   2.466   0.739   6.061
10597SOL    HW132690   2.548   0.682   6.069
10597SOL    HW232691   2.388   0.682   6.034
10598SOL     OW32692   2.429   1.769   5.938
10598SOL    HW132693   2.516   1.768   5.888
10598SOL    HW232694   2.426   1.848   5.999
10599SOL     OW32695   6.708   3.406   6.097
10599SOL    HW132696   6.778   3.449   6.153
10599SOL    HW232697   6.718   3.435   6.002
10600SOL     OW32698   2.852   1.907   1.338
10600SOL    HW132699   2.888   1.825   1.382
10600SOL    HW232700   2.853   1.982   1.403
10601SOL     OW32701   0.214   6.076   5.734
10601SOL    HW132702   0.279   6.126   5.678
10601SOL    HW232703   0.121   6.108   5.715
10602SOL     OW32704   0.261   0.400   0.995
10602SOL    HW132705   0.193   0.451   1.047
10602SOL    HW232706   0.277   0.445   0.907
10603SOL     OW32707   4.941   0.031   2.132
10603SOL    HW132708   5.023   7.004   2.107
10603SOL    HW232709   4.902   7.019   2.216
10604SOL     OW32710   5.922   6.841   4.542
10604SOL    HW132711   5.944   6.749   4.509
10604SOL    HW232712   5.984   6.907   4.499
10605SOL     OW32713   2.364   1.697   1.258
10605SOL    HW132714   2.307   1.779   1.264
10605SOL    HW232715   2.440   1.705   1.322
10606SOL     OW32716   6.344   0.811   1.084
10606SOL    HW132717   6.246   0.829   1.079
10606SOL    HW232718   6.359   0.713   1.097
10607SOL     OW32719   3.799   4.058   6.274
10607SOL    HW132720   3.851   3.975   6.293
10607SOL    HW232721   3.703   4.045   6.301
10608SOL     OW32722   6.099   3.566   3.024
10608SOL    HW132723   6.161   3.495   2.990
10608SOL    HW232724   6.005   3.540   3.006
10609SOL     OW32725   4.394   1.562   6.635
10609SOL    HW132726   4.452   1.520   6.705
10609SOL    HW232727   4.333   1.493   6.596
10610SOL     OW32728   0.934   1.140   4.328
10610SOL    HW132729   0.864   1.210   4.330
10610SOL    HW232730   0.944   1.106   4.234
10611SOL     OW32731   3.310   5.335   4.995
10611SOL    HW132732   3.265   5.401   5.055
10611SOL    HW232733   3.398   5.310   5.034
10612SOL     OW32734   5.806   1.577   3.497
10612SOL    HW132735   5.785   1.479   3.488
10612SOL    HW232736   5.887   1.599   3.443
10613SOL     OW32737   5.908   0.176   4.333
10613SOL    HW132738   5.864   0.244   4.275
10613SOL    HW232739   5.900   0.086   4.291
10614SOL     OW32740   4.627   0.485   6.302
10614SOL    HW132741   4.568   0.566   6.295
10614SOL    HW232742   4.716   0.504   6.262
10615SOL     OW32743   1.749   2.094   6.320
10615SOL    HW132744   1.704   2.183   6.333
10615SOL    HW232745   1.838   2.095   6.364
10616SOL     OW32746   2.650   6.610   6.720
10616SOL    HW132747   2.636   6.705   6.748
10616SOL    HW232748   2.689   6.559   6.796
10617SOL     OW32749   2.761   3.319   1.462
10617SOL    HW132750   2.684   3.277   1.413
10617SOL    HW232751   2.730   3.344   1.554
10618SOL     OW32752   0.481   5.338   5.300
10618SOL    HW132753   0.556   5.388   5.344
10618SOL    HW232754   0.479   5.361   5.202
10619SOL     OW32755   0.989   2.328   3.132
10619SOL    HW132756   1.040   2.398   3.180
10619SOL    HW232757   0.896   2.362   3.112
10620SOL     OW32758   2.791   0.494   0.091
10620SOL    HW132759   2.712   0.543   0.054
10620SOL    HW232760   2.858   0.480   0.019
10621SOL     OW32761   1.020   3.767   3.193
10621SOL    HW132762   1.033   3.811   3.282
10621SOL    HW232763   1.063   3.677   3.194
10622SOL     OW32764   4.607   3.264   0.370
10622SOL    HW132765   4.655   3.342   0.328
10622SOL    HW232766   4.546   3.296   0.442
10623SOL     OW32767   5.391   6.294   6.630
10623SOL    HW132768   5.429   6.316   6.720
10623SOL    HW232769   5.422   6.362   6.564
10624SOL     OW32770   0.388   2.448   5.096
10624SOL    HW132771   0.391   2.479   5.191
10624SOL    HW232772   0.482   2.437   5.062
10625SOL     OW32773   6.500   4.671   6.916
10625SOL    HW132774   6.574   4.736   6.896
10625SOL    HW232775   6.412   4.714   6.897
10626SOL     OW32776   4.835   3.498   1.110
10626SOL    HW132777   4.745   3.529   1.079
10626SOL    HW232778   4.900   3.503   1.033
10627SOL     OW32779   5.270   6.282   6.126
10627SOL    HW132780   5.319   6.199   6.098
10627SOL    HW232781   5.231   6.269   6.217
10628SOL     OW32782   4.968   0.665   1.232
10628SOL    HW132783   4.881   0.685   1.186
10628SOL    HW232784   5.017   0.751   1.250
10629SOL     OW32785   3.064   5.325   4.536
10629SOL    HW132786   2.979   5.276   4.516
10629SOL    HW232787   3.075   5.333   4.635
10630SOL     OW32788   4.223   0.230   2.678
10630SOL    HW132789   4.134   0.190   2.698
10630SOL    HW232790   4.260   0.272   2.761
10631SOL     OW32791   4.336   6.065   6.764
10631SOL    HW132792   4.345   6.114   6.677
10631SOL    HW232793   4.328   5.967   6.748
10632SOL     OW32794   4.900   5.445   3.271
10632SOL    HW132795   4.932   5.469   3.363
10632SOL    HW232796   4.950   5.499   3.203
10633SOL     OW32797   1.840   2.846   1.719
10633SOL    HW132798   1.760   2.904   1.733
10633SOL    HW232799   1.887   2.874   1.635
10634SOL     OW32800   0.056   4.262   6.948
10634SOL    HW132801   0.139   4.308   6.917
10634SOL    HW232802   7.011   4.268   6.877
10635SOL     OW32803   2.763   3.980   0.012
10635SOL    HW132804   2.704   4.060   0.025
10635SOL    HW232805   2.735   3.908   0.076
10636SOL     OW32806   6.773   2.441   6.308
10636SOL    HW132807   6.719   2.415   6.387
10636SOL    HW232808   6.854   2.384   6.303
10637SOL     OW32809   3.250   0.256   0.140
10637SOL    HW132810   3.311   0.221   0.069
10637SOL    HW232811   3.298   0.325   0.194
10638SOL     OW32812   0.037   5.103   1.969
10638SOL    HW132813   0.085   5.187   1.943
10638SOL    HW232814   7.002   5.122   2.047
10639SOL     OW32815   2.156   4.342   1.130
10639SOL    HW132816   2.117   4.259   1.090
10639SOL    HW232817   2.120   4.354   1.223
10640SOL     OW32818   4.175   6.881   3.109
10640SOL    HW132819   4.142   6.974   3.123
10640SOL    HW232820   4.274   6.882   3.101
10641SOL     OW32821   0.843   0.053   3.622
10641SOL    HW132822   0.819   0.014   3.533
10641SOL    HW232823   0.879   0.145   3.609
10642SOL     OW32824   5.319   2.161   6.501
10642SOL    HW132825   5.386   2.229   6.530
10642SOL    HW232826   5.237   2.168   6.558
10643SOL     OW32827   1.641   5.121   5.961
10643SOL    HW132828   1.739   5.105   5.967
10643SOL    HW232829   1.597   5.085   6.044
10644SOL     OW32830   0.635   2.465   2.768
10644SOL    HW132831   0.712   2.522   2.798
10644SOL    HW232832   0.551   2.519   2.768
10645SOL     OW32833   2.247   2.946   3.587
10645SOL    HW132834   2.307   2.870   3.561
10645SOL    HW232835   2.236   2.946   3.687
10646SOL     OW32836   5.328   1.205   4.009
10646SOL    HW132837   5.413   1.172   3.968
10646SOL    HW232838   5.348   1.241   4.101
10647SOL     OW32839   3.835   5.055   4.833
10647SOL    HW132840   3.760   5.027   4.773
10647SOL    HW232841   3.920   5.062   4.780
10648SOL     OW32842   5.770   5.813   4.865
10648SOL    HW132843   5.796   5.900   4.907
10648SOL    HW232844   5.717   5.759   4.931
10649SOL     OW32845   0.011   3.450   2.962
10649SOL    HW132846   0.004   3.547   2.941
10649SOL    HW232847   0.082   3.436   3.031
10650SOL     OW32848   0.003   0.844   4.335
10650SOL    HW132849   0.024   0.767   4.275
10650SOL    HW232850   6.977   0.913   4.283
10651SOL     OW32851   4.292   5.780   5.687
10651SOL    HW132852   4.226   5.744   5.622
10651SOL    HW232853   4.373   5.721   5.688
10652SOL     OW32854   1.890   6.930   6.699
10652SOL    HW132855   1.798   6.962   6.676
10652SOL    HW232856   1.954   6.961   6.629
10653SOL     OW32857   3.599   6.065   4.423
10653SOL    HW132858   3.518   6.097   4.374
10653SOL    HW232859   3.680   6.078   4.367
10654SOL     OW32860   5.639   1.271   4.655
10654SOL    HW132861   5.556   1.280   4.710
10654SOL    HW232862   5.719   1.266   4.714
10655SOL     OW32863   1.274   4.664   1.454
10655SOL    HW132864   1.337   4.742   1.463
10655SOL    HW232865   1.295   4.614   1.370
10656SOL     OW32866   6.465   1.278   1.537
10656SOL    HW132867   6.392   1.319   1.592
10656SOL    HW232868   6.553   1.295   1.581
10657SOL     OW32869   5.750   0.600   3.947
10657SOL    HW132870   5.756   0.645   3.857
10657SOL    HW232871   5.834   0.619   3.998
10658SOL     OW32872   6.571   3.774   5.066
10658SOL    HW132873   6.659   3.820   5.075
10658SOL    HW232874   6.508   3.807   5.136
10659SOL     OW32875   1.218   5.183   1.326
10659SOL    HW132876   1.216   5.086   1.299
10659SOL    HW232877   1.128   5.210   1.358
10660SOL     OW32878   6.758   3.321   5.314
10660SOL    HW132879   6.771   3.245   5.251
10660SOL    HW232880   6.731   3.403   5.263
10661SOL     OW32881   1.601   3.977   7.002
10661SOL    HW132882   1.522   4.031   0.003
10661SOL    HW232883   1.571   3.889   6.964
10662SOL     OW32884   2.656   1.264   3.389
10662SOL    HW132885   2.726   1.275   3.317
10662SOL    HW232886   2.698   1.227   3.471
10663SOL     OW32887   1.699   1.602   4.194
10663SOL    HW132888   1.695   1.524   4.132
10663SOL    HW232889   1.778   1.593   4.255
10664SOL     OW32890   1.323   5.212   4.325
10664SOL    HW132891   1.285   5.182   4.412
10664SOL    HW232892   1.262   5.281   4.285
10665SOL     OW32893   1.801   2.843   6.150
10665SOL    HW132894   1.827   2.765   6.095
10665SOL    HW232895   1.740   2.902   6.098
10666SOL     OW32896   3.749   3.342   2.413
10666SOL    HW132897   3.663   3.313   2.371
10666SOL    HW232898   3.821   3.346   2.344
10667SOL     OW32899   5.686   2.072   3.011
10667SOL    HW132900   5.705   1.992   3.069
10667SOL    HW232901   5.682   2.154   3.068
10668SOL     OW32902   3.265   2.250   5.398
10668SOL    HW132903   3.262   2.175   5.332
10668SOL    HW232904   3.269   2.337   5.349
10669SOL     OW32905   5.467   1.125   1.158
10669SOL    HW132906   5.503   1.217   1.172
10669SOL    HW232907   5.490   1.068   1.237
10670SOL     OW32908   5.290   3.805   3.947
10670SOL    HW132909   5.336   3.865   4.012
10670SOL    HW232910   5.233   3.859   3.886
10671SOL     OW32911   1.074   1.702   4.145
10671SOL    HW132912   0.982   1.700   4.185
10671SOL    HW232913   1.071   1.664   4.053
10672SOL     OW32914   6.004   3.644   2.026
10672SOL    HW132915   6.077   3.678   1.967
10672SOL    HW232916   5.928   3.613   1.970
10673SOL     OW32917   1.816   0.920   1.280
10673SOL    HW132918   1.844   0.825   1.291
10673SOL    HW232919   1.866   0.977   1.346
10674SOL     OW32920   3.899   3.052   4.640
10674SOL    HW132921   3.903   3.005   4.728
10674SOL    HW232922   3.948   3.139   4.647
10675SOL     OW32923   3.830   0.038   5.772
10675SOL    HW132924   3.820   0.095   5.853
10675SOL    HW232925   3.865   0.093   5.697
10676SOL     OW32926   1.253   6.280   5.492
10676SOL    HW132927   1.335   6.311   5.540
10676SOL    HW232928   1.236   6.340   5.414
10677SOL     OW32929   0.703   1.902   0.548
10677SOL    HW132930   0.626   1.964   0.560
10677SOL    HW232931   0.757   1.899   0.632
10678SOL     OW32932   4.069   5.355   3.833
10678SOL    HW132933   4.004   5.426   3.860
10678SOL    HW232934   4.162   5.394   3.830
10679SOL     OW32935   4.475   4.391   0.099
10679SOL    HW132936   4.444   4.485   0.112
10679SOL    HW232937   4.529   4.362   0.178
10680SOL     OW32938   3.521   1.732   4.195
10680SOL    HW132939   3.611   1.775   4.191
10680SOL    HW232940   3.512   1.666   4.121
10681SOL     OW32941   6.472   3.333   6.260
10681SOL    HW132942   6.546   3.363   6.200
10681SOL    HW232943   6.471   3.233   6.266
10682SOL     OW32944   6.330   2.905   5.288
10682SOL    HW132945   6.276   2.846   5.229
10682SOL    HW232946   6.396   2.956   5.234
10683SOL     OW32947   4.170   0.436   3.389
10683SOL    HW132948   4.161   0.351   3.441
10683SOL    HW232949   4.177   0.416   3.292
10684SOL     OW32950   5.332   4.507   1.020
10684SOL    HW132951   5.349   4.555   1.105
10684SOL    HW232952   5.377   4.555   0.945
10685SOL     OW32953   0.310   5.116   2.099
10685SOL    HW132954   0.327   5.184   2.027
10685SOL    HW232955   0.290   5.164   2.185
10686SOL     OW32956   2.270   4.244   0.249
10686SOL    HW132957   2.188   4.197   0.280
10686SOL    HW232958   2.297   4.210   0.159
10687SOL     OW32959   6.567   4.470   3.039
10687SOL    HW132960   6.625   4.514   3.107
10687SOL    HW232961   6.553   4.531   2.962
10688SOL     OW32962   5.526   1.243   2.016
10688SOL    HW132963   5.594   1.287   1.958
10688SOL    HW232964   5.571   1.173   2.072
10689SOL     OW32965   0.166   7.006   1.863
10689SOL    HW132966   0.164   0.052   1.792
10689SOL    HW232967   0.105   0.006   1.937
10690SOL     OW32968   6.499   6.118   3.532
10690SOL    HW132969   6.439   6.072   3.466
10690SOL    HW232970   6.446   6.145   3.612
10691SOL     OW32971   3.193   1.792   2.073
10691SOL    HW132972   3.154   1.882   2.052
10691SOL    HW232973   3.293   1.799   2.073
10692SOL     OW32974   2.764   0.696   4.927
10692SOL    HW132975   2.692   0.677   4.861
10692SOL    HW232976   2.853   0.692   4.881
10693SOL     OW32977   0.868   5.738   1.372
10693SOL    HW132978   0.920   5.809   1.325
10693SOL    HW232979   0.875   5.652   1.322
10694SOL     OW32980   4.696   6.093   6.188
10694SOL    HW132981   4.682   5.994   6.189
10694SOL    HW232982   4.735   6.120   6.100
10695SOL     OW32983   1.012   3.289   0.809
10695SOL    HW132984   1.014   3.389   0.814
10695SOL    HW232985   1.093   3.251   0.853
10696SOL     OW32986   6.587   4.234   5.083
10696SOL    HW132987   6.502   4.248   5.032
10696SOL    HW232988   6.643   4.165   5.038
10697SOL     OW32989   0.570   6.030   5.018
10697SOL    HW132990   0.535   5.945   4.979
10697SOL    HW232991   0.639   6.069   4.957
10698SOL     OW32992   4.874   4.341   6.720
10698SOL    HW132993   4.859   4.325   6.817
10698SOL    HW232994   4.787   4.332   6.671
10699SOL     OW32995   3.744   4.364   0.821
10699SOL    HW132996   3.714   4.458   0.805
10699SOL    HW232997   3.747   4.347   0.919
10700SOL     OW32998   5.966   6.852   0.369
10700SOL    HW132999   5.918   6.770   0.340
10700SOL    HW233000   6.065   6.839   0.358
10701SOL     OW33001   2.829   0.015   6.445
10701SOL    HW133002   2.842   6.949   6.485
10701SOL    HW233003   2.884   0.082   6.495
10702SOL     OW33004   5.139   3.114   2.679
10702SOL    HW133005   5.094   3.136   2.592
10702SOL    HW233006   5.100   3.171   2.752
10703SOL     OW33007   2.111   2.428   5.758
10703SOL    HW133008   2.154   2.499   5.813
10703SOL    HW233009   2.174   2.351   5.748
10704SOL     OW33010   6.818   5.485   2.476
10704SOL    HW133011   6.811   5.585   2.484
10704SOL    HW233012   6.749   5.443   2.534
10705SOL     OW33013   5.858   4.578   1.012
10705SOL    HW133014   5.816   4.591   1.101
10705SOL    HW233015   5.801   4.516   0.957
10706SOL     OW33016   4.482   0.052   1.922
10706SOL    HW133017   4.484   0.073   1.825
10706SOL    HW233018   4.573   0.066   1.961
10707SOL     OW33019   6.402   0.083   4.447
10707SOL    HW133020   6.467   0.148   4.409
10707SOL    HW233021   6.447   7.020   4.461
10708SOL     OW33022   4.979   1.660   2.395
10708SOL    HW133023   5.022   1.709   2.471
10708SOL    HW233024   5.049   1.610   2.343
10709SOL     OW33025   5.833   5.584   3.734
10709SOL    HW133026   5.779   5.607   3.815
10709SOL    HW233027   5.825   5.486   3.716
10710SOL     OW33028   5.515   0.794   3.369
10710SOL    HW133029   5.530   0.869   3.305
10710SOL    HW233030   5.601   0.746   3.385
10711SOL     OW33031   2.469   6.888   3.688
10711SOL    HW133032   2.443   6.907   3.782
10711SOL    HW233033   2.465   6.789   3.672
10712SOL     OW33034   4.333   0.318   2.906
10712SOL    HW133035   4.389   0.243   2.940
10712SOL    HW233036   4.389   0.400   2.895
10713SOL     OW33037   1.384   2.727   0.412
10713SOL    HW133038   1.298   2.765   0.379
10713SOL    HW233039   1.428   2.792   0.474
10714SOL     OW33040   4.479   3.008   5.308
10714SOL    HW133041   4.398   3.062   5.286
10714SOL    HW233042   4.555   3.069   5.331
10715SOL     OW33043   4.965   0.302   2.326
10715SOL    HW133044   4.962   0.379   2.262
10715SOL    HW233045   4.891   0.238   2.304
10716SOL     OW33046   6.692   2.727   3.098
10716SOL    HW133047   6.705   2.740   3.000
10716SOL    HW233048   6.655   2.636   3.115
10717SOL     OW33049   1.882   3.116   0.795
10717SOL    HW133050   1.842   3.025   0.787
10717SOL    HW233051   1.906   3.150   0.704
10718SOL     OW33052   1.385   4.335   6.577
10718SOL    HW133053   1.380   4.254   6.635
10718SOL    HW233054   1.384   4.417   6.633
10719SOL     OW33055   5.765   6.037   3.353
10719SOL    HW133056   5.716   5.954   3.380
10719SOL    HW233057   5.700   6.102   3.311
10720SOL     OW33058   5.617   5.154   4.163
10720SOL    HW133059   5.521   5.175   4.184
10720SOL    HW233060   5.646   5.207   4.083
10721SOL     OW33061   5.196   3.989   5.279
10721SOL    HW133062   5.128   4.050   5.239
10721SOL    HW233063   5.265   4.042   5.326
10722SOL     OW33064   6.431   4.224   6.946
10722SOL    HW133065   6.414   4.292   6.873
10722SOL    HW233066   6.345   4.178   6.969
10723SOL     OW33067   6.909   1.857   6.318
10723SOL    HW133068   6.997   1.843   6.272
10723SOL    HW233069   6.870   1.945   6.290
10724SOL     OW33070   0.334   6.684   6.377
10724SOL    HW133071   0.385   6.686   6.291
10724SOL    HW233072   0.386   6.631   6.444
10725SOL     OW33073   2.163   5.839   5.395
10725SOL    HW133074   2.195   5.924   5.353
10725SOL    HW233075   2.220   5.763   5.363
10726SOL     OW33076   4.268   0.315   4.061
10726SOL    HW133077   4.326   0.323   4.143
10726SOL    HW233078   4.196   0.248   4.078
10727SOL     OW33079   0.776   5.159   6.474
10727SOL    HW133080   0.822   5.101   6.541
10727SOL    HW233081   0.702   5.108   6.431
10728SOL     OW33082   1.019   4.808   0.002
10728SOL    HW133083   0.970   4.894   7.014
10728SOL    HW233084   0.953   4.732   0.009
10729SOL     OW33085   6.269   1.482   1.957
10729SOL    HW133086   6.223   1.517   2.038
10729SOL    HW233087   6.364   1.460   1.980
10730SOL     OW33088   3.341   6.760   0.748
10730SOL    HW133089   3.252   6.732   0.784
10730SOL    HW233090   3.407   6.763   0.822
10731SOL     OW33091   3.642   0.537   0.856
10731SOL    HW133092   3.610   0.615   0.802
10731SOL    HW233093   3.723   0.564   0.908
10732SOL     OW33094   0.675   4.530   5.695
10732SOL    HW133095   0.762   4.556   5.735
10732SOL    HW233096   0.604   4.595   5.723
10733SOL     OW33097   6.263   1.382   6.706
10733SOL    HW133098   6.330   1.329   6.759
10733SOL    HW233099   6.311   1.436   6.637
10734SOL     OW33100   1.467   1.484   0.853
10734SOL    HW133101   1.503   1.574   0.877
10734SOL    HW233102   1.473   1.472   0.753
10735SOL     OW33103   0.277   2.946   2.487
10735SOL    HW133104   0.291   3.000   2.570
10735SOL    HW233105   0.199   2.885   2.500
10736SOL     OW33106   2.064   0.231   3.340
10736SOL    HW133107   1.987   0.275   3.386
10736SOL    HW233108   2.047   0.229   3.241
10737SOL     OW33109   0.918   1.671   1.095
10737SOL    HW133110   0.935   1.608   1.171
10737SOL    HW233111   0.993   1.666   1.030
10738SOL     OW33112   3.264   6.020   2.768
10738SOL    HW133113   3.326   6.085   2.725
10738SOL    HW233114   3.190   6.069   2.814
10739SOL     OW33115   1.951   1.716   1.339
10739SOL    HW133116   2.019   1.789   1.333
10739SOL    HW233117   1.884   1.739   1.409
10740SOL     OW33118   6.672   4.854   5.781
10740SOL    HW133119   6.648   4.810   5.868
10740SOL    HW233120   6.748   4.804   5.739
10741SOL     OW33121   4.060   0.660   1.485
10741SOL    HW133122   4.015   0.728   1.427
10741SOL    HW233123   4.147   0.696   1.517
10742SOL     OW33124   6.328   6.946   0.880
10742SOL    HW133125   6.391   7.007   0.832
10742SOL    HW233126   6.377   6.897   0.952
10743SOL     OW33127   1.477   1.759   5.680
10743SOL    HW133128   1.451   1.709   5.597
10743SOL    HW233129   1.537   1.703   5.736
10744SOL     OW33130   3.707   1.492   0.532
10744SOL    HW133131   3.672   1.447   0.613
10744SOL    HW233132   3.636   1.550   0.493
10745SOL     OW33133   0.027   5.360   5.987
10745SOL    HW133134   6.975   5.404   6.033
10745SOL    HW233135   0.103   5.425   5.983
10746SOL     OW33136   0.928   4.045   0.410
10746SOL    HW133137   0.890   4.099   0.485
10746SOL    HW233138   0.920   3.948   0.432
10747SOL     OW33139   3.593   0.874   4.840
10747SOL    HW133140   3.650   0.925   4.776
10747SOL    HW233141   3.647   0.804   4.885
10748SOL     OW33142   5.430   0.413   1.510
10748SOL    HW133143   5.427   0.314   1.502
10748SOL    HW233144   5.453   0.454   1.422
10749SOL     OW33145   0.221   5.988   4.467
10749SOL    HW133146   0.295   5.970   4.403
10749SOL    HW233147   0.187   6.081   4.454
10750SOL     OW33148   3.679   6.918   5.041
10750SOL    HW133149   3.729   6.840   5.078
10750SOL    HW233150   3.723   6.950   4.958
10751SOL     OW33151   2.006   4.324   3.909
10751SOL    HW133152   2.041   4.392   3.972
10751SOL    HW233153   1.963   4.370   3.831
10752SOL     OW33154   6.125   4.487   5.495
10752SOL    HW133155   6.069   4.451   5.420
10752SOL    HW233156   6.179   4.413   5.534
10753SOL     OW33157   6.626   4.367   4.202
10753SOL    HW133158   6.589   4.294   4.144
10753SOL    HW233159   6.716   4.341   4.235
10754SOL     OW33160   1.145   0.075   3.410
10754SOL    HW133161   1.165   0.000   3.348
10754SOL    HW233162   1.048   0.097   3.406
10755SOL     OW33163   6.864   0.507   0.869
10755SOL    HW133164   6.902   0.415   0.880
10755SOL    HW233165   6.928   0.575   0.904
10756SOL     OW33166   6.560   5.309   5.694
10756SOL    HW133167   6.647   5.312   5.743
10756SOL    HW233168   6.485   5.326   5.758
10757SOL     OW33169   2.203   2.213   0.111
10757SOL    HW133170   2.267   2.273   0.159
10757SOL    HW233171   2.124   2.267   0.081
10758SOL     OW33172   0.802   6.162   4.184
10758SOL    HW133173   0.709   6.130   4.204
10758SOL    HW233174   0.850   6.093   4.129
10759SOL     OW33175   1.972   3.597   0.859
10759SOL    HW133176   2.001   3.526   0.923
10759SOL    HW233177   2.045   3.617   0.794
10760SOL     OW33178   5.969   1.047   3.301
10760SOL    HW133179   6.025   0.964   3.303
10760SOL    HW233180   5.908   1.049   3.380
10761SOL     OW33181   0.539   5.828   5.770
10761SOL    HW133182   0.589   5.914   5.755
10761SOL    HW233183   0.537   5.776   5.685
10762SOL     OW33184   3.022   1.197   4.982
10762SOL    HW133185   3.105   1.151   4.951
10762SOL    HW233186   2.969   1.135   5.040
10763SOL     OW33187   4.092   6.669   2.738
10763SOL    HW133188   4.016   6.706   2.685
10763SOL    HW233189   4.068   6.669   2.835
10764SOL     OW33190   5.292   2.150   5.166
10764SOL    HW133191   5.217   2.114   5.110
10764SOL    HW233192   5.379   2.128   5.121
10765SOL     OW33193   4.715   3.057   1.024
10765SOL    HW133194   4.644   2.987   1.028
10765SOL    HW233195   4.674   3.147   1.036
10766SOL     OW33196   4.146   4.811   0.449
10766SOL    HW133197   4.088   4.870   0.506
10766SOL    HW233198   4.124   4.715   0.467
10767SOL     OW33199   2.590   0.331   1.340
10767SOL    HW133200   2.503   0.381   1.338
10767SOL    HW233201   2.641   0.357   1.422
10768SOL     OW33202   5.605   5.140   1.421
10768SOL    HW133203   5.655   5.078   1.361
10768SOL    HW233204   5.627   5.234   1.397
10769SOL     OW33205   1.778   3.764   5.800
10769SOL    HW133206   1.804   3.684   5.746
10769SOL    HW233207   1.761   3.841   5.740
10770SOL     OW33208   4.875   6.533   3.865
10770SOL    HW133209   4.900   6.446   3.907
10770SOL    HW233210   4.794   6.521   3.808
10771SOL     OW33211   3.831   0.300   3.558
10771SOL    HW133212   3.912   0.309   3.615
10771SOL    HW233213   3.771   0.378   3.572
10772SOL     OW33214   5.916   6.431   4.922
10772SOL    HW133215   5.857   6.410   4.844
10772SOL    HW233216   5.985   6.359   4.932
10773SOL     OW33217   5.884   4.965   6.248
10773SOL    HW133218   5.883   4.985   6.150
10773SOL    HW233219   5.798   4.919   6.273
10774SOL     OW33220   1.981   1.158   5.111
10774SOL    HW133221   1.890   1.159   5.153
10774SOL    HW233222   1.977   1.110   5.023
10775SOL     OW33223   0.449   4.688   2.553
10775SOL    HW133224   0.502   4.764   2.590
10775SOL    HW233225   0.440   4.617   2.623
10776SOL     OW33226   0.929   0.763   6.776
10776SOL    HW133227   0.951   0.860   6.787
10776SOL    HW233228   0.830   0.750   6.784
10777SOL     OW33229   3.769   5.452   0.943
10777SOL    HW133230   3.862   5.432   0.912
10777SOL    HW233231   3.741   5.540   0.907
10778SOL     OW33232   4.938   0.247   4.266
10778SOL    HW133233   4.865   0.314   4.254
10778SOL    HW233234   4.999   0.248   4.187
10779SOL     OW33235   6.019   2.905   3.193
10779SOL    HW133236   6.107   2.925   3.150
10779SOL    HW233237   5.971   2.990   3.211
10780SOL     OW33238   1.507   0.872   4.499
10780SOL    HW133239   1.543   0.823   4.578
10780SOL    HW233240   1.574   0.868   4.424
10781SOL     OW33241   3.731   1.123   3.442
10781SOL    HW133242   3.744   1.192   3.514
10781SOL    HW233243   3.658   1.153   3.380
10782SOL     OW33244   0.088   0.932   3.528
10782SOL    HW133245   0.130   0.842   3.532
10782SOL    HW233246   0.026   0.937   3.450
10783SOL     OW33247   0.344   2.874   3.061
10783SOL    HW133248   0.347   2.864   3.161
10783SOL    HW233249   0.327   2.969   3.038
10784SOL     OW33250   3.084   1.104   4.393
10784SOL    HW133251   3.053   1.075   4.303
10784SOL    HW233252   3.134   1.190   4.385
10785SOL     OW33253   1.058   3.723   0.696
10785SOL    HW133254   1.076   3.816   0.726
10785SOL    HW233255   1.097   3.709   0.605
10786SOL     OW33256   6.086   5.329   2.687
10786SOL    HW133257   6.145   5.355   2.611
10786SOL    HW233258   5.999   5.294   2.652
10787SOL     OW33259   0.900   0.492   5.630
10787SOL    HW133260   0.958   0.436   5.690
10787SOL    HW233261   0.906   0.459   5.536
10788SOL     OW33262   0.920   3.573   0.880
10788SOL    HW133263   0.849   3.513   0.843
10788SOL    HW233264   0.975   3.610   0.805
10789SOL     OW33265   6.482   2.954   6.563
10789SOL    HW133266   6.528   2.883   6.509
10789SOL    HW233267   6.541   2.980   6.639
10790SOL     OW33268   0.862   6.573   1.717
10790SOL    HW133269   0.812   6.537   1.796
10790SOL    HW233270   0.805   6.566   1.636
10791SOL     OW33271   6.808   5.913   2.286
10791SOL    HW133272   6.862   5.874   2.211
10791SOL    HW233273   6.810   6.013   2.280
10792SOL     OW33274   3.036   3.206   5.099
10792SOL    HW133275   3.135   3.215   5.113
10792SOL    HW233276   2.999   3.142   5.166
10793SOL     OW33277   5.997   4.071   5.837
10793SOL    HW133278   6.093   4.050   5.857
10793SOL    HW233279   5.963   4.010   5.766
10794SOL     OW33280   4.038   3.831   4.420
10794SOL    HW133281   4.098   3.752   4.426
10794SOL    HW233282   3.956   3.808   4.368
10795SOL     OW33283   0.326   5.310   3.012
10795SOL    HW133284   0.300   5.296   3.107
10795SOL    HW233285   0.314   5.406   2.987
10796SOL     OW33286   6.500   6.995   5.397
10796SOL    HW133287   6.511   0.064   5.428
10796SOL    HW233288   6.490   6.935   5.477
10797SOL     OW33289   3.727   3.060   1.419
10797SOL    HW133290   3.760   3.069   1.326
10797SOL    HW233291   3.650   2.995   1.421
10798SOL     OW33292   2.527   1.434   0.442
10798SOL    HW133293   2.482   1.379   0.372
10798SOL    HW233294   2.476   1.428   0.528
10799SOL     OW33295   4.313   0.736   2.559
10799SOL    HW133296   4.384   0.789   2.513
10799SOL    HW233297   4.282   0.663   2.498
10800SOL     OW33298   0.939   6.105   6.141
10800SOL    HW133299   1.030   6.139   6.117
10800SOL    HW233300   0.906   6.151   6.224
10801SOL     OW33301   0.603   6.947   0.544
10801SOL    HW133302   0.663   6.892   0.487
10801SOL    HW233303   0.655   7.022   0.585
10802SOL     OW33304   0.233   6.720   2.650
10802SOL    HW133305   0.212   6.642   2.592
10802SOL    HW233306   0.166   6.726   2.724
10803SOL     OW33307   1.701   5.712   6.305
10803SOL    HW133308   1.671   5.697   6.399
10803SOL    HW233309   1.672   5.636   6.248
10804SOL     OW33310   6.955   2.704   3.204
10804SOL    HW133311   7.004   2.689   3.117
10804SOL    HW233312   6.860   2.728   3.185
10805SOL     OW33313   5.632   0.690   5.584
10805SOL    HW133314   5.617   0.728   5.493
10805SOL    HW233315   5.622   0.591   5.582
10806SOL     OW33316   3.705   4.947   6.698
10806SOL    HW133317   3.669   4.924   6.789
10806SOL    HW233318   3.772   4.878   6.670
10807SOL     OW33319   0.924   5.684   3.952
10807SOL    HW133320   1.009   5.662   3.999
10807SOL    HW233321   0.847   5.640   3.999
10808SOL     OW33322   0.523   3.027   6.122
10808SOL    HW133323   0.535   2.928   6.117
10808SOL    HW233324   0.511   3.054   6.217
10809SOL     OW33325   1.882   4.219   4.137
10809SOL    HW133326   1.926   4.263   4.059
10809SOL    HW233327   1.842   4.289   4.196
10810SOL     OW33328   6.810   0.244   3.571
10810SOL    HW133329   6.717   0.261   3.538
10810SOL    HW233330   6.868   0.323   3.551
10811SOL     OW33331   4.681   5.056   4.723
10811SOL    HW133332   4.703   5.024   4.631
10811SOL    HW233333   4.592   5.018   4.751
10812SOL     OW33334   6.879   3.548   6.484
10812SOL    HW133335   6.890   3.552   6.385
10812SOL    HW233336   6.805   3.485   6.507
10813SOL     OW33337   0.504   3.422   6.060
10813SOL    HW133338   0.583   3.405   6.000
10813SOL    HW233339   0.536   3.464   6.145
10814SOL     OW33340   2.375   0.041   0.492
10814SOL    HW133341   2.436   7.004   0.442
10814SOL    HW233342   2.421   0.128   0.508
10815SOL     OW33343   5.234   1.589   3.103
10815SOL    HW133344   5.236   1.548   3.012
10815SOL    HW233345   5.324   1.627   3.124
10816SOL     OW33346   3.117   3.038   2.921
10816SOL    HW133347   3.129   3.006   3.015
10816SOL    HW233348   3.152   2.969   2.858
10817SOL     OW33349   3.092   0.655   3.538
10817SOL    HW133350   3.161   0.590   3.568
10817SOL    HW233351   3.103   0.675   3.441
10818SOL     OW33352   4.743   4.893   5.644
10818SOL    HW133353   4.674   4.958   5.613
10818SOL    HW233354   4.834   4.926   5.618
10819SOL     OW33355   5.941   5.435   6.009
10819SOL    HW133356   5.926   5.397   6.101
10819SOL    HW233357   6.007   5.510   6.014
10820SOL     OW33358   0.116   5.621   4.629
10820SOL    HW133359   0.213   5.598   4.619
10820SOL    HW233360   0.074   5.625   4.538
10821SOL     OW33361   4.283   6.064   3.054
10821SOL    HW133362   4.186   6.080   3.074
10821SOL    HW233363   4.306   6.108   2.967
10822SOL     OW33364   5.533   1.935   1.047
10822SOL    HW133365   5.590   1.935   0.964
10822SOL    HW233366   5.572   1.871   1.114
10823SOL     OW33367   0.418   0.461   3.821
10823SOL    HW133368   0.429   0.451   3.722
10823SOL    HW233369   0.504   0.492   3.861
10824SOL     OW33370   1.141   1.752   2.720
10824SOL    HW133371   1.089   1.671   2.693
10824SOL    HW233372   1.080   1.816   2.767
10825SOL     OW33373   1.422   2.230   0.561
10825SOL    HW133374   1.430   2.160   0.490
10825SOL    HW233375   1.421   2.186   0.651
10826SOL     OW33376   1.111   2.416   2.599
10826SOL    HW133377   1.036   2.370   2.551
10826SOL    HW233378   1.110   2.389   2.696
10827SOL     OW33379   6.507   2.784   4.760
10827SOL    HW133380   6.576   2.854   4.744
10827SOL    HW233381   6.495   2.729   4.677
10828SOL     OW33382   6.753   3.959   0.001
10828SOL    HW133383   6.704   3.872   0.005
10828SOL    HW233384   6.795   3.970   6.936
10829SOL     OW33385   4.739   3.991   0.196
10829SOL    HW133386   4.804   3.916   0.205
10829SOL    HW233387   4.679   3.993   0.276
10830SOL     OW33388   5.084   1.695   3.776
10830SOL    HW133389   5.023   1.617   3.794
10830SOL    HW233390   5.173   1.661   3.746
10831SOL     OW33391   3.964   0.392   2.077
10831SOL    HW133392   4.007   0.386   1.987
10831SOL    HW233393   3.999   0.318   2.135
10832SOL     OW33394   6.691   3.330   6.534
10832SOL    HW133395   6.593   3.317   6.523
10832SOL    HW233396   6.740   3.258   6.484
10833SOL     OW33397   0.314   2.602   1.012
10833SOL    HW133398   0.224   2.559   1.014
10833SOL    HW233399   0.375   2.548   0.954
10834SOL     OW33400   6.297   0.964   0.783
10834SOL    HW133401   6.389   0.955   0.823
10834SOL    HW233402   6.272   0.878   0.738
10835SOL     OW33403   5.004   3.452   0.225
10835SOL    HW133404   4.967   3.392   0.296
10835SOL    HW233405   4.990   3.410   0.135
10836SOL     OW33406   1.280   0.830   2.795
10836SOL    HW133407   1.280   0.743   2.745
10836SOL    HW233408   1.270   0.906   2.731
10837SOL     OW33409   6.163   4.526   2.082
10837SOL    HW133410   6.204   4.609   2.045
10837SOL    HW233411   6.180   4.449   2.021
10838SOL     OW33412   5.582   6.429   3.645
10838SOL    HW133413   5.599   6.516   3.691
10838SOL    HW233414   5.486   6.405   3.655
10839SOL     OW33415   4.759   3.416   0.797
10839SOL    HW133416   4.722   3.333   0.754
10839SOL    HW233417   4.845   3.441   0.752
10840SOL     OW33418   3.580   0.720   2.401
10840SOL    HW133419   3.551   0.628   2.425
10840SOL    HW233420   3.625   0.719   2.311
10841SOL     OW33421   6.433   4.970   4.875
10841SOL    HW133422   6.458   5.055   4.830
10841SOL    HW233423   6.503   4.947   4.943
10842SOL     OW33424   4.377   2.841   1.679
10842SOL    HW133425   4.316   2.776   1.634
10842SOL    HW233426   4.333   2.932   1.680
10843SOL     OW33427   1.967   1.697   0.815
10843SOL    HW133428   1.910   1.716   0.735
10843SOL    HW233429   1.923   1.734   0.897
10844SOL     OW33430   0.044   5.442   4.205
10844SOL    HW133431   6.972   5.439   4.232
10844SOL    HW233432   0.077   5.536   4.212
10845SOL     OW33433   4.322   6.129   4.707
10845SOL    HW133434   4.380   6.068   4.653
10845SOL    HW233435   4.294   6.083   4.791
10846SOL     OW33436   5.702   6.502   6.971
10846SOL    HW133437   5.713   6.539   0.038
10846SOL    HW233438   5.792   6.481   6.933
10847SOL     OW33439   2.626   1.892   0.093
10847SOL    HW133440   2.653   1.937   0.178
10847SOL    HW233441   2.669   1.802   0.089
10848SOL     OW33442   0.664   4.042   1.045
10848SOL    HW133443   0.679   4.064   1.142
10848SOL    HW233444   0.675   3.943   1.032
10849SOL     OW33445   3.072   5.025   4.538
10849SOL    HW133446   2.990   5.080   4.520
10849SOL    HW233447   3.048   4.947   4.596
10850SOL     OW33448   3.767   6.177   6.951
10850SOL    HW133449   3.707   6.155   6.874
10850SOL    HW233450   3.861   6.152   6.929
10851SOL     OW33451   3.079   4.133   1.473
10851SOL    HW133452   3.094   4.222   1.431
10851SOL    HW233453   3.060   4.144   1.570
10852SOL     OW33454   2.346   1.606   0.276
10852SOL    HW133455   2.390   1.542   0.214
10852SOL    HW233456   2.411   1.635   0.346
10853SOL     OW33457   2.433   3.487   6.130
10853SOL    HW133458   2.360   3.419   6.130
10853SOL    HW233459   2.507   3.457   6.190
10854SOL     OW33460   4.765   5.374   5.210
10854SOL    HW133461   4.785   5.468   5.182
10854SOL    HW233462   4.709   5.329   5.141
10855SOL     OW33463   3.967   0.796   0.683
10855SOL    HW133464   3.873   0.829   0.692
10855SOL    HW233465   4.016   0.808   0.769
10856SOL     OW33466   7.001   0.598   6.576
10856SOL    HW133467   6.930   0.596   6.647
10856SOL    HW233468   0.011   0.506   6.561
10857SOL     OW33469   0.454   1.606   2.651
10857SOL    HW133470   0.547   1.628   2.620
10857SOL    HW233471   0.416   1.682   2.702
10858SOL     OW33472   2.028   6.596   1.135
10858SOL    HW133473   1.946   6.630   1.183
10858SOL    HW233474   2.041   6.648   1.051
10859SOL     OW33475   6.728   4.792   4.609
10859SOL    HW133476   6.634   4.828   4.609
10859SOL    HW233477   6.791   4.865   4.583
10860SOL     OW33478   0.022   3.828   3.597
10860SOL    HW133479   6.992   3.892   3.542
10860SOL    HW233480   0.096   3.878   3.641
10861SOL     OW33481   2.903   3.691   3.534
10861SOL    HW133482   2.817   3.696   3.585
10861SOL    HW233483   2.969   3.636   3.586
10862SOL     OW33484   2.133   0.767   6.073
10862SOL    HW133485   2.045   0.776   6.120
10862SOL    HW233486   2.207   0.794   6.134
10863SOL     OW33487   2.229   0.288   4.482
10863SOL    HW133488   2.314   0.235   4.471
10863SOL    HW233489   2.192   0.271   4.574
10864SOL     OW33490   2.848   6.381   1.514
10864SOL    HW133491   2.880   6.473   1.533
10864SOL    HW233492   2.783   6.383   1.438
10865SOL     OW33493   6.360   1.472   0.122
10865SOL    HW133494   6.442   1.434   0.078
10865SOL    HW233495   6.313   1.532   0.057
10866SOL     OW33496   5.271   4.817   0.171
10866SOL    HW133497   5.258   4.906   0.128
10866SOL    HW233498   5.191   4.760   0.156
10867SOL     OW33499   2.955   4.352   0.693
10867SOL    HW133500   3.012   4.278   0.727
10867SOL    HW233501   3.004   4.439   0.699
10868SOL     OW33502   5.135   1.849   3.520
10868SOL    HW133503   5.056   1.910   3.514
10868SOL    HW233504   5.111   1.768   3.573
10869NA      NA33505   6.384   2.470   5.494
10870NA      NA33506   4.441   4.685   5.138
10871NA      NA33507   1.691   3.360   1.456
10872NA      NA33508   5.112   3.781   5.364
10873NA      NA33509   4.219   2.233   4.991
10874NA      NA33510   3.698   4.788   1.681
10875NA      NA33511   6.539   5.339   5.447
10876NA      NA33512   3.530   3.340   4.605
10877NA      NA33513   4.797   6.455   6.765
10878NA      NA33514   3.398   6.546   5.458
10879NA      NA33515   6.263   5.123   2.735
10880NA      NA33516   2.421   0.480   3.859
10881NA      NA33517   3.782   5.319   1.168
10882NA      NA33518   3.644   3.485   2.683
   7.02500   7.02500   7.02500
