Generated by trjconv : CNT in water t= 591.00000
33518
    1C        C    1   2.834   2.764   4.742
    1C        C    2   2.892   2.714   4.861
    1C        C    3   2.841   2.770   4.979
    1C        C    4   2.842   2.764   4.256
    1C        C    5   2.895   2.720   4.379
    1C        C    6   2.841   2.766   4.501
    1C        C    7   3.011   2.641   4.622
    1C        C    8   2.891   2.716   4.623
    1C        C    9   3.074   2.602   4.742
    1C        C   10   3.004   2.628   4.862
    1C        C   11   3.173   2.487   4.970
    1C        C   12   3.052   2.558   4.973
    1C        C   13   2.840   2.759   3.769
    1C        C   14   2.888   2.709   3.892
    1C        C   15   2.839   2.764   4.013
    1C        C   16   3.009   2.634   4.135
    1C        C   17   2.894   2.716   4.134
    1C        C   18   3.077   2.608   4.256
    1C        C   19   3.016   2.646   4.378
    1C        C   20   3.204   2.552   4.501
    1C        C   21   3.072   2.603   4.500
    1C        C   22   3.274   2.532   4.621
    1C        C   23   3.204   2.545   4.743
    1C        C   24   3.408   2.479   4.863
    1C        C   25   3.266   2.496   4.861
    1C        C   26   3.485   2.475   4.980
    1C        C   27   2.842   2.763   3.278
    1C        C   28   2.899   2.720   3.401
    1C        C   29   2.846   2.764   3.524
    1C        C   30   3.010   2.632   3.649
    1C        C   31   2.894   2.713   3.647
    1C        C   32   3.071   2.595   3.771
    1C        C   33   3.005   2.631   3.891
    1C        C   34   3.203   2.551   4.016
    1C        C   35   3.070   2.600   4.013
    1C        C   36   3.275   2.531   4.136
    1C        C   37   3.207   2.552   4.259
    1C        C   38   3.412   2.501   4.378
    1C        C   39   3.273   2.525   4.380
    1C        C   40   3.482   2.493   4.501
    1C        C   41   3.411   2.498   4.623
    1C        C   42   3.626   2.487   4.745
    1C        C   43   3.484   2.483   4.743
    1C        C   44   3.703   2.482   4.863
    1C        C   45   3.624   2.477   4.979
    1C        C   46   2.824   2.742   2.789
    1C        C   47   2.881   2.701   2.911
    1C        C   48   2.837   2.755   3.034
    1C        C   49   3.009   2.632   3.158
    1C        C   50   2.893   2.711   3.157
    1C        C   51   3.072   2.598   3.280
    1C        C   52   3.010   2.633   3.402
    1C        C   53   3.199   2.542   3.524
    1C        C   54   3.069   2.597   3.526
    1C        C   55   3.267   2.523   3.647
    1C        C   56   3.202   2.543   3.771
    1C        C   57   3.409   2.507   3.888
    1C        C   58   3.269   2.527   3.894
    1C        C   59   3.480   2.505   4.010
    1C        C   60   3.414   2.508   4.134
    1C        C   61   3.625   2.505   4.256
    1C        C   62   3.484   2.500   4.257
    1C        C   63   3.694   2.509   4.380
    1C        C   64   3.623   2.498   4.501
    1C        C   65   3.832   2.538   4.621
    1C        C   66   3.695   2.503   4.623
    1C        C   67   3.904   2.554   4.741
    1C        C   68   3.838   2.520   4.861
    1C        C   69   4.046   2.583   4.977
    1C        C   70   3.918   2.526   4.976
    1C        C   71   2.816   2.728   2.305
    1C        C   72   2.874   2.686   2.427
    1C        C   73   2.821   2.733   2.549
    1C        C   74   2.998   2.613   2.671
    1C        C   75   2.880   2.691   2.670
    1C        C   76   3.063   2.586   2.793
    1C        C   77   3.000   2.625   2.914
    1C        C   78   3.201   2.547   3.034
    1C        C   79   3.069   2.597   3.034
    1C        C   80   3.268   2.528   3.157
    1C        C   81   3.203   2.546   3.281
    1C        C   82   3.408   2.496   3.399
    1C        C   83   3.270   2.523   3.403
    1C        C   84   3.479   2.492   3.522
    1C        C   85   3.407   2.504   3.643
    1C        C   86   3.620   2.502   3.766
    1C        C   87   3.479   2.503   3.765
    1C        C   88   3.690   2.517   3.888
    1C        C   89   3.622   2.511   4.012
    1C        C   90   3.830   2.553   4.132
    1C        C   91   3.694   2.516   4.133
    1C        C   92   3.895   2.575   4.256
    1C        C   93   3.830   2.547   4.378
    1C        C   94   4.022   2.637   4.497
    1C        C   95   3.897   2.571   4.500
    1C        C   96   4.087   2.669   4.618
    1C        C   97   4.030   2.622   4.738
    1C        C   98   4.184   2.763   4.860
    1C        C   99   4.095   2.651   4.861
    1C        C  100   4.208   2.836   4.977
    1C        C  101   2.817   2.728   2.066
    1C        C  102   2.985   2.590   2.188
    1C        C  103   2.871   2.677   2.184
    1C        C  104   3.061   2.576   2.308
    1C        C  105   2.994   2.611   2.427
    1C        C  106   3.192   2.529   2.548
    1C        C  107   3.061   2.581   2.548
    1C        C  108   3.264   2.515   2.669
    1C        C  109   3.195   2.536   2.791
    1C        C  110   3.405   2.495   2.912
    1C        C  111   3.265   2.518   2.912
    1C        C  112   3.478   2.497   3.033
    1C        C  113   3.408   2.509   3.156
    1C        C  114   3.620   2.504   3.277
    1C        C  115   3.479   2.497   3.277
    1C        C  116   3.689   2.518   3.400
    1C        C  117   3.620   2.505   3.522
    1C        C  118   3.828   2.543   3.643
    1C        C  119   3.691   2.506   3.644
    1C        C  120   3.894   2.571   3.764
    1C        C  121   3.827   2.550   3.887
    1C        C  122   4.019   2.643   4.010
    1C        C  123   3.895   2.574   4.008
    1C        C  124   4.083   2.673   4.132
    1C        C  125   4.022   2.636   4.254
    1C        C  126   4.191   2.766   4.373
    1C        C  127   4.084   2.674   4.376
    1C        C  128   4.237   2.819   4.496
    1C        C  129   4.193   2.763   4.618
    1C        C  130   4.326   2.928   4.738
    1C        C  131   4.243   2.812   4.740
    1C        C  132   4.350   3.000   4.857
    1C        C  133   4.277   2.957   4.969
    1C        C  134   3.172   2.469   2.078
    1C        C  135   3.039   2.513   2.080
    1C        C  136   3.258   2.483   2.187
    1C        C  137   3.192   2.523   2.306
    1C        C  138   3.398   2.475   2.426
    1C        C  139   3.259   2.497   2.428
    1C        C  140   3.475   2.477   2.545
    1C        C  141   3.403   2.489   2.666
    1C        C  142   3.614   2.502   2.788
    1C        C  143   3.473   2.493   2.788
    1C        C  144   3.688   2.507   2.908
    1C        C  145   3.619   2.500   3.031
    1C        C  146   3.826   2.543   3.154
    1C        C  147   3.689   2.507   3.154
    1C        C  148   3.894   2.565   3.276
    1C        C  149   3.828   2.541   3.398
    1C        C  150   4.023   2.624   3.519
    1C        C  151   3.896   2.561   3.520
    1C        C  152   4.081   2.667   3.641
    1C        C  153   4.021   2.632   3.764
    1C        C  154   4.187   2.765   3.886
    1C        C  155   4.076   2.678   3.886
    1C        C  156   4.243   2.809   4.008
    1C        C  157   4.197   2.757   4.131
    1C        C  158   4.338   2.920   4.250
    1C        C  159   4.247   2.811   4.252
    1C        C  160   4.370   2.981   4.373
    1C        C  161   4.326   2.929   4.496
    1C        C  162   4.436   3.112   4.612
    1C        C  163   4.368   2.988   4.617
    1C        C  164   4.462   3.181   4.733
    1C        C  165   4.421   3.122   4.854
    1C        C  166   4.510   3.314   4.966
    1C        C  167   4.473   3.180   4.970
    1C        C  168   3.472   2.432   2.070
    1C        C  169   3.397   2.455   2.186
    1C        C  170   3.612   2.469   2.301
    1C        C  171   3.470   2.463   2.306
    1C        C  172   3.686   2.488   2.420
    1C        C  173   3.616   2.488   2.543
    1C        C  174   3.821   2.537   2.665
    1C        C  175   3.684   2.504   2.666
    1C        C  176   3.892   2.556   2.785
    1C        C  177   3.827   2.535   2.908
    1C        C  178   4.019   2.625   3.031
    1C        C  179   3.892   2.563   3.031
    1C        C  180   4.079   2.665   3.153
    1C        C  181   4.021   2.626   3.276
    1C        C  182   4.197   2.746   3.395
    1C        C  183   4.084   2.660   3.398
    1C        C  184   4.246   2.800   3.516
    1C        C  185   4.194   2.752   3.639
    1C        C  186   4.331   2.913   3.760
    1C        C  187   4.241   2.804   3.761
    1C        C  188   4.370   2.975   3.881
    1C        C  189   4.332   2.919   4.005
    1C        C  190   4.444   3.101   4.126
    1C        C  191   4.376   2.977   4.126
    1C        C  192   4.466   3.169   4.248
    1C        C  193   4.433   3.107   4.370
    1C        C  194   4.501   3.313   4.488
    1C        C  195   4.464   3.176   4.490
    1C        C  196   4.520   3.383   4.609
    1C        C  197   4.510   3.315   4.733
    1C        C  198   4.558   3.531   4.847
    1C        C  199   4.533   3.390   4.851
    1C        C  200   4.579   3.615   4.961
    1C        C  201   3.611   2.415   2.070
    1C        C  202   3.824   2.507   2.181
    1C        C  203   3.689   2.458   2.182
    1C        C  204   3.893   2.544   2.300
    1C        C  205   3.822   2.526   2.421
    1C        C  206   4.015   2.619   2.541
    1C        C  207   3.886   2.561   2.542
    1C        C  208   4.078   2.654   2.663
    1C        C  209   4.019   2.619   2.786
    1C        C  210   4.191   2.744   2.906
    1C        C  211   4.080   2.656   2.908
    1C        C  212   4.241   2.797   3.027
    1C        C  213   4.191   2.751   3.151
    1C        C  214   4.336   2.904   3.271
    1C        C  215   4.249   2.793   3.273
    1C        C  216   4.370   2.967   3.392
    1C        C  217   4.332   2.912   3.517
    1C        C  218   4.435   3.097   3.636
    1C        C  219   4.375   2.969   3.639
    1C        C  220   4.462   3.163   3.758
    1C        C  221   4.441   3.097   3.881
    1C        C  222   4.499   3.302   4.001
    1C        C  223   4.472   3.163   4.002
    1C        C  224   4.514   3.373   4.122
    1C        C  225   4.506   3.304   4.245
    1C        C  226   4.513   3.521   4.362
    1C        C  227   4.514   3.380   4.364
    1C        C  228   4.513   3.592   4.484
    1C        C  229   4.525   3.524   4.607
    1C        C  230   4.498   3.739   4.721
    1C        C  231   4.534   3.601   4.725
    1C        C  232   4.489   3.813   4.841
    1C        C  233   4.546   3.751   4.952
    1C        C  234   4.013   2.605   2.062
    1C        C  235   3.890   2.541   2.063
    1C        C  236   4.078   2.651   2.178
    1C        C  237   4.018   2.612   2.300
    1C        C  238   4.198   2.731   2.419
    1C        C  239   4.081   2.649   2.420
    1C        C  240   4.248   2.784   2.540
    1C        C  241   4.189   2.740   2.661
    1C        C  242   4.334   2.898   2.782
    1C        C  243   4.240   2.793   2.783
    1C        C  244   4.373   2.958   2.905
    1C        C  245   4.333   2.905   3.029
    1C        C  246   4.441   3.089   3.144
    1C        C  247   4.379   2.962   3.149
    1C        C  248   4.461   3.157   3.267
    1C        C  249   4.436   3.092   3.390
    1C        C  250   4.493   3.296   3.510
    1C        C  251   4.463   3.159   3.512
    1C        C  252   4.502   3.368   3.632
    1C        C  253   4.496   3.301   3.756
    1C        C  254   4.514   3.512   3.873
    1C        C  255   4.510   3.370   3.878
    1C        C  256   4.515   3.583   3.995
    1C        C  257   4.517   3.515   4.119
    1C        C  258   4.487   3.728   4.237
    1C        C  259   4.512   3.589   4.239
    1C        C  260   4.467   3.799   4.358
    1C        C  261   4.487   3.731   4.480
    1C        C  262   4.422   3.938   4.598
    1C        C  263   4.470   3.805   4.600
    1C        C  264   4.394   4.005   4.718
    1C        C  265   4.427   3.940   4.839
    1C        C  266   4.314   4.127   4.956
    1C        C  267   4.383   4.007   4.955
    1C        C  268   4.258   2.773   2.060
    1C        C  269   4.193   2.732   2.177
    1C        C  270   4.344   2.886   2.295
    1C        C  271   4.251   2.779   2.297
    1C        C  272   4.379   2.948   2.418
    1C        C  273   4.340   2.891   2.541
    1C        C  274   4.446   3.079   2.658
    1C        C  275   4.380   2.954   2.661
    1C        C  276   4.472   3.148   2.779
    1C        C  277   4.443   3.080   2.899
    1C        C  278   4.502   3.288   3.021
    1C        C  279   4.466   3.151   3.019
    1C        C  280   4.509   3.359   3.143
    1C        C  281   4.495   3.294   3.267
    1C        C  282   4.511   3.508   3.385
    1C        C  283   4.502   3.367   3.388
    1C        C  284   4.507   3.579   3.507
    1C        C  285   4.509   3.509   3.630
    1C        C  286   4.485   3.721   3.751
    1C        C  287   4.511   3.582   3.751
    1C        C  288   4.467   3.791   3.873
    1C        C  289   4.489   3.722   3.994
    1C        C  290   4.420   3.927   4.112
    1C        C  291   4.468   3.794   4.114
    1C        C  292   4.391   3.994   4.233
    1C        C  293   4.420   3.932   4.357
    1C        C  294   4.330   4.129   4.475
    1C        C  295   4.395   4.004   4.476
    1C        C  296   4.286   4.189   4.596
    1C        C  297   4.326   4.130   4.718
    1C        C  298   4.196   4.309   4.835
    1C        C  299   4.277   4.191   4.837
    1C        C  300   4.167   4.397   4.944
    1C        C  301   4.352   2.876   2.058
    1C        C  302   4.469   3.063   2.175
    1C        C  303   4.398   2.939   2.175
    1C        C  304   4.481   3.137   2.296
    1C        C  305   4.447   3.072   2.416
    1C        C  306   4.510   3.279   2.534
    1C        C  307   4.474   3.142   2.535
    1C        C  308   4.520   3.353   2.653
    1C        C  309   4.505   3.285   2.776
    1C        C  310   4.518   3.498   2.896
    1C        C  311   4.516   3.356   2.898
    1C        C  312   4.511   3.570   3.017
    1C        C  313   4.511   3.500   3.140
    1C        C  314   4.481   3.712   3.258
    1C        C  315   4.509   3.573   3.260
    1C        C  316   4.467   3.782   3.380
    1C        C  317   4.482   3.718   3.505
    1C        C  318   4.421   3.921   3.624
    1C        C  319   4.467   3.787   3.628
    1C        C  320   4.388   3.985   3.745
    1C        C  321   4.418   3.924   3.869
    1C        C  322   4.311   4.109   3.987
    1C        C  323   4.388   3.991   3.990
    1C        C  324   4.270   4.166   4.110
    1C        C  325   4.318   4.115   4.233
    1C        C  326   4.185   4.283   4.350
    1C        C  327   4.282   4.180   4.352
    1C        C  328   4.130   4.332   4.470
    1C        C  329   4.184   4.287   4.593
    1C        C  330   4.021   4.430   4.710
    1C        C  331   4.136   4.347   4.711
    1C        C  332   3.967   4.486   4.828
    1C        C  333   4.048   4.472   4.941
    1C        C  334   4.549   3.261   2.060
    1C        C  335   4.531   3.122   2.060
    1C        C  336   4.536   3.346   2.171
    1C        C  337   4.518   3.275   2.291
    1C        C  338   4.527   3.490   2.407
    1C        C  339   4.520   3.349   2.411
    1C        C  340   4.522   3.562   2.528
    1C        C  341   4.527   3.494   2.652
    1C        C  342   4.492   3.706   2.769
    1C        C  343   4.516   3.567   2.772
    1C        C  344   4.471   3.777   2.890
    1C        C  345   4.487   3.709   3.012
    1C        C  346   4.418   3.911   3.134
    1C        C  347   4.461   3.776   3.134
    1C        C  348   4.385   3.975   3.256
    1C        C  349   4.415   3.913   3.379
    1C        C  350   4.314   4.101   3.497
    1C        C  351   4.388   3.981   3.500
    1C        C  352   4.272   4.162   3.617
    1C        C  353   4.311   4.103   3.740
    1C        C  354   4.178   4.267   3.863
    1C        C  355   4.270   4.161   3.862
    1C        C  356   4.121   4.314   3.983
    1C        C  357   4.172   4.267   4.106
    1C        C  358   4.010   4.403   4.229
    1C        C  359   4.128   4.324   4.228
    1C        C  360   3.949   4.445   4.349
    1C        C  361   4.018   4.417   4.469
    1C        C  362   3.827   4.518   4.589
    1C        C  363   3.958   4.464   4.588
    1C        C  364   3.760   4.544   4.711
    1C        C  365   3.835   4.537   4.830
    1C        C  366   3.627   4.583   4.950
    1C        C  367   3.765   4.570   4.946
    1C        C  368   4.504   3.559   2.048
    1C        C  369   4.524   3.487   2.166
    1C        C  370   4.501   3.701   2.282
    1C        C  371   4.525   3.562   2.286
    1C        C  372   4.477   3.769   2.403
    1C        C  373   4.495   3.701   2.525
    1C        C  374   4.419   3.902   2.643
    1C        C  375   4.476   3.773   2.645
    1C        C  376   4.386   3.966   2.764
    1C        C  377   4.425   3.911   2.888
    1C        C  378   4.320   4.093   3.008
    1C        C  379   4.398   3.976   3.010
    1C        C  380   4.269   4.149   3.127
    1C        C  381   4.311   4.095   3.251
    1C        C  382   4.180   4.262   3.373
    1C        C  383   4.272   4.155   3.374
    1C        C  384   4.128   4.312   3.494
    1C        C  385   4.175   4.265   3.619
    1C        C  386   4.004   4.389   3.736
    1C        C  387   4.122   4.312   3.741
    1C        C  388   3.944   4.426   3.859
    1C        C  389   4.006   4.397   3.982
    1C        C  390   3.818   4.487   4.103
    1C        C  391   3.950   4.437   4.105
    1C        C  392   3.752   4.516   4.224
    1C        C  393   3.819   4.499   4.347
    1C        C  394   3.614   4.549   4.471
    1C        C  395   3.754   4.529   4.469
    1C        C  396   3.544   4.558   4.593
    1C        C  397   3.620   4.562   4.712
    1C        C  398   3.410   4.542   4.836
    1C        C  399   3.549   4.566   4.834
    1C        C  400   3.339   4.506   4.951
    1C        C  401   4.502   3.698   2.046
    1C        C  402   4.453   3.912   2.161
    1C        C  403   4.493   3.776   2.162
    1C        C  404   4.410   3.973   2.281
    1C        C  405   4.429   3.902   2.402
    1C        C  406   4.321   4.090   2.524
    1C        C  407   4.395   3.970   2.521
    1C        C  408   4.275   4.148   2.645
    1C        C  409   4.313   4.087   2.766
    1C        C  410   4.169   4.245   2.885
    1C        C  411   4.273   4.148   2.887
    1C        C  412   4.116   4.294   3.007
    1C        C  413   4.172   4.251   3.129
    1C        C  414   3.999   4.374   3.249
    1C        C  415   4.120   4.302   3.251
    1C        C  416   3.939   4.410   3.372
    1C        C  417   4.007   4.386   3.494
    1C        C  418   3.812   4.478   3.613
    1C        C  419   3.942   4.423   3.614
    1C        C  420   3.747   4.502   3.736
    1C        C  421   3.813   4.479   3.859
    1C        C  422   3.609   4.531   3.982
    1C        C  423   3.748   4.504   3.982
    1C        C  424   3.541   4.542   4.105
    1C        C  425   3.613   4.540   4.227
    1C        C  426   3.401   4.537   4.351
    1C        C  427   3.542   4.543   4.350
    1C        C  428   3.330   4.538   4.473
    1C        C  429   3.403   4.547   4.594
    1C        C  430   3.193   4.516   4.717
    1C        C  431   3.334   4.539   4.717
    1C        C  432   3.122   4.497   4.839
    1C        C  433   3.201   4.485   4.954
    1C        C  434   4.380   4.119   2.047
    1C        C  435   4.442   3.994   2.048
    1C        C  436   4.298   4.154   2.159
    1C        C  437   4.332   4.092   2.283
    1C        C  438   4.180   4.248   2.399
    1C        C  439   4.277   4.145   2.401
    1C        C  440   4.125   4.297   2.519
    1C        C  441   4.174   4.247   2.641
    1C        C  442   4.002   4.373   2.759
    1C        C  443   4.115   4.288   2.762
    1C        C  444   3.940   4.406   2.882
    1C        C  445   4.000   4.374   3.006
    1C        C  446   3.807   4.467   3.125
    1C        C  447   3.937   4.410   3.127
    1C        C  448   3.743   4.489   3.248
    1C        C  449   3.812   4.470   3.370
    1C        C  450   3.605   4.526   3.493
    1C        C  451   3.743   4.497   3.491
    1C        C  452   3.537   4.534   3.617
    1C        C  453   3.608   4.528   3.739
    1C        C  454   3.397   4.536   3.862
    1C        C  455   3.538   4.542   3.860
    1C        C  456   3.330   4.521   3.985
    1C        C  457   3.400   4.538   4.107
    1C        C  458   3.194   4.491   4.233
    1C        C  459   3.331   4.524   4.229
    1C        C  460   3.125   4.476   4.356
    1C        C  461   3.193   4.507   4.476
    1C        C  462   2.996   4.427   4.599
    1C        C  463   3.123   4.489   4.598
    1C        C  464   2.930   4.395   4.720
    1C        C  465   2.991   4.438   4.840
    1C        C  466   2.800   4.337   4.956
    1C        C  467   2.906   4.429   4.955
    1C        C  468   4.123   4.283   2.037
    1C        C  469   4.185   4.242   2.156
    1C        C  470   4.007   4.368   2.273
    1C        C  471   4.128   4.293   2.275
    1C        C  472   3.941   4.402   2.393
    1C        C  473   4.005   4.373   2.516
    1C        C  474   3.812   4.464   2.638
    1C        C  475   3.943   4.411   2.637
    1C        C  476   3.745   4.492   2.760
    1C        C  477   3.811   4.463   2.881
    1C        C  478   3.603   4.516   3.005
    1C        C  479   3.742   4.489   3.001
    1C        C  480   3.531   4.520   3.127
    1C        C  481   3.603   4.513   3.248
    1C        C  482   3.393   4.528   3.373
    1C        C  483   3.534   4.528   3.370
    1C        C  484   3.324   4.521   3.497
    1C        C  485   3.396   4.530   3.618
    1C        C  486   3.189   4.491   3.742
    1C        C  487   3.326   4.526   3.740
    1C        C  488   3.126   4.470   3.867
    1C        C  489   3.193   4.485   3.990
    1C        C  490   2.997   4.406   4.113
    1C        C  491   3.126   4.465   4.112
    1C        C  492   2.935   4.378   4.237
    1C        C  493   2.997   4.417   4.358
    1C        C  494   2.825   4.294   4.482
    1C        C  495   2.934   4.384   4.480
    1C        C  496   2.765   4.254   4.603
    1C        C  497   2.815   4.311   4.722
    1C        C  498   2.661   4.163   4.844
    1C        C  499   2.751   4.272   4.842
    1C        C  500   2.593   4.116   4.957
    1C        C  501   4.000   4.348   2.036
    1C        C  502   3.813   4.460   2.149
    1C        C  503   3.941   4.400   2.152
    1C        C  504   3.743   4.476   2.271
    1C        C  505   3.811   4.457   2.393
    1C        C  506   3.605   4.507   2.517
    1C        C  507   3.743   4.477   2.516
    1C        C  508   3.534   4.514   2.639
    1C        C  509   3.606   4.514   2.760
    1C        C  510   3.393   4.524   2.884
    1C        C  511   3.534   4.525   2.882
    1C        C  512   3.321   4.517   3.006
    1C        C  513   3.390   4.520   3.129
    1C        C  514   3.184   4.483   3.255
    1C        C  515   3.321   4.518   3.252
    1C        C  516   3.117   4.461   3.378
    1C        C  517   3.186   4.490   3.498
    1C        C  518   2.993   4.407   3.623
    1C        C  519   3.121   4.466   3.621
    1C        C  520   2.938   4.367   3.747
    1C        C  521   3.003   4.400   3.868
    1C        C  522   2.833   4.273   3.992
    1C        C  523   2.943   4.362   3.990
    1C        C  524   2.777   4.235   4.116
    1C        C  525   2.824   4.290   4.238
    1C        C  526   2.688   4.131   4.361
    1C        C  527   2.777   4.241   4.361
    1C        C  528   2.642   4.077   4.483
    1C        C  529   2.681   4.140   4.603
    1C        C  530   2.580   3.957   4.729
    1C        C  531   2.635   4.088   4.727
    1C        C  532   2.535   3.901   4.852
    1C        C  533   2.520   3.996   4.958
    1C        C  534   3.615   4.555   2.036
    1C        C  535   3.748   4.508   2.036
    1C        C  536   3.535   4.527   2.152
    1C        C  537   3.604   4.502   2.274
    1C        C  538   3.392   4.512   2.398
    1C        C  539   3.533   4.508   2.396
    1C        C  540   3.321   4.504   2.520
    1C        C  541   3.392   4.508   2.641
    1C        C  542   3.183   4.479   2.763
    1C        C  543   3.322   4.508   2.764
    1C        C  544   3.119   4.457   2.887
    1C        C  545   3.184   4.483   3.009
    1C        C  546   2.994   4.392   3.129
    1C        C  547   3.117   4.462   3.132
    1C        C  548   2.937   4.356   3.253
    1C        C  549   2.991   4.398   3.376
    1C        C  550   2.822   4.280   3.502
    1C        C  551   2.933   4.366   3.501
    1C        C  552   2.771   4.232   3.625
    1C        C  553   2.826   4.281   3.745
    1C        C  554   2.691   4.120   3.873
    1C        C  555   2.780   4.229   3.869
    1C        C  556   2.644   4.067   3.995
    1C        C  557   2.683   4.130   4.115
    1C        C  558   2.588   3.944   4.242
    1C        C  559   2.650   4.071   4.239
    1C        C  560   2.556   3.880   4.364
    1C        C  561   2.579   3.950   4.484
    1C        C  562   2.529   3.748   4.612
    1C        C  563   2.562   3.886   4.609
    1C        C  564   2.518   3.680   4.735
    1C        C  565   2.519   3.759   4.853
    1C        C  566   2.529   3.543   4.974
    1C        C  567   2.526   3.682   4.970
    1C        C  568   3.323   4.474   2.039
    1C        C  569   3.395   4.504   2.155
    1C        C  570   3.183   4.466   2.279
    1C        C  571   3.321   4.500   2.277
    1C        C  572   3.113   4.446   2.400
    1C        C  573   3.183   4.473   2.520
    1C        C  574   2.987   4.396   2.647
    1C        C  575   3.113   4.460   2.642
    1C        C  576   2.925   4.357   2.768
    1C        C  577   2.991   4.396   2.887
    1C        C  578   2.819   4.269   3.012
    1C        C  579   2.931   4.355   3.008
    1C        C  580   2.771   4.221   3.135
    1C        C  581   2.827   4.268   3.257
    1C        C  582   2.686   4.114   3.383
    1C        C  583   2.774   4.225   3.381
    1C        C  584   2.651   4.056   3.507
    1C        C  585   2.692   4.115   3.629
    1C        C  586   2.582   3.936   3.754
    1C        C  587   2.652   4.059   3.752
    1C        C  588   2.558   3.872   3.878
    1C        C  589   2.587   3.937   3.999
    1C        C  590   2.530   3.735   4.124
    1C        C  591   2.562   3.873   4.123
    1C        C  592   2.522   3.668   4.248
    1C        C  593   2.526   3.742   4.368
    1C        C  594   2.512   3.534   4.496
    1C        C  595   2.514   3.675   4.492
    1C        C  596   2.518   3.463   4.618
    1C        C  597   2.520   3.538   4.738
    1C        C  598   2.537   3.323   4.858
    1C        C  599   2.530   3.464   4.858
    1C        C  600   2.531   3.248   4.976
    1C        C  601   3.193   4.427   2.042
    1C        C  602   2.980   4.389   2.159
    1C        C  603   3.115   4.437   2.158
    1C        C  604   2.920   4.356   2.283
    1C        C  605   2.985   4.387   2.405
    1C        C  606   2.812   4.269   2.526
    1C        C  607   2.921   4.358   2.528
    1C        C  608   2.765   4.216   2.648
    1C        C  609   2.813   4.271   2.769
    1C        C  610   2.675   4.110   2.892
    1C        C  611   2.763   4.221   2.891
    1C        C  612   2.644   4.050   3.016
    1C        C  613   2.687   4.107   3.138
    1C        C  614   2.584   3.926   3.265
    1C        C  615   2.649   4.052   3.262
    1C        C  616   2.561   3.861   3.389
    1C        C  617   2.589   3.929   3.509
    1C        C  618   2.522   3.731   3.634
    1C        C  619   2.558   3.868   3.632
    1C        C  620   2.513   3.663   3.758
    1C        C  621   2.526   3.734   3.879
    1C        C  622   2.513   3.523   4.005
    1C        C  623   2.518   3.665   4.002
    1C        C  624   2.516   3.454   4.127
    1C        C  625   2.510   3.527   4.248
    1C        C  626   2.544   3.325   4.376
    1C        C  627   2.515   3.463   4.374
    1C        C  628   2.560   3.251   4.496
    1C        C  629   2.539   3.323   4.616
    1C        C  630   2.589   3.115   4.740
    1C        C  631   2.553   3.252   4.737
    1C        C  632   2.611   3.047   4.863
    1C        C  633   2.557   3.110   4.979
    1C        C  634   2.779   4.300   2.051
    1C        C  635   2.890   4.384   2.047
    1C        C  636   2.742   4.229   2.167
    1C        C  637   2.804   4.274   2.285
    1C        C  638   2.675   4.105   2.406
    1C        C  639   2.753   4.222   2.406
    1C        C  640   2.639   4.043   2.528
    1C        C  641   2.678   4.104   2.649
    1C        C  642   2.580   3.919   2.774
    1C        C  643   2.636   4.049   2.771
    1C        C  644   2.561   3.854   2.898
    1C        C  645   2.583   3.922   3.020
    1C        C  646   2.527   3.721   3.147
    1C        C  647   2.560   3.858   3.143
    1C        C  648   2.509   3.652   3.269
    1C        C  649   2.522   3.725   3.389
    1C        C  650   2.512   3.517   3.515
    1C        C  651   2.512   3.659   3.513
    1C        C  652   2.514   3.450   3.639
    1C        C  653   2.507   3.522   3.761
    1C        C  654   2.538   3.312   3.887
    1C        C  655   2.512   3.451   3.883
    1C        C  656   2.553   3.245   4.011
    1C        C  657   2.544   3.315   4.132
    1C        C  658   2.607   3.117   4.256
    1C        C  659   2.561   3.251   4.257
    1C        C  660   2.638   3.053   4.379
    1C        C  661   2.601   3.116   4.499
    1C        C  662   2.700   2.929   4.621
    1C        C  663   2.622   3.047   4.620
    1C        C  664   2.743   2.873   4.744
    1C        C  665   2.686   2.925   4.864
    1C        C  666   2.739   2.865   4.979
    1C        C  667   2.676   4.022   2.051
    1C        C  668   2.675   4.105   2.163
    1C        C  669   2.580   3.912   2.287
    1C        C  670   2.640   4.041   2.284
    1C        C  671   2.551   3.849   2.409
    1C        C  672   2.577   3.916   2.531
    1C        C  673   2.517   3.715   2.655
    1C        C  674   2.550   3.852   2.654
    1C        C  675   2.505   3.648   2.779
    1C        C  676   2.525   3.717   2.900
    1C        C  677   2.504   3.510   3.027
    1C        C  678   2.520   3.650   3.025
    1C        C  679   2.503   3.439   3.149
    1C        C  680   2.505   3.511   3.271
    1C        C  681   2.535   3.304   3.398
    1C        C  682   2.515   3.444   3.395
    1C        C  683   2.553   3.238   3.521
    1C        C  684   2.537   3.311   3.641
    1C        C  685   2.605   3.112   3.768
    1C        C  686   2.559   3.245   3.765
    1C        C  687   2.634   3.049   3.891
    1C        C  688   2.602   3.112   4.013
    1C        C  689   2.706   2.928   4.136
    1C        C  690   2.632   3.048   4.136
    1C        C  691   2.750   2.871   4.257
    1C        C  692   2.712   2.933   4.378
    1C        C  693   2.745   2.870   4.500
    1C        C  694   2.628   3.890   2.050
    1C        C  695   2.525   3.704   2.173
    1C        C  696   2.573   3.837   2.167
    1C        C  697   2.501   3.636   2.295
    1C        C  698   2.515   3.712   2.413
    1C        C  699   2.493   3.501   2.539
    1C        C  700   2.503   3.642   2.535
    1C        C  701   2.503   3.431   2.661
    1C        C  702   2.500   3.507   2.781
    1C        C  703   2.524   3.298   2.906
    1C        C  704   2.509   3.439   2.905
    1C        C  705   2.545   3.231   3.029
    1C        C  706   2.530   3.301   3.151
    1C        C  707   2.601   3.104   3.276
    1C        C  708   2.554   3.237   3.275
    1C        C  709   2.631   3.041   3.399
    1C        C  710   2.603   3.105   3.521
    1C        C  711   2.708   2.926   3.646
    1C        C  712   2.631   3.045   3.646
    1C        C  713   2.752   2.870   3.768
    1C        C  714   2.710   2.929   3.889
    1C        C  715   2.747   2.872   4.013
    1C        C  716   2.453   3.498   2.057
    1C        C  717   2.493   3.633   2.057
    1C        C  718   2.468   3.421   2.176
    1C        C  719   2.482   3.495   2.297
    1C        C  720   2.515   3.287   2.419
    1C        C  721   2.486   3.425   2.420
    1C        C  722   2.543   3.221   2.541
    1C        C  723   2.528   3.292   2.662
    1C        C  724   2.592   3.095   2.787
    1C        C  725   2.539   3.226   2.786
    1C        C  726   2.621   3.030   2.909
    1C        C  727   2.592   3.098   3.030
    1C        C  728   2.702   2.918   3.155
    1C        C  729   2.627   3.039   3.153
    1C        C  730   2.747   2.867   3.278
    1C        C  731   2.709   2.924   3.402
    1C        C  732   2.749   2.867   3.525
    1C        C  733   2.494   3.198   2.065
    1C        C  734   2.495   3.280   2.178
    1C        C  735   2.580   3.082   2.301
    1C        C  736   2.523   3.212   2.299
    1C        C  737   2.610   3.014   2.422
    1C        C  738   2.589   3.088   2.541
    1C        C  739   2.689   2.905   2.664
    1C        C  740   2.619   3.028   2.666
    1C        C  741   2.729   2.847   2.787
    1C        C  742   2.696   2.910   2.909
    1C        C  743   2.745   2.862   3.033
    1C        C  744   2.543   3.068   2.069
    1C        C  745   2.675   2.889   2.181
    1C        C  746   2.602   3.009   2.182
    1C        C  747   2.719   2.831   2.302
    1C        C  748   2.681   2.892   2.424
    1C        C  749   2.728   2.839   2.546
    1C        C  750   2.729   2.836   2.063
    1C        C  751   3.662   2.333   1.958
    1C        O  752   3.667   2.208   1.969
    1C        O  753   3.630   2.364   1.825
    1C        C  754   4.631   3.049   1.979
    1C        O  755   4.600   3.014   1.862
    1C        O  756   4.767   3.084   1.991
    1C        C  757   4.443   4.220   1.960
    1C        O  758   4.514   4.319   1.995
    1C        O  759   4.389   4.243   1.833
    1C        C  760   3.590   4.679   1.961
    1C        O  761   3.588   4.794   2.013
    1C        O  762   3.556   4.670   1.825
    1C        C  763   2.876   4.486   1.941
    1C        O  764   2.928   4.462   1.829
    1C        O  765   2.775   4.583   1.941
    1C        C  766   2.350   3.470   1.954
    1C        O  767   2.369   3.411   1.844
    1C        O  768   2.214   3.485   1.985
    1C        C  769   4.690   3.586   5.054
    1C        O  770   4.670   3.529   5.165
    1C        O  771   4.822   3.589   5.008
    1C        C  772   4.271   4.449   5.035
    1C        O  773   4.261   4.445   5.160
    1C        O  774   4.404   4.484   5.010
    1C        C  775   4.146   2.515   5.063
    1C        O  776   4.191   2.398   5.048
    1C        O  777   4.143   2.529   5.203
    1C        C  778   2.886   4.554   5.032
    1C        O  779   2.833   4.661   4.991
    1C        O  780   2.965   4.568   5.146
    1C        C  781   2.470   3.036   5.073
    1C        O  782   2.379   2.959   5.031
    1C        O  783   2.472   3.051   5.211
    1C        C  784   2.399   3.996   5.042
    1C        O  785   2.289   4.025   4.988
    1C        O  786   2.404   3.991   5.182
    1C        C  787   2.956   2.448   1.976
    1C        O  788   2.945   2.482   1.855
    1C        O  789   2.899   2.322   1.989
    1C        C  790   3.187   2.387   5.077
    1C        O  791   3.120   2.282   5.057
    1C        O  792   3.192   2.428   5.211
    1C        H  793   4.240   3.034   5.032
    1C        H  794   4.138   2.830   5.058
    1C        H  795   4.520   3.116   5.042
    1C        H  796   4.533   3.362   5.059
    1C        H  797   4.563   3.808   5.041
    1C        H  798   4.429   3.977   5.046
    1C        H  799   4.278   4.166   5.049
    1C        H  800   4.011   4.507   5.035
    1C        H  801   3.816   4.633   5.017
    1C        H  802   3.581   4.613   5.042
    1C        H  803   3.387   4.506   5.046
    1C        H  804   3.158   4.505   5.050
    1C        H  805   3.914   2.436   5.033
    1C        H  806   3.669   2.468   5.076
    1C        H  807   2.983   2.532   5.051
    1C        H  808   3.439   2.474   5.077
    1C        H  809   2.866   2.726   5.073
    1C        H  810   2.670   2.861   5.061
    1C        H  811   2.562   3.296   5.066
    1C        H  812   2.482   3.502   5.061
    1C        H  813   2.514   3.733   5.064
    1C        H  814   2.615   4.158   5.052
    1C        H  815   2.731   4.349   5.037
    1C        H  816   2.733   2.893   1.972
    1C        H  817   2.821   2.661   1.983
    1C        H  818   3.210   2.434   1.984
    1C        H  819   3.428   2.451   1.974
    1C        H  820   3.853   2.506   1.969
    1C        H  821   4.076   2.586   1.978
    1C        H  822   4.263   2.702   1.980
    1C        H  823   4.396   2.902   1.965
    1C        H  824   4.615   3.300   1.986
    1C        H  825   4.463   3.506   1.966
    1C        H  826   4.473   3.744   1.954
    1C        H  827   3.806   4.558   1.961
    1C        H  828   3.953   4.366   1.942
    1C        H  829   4.189   4.317   1.959
    1C        H  830   4.512   3.976   1.969
    1C        H  831   2.633   3.839   1.956
    1C        H  832   2.726   4.056   1.963
    1C        H  833   2.719   4.300   1.963
    1C        H  834   3.372   4.470   1.944
    1C        H  835   3.160   4.381   1.951
    1C        H  836   2.505   2.997   1.998
    1C        H  837   2.441   3.231   1.977
    1C        H  838   2.549   3.662   1.971
    2V3OU   H29  839   2.796   3.539   6.534
    2V3OU   C27  840   2.778   3.497   6.636
    2V3OU   H27  841   2.721   3.565   6.705
    2V3OU   H28  842   2.720   3.402   6.624
    2V3OU   O11  843   2.904   3.465   6.695
    2V3OU   C15  844   2.916   3.392   6.812
    2V3OU   C13  845   3.048   3.374   6.858
    2V3OU   C14  846   3.073   3.266   6.943
    2V3OU   C16  847   2.966   3.189   6.988
    2V3OU    H6  848   2.990   3.105   0.038
    2V3OU   C12  849   3.215   3.227   6.960
    2V3OU    O2  850   3.241   3.122   0.006
    2V3OU   C10  851   3.324   3.300   6.893
    2V3OU    C8  852   3.456   3.262   6.914
    2V3OU   O10  853   3.486   3.151   6.987
    2V3OU   H26  854   3.406   3.112   0.009
    2V3OU    C6  855   3.559   3.346   6.862
    2V3OU    C5  856   3.532   3.465   6.795
    2V3OU    C4  857   3.696   3.288   6.866
    2V3OU    H4  858   3.719   3.227   6.958
    2V3OU    H5  859   3.707   3.222   6.775
    2V3OU    C2  860   3.809   3.392   6.857
    2V3OU    O6  861   3.804   3.472   6.975
    2V3OU   H21  862   3.764   3.556   6.947
    2V3OU    C3  863   3.777   3.486   6.740
    2V3OU    H2  864   3.853   3.567   6.747
    2V3OU    H3  865   3.780   3.441   6.638
    2V3OU   C25  866   3.945   3.324   6.844
    2V3OU    O7  867   3.987   3.290   6.734
    2V3OU   C26  868   4.025   3.289   6.969
    2V3OU   H22  869   4.060   3.381   0.006
    2V3OU   H23  870   4.113   3.225   6.941
    2V3OU    O8  871   3.955   3.206   0.043
    2V3OU   H24  872   3.921   3.267   0.111
    2V3OU    C1  873   3.644   3.558   6.758
    2V3OU    H1  874   3.620   3.614   6.663
    2V3OU    O3  875   3.655   3.651   6.866
    2V3OU   C19  876   3.612   3.788   6.860
    2V3OU    H9  877   3.513   3.797   6.806
    2V3OU    O4  878   3.710   3.846   6.777
    2V3OU   C20  879   3.842   3.870   6.826
    2V3OU   H10  880   3.897   3.773   6.843
    2V3OU   C24  881   3.602   3.855   6.997
    2V3OU   H16  882   3.536   3.794   0.048
    2V3OU   H17  883   3.556   3.955   6.981
    2V3OU   C23  884   3.742   3.875   0.037
    2V3OU   H15  885   3.784   3.772   0.066
    2V3OU    N1  886   3.731   3.952   0.160
    2V3OU   H19  887   3.806   3.923   0.220
    2V3OU   H20  888   3.645   3.928   0.203
    2V3OU   C21  889   3.849   3.941   6.961
    2V3OU   H11  890   3.953   3.921   7.000
    2V3OU    O5  891   3.823   4.081   6.970
    2V3OU   H18  892   3.776   4.097   0.037
    2V3OU   C22  893   3.904   3.947   6.711
    2V3OU   H12  894   3.852   4.047   6.702
    2V3OU   H13  895   3.896   3.886   6.618
    2V3OU   H14  896   4.013   3.962   6.729
    2V3OU   C11  897   3.157   3.466   6.822
    2V3OU    O1  898   3.128   3.582   6.785
    2V3OU    C9  899   3.298   3.420   6.822
    2V3OU    C7  900   3.396   3.503   6.769
    2V3OU    O9  901   3.378   3.618   6.696
    2V3OU   H25  902   3.283   3.634   6.688
    2V3OU   C17  903   2.811   3.310   6.857
    2V3OU    H7  904   2.717   3.344   6.814
    2V3OU   C18  905   2.835   3.205   6.945
    2V3OU    H8  906   2.746   3.143   6.965
    3SOL     OW  907   2.589   3.635   5.518
    3SOL    HW1  908   2.532   3.584   5.453
    3SOL    HW2  909   2.562   3.731   5.518
    4SOL     OW  910   0.979   0.327   0.523
    4SOL    HW1  911   1.035   0.255   0.482
    4SOL    HW2  912   0.905   0.286   0.576
    5SOL     OW  913   3.763   1.889   0.263
    5SOL    HW1  914   3.712   1.966   0.223
    5SOL    HW2  915   3.859   1.914   0.274
    6SOL     OW  916   2.987   2.069   1.940
    6SOL    HW1  917   2.942   2.157   1.957
    6SOL    HW2  918   3.013   2.063   1.844
    7SOL     OW  919   1.707   2.798   4.748
    7SOL    HW1  920   1.720   2.810   4.649
    7SOL    HW2  921   1.796   2.799   4.793
    8SOL     OW  922   1.377   1.567   5.858
    8SOL    HW1  923   1.375   1.638   5.929
    8SOL    HW2  924   1.283   1.543   5.833
    9SOL     OW  925   2.022   2.249   5.411
    9SOL    HW1  926   1.982   2.242   5.319
    9SOL    HW2  927   2.040   2.158   5.447
   10SOL     OW  928   5.917   5.039   0.751
   10SOL    HW1  929   5.896   4.942   0.736
   10SOL    HW2  930   6.015   5.048   0.772
   11SOL     OW  931   3.051   1.304   0.936
   11SOL    HW1  932   3.132   1.346   0.895
   11SOL    HW2  933   3.051   1.206   0.918
   12SOL     OW  934   5.634   4.611   0.991
   12SOL    HW1  935   5.564   4.679   0.970
   12SOL    HW2  936   5.723   4.656   0.996
   13SOL     OW  937   4.682   6.107   1.887
   13SOL    HW1  938   4.680   6.045   1.965
   13SOL    HW2  939   4.713   6.197   1.917
   14SOL     OW  940   4.675   5.709   1.212
   14SOL    HW1  941   4.748   5.669   1.156
   14SOL    HW2  942   4.715   5.753   1.293
   15SOL     OW  943   0.314   6.939   6.922
   15SOL    HW1  944   0.214   6.937   6.915
   15SOL    HW2  945   0.346   0.017   6.913
   16SOL     OW  946   1.578   4.898   5.507
   16SOL    HW1  947   1.652   4.960   5.484
   16SOL    HW2  948   1.494   4.929   5.464
   17SOL     OW  949   0.451   2.137   4.148
   17SOL    HW1  950   0.395   2.063   4.111
   17SOL    HW2  951   0.506   2.103   4.224
   18SOL     OW  952   2.377   6.843   5.018
   18SOL    HW1  953   2.430   6.834   4.934
   18SOL    HW2  954   2.436   6.826   5.097
   19SOL     OW  955   4.055   5.948   3.610
   19SOL    HW1  956   4.082   5.866   3.660
   19SOL    HW2  957   3.986   5.998   3.663
   20SOL     OW  958   0.284   1.534   4.467
   20SOL    HW1  959   0.276   1.625   4.507
   20SOL    HW2  960   0.207   1.477   4.497
   21SOL     OW  961   2.101   3.144   2.066
   21SOL    HW1  962   2.095   3.053   2.026
   21SOL    HW2  963   2.137   3.137   2.160
   22SOL     OW  964   0.328   0.359   0.625
   22SOL    HW1  965   0.375   0.352   0.714
   22SOL    HW2  966   0.326   0.269   0.582
   23SOL     OW  967   0.574   5.046   0.621
   23SOL    HW1  968   0.578   5.104   0.701
   23SOL    HW2  969   0.484   5.003   0.615
   24SOL     OW  970   4.344   0.617   6.455
   24SOL    HW1  971   4.372   0.635   6.549
   24SOL    HW2  972   4.420   0.636   6.393
   25SOL     OW  973   2.443   0.306   5.464
   25SOL    HW1  974   2.510   0.275   5.397
   25SOL    HW2  975   2.486   0.313   5.554
   26SOL     OW  976   2.405   6.424   5.391
   26SOL    HW1  977   2.342   6.500   5.396
   26SOL    HW2  978   2.475   6.433   5.461
   27SOL     OW  979   0.137   0.239   1.896
   27SOL    HW1  980   0.073   0.249   1.820
   27SOL    HW2  981   0.105   0.295   1.973
   28SOL     OW  982   2.208   0.427   5.041
   28SOL    HW1  983   2.112   0.401   5.031
   28SOL    HW2  984   2.229   0.439   5.138
   29SOL     OW  985   5.224   0.394   1.971
   29SOL    HW1  986   5.148   0.447   1.932
   29SOL    HW2  987   5.261   0.333   1.902
   30SOL     OW  988   4.761   6.493   4.628
   30SOL    HW1  989   4.701   6.459   4.700
   30SOL    HW2  990   4.835   6.547   4.668
   31SOL     OW  991   5.955   4.028   4.499
   31SOL    HW1  992   5.982   3.955   4.562
   31SOL    HW2  993   6.023   4.102   4.503
   32SOL     OW  994   3.814   1.719   1.410
   32SOL    HW1  995   3.821   1.708   1.509
   32SOL    HW2  996   3.884   1.662   1.365
   33SOL     OW  997   1.944   4.806   5.119
   33SOL    HW1  998   1.864   4.771   5.167
   33SOL    HW2  999   2.027   4.782   5.171
   34SOL     OW 1000   2.703   6.918   5.458
   34SOL    HW1 1001   2.718   6.831   5.505
   34SOL    HW2 1002   2.713   6.994   5.523
   35SOL     OW 1003   0.987   3.375   4.588
   35SOL    HW1 1004   1.003   3.277   4.601
   35SOL    HW2 1005   0.921   3.388   4.513
   36SOL     OW 1006   5.426   1.175   4.911
   36SOL    HW1 1007   5.403   1.135   4.822
   36SOL    HW2 1008   5.390   1.269   4.915
   37SOL     OW 1009   1.083   5.872   3.632
   37SOL    HW1 1010   1.039   5.840   3.548
   37SOL    HW2 1011   1.079   5.800   3.701
   38SOL     OW 1012   0.934   3.615   2.025
   38SOL    HW1 1013   0.859   3.673   2.058
   38SOL    HW2 1014   0.926   3.603   1.926
   39SOL     OW 1015   6.262   5.624   1.289
   39SOL    HW1 1016   6.244   5.528   1.310
   39SOL    HW2 1017   6.197   5.656   1.220
   40SOL     OW 1018   4.374   0.607   5.716
   40SOL    HW1 1019   4.384   0.675   5.789
   40SOL    HW2 1020   4.345   0.520   5.756
   41SOL     OW 1021   0.308   3.747   1.279
   41SOL    HW1 1022   0.371   3.767   1.353
   41SOL    HW2 1023   0.339   3.666   1.229
   42SOL     OW 1024   2.391   3.911   1.151
   42SOL    HW1 1025   2.421   3.959   1.233
   42SOL    HW2 1026   2.472   3.882   1.099
   43SOL     OW 1027   5.023   0.447   3.406
   43SOL    HW1 1028   4.999   0.350   3.405
   43SOL    HW2 1029   4.960   0.497   3.466
   44SOL     OW 1030   0.035   0.998   6.661
   44SOL    HW1 1031   0.087   1.055   6.724
   44SOL    HW2 1032   6.981   0.947   6.712
   45SOL     OW 1033   2.142   3.767   4.653
   45SOL    HW1 1034   2.147   3.840   4.585
   45SOL    HW2 1035   2.128   3.806   4.744
   46SOL     OW 1036   0.715   5.934   4.603
   46SOL    HW1 1037   0.763   5.999   4.545
   46SOL    HW2 1038   0.625   5.970   4.627
   47SOL     OW 1039   0.494   3.872   6.018
   47SOL    HW1 1040   0.549   3.955   6.020
   47SOL    HW2 1041   0.428   3.877   5.943
   48SOL     OW 1042   0.819   4.187   0.303
   48SOL    HW1 1043   0.767   4.149   0.380
   48SOL    HW2 1044   0.760   4.194   0.223
   49SOL     OW 1045   3.627   0.514   0.237
   49SOL    HW1 1046   3.554   0.474   0.182
   49SOL    HW2 1047   3.704   0.450   0.242
   50SOL     OW 1048   4.893   1.948   5.836
   50SOL    HW1 1049   4.859   1.858   5.863
   50SOL    HW2 1050   4.915   1.948   5.739
   51SOL     OW 1051   0.848   6.542   1.729
   51SOL    HW1 1052   0.760   6.579   1.758
   51SOL    HW2 1053   0.845   6.517   1.633
   52SOL     OW 1054   4.908   3.223   2.666
   52SOL    HW1 1055   4.902   3.141   2.609
   52SOL    HW2 1056   4.902   3.304   2.608
   53SOL     OW 1057   4.296   6.171   1.364
   53SOL    HW1 1058   4.311   6.263   1.400
   53SOL    HW2 1059   4.232   6.122   1.423
   54SOL     OW 1060   0.941   1.099   6.319
   54SOL    HW1 1061   0.967   1.103   6.415
   54SOL    HW2 1062   0.992   1.026   6.273
   55SOL     OW 1063   2.582   3.792   6.382
   55SOL    HW1 1064   2.523   3.871   6.368
   55SOL    HW2 1065   2.635   3.774   6.299
   56SOL     OW 1066   2.365   2.147   0.071
   56SOL    HW1 1067   2.330   2.208   0.142
   56SOL    HW2 1068   2.348   2.188   6.997
   57SOL     OW 1069   4.461   6.023   1.739
   57SOL    HW1 1070   4.481   6.055   1.647
   57SOL    HW2 1071   4.528   6.061   1.803
   58SOL     OW 1072   0.705   0.459   0.098
   58SOL    HW1 1073   0.642   0.514   0.152
   58SOL    HW2 1074   0.793   0.451   0.146
   59SOL     OW 1075   4.296   3.655   6.988
   59SOL    HW1 1076   4.328   3.749   6.974
   59SOL    HW2 1077   4.207   3.644   6.944
   60SOL     OW 1078   6.242   2.576   2.049
   60SOL    HW1 1079   6.295   2.639   1.992
   60SOL    HW2 1080   6.303   2.530   2.114
   61SOL     OW 1081   0.930   4.907   2.681
   61SOL    HW1 1082   0.941   4.893   2.583
   61SOL    HW2 1083   0.845   4.957   2.698
   62SOL     OW 1084   4.869   3.723   3.128
   62SOL    HW1 1085   4.898   3.745   3.035
   62SOL    HW2 1086   4.856   3.624   3.136
   63SOL     OW 1087   4.535   0.224   5.721
   63SOL    HW1 1088   4.521   0.153   5.790
   63SOL    HW2 1089   4.534   0.183   5.630
   64SOL     OW 1090   2.250   1.805   6.777
   64SOL    HW1 1091   2.269   1.757   6.691
   64SOL    HW2 1092   2.230   1.738   6.849
   65SOL     OW 1093   0.764   5.337   5.016
   65SOL    HW1 1094   0.728   5.418   5.062
   65SOL    HW2 1095   0.730   5.335   4.921
   66SOL     OW 1096   4.647   1.799   1.329
   66SOL    HW1 1097   4.654   1.700   1.344
   66SOL    HW2 1098   4.564   1.819   1.277
   67SOL     OW 1099   0.187   3.000   3.004
   67SOL    HW1 1100   0.153   3.089   3.033
   67SOL    HW2 1101   0.285   2.994   3.024
   68SOL     OW 1102   0.220   1.137   5.860
   68SOL    HW1 1103   0.141   1.188   5.894
   68SOL    HW2 1104   0.193   1.084   5.780
   69SOL     OW 1105   1.955   1.070   5.984
   69SOL    HW1 1106   2.041   1.119   5.972
   69SOL    HW2 1107   1.879   1.126   5.950
   70SOL     OW 1108   4.853   5.011   3.029
   70SOL    HW1 1109   4.875   4.914   3.039
   70SOL    HW2 1110   4.842   5.052   3.119
   71SOL     OW 1111   5.360   1.244   5.415
   71SOL    HW1 1112   5.269   1.285   5.423
   71SOL    HW2 1113   5.420   1.285   5.483
   72SOL     OW 1114   6.937   2.040   2.658
   72SOL    HW1 1115   6.967   2.114   2.718
   72SOL    HW2 1116   6.857   2.069   2.606
   73SOL     OW 1117   2.480   1.071   0.536
   73SOL    HW1 1118   2.529   1.024   0.463
   73SOL    HW2 1119   2.528   1.057   0.623
   74SOL     OW 1120   2.590   0.876   0.118
   74SOL    HW1 1121   2.646   0.952   0.086
   74SOL    HW2 1122   2.574   0.885   0.216
   75SOL     OW 1123   2.934   3.384   1.224
   75SOL    HW1 1124   2.837   3.410   1.224
   75SOL    HW2 1125   2.977   3.418   1.307
   76SOL     OW 1126   3.296   5.052   6.097
   76SOL    HW1 1127   3.251   5.033   6.185
   76SOL    HW2 1128   3.303   5.151   6.085
   77SOL     OW 1129   0.582   4.789   5.330
   77SOL    HW1 1130   0.648   4.723   5.295
   77SOL    HW2 1131   0.558   4.765   5.424
   78SOL     OW 1132   4.935   1.426   0.934
   78SOL    HW1 1133   5.016   1.485   0.925
   78SOL    HW2 1134   4.965   1.332   0.953
   79SOL     OW 1135   2.049   5.001   4.147
   79SOL    HW1 1136   2.147   5.012   4.128
   79SOL    HW2 1137   2.037   4.941   4.225
   80SOL     OW 1138   4.483   2.021   5.254
   80SOL    HW1 1139   4.536   1.958   5.310
   80SOL    HW2 1140   4.483   1.990   5.159
   81SOL     OW 1141   2.099   4.829   2.720
   81SOL    HW1 1142   2.123   4.883   2.801
   81SOL    HW2 1143   2.150   4.743   2.722
   82SOL     OW 1144   2.603   0.504   1.356
   82SOL    HW1 1145   2.653   0.530   1.273
   82SOL    HW2 1146   2.572   0.410   1.347
   83SOL     OW 1147   6.098   2.049   3.680
   83SOL    HW1 1148   6.017   2.104   3.660
   83SOL    HW2 1149   6.168   2.066   3.611
   84SOL     OW 1150   5.238   2.117   2.713
   84SOL    HW1 1151   5.143   2.117   2.681
   84SOL    HW2 1152   5.240   2.093   2.810
   85SOL     OW 1153   2.162   5.273   2.444
   85SOL    HW1 1154   2.082   5.305   2.493
   85SOL    HW2 1155   2.245   5.305   2.491
   86SOL     OW 1156   4.599   1.343   5.742
   86SOL    HW1 1157   4.571   1.278   5.672
   86SOL    HW2 1158   4.675   1.305   5.794
   87SOL     OW 1159   3.049   2.241   6.702
   87SOL    HW1 1160   3.067   2.264   6.606
   87SOL    HW2 1161   3.056   2.142   6.713
   88SOL     OW 1162   1.327   1.873   0.197
   88SOL    HW1 1163   1.392   1.810   0.239
   88SOL    HW2 1164   1.262   1.823   0.140
   89SOL     OW 1165   4.006   4.012   6.059
   89SOL    HW1 1166   3.932   3.995   5.993
   89SOL    HW2 1167   4.004   4.109   6.085
   90SOL     OW 1168   6.986   4.120   1.972
   90SOL    HW1 1169   0.014   4.040   1.932
   90SOL    HW2 1170   0.016   4.145   2.057
   91SOL     OW 1171   5.142   5.067   0.842
   91SOL    HW1 1172   5.210   5.059   0.769
   91SOL    HW2 1173   5.174   5.018   0.923
   92SOL     OW 1174   6.588   6.489   6.826
   92SOL    HW1 1175   6.665   6.533   6.872
   92SOL    HW2 1176   6.621   6.411   6.772
   93SOL     OW 1177   2.835   3.540   2.373
   93SOL    HW1 1178   2.913   3.558   2.433
   93SOL    HW2 1179   2.755   3.589   2.408
   94SOL     OW 1180   3.801   1.039   4.402
   94SOL    HW1 1181   3.898   1.030   4.424
   94SOL    HW2 1182   3.747   0.986   4.468
   95SOL     OW 1183   0.489   6.470   4.207
   95SOL    HW1 1184   0.427   6.427   4.272
   95SOL    HW2 1185   0.439   6.495   4.124
   96SOL     OW 1186   0.568   6.630   0.540
   96SOL    HW1 1187   0.545   6.534   0.522
   96SOL    HW2 1188   0.535   6.656   0.630
   97SOL     OW 1189   3.883   5.059   4.603
   97SOL    HW1 1190   3.815   5.008   4.550
   97SOL    HW2 1191   3.839   5.098   4.684
   98SOL     OW 1192   6.733   1.938   4.914
   98SOL    HW1 1193   6.772   1.910   5.002
   98SOL    HW2 1194   6.786   2.014   4.876
   99SOL     OW 1195   5.490   4.583   5.149
   99SOL    HW1 1196   5.538   4.668   5.127
   99SOL    HW2 1197   5.392   4.602   5.161
  100SOL     OW 1198   2.098   2.011   5.619
  100SOL    HW1 1199   2.011   1.963   5.628
  100SOL    HW2 1200   2.128   2.008   5.524
  101SOL     OW 1201   5.228   2.670   2.225
  101SOL    HW1 1202   5.137   2.677   2.267
  101SOL    HW2 1203   5.262   2.761   2.204
  102SOL     OW 1204   4.746   6.903   0.868
  102SOL    HW1 1205   4.843   6.882   0.859
  102SOL    HW2 1206   4.732   7.002   0.858
  103SOL     OW 1207   2.440   2.310   1.192
  103SOL    HW1 1208   2.522   2.278   1.239
  103SOL    HW2 1209   2.411   2.397   1.232
  104SOL     OW 1210   1.149   3.833   1.718
  104SOL    HW1 1211   1.175   3.895   1.644
  104SOL    HW2 1212   1.077   3.771   1.686
  105SOL     OW 1213   0.480   1.848   4.441
  105SOL    HW1 1214   0.546   1.774   4.454
  105SOL    HW2 1215   0.400   1.832   4.498
  106SOL     OW 1216   5.164   3.331   1.070
  106SOL    HW1 1217   5.150   3.249   1.014
  106SOL    HW2 1218   5.166   3.306   1.167
  107SOL     OW 1219   4.525   0.408   2.381
  107SOL    HW1 1220   4.499   0.441   2.472
  107SOL    HW2 1221   4.592   0.334   2.391
  108SOL     OW 1222   3.816   1.272   4.930
  108SOL    HW1 1223   3.825   1.292   4.832
  108SOL    HW2 1224   3.798   1.357   4.979
  109SOL     OW 1225   1.885   1.771   4.661
  109SOL    HW1 1226   1.967   1.734   4.617
  109SOL    HW2 1227   1.883   1.870   4.649
  110SOL     OW 1228   4.284   4.880   5.203
  110SOL    HW1 1229   4.356   4.825   5.160
  110SOL    HW2 1230   4.273   4.851   5.298
  111SOL     OW 1231   0.128   3.577   0.459
  111SOL    HW1 1232   0.161   3.486   0.434
  111SOL    HW2 1233   0.118   3.583   0.558
  112SOL     OW 1234   3.296   6.236   4.835
  112SOL    HW1 1235   3.365   6.191   4.891
  112SOL    HW2 1236   3.205   6.211   4.867
  113SOL     OW 1237   1.442   4.782   2.055
  113SOL    HW1 1238   1.372   4.852   2.046
  113SOL    HW2 1239   1.419   4.703   1.997
  114SOL     OW 1240   6.963   1.786   1.635
  114SOL    HW1 1241   6.870   1.751   1.624
  114SOL    HW2 1242   7.005   1.743   1.715
  115SOL     OW 1243   4.372   0.563   3.575
  115SOL    HW1 1244   4.305   0.632   3.548
  115SOL    HW2 1245   4.398   0.577   3.671
  116SOL     OW 1246   6.117   5.645   6.643
  116SOL    HW1 1247   6.076   5.699   6.570
  116SOL    HW2 1248   6.154   5.560   6.605
  117SOL     OW 1249   2.052   1.552   0.262
  117SOL    HW1 1250   2.120   1.619   0.291
  117SOL    HW2 1251   1.963   1.597   0.252
  118SOL     OW 1252   0.999   3.001   1.457
  118SOL    HW1 1253   1.000   2.908   1.421
  118SOL    HW2 1254   1.011   2.999   1.556
  119SOL     OW 1255   5.305   5.266   4.274
  119SOL    HW1 1256   5.228   5.223   4.227
  119SOL    HW2 1257   5.336   5.207   4.348
  120SOL     OW 1258   4.786   1.171   4.101
  120SOL    HW1 1259   4.727   1.114   4.159
  120SOL    HW2 1260   4.773   1.146   4.006
  121SOL     OW 1261   6.806   4.984   5.640
  121SOL    HW1 1262   6.898   4.947   5.627
  121SOL    HW2 1263   6.742   4.909   5.655
  122SOL     OW 1264   0.222   5.679   5.490
  122SOL    HW1 1265   0.291   5.708   5.423
  122SOL    HW2 1266   0.226   5.580   5.501
  123SOL     OW 1267   0.659   2.106   0.964
  123SOL    HW1 1268   0.727   2.155   0.910
  123SOL    HW2 1269   0.681   2.008   0.964
  124SOL     OW 1270   1.640   3.521   6.913
  124SOL    HW1 1271   1.609   3.485   6.825
  124SOL    HW2 1272   1.568   3.510   6.981
  125SOL     OW 1273   4.084   3.716   2.052
  125SOL    HW1 1274   4.145   3.677   1.983
  125SOL    HW2 1275   3.991   3.681   2.039
  126SOL     OW 1276   3.811   3.273   5.211
  126SOL    HW1 1277   3.760   3.188   5.228
  126SOL    HW2 1278   3.833   3.317   5.298
  127SOL     OW 1279   0.297   4.239   6.155
  127SOL    HW1 1280   0.357   4.217   6.078
  127SOL    HW2 1281   0.351   4.244   6.239
  128SOL     OW 1282   5.029   4.443   6.404
  128SOL    HW1 1283   5.053   4.406   6.314
  128SOL    HW2 1284   4.930   4.454   6.410
  129SOL     OW 1285   1.180   5.503   2.728
  129SOL    HW1 1286   1.162   5.449   2.646
  129SOL    HW2 1287   1.142   5.595   2.717
  130SOL     OW 1288   6.397   3.967   5.044
  130SOL    HW1 1289   6.416   3.875   5.010
  130SOL    HW2 1290   6.366   4.024   4.968
  131SOL     OW 1291   0.555   2.965   1.914
  131SOL    HW1 1292   0.572   3.061   1.939
  131SOL    HW2 1293   0.568   2.907   1.994
  132SOL     OW 1294   3.632   3.707   1.764
  132SOL    HW1 1295   3.690   3.779   1.802
  132SOL    HW2 1296   3.618   3.636   1.833
  133SOL     OW 1297   4.321   4.441   5.895
  133SOL    HW1 1298   4.235   4.459   5.847
  133SOL    HW2 1299   4.388   4.405   5.831
  134SOL     OW 1300   0.357   2.160   6.869
  134SOL    HW1 1301   0.316   2.080   6.914
  134SOL    HW2 1302   0.450   2.137   6.841
  135SOL     OW 1303   4.356   4.998   4.076
  135SOL    HW1 1304   4.454   4.979   4.066
  135SOL    HW2 1305   4.309   4.914   4.102
  136SOL     OW 1306   3.451   6.242   6.511
  136SOL    HW1 1307   3.368   6.218   6.562
  136SOL    HW2 1308   3.520   6.172   6.525
  137SOL     OW 1309   1.876   4.107   6.872
  137SOL    HW1 1310   1.823   4.171   6.926
  137SOL    HW2 1311   1.846   4.013   6.892
  138SOL     OW 1312   6.943   6.566   1.742
  138SOL    HW1 1313   7.002   6.488   1.725
  138SOL    HW2 1314   6.848   6.542   1.720
  139SOL     OW 1315   1.244   6.959   0.995
  139SOL    HW1 1316   1.176   6.924   0.930
  139SOL    HW2 1317   1.322   6.997   0.945
  140SOL     OW 1318   2.661   0.243   3.228
  140SOL    HW1 1319   2.587   0.230   3.162
  140SOL    HW2 1320   2.747   0.256   3.179
  141SOL     OW 1321   2.474   2.276   0.473
  141SOL    HW1 1322   2.400   2.278   0.405
  141SOL    HW2 1323   2.448   2.333   0.551
  142SOL     OW 1324   1.428   4.472   6.117
  142SOL    HW1 1325   1.339   4.431   6.098
  142SOL    HW2 1326   1.451   4.460   6.213
  143SOL     OW 1327   4.700   6.096   2.304
  143SOL    HW1 1328   4.722   6.193   2.304
  143SOL    HW2 1329   4.674   6.068   2.397
  144SOL     OW 1330   2.417   4.930   3.096
  144SOL    HW1 1331   2.452   4.857   3.038
  144SOL    HW2 1332   2.426   5.017   3.048
  145SOL     OW 1333   6.192   6.225   2.451
  145SOL    HW1 1334   6.183   6.289   2.527
  145SOL    HW2 1335   6.173   6.272   2.365
  146SOL     OW 1336   6.351   1.420   4.346
  146SOL    HW1 1337   6.277   1.461   4.293
  146SOL    HW2 1338   6.313   1.367   4.422
  147SOL     OW 1339   5.858   6.442   5.645
  147SOL    HW1 1340   5.801   6.461   5.725
  147SOL    HW2 1341   5.902   6.352   5.657
  148SOL     OW 1342   1.854   0.514   3.909
  148SOL    HW1 1343   1.847   0.491   3.812
  148SOL    HW2 1344   1.786   0.462   3.961
  149SOL     OW 1345   2.140   1.984   5.360
  149SOL    HW1 1346   2.233   1.997   5.325
  149SOL    HW2 1347   2.079   1.961   5.285
  150SOL     OW 1348   5.396   3.244   4.519
  150SOL    HW1 1349   5.299   3.258   4.536
  150SOL    HW2 1350   5.442   3.333   4.509
  151SOL     OW 1351   6.432   2.698   1.896
  151SOL    HW1 1352   6.428   2.789   1.938
  151SOL    HW2 1353   6.482   2.704   1.810
  152SOL     OW 1354   6.274   1.464   0.177
  152SOL    HW1 1355   6.236   1.478   0.268
  152SOL    HW2 1356   6.263   1.547   0.122
  153SOL     OW 1357   1.481   1.864   3.791
  153SOL    HW1 1358   1.454   1.802   3.864
  153SOL    HW2 1359   1.463   1.821   3.702
  154SOL     OW 1360   0.054   2.392   3.676
  154SOL    HW1 1361   0.022   2.355   3.589
  154SOL    HW2 1362   0.133   2.339   3.707
  155SOL     OW 1363   5.745   4.998   3.251
  155SOL    HW1 1364   5.799   5.056   3.312
  155SOL    HW2 1365   5.806   4.950   3.187
  156SOL     OW 1366   4.197   6.935   1.131
  156SOL    HW1 1367   4.110   6.947   1.179
  156SOL    HW2 1368   4.195   6.848   1.081
  157SOL     OW 1369   5.854   1.155   0.606
  157SOL    HW1 1370   5.945   1.181   0.571
  157SOL    HW2 1371   5.785   1.175   0.536
  158SOL     OW 1372   0.985   2.556   5.788
  158SOL    HW1 1373   0.915   2.490   5.815
  158SOL    HW2 1374   1.075   2.525   5.820
  159SOL     OW 1375   0.277   4.865   6.522
  159SOL    HW1 1376   0.329   4.942   6.484
  159SOL    HW2 1377   0.268   4.794   6.453
  160SOL     OW 1378   4.395   0.076   1.830
  160SOL    HW1 1379   4.353   0.151   1.881
  160SOL    HW2 1380   4.495   0.089   1.828
  161SOL     OW 1381   5.571   6.605   1.294
  161SOL    HW1 1382   5.638   6.613   1.221
  161SOL    HW2 1383   5.527   6.515   1.290
  162SOL     OW 1384   4.111   6.816   5.293
  162SOL    HW1 1385   4.196   6.768   5.313
  162SOL    HW2 1386   4.127   6.915   5.295
  163SOL     OW 1387   1.593   4.037   3.233
  163SOL    HW1 1388   1.550   4.048   3.322
  163SOL    HW2 1389   1.624   3.942   3.222
  164SOL     OW 1390   1.820   2.721   2.575
  164SOL    HW1 1391   1.779   2.689   2.660
  164SOL    HW2 1392   1.839   2.819   2.582
  165SOL     OW 1393   0.332   6.049   5.076
  165SOL    HW1 1394   0.431   6.042   5.088
  165SOL    HW2 1395   0.297   5.967   5.031
  166SOL     OW 1396   0.478   5.433   3.953
  166SOL    HW1 1397   0.485   5.334   3.959
  166SOL    HW2 1398   0.446   5.459   3.862
  167SOL     OW 1399   0.218   1.449   3.230
  167SOL    HW1 1400   0.224   1.415   3.136
  167SOL    HW2 1401   0.239   1.374   3.293
  168SOL     OW 1402   3.115   3.946   4.681
  168SOL    HW1 1403   3.093   3.986   4.770
  168SOL    HW2 1404   3.111   3.847   4.686
  169SOL     OW 1405   4.822   3.099   5.860
  169SOL    HW1 1406   4.740   3.080   5.806
  169SOL    HW2 1407   4.804   3.078   5.956
  170SOL     OW 1408   5.658   5.308   2.644
  170SOL    HW1 1409   5.659   5.210   2.661
  170SOL    HW2 1410   5.724   5.330   2.573
  171SOL     OW 1411   3.886   2.913   0.883
  171SOL    HW1 1412   3.986   2.913   0.883
  171SOL    HW2 1413   3.853   2.929   0.976
  172SOL     OW 1414   2.095   0.541   0.057
  172SOL    HW1 1415   2.014   0.579   0.101
  172SOL    HW2 1416   2.082   0.540   6.974
  173SOL     OW 1417   5.341   0.789   4.921
  173SOL    HW1 1418   5.264   0.828   4.870
  173SOL    HW2 1419   5.307   0.748   5.006
  174SOL     OW 1420   6.001   5.114   3.562
  174SOL    HW1 1421   5.957   5.027   3.581
  174SOL    HW2 1422   5.950   5.189   3.604
  175SOL     OW 1423   0.444   5.445   2.261
  175SOL    HW1 1424   0.435   5.388   2.180
  175SOL    HW2 1425   0.488   5.532   2.236
  176SOL     OW 1426   6.189   4.006   0.985
  176SOL    HW1 1427   6.130   3.961   0.919
  176SOL    HW2 1428   6.283   4.007   0.950
  177SOL     OW 1429   5.640   1.922   3.697
  177SOL    HW1 1430   5.660   2.017   3.672
  177SOL    HW2 1431   5.555   1.894   3.652
  178SOL     OW 1432   1.184   5.707   4.558
  178SOL    HW1 1433   1.149   5.800   4.543
  178SOL    HW2 1434   1.264   5.692   4.500
  179SOL     OW 1435   3.104   3.990   1.842
  179SOL    HW1 1436   3.201   3.983   1.862
  179SOL    HW2 1437   3.083   4.081   1.808
  180SOL     OW 1438   5.370   0.504   5.646
  180SOL    HW1 1439   5.439   0.574   5.662
  180SOL    HW2 1440   5.327   0.480   5.733
  181SOL     OW 1441   3.312   5.829   5.595
  181SOL    HW1 1442   3.329   5.918   5.552
  181SOL    HW2 1443   3.221   5.796   5.570
  182SOL     OW 1444   3.349   2.623   5.266
  182SOL    HW1 1445   3.299   2.699   5.223
  182SOL    HW2 1446   3.304   2.537   5.243
  183SOL     OW 1447   1.787   0.693   2.586
  183SOL    HW1 1448   1.795   0.717   2.683
  183SOL    HW2 1449   1.865   0.636   2.559
  184SOL     OW 1450   5.458   6.222   3.798
  184SOL    HW1 1451   5.468   6.168   3.714
  184SOL    HW2 1452   5.466   6.319   3.775
  185SOL     OW 1453   0.901   6.027   5.003
  185SOL    HW1 1454   0.845   6.047   4.923
  185SOL    HW2 1455   0.982   5.976   4.974
  186SOL     OW 1456   3.442   4.901   0.782
  186SOL    HW1 1457   3.500   4.982   0.791
  186SOL    HW2 1458   3.414   4.891   0.686
  187SOL     OW 1459   4.125   5.539   0.659
  187SOL    HW1 1460   4.198   5.495   0.711
  187SOL    HW2 1461   4.071   5.469   0.612
  188SOL     OW 1462   1.238   4.094   3.634
  188SOL    HW1 1463   1.223   4.120   3.539
  188SOL    HW2 1464   1.332   4.114   3.660
  189SOL     OW 1465   6.667   3.584   6.024
  189SOL    HW1 1466   6.700   3.644   5.951
  189SOL    HW2 1467   6.577   3.616   6.056
  190SOL     OW 1468   6.174   6.027   6.865
  190SOL    HW1 1469   6.217   6.101   6.812
  190SOL    HW2 1470   6.077   6.048   6.877
  191SOL     OW 1471   1.903   3.745   6.382
  191SOL    HW1 1472   1.960   3.826   6.393
  191SOL    HW2 1473   1.811   3.773   6.355
  192SOL     OW 1474   1.023   6.538   0.248
  192SOL    HW1 1475   1.058   6.590   0.170
  192SOL    HW2 1476   0.935   6.497   0.224
  193SOL     OW 1477   2.553   6.879   1.772
  193SOL    HW1 1478   2.556   6.800   1.711
  193SOL    HW2 1479   2.590   6.853   1.861
  194SOL     OW 1480   4.125   6.465   3.516
  194SOL    HW1 1481   4.186   6.387   3.504
  194SOL    HW2 1482   4.179   6.547   3.535
  195SOL     OW 1483   3.451   0.984   1.330
  195SOL    HW1 1484   3.440   0.910   1.396
  195SOL    HW2 1485   3.367   1.036   1.323
  196SOL     OW 1486   3.729   3.009   1.541
  196SOL    HW1 1487   3.762   3.093   1.499
  196SOL    HW2 1488   3.630   3.017   1.556
  197SOL     OW 1489   0.956   6.719   1.225
  197SOL    HW1 1490   1.035   6.780   1.217
  197SOL    HW2 1491   0.898   6.730   1.145
  198SOL     OW 1492   6.445   0.594   5.403
  198SOL    HW1 1493   6.509   0.573   5.329
  198SOL    HW2 1494   6.472   0.679   5.447
  199SOL     OW 1495   1.227   0.603   3.028
  199SOL    HW1 1496   1.297   0.611   2.957
  199SOL    HW2 1497   1.207   0.693   3.065
  200SOL     OW 1498   1.682   3.453   3.202
  200SOL    HW1 1499   1.728   3.369   3.229
  200SOL    HW2 1500   1.715   3.529   3.258
  201SOL     OW 1501   5.213   1.082   6.579
  201SOL    HW1 1502   5.303   1.074   6.536
  201SOL    HW2 1503   5.142   1.052   6.515
  202SOL     OW 1504   3.943   0.744   2.572
  202SOL    HW1 1505   4.023   0.726   2.629
  202SOL    HW2 1506   3.862   0.704   2.615
  203SOL     OW 1507   5.890   2.447   1.043
  203SOL    HW1 1508   5.945   2.364   1.052
  203SOL    HW2 1509   5.874   2.487   1.133
  204SOL     OW 1510   2.445   6.081   0.645
  204SOL    HW1 1511   2.430   6.013   0.573
  204SOL    HW2 1512   2.457   6.171   0.604
  205SOL     OW 1513   4.951   1.014   0.466
  205SOL    HW1 1514   4.878   1.063   0.514
  205SOL    HW2 1515   4.995   0.950   0.528
  206SOL     OW 1516   0.398   5.646   1.896
  206SOL    HW1 1517   0.494   5.662   1.871
  206SOL    HW2 1518   0.340   5.664   1.817
  207SOL     OW 1519   6.654   2.699   6.191
  207SOL    HW1 1520   6.616   2.775   6.140
  207SOL    HW2 1521   6.590   2.622   6.189
  208SOL     OW 1522   4.982   3.272   1.383
  208SOL    HW1 1523   5.056   3.205   1.392
  208SOL    HW2 1524   4.990   3.341   1.454
  209SOL     OW 1525   6.342   0.413   3.991
  209SOL    HW1 1526   6.425   0.398   3.937
  209SOL    HW2 1527   6.263   0.417   3.929
  210SOL     OW 1528   5.475   3.080   6.474
  210SOL    HW1 1529   5.504   3.106   6.566
  210SOL    HW2 1530   5.555   3.070   6.414
  211SOL     OW 1531   7.003   5.047   2.296
  211SOL    HW1 1532   0.039   4.965   2.274
  211SOL    HW2 1533   0.047   5.126   2.294
  212SOL     OW 1534   0.609   5.452   5.370
  212SOL    HW1 1535   0.614   5.381   5.440
  212SOL    HW2 1536   0.514   5.479   5.356
  213SOL     OW 1537   4.467   2.162   1.174
  213SOL    HW1 1538   4.515   2.249   1.183
  213SOL    HW2 1539   4.452   2.123   1.265
  214SOL     OW 1540   6.961   5.807   3.798
  214SOL    HW1 1541   6.966   5.758   3.885
  214SOL    HW2 1542   6.930   5.745   3.726
  215SOL     OW 1543   3.699   3.205   3.037
  215SOL    HW1 1544   3.668   3.129   2.980
  215SOL    HW2 1545   3.641   3.213   3.117
  216SOL     OW 1546   3.974   6.703   4.876
  216SOL    HW1 1547   3.997   6.700   4.973
  216SOL    HW2 1548   3.901   6.769   4.861
  217SOL     OW 1549   6.155   2.119   4.958
  217SOL    HW1 1550   6.119   2.143   5.048
  217SOL    HW2 1551   6.203   2.032   4.963
  218SOL     OW 1552   2.510   4.837   5.739
  218SOL    HW1 1553   2.545   4.800   5.653
  218SOL    HW2 1554   2.541   4.932   5.749
  219SOL     OW 1555   3.195   6.666   6.787
  219SOL    HW1 1556   3.176   6.571   6.811
  219SOL    HW2 1557   3.293   6.679   6.777
  220SOL     OW 1558   1.206   4.798   0.050
  220SOL    HW1 1559   1.294   4.767   0.016
  220SOL    HW2 1560   1.207   4.798   0.150
  221SOL     OW 1561   6.264   4.791   4.607
  221SOL    HW1 1562   6.250   4.809   4.510
  221SOL    HW2 1563   6.207   4.852   4.661
  222SOL     OW 1564   0.974   0.422   4.279
  222SOL    HW1 1565   0.978   0.494   4.209
  222SOL    HW2 1566   1.049   0.358   4.266
  223SOL     OW 1567   5.945   5.702   1.489
  223SOL    HW1 1568   5.958   5.639   1.412
  223SOL    HW2 1569   5.929   5.649   1.572
  224SOL     OW 1570   5.507   4.284   2.400
  224SOL    HW1 1571   5.568   4.205   2.393
  224SOL    HW2 1572   5.432   4.262   2.462
  225SOL     OW 1573   4.301   6.311   1.127
  225SOL    HW1 1574   4.333   6.219   1.149
  225SOL    HW2 1575   4.371   6.377   1.154
  226SOL     OW 1576   1.321   5.224   2.822
  226SOL    HW1 1577   1.344   5.258   2.913
  226SOL    HW2 1578   1.292   5.128   2.828
  227SOL     OW 1579   1.100   3.762   3.178
  227SOL    HW1 1580   1.130   3.770   3.272
  227SOL    HW2 1581   1.050   3.677   3.165
  228SOL     OW 1582   3.364   5.381   3.272
  228SOL    HW1 1583   3.402   5.304   3.222
  228SOL    HW2 1584   3.277   5.354   3.315
  229SOL     OW 1585   5.383   6.437   2.038
  229SOL    HW1 1586   5.428   6.482   1.961
  229SOL    HW2 1587   5.354   6.505   2.104
  230SOL     OW 1588   1.330   4.633   4.971
  230SOL    HW1 1589   1.350   4.537   4.987
  230SOL    HW2 1590   1.315   4.648   4.873
  231SOL     OW 1591   6.986   2.262   6.893
  231SOL    HW1 1592   6.995   2.338   6.829
  231SOL    HW2 1593   7.008   2.176   6.848
  232SOL     OW 1594   1.837   3.409   0.173
  232SOL    HW1 1595   1.932   3.421   0.144
  232SOL    HW2 1596   1.780   3.386   0.094
  233SOL     OW 1597   3.713   0.330   0.769
  233SOL    HW1 1598   3.702   0.430   0.765
  233SOL    HW2 1599   3.627   0.286   0.744
  234SOL     OW 1600   1.454   5.194   0.569
  234SOL    HW1 1601   1.542   5.240   0.584
  234SOL    HW2 1602   1.413   5.227   0.485
  235SOL     OW 1603   4.477   2.884   5.614
  235SOL    HW1 1604   4.399   2.911   5.557
  235SOL    HW2 1605   4.445   2.827   5.689
  236SOL     OW 1606   6.888   6.929   6.682
  236SOL    HW1 1607   6.949   7.004   6.707
  236SOL    HW2 1608   6.793   6.958   6.693
  237SOL     OW 1609   5.852   0.538   2.861
  237SOL    HW1 1610   5.775   0.523   2.923
  237SOL    HW2 1611   5.834   0.493   2.774
  238SOL     OW 1612   0.147   2.042   3.474
  238SOL    HW1 1613   0.208   2.102   3.526
  238SOL    HW2 1614   0.197   1.962   3.443
  239SOL     OW 1615   6.365   4.488   6.577
  239SOL    HW1 1616   6.289   4.482   6.642
  239SOL    HW2 1617   6.447   4.522   6.623
  240SOL     OW 1618   0.083   2.547   4.294
  240SOL    HW1 1619   0.154   2.522   4.359
  240SOL    HW2 1620   0.049   2.465   4.248
  241SOL     OW 1621   5.926   2.778   4.386
  241SOL    HW1 1622   6.019   2.812   4.369
  241SOL    HW2 1623   5.931   2.691   4.437
  242SOL     OW 1624   2.382   2.499   3.062
  242SOL    HW1 1625   2.297   2.488   3.114
  242SOL    HW2 1626   2.454   2.444   3.103
  243SOL     OW 1627   5.127   1.307   6.012
  243SOL    HW1 1628   5.210   1.363   6.022
  243SOL    HW2 1629   5.144   1.216   6.051
  244SOL     OW 1630   1.796   0.807   5.548
  244SOL    HW1 1631   1.706   0.850   5.545
  244SOL    HW2 1632   1.841   0.828   5.634
  245SOL     OW 1633   5.280   1.934   4.673
  245SOL    HW1 1634   5.265   1.871   4.596
  245SOL    HW2 1635   5.312   1.882   4.752
  246SOL     OW 1636   5.153   3.986   4.705
  246SOL    HW1 1637   5.132   4.084   4.694
  246SOL    HW2 1638   5.069   3.933   4.690
  247SOL     OW 1639   1.554   0.584   2.533
  247SOL    HW1 1640   1.502   0.592   2.618
  247SOL    HW2 1641   1.645   0.624   2.544
  248SOL     OW 1642   6.603   2.956   3.049
  248SOL    HW1 1643   6.551   2.879   3.012
  248SOL    HW2 1644   6.697   2.951   3.015
  249SOL     OW 1645   1.876   6.328   4.720
  249SOL    HW1 1646   1.861   6.421   4.688
  249SOL    HW2 1647   1.848   6.320   4.815
  250SOL     OW 1648   6.156   2.234   0.159
  250SOL    HW1 1649   6.189   2.229   0.253
  250SOL    HW2 1650   6.229   2.207   0.097
  251SOL     OW 1651   2.206   6.912   2.683
  251SOL    HW1 1652   2.304   6.912   2.665
  251SOL    HW2 1653   2.157   6.945   2.602
  252SOL     OW 1654   6.783   3.183   6.994
  252SOL    HW1 1655   6.803   3.223   0.067
  252SOL    HW2 1656   6.812   3.246   6.922
  253SOL     OW 1657   2.055   4.708   5.414
  253SOL    HW1 1658   1.964   4.691   5.375
  253SOL    HW2 1659   2.049   4.704   5.513
  254SOL     OW 1660   5.130   3.353   6.854
  254SOL    HW1 1661   5.076   3.422   6.901
  254SOL    HW2 1662   5.141   3.377   6.758
  255SOL     OW 1663   4.220   1.934   2.019
  255SOL    HW1 1664   4.142   1.887   1.979
  255SOL    HW2 1665   4.253   2.005   1.957
  256SOL     OW 1666   0.672   6.509   1.004
  256SOL    HW1 1667   0.696   6.490   1.099
  256SOL    HW2 1668   0.688   6.427   0.949
  257SOL     OW 1669   2.724   6.026   6.640
  257SOL    HW1 1670   2.625   6.035   6.629
  257SOL    HW2 1671   2.746   6.012   6.736
  258SOL     OW 1672   5.086   5.094   4.215
  258SOL    HW1 1673   5.004   5.148   4.236
  258SOL    HW2 1674   5.074   5.001   4.250
  259SOL     OW 1675   6.910   1.264   1.879
  259SOL    HW1 1676   6.837   1.196   1.886
  259SOL    HW2 1677   6.997   1.223   1.906
  260SOL     OW 1678   6.228   6.823   6.119
  260SOL    HW1 1679   6.156   6.768   6.076
  260SOL    HW2 1680   6.187   6.883   6.188
  261SOL     OW 1681   0.065   1.146   3.178
  261SOL    HW1 1682   0.087   1.114   3.270
  261SOL    HW2 1683   7.003   1.094   3.143
  262SOL     OW 1684   1.908   5.425   0.822
  262SOL    HW1 1685   1.960   5.482   0.885
  262SOL    HW2 1686   1.958   5.340   0.804
  263SOL     OW 1687   1.140   4.746   5.113
  263SOL    HW1 1688   1.071   4.797   5.061
  263SOL    HW2 1689   1.211   4.712   5.051
  264SOL     OW 1690   4.430   4.318   0.750
  264SOL    HW1 1691   4.375   4.346   0.671
  264SOL    HW2 1692   4.370   4.281   0.821
  265SOL     OW 1693   3.636   5.845   4.281
  265SOL    HW1 1694   3.582   5.911   4.333
  265SOL    HW2 1695   3.594   5.754   4.290
  266SOL     OW 1696   4.682   3.455   6.941
  266SOL    HW1 1697   4.621   3.492   7.010
  266SOL    HW2 1698   4.649   3.480   6.850
  267SOL     OW 1699   2.955   2.067   6.150
  267SOL    HW1 1700   2.969   2.158   6.110
  267SOL    HW2 1701   2.943   2.076   6.249
  268SOL     OW 1702   1.628   4.270   2.608
  268SOL    HW1 1703   1.642   4.247   2.512
  268SOL    HW2 1704   1.558   4.341   2.616
  269SOL     OW 1705   2.510   1.301   5.221
  269SOL    HW1 1706   2.505   1.343   5.131
  269SOL    HW2 1707   2.600   1.318   5.261
  270SOL     OW 1708   5.713   5.500   4.885
  270SOL    HW1 1709   5.650   5.544   4.949
  270SOL    HW2 1710   5.691   5.529   4.792
  271SOL     OW 1711   2.818   0.480   6.881
  271SOL    HW1 1712   2.763   0.527   6.950
  271SOL    HW2 1713   2.873   0.547   6.831
  272SOL     OW 1714   5.782   4.018   6.898
  272SOL    HW1 1715   5.803   4.031   6.802
  272SOL    HW2 1716   5.687   4.045   6.916
  273SOL     OW 1717   0.271   5.694   3.996
  273SOL    HW1 1718   0.323   5.776   3.972
  273SOL    HW2 1719   0.334   5.618   4.014
  274SOL     OW 1720   5.253   2.985   2.434
  274SOL    HW1 1721   5.241   2.987   2.334
  274SOL    HW2 1722   5.328   2.924   2.457
  275SOL     OW 1723   5.873   4.828   5.825
  275SOL    HW1 1724   5.847   4.924   5.818
  275SOL    HW2 1725   5.791   4.770   5.818
  276SOL     OW 1726   0.557   0.198   4.482
  276SOL    HW1 1727   0.462   0.175   4.500
  276SOL    HW2 1728   0.594   0.252   4.557
  277SOL     OW 1729   3.825   3.291   5.674
  277SOL    HW1 1730   3.850   3.296   5.577
  277SOL    HW2 1731   3.907   3.298   5.730
  278SOL     OW 1732   6.061   5.180   1.814
  278SOL    HW1 1733   6.086   5.263   1.863
  278SOL    HW2 1734   6.021   5.114   1.879
  279SOL     OW 1735   6.653   3.283   3.805
  279SOL    HW1 1736   6.659   3.236   3.893
  279SOL    HW2 1737   6.655   3.382   3.821
  280SOL     OW 1738   4.433   1.241   2.297
  280SOL    HW1 1739   4.480   1.328   2.288
  280SOL    HW2 1740   4.352   1.252   2.355
  281SOL     OW 1741   5.303   5.349   6.141
  281SOL    HW1 1742   5.296   5.255   6.174
  281SOL    HW2 1743   5.366   5.400   6.200
  282SOL     OW 1744   0.860   1.658   7.015
  282SOL    HW1 1745   0.890   1.666   6.920
  282SOL    HW2 1746   0.895   1.735   0.052
  283SOL     OW 1747   6.382   3.842   2.593
  283SOL    HW1 1748   6.285   3.864   2.587
  283SOL    HW2 1749   6.394   3.743   2.592
  284SOL     OW 1750   5.794   6.935   2.581
  284SOL    HW1 1751   5.750   6.881   2.653
  284SOL    HW2 1752   5.799   0.015   2.611
  285SOL     OW 1753   5.155   5.818   6.049
  285SOL    HW1 1754   5.221   5.756   6.091
  285SOL    HW2 1755   5.074   5.766   6.020
  286SOL     OW 1756   3.556   5.658   5.525
  286SOL    HW1 1757   3.462   5.690   5.543
  286SOL    HW2 1758   3.575   5.664   5.427
  287SOL     OW 1759   4.407   6.802   0.732
  287SOL    HW1 1760   4.418   6.899   0.752
  287SOL    HW2 1761   4.497   6.758   0.727
  288SOL     OW 1762   3.724   0.906   0.618
  288SOL    HW1 1763   3.633   0.945   0.636
  288SOL    HW2 1764   3.713   0.819   0.569
  289SOL     OW 1765   5.955   5.198   5.163
  289SOL    HW1 1766   5.907   5.235   5.083
  289SOL    HW2 1767   5.943   5.260   5.241
  290SOL     OW 1768   2.976   0.987   4.652
  290SOL    HW1 1769   2.907   1.055   4.629
  290SOL    HW2 1770   2.937   0.920   4.716
  291SOL     OW 1771   5.906   1.074   4.920
  291SOL    HW1 1772   5.858   0.986   4.924
  291SOL    HW2 1773   5.882   1.121   4.835
  292SOL     OW 1774   2.503   0.838   4.143
  292SOL    HW1 1775   2.470   0.926   4.179
  292SOL    HW2 1776   2.562   0.794   4.210
  293SOL     OW 1777   5.430   0.640   3.123
  293SOL    HW1 1778   5.337   0.635   3.160
  293SOL    HW2 1779   5.495   0.651   3.198
  294SOL     OW 1780   6.834   1.076   6.288
  294SOL    HW1 1781   6.769   1.031   6.349
  294SOL    HW2 1782   6.795   1.083   6.196
  295SOL     OW 1783   0.879   0.732   5.168
  295SOL    HW1 1784   0.815   0.798   5.206
  295SOL    HW2 1785   0.839   0.640   5.174
  296SOL     OW 1786   0.059   1.440   6.898
  296SOL    HW1 1787   0.009   1.516   6.856
  296SOL    HW2 1788   0.148   1.430   6.854
  297SOL     OW 1789   5.043   4.429   3.074
  297SOL    HW1 1790   5.050   4.528   3.086
  297SOL    HW2 1791   4.996   4.409   2.987
  298SOL     OW 1792   4.281   6.226   5.283
  298SOL    HW1 1793   4.357   6.161   5.285
  298SOL    HW2 1794   4.219   6.203   5.208
  299SOL     OW 1795   0.014   1.450   6.163
  299SOL    HW1 1796   0.034   1.544   6.191
  299SOL    HW2 1797   0.085   1.389   6.198
  300SOL     OW 1798   4.253   6.446   4.527
  300SOL    HW1 1799   4.184   6.476   4.592
  300SOL    HW2 1800   4.306   6.525   4.495
  301SOL     OW 1801   6.482   6.597   5.419
  301SOL    HW1 1802   6.394   6.632   5.388
  301SOL    HW2 1803   6.519   6.656   5.491
  302SOL     OW 1804   0.848   6.390   2.427
  302SOL    HW1 1805   0.888   6.352   2.510
  302SOL    HW2 1806   0.749   6.397   2.438
  303SOL     OW 1807   4.261   5.391   2.544
  303SOL    HW1 1808   4.339   5.447   2.513
  303SOL    HW2 1809   4.285   5.294   2.537
  304SOL     OW 1810   1.062   1.374   5.385
  304SOL    HW1 1811   1.154   1.336   5.371
  304SOL    HW2 1812   1.043   1.442   5.314
  305SOL     OW 1813   3.067   1.378   0.605
  305SOL    HW1 1814   3.059   1.433   0.522
  305SOL    HW2 1815   3.127   1.424   0.670
  306SOL     OW 1816   0.699   6.673   2.612
  306SOL    HW1 1817   0.740   6.762   2.593
  306SOL    HW2 1818   0.723   6.644   2.704
  307SOL     OW 1819   3.992   3.051   4.596
  307SOL    HW1 1820   4.032   3.139   4.621
  307SOL    HW2 1821   4.064   2.990   4.564
  308SOL     OW 1822   6.729   3.145   0.450
  308SOL    HW1 1823   6.826   3.151   0.475
  308SOL    HW2 1824   6.718   3.088   0.369
  309SOL     OW 1825   1.823   5.349   0.139
  309SOL    HW1 1826   1.865   5.393   0.060
  309SOL    HW2 1827   1.895   5.317   0.201
  310SOL     OW 1828   4.487   6.053   5.345
  310SOL    HW1 1829   4.432   6.085   5.422
  310SOL    HW2 1830   4.545   5.977   5.374
  311SOL     OW 1831   1.619   6.314   1.901
  311SOL    HW1 1832   1.645   6.243   1.967
  311SOL    HW2 1833   1.575   6.272   1.821
  312SOL     OW 1834   3.780   0.458   4.337
  312SOL    HW1 1835   3.766   0.532   4.272
  312SOL    HW2 1836   3.818   0.379   4.290
  313SOL     OW 1837   2.985   3.312   3.562
  313SOL    HW1 1838   3.004   3.399   3.514
  313SOL    HW2 1839   2.959   3.243   3.495
  314SOL     OW 1840   2.274   4.451   6.244
  314SOL    HW1 1841   2.349   4.516   6.235
  314SOL    HW2 1842   2.240   4.452   6.338
  315SOL     OW 1843   6.073   6.886   4.392
  315SOL    HW1 1844   5.978   6.865   4.368
  315SOL    HW2 1845   6.084   6.884   4.491
  316SOL     OW 1846   3.798   1.013   4.859
  316SOL    HW1 1847   3.813   1.108   4.887
  316SOL    HW2 1848   3.815   0.953   4.937
  317SOL     OW 1849   0.753   1.140   2.009
  317SOL    HW1 1850   0.665   1.178   2.036
  317SOL    HW2 1851   0.801   1.107   2.091
  318SOL     OW 1852   1.019   1.697   3.818
  318SOL    HW1 1853   0.999   1.777   3.874
  318SOL    HW2 1854   0.970   1.618   3.853
  319SOL     OW 1855   0.481   1.897   2.103
  319SOL    HW1 1856   0.397   1.851   2.072
  319SOL    HW2 1857   0.478   1.906   2.203
  320SOL     OW 1858   5.054   0.801   6.409
  320SOL    HW1 1859   5.003   0.825   6.491
  320SOL    HW2 1860   5.151   0.820   6.422
  321SOL     OW 1861   4.621   3.251   0.833
  321SOL    HW1 1862   4.610   3.218   0.739
  321SOL    HW2 1863   4.581   3.184   0.896
  322SOL     OW 1864   3.167   1.927   0.346
  322SOL    HW1 1865   3.150   1.908   0.249
  322SOL    HW2 1866   3.160   2.026   0.362
  323SOL     OW 1867   0.259   4.239   1.769
  323SOL    HW1 1868   0.237   4.141   1.763
  323SOL    HW2 1869   0.327   4.262   1.700
  324SOL     OW 1870   6.588   0.460   3.464
  324SOL    HW1 1871   6.674   0.510   3.448
  324SOL    HW2 1872   6.608   0.363   3.478
  325SOL     OW 1873   0.004   2.853   0.382
  325SOL    HW1 1874   6.940   2.883   0.330
  325SOL    HW2 1875   0.083   2.908   0.355
  326SOL     OW 1876   5.969   5.970   6.034
  326SOL    HW1 1877   5.873   5.955   6.010
  326SOL    HW2 1878   6.023   5.981   5.950
  327SOL     OW 1879   4.129   6.191   6.509
  327SOL    HW1 1880   4.138   6.139   6.594
  327SOL    HW2 1881   4.155   6.286   6.525
  328SOL     OW 1882   2.505   4.931   3.736
  328SOL    HW1 1883   2.451   4.928   3.652
  328SOL    HW2 1884   2.559   4.847   3.744
  329SOL     OW 1885   2.978   3.617   2.979
  329SOL    HW1 1886   2.920   3.678   2.924
  329SOL    HW2 1887   3.031   3.558   2.917
  330SOL     OW 1888   2.143   3.465   6.576
  330SOL    HW1 1889   2.164   3.517   6.493
  330SOL    HW2 1890   2.044   3.450   6.581
  331SOL     OW 1891   5.093   5.634   4.679
  331SOL    HW1 1892   5.094   5.565   4.607
  331SOL    HW2 1893   5.064   5.722   4.639
  332SOL     OW 1894   6.001   2.183   2.743
  332SOL    HW1 1895   5.970   2.090   2.761
  332SOL    HW2 1896   5.967   2.243   2.815
  333SOL     OW 1897   2.758   5.912   4.239
  333SOL    HW1 1898   2.681   5.947   4.291
  333SOL    HW2 1899   2.832   5.885   4.301
  334SOL     OW 1900   3.745   3.301   3.677
  334SOL    HW1 1901   3.654   3.268   3.701
  334SOL    HW2 1902   3.810   3.225   3.682
  335SOL     OW 1903   4.368   1.240   6.737
  335SOL    HW1 1904   4.443   1.216   6.798
  335SOL    HW2 1905   4.299   1.293   6.787
  336SOL     OW 1906   3.707   1.752   4.471
  336SOL    HW1 1907   3.789   1.792   4.430
  336SOL    HW2 1908   3.690   1.662   4.430
  337SOL     OW 1909   1.135   1.971   5.315
  337SOL    HW1 1910   1.085   2.013   5.391
  337SOL    HW2 1911   1.122   2.025   5.232
  338SOL     OW 1912   5.238   1.534   1.440
  338SOL    HW1 1913   5.231   1.552   1.538
  338SOL    HW2 1914   5.293   1.605   1.396
  339SOL     OW 1915   3.154   5.026   5.810
  339SOL    HW1 1916   3.147   4.933   5.774
  339SOL    HW2 1917   3.109   5.032   5.899
  340SOL     OW 1918   5.454   4.640   4.806
  340SOL    HW1 1919   5.446   4.739   4.819
  340SOL    HW2 1920   5.540   4.608   4.846
  341SOL     OW 1921   5.748   0.624   1.495
  341SOL    HW1 1922   5.768   0.563   1.572
  341SOL    HW2 1923   5.659   0.668   1.510
  342SOL     OW 1924   4.758   0.632   1.227
  342SOL    HW1 1925   4.724   0.618   1.134
  342SOL    HW2 1926   4.740   0.726   1.256
  343SOL     OW 1927   5.706   0.656   1.831
  343SOL    HW1 1928   5.752   0.568   1.843
  343SOL    HW2 1929   5.773   0.726   1.805
  344SOL     OW 1930   6.642   3.069   1.632
  344SOL    HW1 1931   6.682   3.155   1.599
  344SOL    HW2 1932   6.549   3.060   1.597
  345SOL     OW 1933   6.968   3.438   3.526
  345SOL    HW1 1934   6.938   3.458   3.433
  345SOL    HW2 1935   6.907   3.369   3.566
  346SOL     OW 1936   0.331   0.522   3.554
  346SOL    HW1 1937   0.414   0.561   3.513
  346SOL    HW2 1938   0.347   0.504   3.651
  347SOL     OW 1939   1.804   4.026   1.442
  347SOL    HW1 1940   1.858   4.079   1.509
  347SOL    HW2 1941   1.721   3.992   1.487
  348SOL     OW 1942   6.085   4.837   1.126
  348SOL    HW1 1943   6.009   4.901   1.138
  348SOL    HW2 1944   6.053   4.757   1.075
  349SOL     OW 1945   6.158   5.174   6.613
  349SOL    HW1 1946   6.214   5.091   6.615
  349SOL    HW2 1947   6.139   5.204   6.706
  350SOL     OW 1948   2.764   0.516   0.787
  350SOL    HW1 1949   2.842   0.517   0.723
  350SOL    HW2 1950   2.793   0.552   0.875
  351SOL     OW 1951   4.351   4.066   0.557
  351SOL    HW1 1952   4.409   4.032   0.631
  351SOL    HW2 1953   4.315   4.156   0.582
  352SOL     OW 1954   3.560   0.912   2.774
  352SOL    HW1 1955   3.571   0.894   2.872
  352SOL    HW2 1956   3.546   0.825   2.726
  353SOL     OW 1957   2.637   6.426   0.737
  353SOL    HW1 1958   2.714   6.476   0.779
  353SOL    HW2 1959   2.668   6.384   0.652
  354SOL     OW 1960   2.747   2.496   0.849
  354SOL    HW1 1961   2.671   2.432   0.862
  354SOL    HW2 1962   2.803   2.465   0.772
  355SOL     OW 1963   0.061   2.284   2.779
  355SOL    HW1 1964   0.136   2.332   2.734
  355SOL    HW2 1965   6.992   2.333   2.764
  356SOL     OW 1966   2.785   6.669   5.562
  356SOL    HW1 1967   2.744   6.645   5.649
  356SOL    HW2 1968   2.791   6.587   5.504
  357SOL     OW 1969   6.114   6.132   4.562
  357SOL    HW1 1970   6.080   6.162   4.473
  357SOL    HW2 1971   6.154   6.210   4.610
  358SOL     OW 1972   3.425   6.046   6.976
  358SOL    HW1 1973   3.412   6.060   0.058
  358SOL    HW2 1974   3.349   6.087   6.926
  359SOL     OW 1975   2.163   2.319   0.831
  359SOL    HW1 1976   2.094   2.271   0.777
  359SOL    HW2 1977   2.188   2.264   0.911
  360SOL     OW 1978   1.758   4.932   2.858
  360SOL    HW1 1979   1.714   5.003   2.802
  360SOL    HW2 1980   1.715   4.844   2.839
  361SOL     OW 1981   6.300   2.794   2.650
  361SOL    HW1 1982   6.262   2.791   2.558
  361SOL    HW2 1983   6.329   2.702   2.677
  362SOL     OW 1984   4.095   3.396   3.014
  362SOL    HW1 1985   4.161   3.402   2.938
  362SOL    HW2 1986   4.032   3.321   2.997
  363SOL     OW 1987   4.503   5.615   1.491
  363SOL    HW1 1988   4.451   5.695   1.460
  363SOL    HW2 1989   4.474   5.590   1.583
  364SOL     OW 1990   1.080   0.938   6.760
  364SOL    HW1 1991   1.117   0.863   6.706
  364SOL    HW2 1992   1.042   0.902   6.845
  365SOL     OW 1993   4.989   0.424   3.770
  365SOL    HW1 1994   4.952   0.514   3.745
  365SOL    HW2 1995   4.915   0.360   3.787
  366SOL     OW 1996   5.630   1.096   0.064
  366SOL    HW1 1997   5.576   1.180   0.059
  366SOL    HW2 1998   5.597   1.031   7.012
  367SOL     OW 1999   6.405   6.436   0.020
  367SOL    HW1 2000   6.465   6.467   6.963
  367SOL    HW2 2001   6.321   6.398   6.997
  368SOL     OW 2002   2.866   1.210   5.081
  368SOL    HW1 2003   2.837   1.256   5.165
  368SOL    HW2 2004   2.965   1.199   5.081
  369SOL     OW 2005   4.962   3.594   6.736
  369SOL    HW1 2006   4.989   3.518   6.675
  369SOL    HW2 2007   5.042   3.649   6.757
  370SOL     OW 2008   1.593   1.979   4.065
  370SOL    HW1 2009   1.661   1.967   3.993
  370SOL    HW2 2010   1.548   2.068   4.055
  371SOL     OW 2011   2.833   5.013   0.940
  371SOL    HW1 2012   2.804   4.944   0.873
  371SOL    HW2 2013   2.824   4.974   1.032
  372SOL     OW 2014   2.732   5.700   5.744
  372SOL    HW1 2015   2.796   5.762   5.788
  372SOL    HW2 2016   2.674   5.657   5.814
  373SOL     OW 2017   5.289   4.344   2.861
  373SOL    HW1 2018   5.258   4.392   2.943
  373SOL    HW2 2019   5.377   4.382   2.832
  374SOL     OW 2020   2.159   2.871   2.023
  374SOL    HW1 2021   2.229   2.831   2.083
  374SOL    HW2 2022   2.195   2.877   1.930
  375SOL     OW 2023   0.171   5.023   4.376
  375SOL    HW1 2024   0.198   5.111   4.415
  375SOL    HW2 2025   0.084   5.033   4.328
  376SOL     OW 2026   5.003   0.054   3.714
  376SOL    HW1 2027   4.935   0.006   3.658
  376SOL    HW2 2028   5.045   7.007   3.779
  377SOL     OW 2029   2.511   3.379   6.358
  377SOL    HW1 2030   2.453   3.379   6.276
  377SOL    HW2 2031   2.475   3.444   6.424
  378SOL     OW 2032   4.001   1.163   1.363
  378SOL    HW1 2033   4.098   1.186   1.367
  378SOL    HW2 2034   3.984   1.080   1.416
  379SOL     OW 2035   3.223   3.789   0.891
  379SOL    HW1 2036   3.290   3.803   0.963
  379SOL    HW2 2037   3.170   3.707   0.910
  380SOL     OW 2038   5.347   1.526   6.766
  380SOL    HW1 2039   5.343   1.614   6.717
  380SOL    HW2 2040   5.274   1.467   6.734
  381SOL     OW 2041   0.284   3.427   2.097
  381SOL    HW1 2042   0.199   3.405   2.146
  381SOL    HW2 2043   0.361   3.381   2.142
  382SOL     OW 2044   6.329   6.983   0.825
  382SOL    HW1 2045   6.406   6.964   0.763
  382SOL    HW2 2046   6.310   6.903   0.880
  383SOL     OW 2047   5.399   3.194   1.398
  383SOL    HW1 2048   5.335   3.119   1.384
  383SOL    HW2 2049   5.350   3.281   1.396
  384SOL     OW 2050   1.554   2.634   4.466
  384SOL    HW1 2051   1.474   2.644   4.525
  384SOL    HW2 2052   1.589   2.725   4.442
  385SOL     OW 2053   4.788   2.979   6.995
  385SOL    HW1 2054   4.738   2.944   6.916
  385SOL    HW2 2055   4.739   3.057   0.018
  386SOL     OW 2056   3.364   6.119   5.476
  386SOL    HW1 2057   3.267   6.101   5.461
  386SOL    HW2 2058   3.375   6.202   5.531
  387SOL     OW 2059   1.727   6.566   3.453
  387SOL    HW1 2060   1.729   6.666   3.456
  387SOL    HW2 2061   1.751   6.536   3.360
  388SOL     OW 2062   1.720   5.493   5.753
  388SOL    HW1 2063   1.655   5.435   5.803
  388SOL    HW2 2064   1.795   5.436   5.720
  389SOL     OW 2065   4.030   2.216   6.760
  389SOL    HW1 2066   4.074   2.270   6.832
  389SOL    HW2 2067   4.034   2.267   6.673
  390SOL     OW 2068   3.415   1.540   3.785
  390SOL    HW1 2069   3.327   1.497   3.808
  390SOL    HW2 2070   3.406   1.639   3.790
  391SOL     OW 2071   0.690   0.924   0.533
  391SOL    HW1 2072   0.700   0.898   0.437
  391SOL    HW2 2073   0.681   1.023   0.540
  392SOL     OW 2074   4.191   5.435   4.027
  392SOL    HW1 2075   4.254   5.498   4.071
  392SOL    HW2 2076   4.097   5.460   4.051
  393SOL     OW 2077   5.600   2.716   5.663
  393SOL    HW1 2078   5.634   2.685   5.752
  393SOL    HW2 2079   5.508   2.753   5.673
  394SOL     OW 2080   2.233   1.072   6.841
  394SOL    HW1 2081   2.138   1.091   6.868
  394SOL    HW2 2082   2.295   1.121   6.903
  395SOL     OW 2083   0.121   3.023   0.870
  395SOL    HW1 2084   0.198   3.041   0.931
  395SOL    HW2 2085   0.056   3.099   0.876
  396SOL     OW 2086   4.070   2.538   5.744
  396SOL    HW1 2087   4.079   2.496   5.654
  396SOL    HW2 2088   4.046   2.467   5.811
  397SOL     OW 2089   4.629   6.966   6.640
  397SOL    HW1 2090   4.656   0.046   6.650
  397SOL    HW2 2091   4.599   6.930   6.728
  398SOL     OW 2092   6.033   3.941   2.319
  398SOL    HW1 2093   5.996   3.855   2.283
  398SOL    HW2 2094   6.000   4.017   2.264
  399SOL     OW 2095   2.565   5.793   1.383
  399SOL    HW1 2096   2.634   5.722   1.375
  399SOL    HW2 2097   2.507   5.775   1.463
  400SOL     OW 2098   2.240   4.697   5.703
  400SOL    HW1 2099   2.256   4.600   5.722
  400SOL    HW2 2100   2.328   4.745   5.701
  401SOL     OW 2101   6.083   1.339   1.250
  401SOL    HW1 2102   6.178   1.328   1.279
  401SOL    HW2 2103   6.042   1.416   1.300
  402SOL     OW 2104   0.297   5.588   0.859
  402SOL    HW1 2105   0.258   5.631   0.778
  402SOL    HW2 2106   0.229   5.589   0.933
  403SOL     OW 2107   5.448   4.223   0.500
  403SOL    HW1 2108   5.504   4.306   0.505
  403SOL    HW2 2109   5.401   4.219   0.412
  404SOL     OW 2110   6.653   5.791   4.648
  404SOL    HW1 2111   6.622   5.859   4.582
  404SOL    HW2 2112   6.714   5.726   4.604
  405SOL     OW 2113   1.362   1.380   1.815
  405SOL    HW1 2114   1.290   1.411   1.877
  405SOL    HW2 2115   1.445   1.359   1.868
  406SOL     OW 2116   1.226   2.996   4.056
  406SOL    HW1 2117   1.238   2.993   4.155
  406SOL    HW2 2118   1.316   2.999   4.012
  407SOL     OW 2119   3.022   2.015   3.792
  407SOL    HW1 2120   3.066   2.030   3.880
  407SOL    HW2 2121   2.924   2.004   3.804
  408SOL     OW 2122   1.964   0.107   3.903
  408SOL    HW1 2123   1.924   0.197   3.921
  408SOL    HW2 2124   2.031   0.114   3.829
  409SOL     OW 2125   0.355   5.161   4.549
  409SOL    HW1 2126   0.289   5.107   4.602
  409SOL    HW2 2127   0.435   5.105   4.528
  410SOL     OW 2128   2.487   6.633   6.405
  410SOL    HW1 2129   2.556   6.581   6.455
  410SOL    HW2 2130   2.502   6.622   6.307
  411SOL     OW 2131   0.624   4.370   5.343
  411SOL    HW1 2132   0.567   4.424   5.281
  411SOL    HW2 2133   0.570   4.293   5.379
  412SOL     OW 2134   3.750   6.296   3.494
  412SOL    HW1 2135   3.820   6.327   3.430
  412SOL    HW2 2136   3.675   6.254   3.444
  413SOL     OW 2137   2.281   0.407   1.451
  413SOL    HW1 2138   2.326   0.318   1.459
  413SOL    HW2 2139   2.313   0.453   1.368
  414SOL     OW 2140   4.821   4.612   0.703
  414SOL    HW1 2141   4.851   4.704   0.731
  414SOL    HW2 2142   4.724   4.614   0.681
  415SOL     OW 2143   3.774   6.899   2.840
  415SOL    HW1 2144   3.800   6.803   2.831
  415SOL    HW2 2145   3.676   6.906   2.858
  416SOL     OW 2146   3.845   5.689   0.126
  416SOL    HW1 2147   3.937   5.667   0.161
  416SOL    HW2 2148   3.786   5.610   0.137
  417SOL     OW 2149   5.558   5.485   1.191
  417SOL    HW1 2150   5.576   5.527   1.102
  417SOL    HW2 2151   5.484   5.418   1.181
  418SOL     OW 2152   0.376   5.050   6.366
  418SOL    HW1 2153   0.381   5.137   6.316
  418SOL    HW2 2154   0.390   4.974   6.303
  419SOL     OW 2155   4.909   5.679   6.076
  419SOL    HW1 2156   4.838   5.687   6.147
  419SOL    HW2 2157   4.976   5.611   6.104
  420SOL     OW 2158   5.950   3.509   6.818
  420SOL    HW1 2159   5.891   3.590   6.821
  420SOL    HW2 2160   6.016   3.514   6.893
  421SOL     OW 2161   1.515   6.287   6.299
  421SOL    HW1 2162   1.495   6.196   6.263
  421SOL    HW2 2163   1.514   6.284   6.399
  422SOL     OW 2164   6.335   3.577   0.291
  422SOL    HW1 2165   6.267   3.574   0.219
  422SOL    HW2 2166   6.302   3.528   0.372
  423SOL     OW 2167   1.573   3.210   6.404
  423SOL    HW1 2168   1.612   3.294   6.442
  423SOL    HW2 2169   1.485   3.230   6.361
  424SOL     OW 2170   2.512   4.311   6.001
  424SOL    HW1 2171   2.438   4.258   6.044
  424SOL    HW2 2172   2.536   4.388   6.060
  425SOL     OW 2173   2.594   0.677   0.579
  425SOL    HW1 2174   2.525   0.606   0.570
  425SOL    HW2 2175   2.676   0.639   0.622
  426SOL     OW 2176   0.729   3.328   6.692
  426SOL    HW1 2177   0.675   3.267   6.749
  426SOL    HW2 2178   0.826   3.319   6.715
  427SOL     OW 2179   4.138   3.155   0.288
  427SOL    HW1 2180   4.137   3.067   0.336
  427SOL    HW2 2181   4.199   3.148   0.209
  428SOL     OW 2182   3.523   0.957   4.428
  428SOL    HW1 2183   3.446   0.893   4.423
  428SOL    HW2 2184   3.583   0.930   4.504
  429SOL     OW 2185   3.671   5.897   0.184
  429SOL    HW1 2186   3.723   5.814   0.164
  429SOL    HW2 2187   3.714   5.975   0.139
  430SOL     OW 2188   2.847   0.875   4.376
  430SOL    HW1 2189   2.913   0.892   4.449
  430SOL    HW2 2190   2.894   0.873   4.288
  431SOL     OW 2191   3.800   0.735   6.255
  431SOL    HW1 2192   3.771   0.795   6.330
  431SOL    HW2 2193   3.720   0.692   6.214
  432SOL     OW 2194   6.645   1.177   0.975
  432SOL    HW1 2195   6.545   1.181   0.970
  432SOL    HW2 2196   6.679   1.265   1.009
  433SOL     OW 2197   3.987   6.256   4.872
  433SOL    HW1 2198   4.065   6.241   4.932
  433SOL    HW2 2199   3.997   6.201   4.789
  434SOL     OW 2200   6.693   3.407   0.563
  434SOL    HW1 2201   6.715   3.315   0.531
  434SOL    HW2 2202   6.763   3.437   0.627
  435SOL     OW 2203   3.701   3.231   0.661
  435SOL    HW1 2204   3.771   3.161   0.657
  435SOL    HW2 2205   3.617   3.197   0.617
  436SOL     OW 2206   2.180   1.367   1.214
  436SOL    HW1 2207   2.193   1.421   1.297
  436SOL    HW2 2208   2.167   1.428   1.136
  437SOL     OW 2209   6.433   6.653   6.114
  437SOL    HW1 2210   6.505   6.708   6.156
  437SOL    HW2 2211   6.347   6.705   6.114
  438SOL     OW 2212   0.892   3.527   0.906
  438SOL    HW1 2213   0.797   3.558   0.907
  438SOL    HW2 2214   0.894   3.427   0.919
  439SOL     OW 2215   5.992   4.895   1.765
  439SOL    HW1 2216   6.006   4.827   1.694
  439SOL    HW2 2217   5.919   4.957   1.738
  440SOL     OW 2218   1.606   2.828   2.784
  440SOL    HW1 2219   1.526   2.788   2.740
  440SOL    HW2 2220   1.674   2.756   2.803
  441SOL     OW 2221   7.007   1.434   2.901
  441SOL    HW1 2222   0.077   1.482   2.890
  441SOL    HW2 2223   0.005   1.348   2.951
  442SOL     OW 2224   1.291   4.952   6.639
  442SOL    HW1 2225   1.278   5.039   6.686
  442SOL    HW2 2226   1.367   4.903   6.682
  443SOL     OW 2227   0.322   5.436   5.794
  443SOL    HW1 2228   0.321   5.442   5.894
  443SOL    HW2 2229   0.391   5.498   5.758
  444SOL     OW 2230   5.639   3.065   6.710
  444SOL    HW1 2231   5.734   3.035   6.721
  444SOL    HW2 2232   5.583   3.029   6.784
  445SOL     OW 2233   2.047   3.959   3.367
  445SOL    HW1 2234   1.963   3.906   3.379
  445SOL    HW2 2235   2.106   3.914   3.300
  446SOL     OW 2236   1.652   5.146   4.517
  446SOL    HW1 2237   1.674   5.169   4.611
  446SOL    HW2 2238   1.691   5.057   4.494
  447SOL     OW 2239   0.919   6.006   0.508
  447SOL    HW1 2240   0.929   5.946   0.588
  447SOL    HW2 2241   0.829   6.048   0.509
  448SOL     OW 2242   4.520   0.597   5.235
  448SOL    HW1 2243   4.590   0.620   5.302
  448SOL    HW2 2244   4.489   0.680   5.189
  449SOL     OW 2245   6.002   0.508   4.775
  449SOL    HW1 2246   6.100   0.510   4.792
  449SOL    HW2 2247   5.959   0.439   4.833
  450SOL     OW 2248   6.995   5.950   2.826
  450SOL    HW1 2249   6.963   6.023   2.765
  450SOL    HW2 2250   0.030   5.990   2.902
  451SOL     OW 2251   5.847   3.651   3.973
  451SOL    HW1 2252   5.929   3.639   4.029
  451SOL    HW2 2253   5.871   3.648   3.877
  452SOL     OW 2254   6.322   4.706   6.027
  452SOL    HW1 2255   6.260   4.771   6.071
  452SOL    HW2 2256   6.291   4.613   6.044
  453SOL     OW 2257   3.793   1.400   6.360
  453SOL    HW1 2258   3.776   1.473   6.294
  453SOL    HW2 2259   3.890   1.376   6.358
  454SOL     OW 2260   0.528   5.999   6.889
  454SOL    HW1 2261   0.444   6.047   6.864
  454SOL    HW2 2262   0.505   5.913   6.935
  455SOL     OW 2263   5.433   2.011   4.976
  455SOL    HW1 2264   5.360   2.050   5.032
  455SOL    HW2 2265   5.404   1.922   4.940
  456SOL     OW 2266   4.386   5.949   1.116
  456SOL    HW1 2267   4.366   5.919   1.022
  456SOL    HW2 2268   4.324   5.904   1.180
  457SOL     OW 2269   0.438   4.336   1.611
  457SOL    HW1 2270   0.485   4.308   1.527
  457SOL    HW2 2271   0.505   4.361   1.680
  458SOL     OW 2272   1.016   6.901   5.645
  458SOL    HW1 2273   1.053   6.834   5.581
  458SOL    HW2 2274   1.083   6.919   5.718
  459SOL     OW 2275   1.747   0.910   3.571
  459SOL    HW1 2276   1.724   0.882   3.664
  459SOL    HW2 2277   1.765   0.829   3.515
  460SOL     OW 2278   6.355   2.356   3.123
  460SOL    HW1 2279   6.348   2.333   3.220
  460SOL    HW2 2280   6.269   2.333   3.077
  461SOL     OW 2281   5.125   4.587   6.044
  461SOL    HW1 2282   5.069   4.597   5.962
  461SOL    HW2 2283   5.117   4.493   6.078
  462SOL     OW 2284   3.520   2.747   0.338
  462SOL    HW1 2285   3.471   2.684   0.278
  462SOL    HW2 2286   3.480   2.839   0.330
  463SOL     OW 2287   6.339   6.254   1.240
  463SOL    HW1 2288   6.273   6.183   1.267
  463SOL    HW2 2289   6.379   6.230   1.152
  464SOL     OW 2290   1.832   2.224   5.882
  464SOL    HW1 2291   1.835   2.251   5.786
  464SOL    HW2 2292   1.807   2.302   5.939
  465SOL     OW 2293   0.830   3.319   5.932
  465SOL    HW1 2294   0.826   3.416   5.908
  465SOL    HW2 2295   0.745   3.275   5.905
  466SOL     OW 2296   1.407   0.631   3.348
  466SOL    HW1 2297   1.465   0.554   3.322
  466SOL    HW2 2298   1.315   0.616   3.314
  467SOL     OW 2299   1.655   1.254   5.003
  467SOL    HW1 2300   1.753   1.244   5.018
  467SOL    HW2 2301   1.616   1.315   5.072
  468SOL     OW 2302   3.185   3.746   3.597
  468SOL    HW1 2303   3.186   3.771   3.694
  468SOL    HW2 2304   3.100   3.778   3.555
  469SOL     OW 2305   3.562   0.403   6.708
  469SOL    HW1 2306   3.473   0.386   6.666
  469SOL    HW2 2307   3.609   0.476   6.657
  470SOL     OW 2308   4.320   6.855   3.015
  470SOL    HW1 2309   4.314   6.787   2.943
  470SOL    HW2 2310   4.410   6.851   3.058
  471SOL     OW 2311   2.729   2.332   3.811
  471SOL    HW1 2312   2.773   2.360   3.896
  471SOL    HW2 2313   2.798   2.320   3.740
  472SOL     OW 2314   3.889   4.316   5.235
  472SOL    HW1 2315   3.982   4.288   5.212
  472SOL    HW2 2316   3.823   4.259   5.185
  473SOL     OW 2317   0.257   4.732   4.078
  473SOL    HW1 2318   0.317   4.652   4.067
  473SOL    HW2 2319   0.309   4.808   4.117
  474SOL     OW 2320   5.210   5.252   5.243
  474SOL    HW1 2321   5.128   5.307   5.225
  474SOL    HW2 2322   5.260   5.239   5.157
  475SOL     OW 2323   2.616   0.025   0.357
  475SOL    HW1 2324   2.689   0.080   0.316
  475SOL    HW2 2325   2.586   0.067   0.442
  476SOL     OW 2326   6.858   5.768   3.019
  476SOL    HW1 2327   6.772   5.720   3.004
  476SOL    HW2 2328   6.873   5.833   2.944
  477SOL     OW 2329   1.464   4.803   3.999
  477SOL    HW1 2330   1.518   4.718   3.996
  477SOL    HW2 2331   1.406   4.809   3.918
  478SOL     OW 2332   1.317   4.991   3.621
  478SOL    HW1 2333   1.349   5.071   3.671
  478SOL    HW2 2334   1.315   4.912   3.682
  479SOL     OW 2335   4.407   1.788   2.160
  479SOL    HW1 2336   4.356   1.853   2.104
  479SOL    HW2 2337   4.352   1.761   2.239
  480SOL     OW 2338   1.657   6.409   3.832
  480SOL    HW1 2339   1.607   6.359   3.902
  480SOL    HW2 2340   1.734   6.458   3.874
  481SOL     OW 2341   2.071   0.325   1.034
  481SOL    HW1 2342   2.103   0.352   0.943
  481SOL    HW2 2343   2.142   0.345   1.102
  482SOL     OW 2344   5.407   6.012   0.713
  482SOL    HW1 2345   5.472   6.002   0.638
  482SOL    HW2 2346   5.431   5.948   0.786
  483SOL     OW 2347   5.292   1.666   3.210
  483SOL    HW1 2348   5.378   1.684   3.162
  483SOL    HW2 2349   5.310   1.614   3.293
  484SOL     OW 2350   6.351   1.634   3.644
  484SOL    HW1 2351   6.401   1.612   3.727
  484SOL    HW2 2352   6.264   1.678   3.667
  485SOL     OW 2353   2.768   6.312   0.487
  485SOL    HW1 2354   2.795   6.228   0.535
  485SOL    HW2 2355   2.848   6.355   0.447
  486SOL     OW 2356   6.703   0.478   5.653
  486SOL    HW1 2357   6.744   0.500   5.564
  486SOL    HW2 2358   6.655   0.390   5.647
  487SOL     OW 2359   6.620   2.197   6.920
  487SOL    HW1 2360   6.677   2.268   6.961
  487SOL    HW2 2361   6.524   2.214   6.942
  488SOL     OW 2362   1.095   4.722   3.315
  488SOL    HW1 2363   1.059   4.689   3.228
  488SOL    HW2 2364   1.033   4.789   3.354
  489SOL     OW 2365   3.709   5.071   6.164
  489SOL    HW1 2366   3.687   5.021   6.248
  489SOL    HW2 2367   3.671   5.163   6.169
  490SOL     OW 2368   4.844   0.985   4.368
  490SOL    HW1 2369   4.813   1.056   4.431
  490SOL    HW2 2370   4.765   0.945   4.321
  491SOL     OW 2371   0.425   3.194   3.595
  491SOL    HW1 2372   0.394   3.125   3.529
  491SOL    HW2 2373   0.354   3.264   3.605
  492SOL     OW 2374   1.686   1.468   4.645
  492SOL    HW1 2375   1.781   1.437   4.646
  492SOL    HW2 2376   1.678   1.553   4.696
  493SOL     OW 2377   5.726   3.919   4.800
  493SOL    HW1 2378   5.743   3.956   4.891
  493SOL    HW2 2379   5.690   3.992   4.741
  494SOL     OW 2380   5.746   0.747   6.511
  494SOL    HW1 2381   5.768   0.845   6.508
  494SOL    HW2 2382   5.814   0.700   6.568
  495SOL     OW 2383   5.865   4.645   7.012
  495SOL    HW1 2384   5.860   4.568   6.949
  495SOL    HW2 2385   5.911   4.722   6.968
  496SOL     OW 2386   6.140   3.562   2.917
  496SOL    HW1 2387   6.126   3.638   2.981
  496SOL    HW2 2388   6.070   3.566   2.845
  497SOL     OW 2389   4.250   0.027   4.424
  497SOL    HW1 2390   4.331   6.985   4.428
  497SOL    HW2 2391   4.228   0.047   4.329
  498SOL     OW 2392   1.534   3.416   1.330
  498SOL    HW1 2393   1.470   3.489   1.306
  498SOL    HW2 2394   1.615   3.423   1.272
  499SOL     OW 2395   3.661   1.707   5.245
  499SOL    HW1 2396   3.699   1.773   5.310
  499SOL    HW2 2397   3.590   1.751   5.190
  500SOL     OW 2398   1.076   4.734   2.822
  500SOL    HW1 2399   1.020   4.794   2.765
  500SOL    HW2 2400   1.020   4.696   2.895
  501SOL     OW 2401   0.800   5.048   6.262
  501SOL    HW1 2402   0.765   4.962   6.224
  501SOL    HW2 2403   0.750   5.070   6.345
  502SOL     OW 2404   2.517   4.747   5.996
  502SOL    HW1 2405   2.446   4.786   6.055
  502SOL    HW2 2406   2.523   4.800   5.912
  503SOL     OW 2407   6.850   5.171   4.581
  503SOL    HW1 2408   6.857   5.072   4.566
  503SOL    HW2 2409   6.766   5.192   4.631
  504SOL     OW 2410   1.414   5.119   4.390
  504SOL    HW1 2411   1.512   5.126   4.413
  504SOL    HW2 2412   1.381   5.207   4.357
  505SOL     OW 2413   3.556   6.370   4.726
  505SOL    HW1 2414   3.506   6.444   4.681
  505SOL    HW2 2415   3.505   6.338   4.806
  506SOL     OW 2416   2.143   3.344   0.554
  506SOL    HW1 2417   2.060   3.327   0.501
  506SOL    HW2 2418   2.118   3.382   0.643
  507SOL     OW 2419   4.019   1.958   4.116
  507SOL    HW1 2420   4.008   2.046   4.162
  507SOL    HW2 2421   3.984   1.885   4.175
  508SOL     OW 2422   5.764   5.353   4.493
  508SOL    HW1 2423   5.841   5.401   4.536
  508SOL    HW2 2424   5.791   5.323   4.402
  509SOL     OW 2425   4.864   3.213   1.775
  509SOL    HW1 2426   4.820   3.190   1.862
  509SOL    HW2 2427   4.794   3.219   1.703
  510SOL     OW 2428   0.842   3.752   4.348
  510SOL    HW1 2429   0.751   3.794   4.348
  510SOL    HW2 2430   0.841   3.670   4.290
  511SOL     OW 2431   0.336   6.155   1.441
  511SOL    HW1 2432   0.308   6.185   1.349
  511SOL    HW2 2433   0.428   6.189   1.460
  512SOL     OW 2434   1.918   4.025   5.785
  512SOL    HW1 2435   2.017   4.037   5.780
  512SOL    HW2 2436   1.872   4.111   5.766
  513SOL     OW 2437   0.539   5.285   4.370
  513SOL    HW1 2438   0.523   5.381   4.349
  513SOL    HW2 2439   0.496   5.262   4.458
  514SOL     OW 2440   5.307   1.781   3.641
  514SOL    HW1 2441   5.220   1.831   3.636
  514SOL    HW2 2442   5.361   1.801   3.559
  515SOL     OW 2443   3.046   6.060   0.207
  515SOL    HW1 2444   3.124   6.029   0.262
  515SOL    HW2 2445   2.983   5.983   0.193
  516SOL     OW 2446   1.722   4.655   3.524
  516SOL    HW1 2447   1.762   4.605   3.601
  516SOL    HW2 2448   1.632   4.617   3.503
  517SOL     OW 2449   4.631   0.456   5.793
  517SOL    HW1 2450   4.731   0.450   5.790
  517SOL    HW2 2451   4.592   0.369   5.764
  518SOL     OW 2452   1.958   1.136   6.944
  518SOL    HW1 2453   1.944   1.169   6.850
  518SOL    HW2 2454   1.943   1.211   7.008
  519SOL     OW 2455   1.089   6.931   0.167
  519SOL    HW1 2456   1.065   6.905   0.261
  519SOL    HW2 2457   1.076   0.013   0.156
  520SOL     OW 2458   6.046   4.325   4.947
  520SOL    HW1 2459   6.010   4.235   4.924
  520SOL    HW2 2460   5.996   4.395   4.896
  521SOL     OW 2461   6.627   0.780   0.132
  521SOL    HW1 2462   6.558   0.733   0.077
  521SOL    HW2 2463   6.627   0.878   0.110
  522SOL     OW 2464   3.296   4.407   5.473
  522SOL    HW1 2465   3.221   4.416   5.407
  522SOL    HW2 2466   3.261   4.366   5.558
  523SOL     OW 2467   6.489   6.865   3.446
  523SOL    HW1 2468   6.451   6.918   3.370
  523SOL    HW2 2469   6.517   6.775   3.412
  524SOL     OW 2470   4.111   0.683   4.694
  524SOL    HW1 2471   4.092   0.686   4.792
  524SOL    HW2 2472   4.139   0.591   4.667
  525SOL     OW 2473   3.657   2.971   6.871
  525SOL    HW1 2474   3.715   2.948   6.949
  525SOL    HW2 2475   3.608   3.056   6.890
  526SOL     OW 2476   4.063   7.011   4.632
  526SOL    HW1 2477   4.037   0.081   4.675
  526SOL    HW2 2478   4.126   0.013   4.556
  527SOL     OW 2479   0.907   1.324   0.328
  527SOL    HW1 2480   0.935   1.246   0.384
  527SOL    HW2 2481   0.931   1.409   0.375
  528SOL     OW 2482   1.463   1.811   6.471
  528SOL    HW1 2483   1.434   1.900   6.506
  528SOL    HW2 2484   1.507   1.758   6.544
  529SOL     OW 2485   0.120   5.046   4.669
  529SOL    HW1 2486   0.042   5.007   4.620
  529SOL    HW2 2487   0.087   5.110   4.738
  530SOL     OW 2488   0.004   3.105   5.555
  530SOL    HW1 2489   6.935   3.060   5.581
  530SOL    HW2 2490   0.031   3.076   5.464
  531SOL     OW 2491   0.221   6.838   0.157
  531SOL    HW1 2492   0.164   6.775   0.105
  531SOL    HW2 2493   0.279   6.890   0.094
  532SOL     OW 2494   2.203   1.298   5.576
  532SOL    HW1 2495   2.255   1.343   5.648
  532SOL    HW2 2496   2.107   1.290   5.604
  533SOL     OW 2497   4.751   0.621   5.446
  533SOL    HW1 2498   4.710   0.711   5.436
  533SOL    HW2 2499   4.846   0.624   5.415
  534SOL     OW 2500   2.864   6.012   3.569
  534SOL    HW1 2501   2.951   6.044   3.532
  534SOL    HW2 2502   2.868   5.913   3.583
  535SOL     OW 2503   6.533   4.120   2.192
  535SOL    HW1 2504   6.527   4.134   2.290
  535SOL    HW2 2505   6.597   4.046   2.172
  536SOL     OW 2506   1.876   6.159   0.996
  536SOL    HW1 2507   1.916   6.127   0.910
  536SOL    HW2 2508   1.948   6.168   1.065
  537SOL     OW 2509   2.445   0.174   3.063
  537SOL    HW1 2510   2.382   0.114   3.112
  537SOL    HW2 2511   2.512   0.118   3.014
  538SOL     OW 2512   1.343   5.325   4.243
  538SOL    HW1 2513   1.432   5.328   4.197
  538SOL    HW2 2514   1.327   5.411   4.290
  539SOL     OW 2515   1.578   5.239   1.495
  539SOL    HW1 2516   1.655   5.212   1.437
  539SOL    HW2 2517   1.525   5.310   1.448
  540SOL     OW 2518   2.987   2.595   0.959
  540SOL    HW1 2519   3.063   2.530   0.954
  540SOL    HW2 2520   2.900   2.546   0.949
  541SOL     OW 2521   4.899   6.089   5.271
  541SOL    HW1 2522   4.865   6.077   5.178
  541SOL    HW2 2523   4.942   6.179   5.279
  542SOL     OW 2524   6.062   0.238   6.190
  542SOL    HW1 2525   6.022   0.306   6.251
  542SOL    HW2 2526   6.091   0.283   6.105
  543SOL     OW 2527   6.492   0.136   2.333
  543SOL    HW1 2528   6.463   0.217   2.282
  543SOL    HW2 2529   6.542   0.075   2.272
  544SOL     OW 2530   0.542   5.492   0.501
  544SOL    HW1 2531   0.583   5.416   0.449
  544SOL    HW2 2532   0.596   5.508   0.583
  545SOL     OW 2533   2.786   1.860   4.061
  545SOL    HW1 2534   2.759   1.924   3.990
  545SOL    HW2 2535   2.842   1.908   4.129
  546SOL     OW 2536   1.354   2.365   6.487
  546SOL    HW1 2537   1.321   2.345   6.580
  546SOL    HW2 2538   1.426   2.300   6.463
  547SOL     OW 2539   3.253   1.631   0.662
  547SOL    HW1 2540   3.348   1.637   0.633
  547SOL    HW2 2541   3.249   1.603   0.758
  548SOL     OW 2542   3.212   3.584   6.008
  548SOL    HW1 2543   3.196   3.554   6.102
  548SOL    HW2 2544   3.274   3.520   5.962
  549SOL     OW 2545   0.222   4.483   1.188
  549SOL    HW1 2546   0.144   4.430   1.221
  549SOL    HW2 2547   0.217   4.489   1.088
  550SOL     OW 2548   6.752   4.209   0.939
  550SOL    HW1 2549   6.735   4.121   0.894
  550SOL    HW2 2550   6.847   4.214   0.968
  551SOL     OW 2551   0.462   0.111   0.351
  551SOL    HW1 2552   0.538   0.130   0.290
  551SOL    HW2 2553   0.492   0.119   0.446
  552SOL     OW 2554   4.402   5.378   0.449
  552SOL    HW1 2555   4.468   5.442   0.408
  552SOL    HW2 2556   4.373   5.412   0.538
  553SOL     OW 2557   1.034   2.181   1.115
  553SOL    HW1 2558   1.126   2.216   1.096
  553SOL    HW2 2559   0.985   2.246   1.173
  554SOL     OW 2560   4.504   5.279   4.804
  554SOL    HW1 2561   4.551   5.257   4.890
  554SOL    HW2 2562   4.540   5.365   4.767
  555SOL     OW 2563   1.873   4.286   5.781
  555SOL    HW1 2564   1.816   4.351   5.731
  555SOL    HW2 2565   1.832   4.269   5.871
  556SOL     OW 2566   6.325   3.881   2.937
  556SOL    HW1 2567   6.307   3.823   2.857
  556SOL    HW2 2568   6.248   3.873   3.001
  557SOL     OW 2569   6.347   5.243   5.738
  557SOL    HW1 2570   6.395   5.324   5.770
  557SOL    HW2 2571   6.255   5.268   5.707
  558SOL     OW 2572   3.944   3.781   5.632
  558SOL    HW1 2573   3.886   3.791   5.712
  558SOL    HW2 2574   3.888   3.755   5.553
  559SOL     OW 2575   5.026   4.990   6.609
  559SOL    HW1 2576   5.005   5.067   6.548
  559SOL    HW2 2577   5.045   4.909   6.553
  560SOL     OW 2578   4.791   6.621   0.710
  560SOL    HW1 2579   4.862   6.552   0.726
  560SOL    HW2 2580   4.830   6.712   0.726
  561SOL     OW 2581   4.595   6.851   2.764
  561SOL    HW1 2582   4.560   6.809   2.848
  561SOL    HW2 2583   4.646   6.934   2.787
  562SOL     OW 2584   5.679   0.257   1.531
  562SOL    HW1 2585   5.586   0.285   1.505
  562SOL    HW2 2586   5.696   0.164   1.500
  563SOL     OW 2587   2.857   0.320   4.929
  563SOL    HW1 2588   2.767   0.315   4.885
  563SOL    HW2 2589   2.927   0.337   4.860
  564SOL     OW 2590   0.503   1.180   5.205
  564SOL    HW1 2591   0.465   1.260   5.157
  564SOL    HW2 2592   0.574   1.211   5.269
  565SOL     OW 2593   4.101   3.304   5.786
  565SOL    HW1 2594   4.167   3.285   5.858
  565SOL    HW2 2595   4.132   3.381   5.731
  566SOL     OW 2596   6.677   4.589   2.415
  566SOL    HW1 2597   6.673   4.515   2.348
  566SOL    HW2 2598   6.591   4.591   2.468
  567SOL     OW 2599   4.083   3.527   6.336
  567SOL    HW1 2600   4.052   3.599   6.398
  567SOL    HW2 2601   4.070   3.438   6.379
  568SOL     OW 2602   2.559   1.009   6.470
  568SOL    HW1 2603   2.581   1.097   6.512
  568SOL    HW2 2604   2.478   1.020   6.412
  569SOL     OW 2605   1.847   4.192   6.618
  569SOL    HW1 2606   1.850   4.290   6.636
  569SOL    HW2 2607   1.861   4.142   6.703
  570SOL     OW 2608   0.415   5.144   6.664
  570SOL    HW1 2609   0.383   5.210   6.596
  570SOL    HW2 2610   0.338   5.091   6.698
  571SOL     OW 2611   4.639   6.012   2.541
  571SOL    HW1 2612   4.669   5.917   2.540
  571SOL    HW2 2613   4.702   6.067   2.596
  572SOL     OW 2614   1.892   4.161   3.913
  572SOL    HW1 2615   1.978   4.194   3.952
  572SOL    HW2 2616   1.818   4.223   3.938
  573SOL     OW 2617   4.149   2.356   6.949
  573SOL    HW1 2618   4.242   2.320   6.957
  573SOL    HW2 2619   4.100   2.343   0.018
  574SOL     OW 2620   2.968   2.216   3.420
  574SOL    HW1 2621   2.936   2.122   3.431
  574SOL    HW2 2622   3.032   2.220   3.343
  575SOL     OW 2623   4.589   2.482   5.574
  575SOL    HW1 2624   4.502   2.528   5.556
  575SOL    HW2 2625   4.572   2.394   5.618
  576SOL     OW 2626   0.385   3.701   3.581
  576SOL    HW1 2627   0.326   3.759   3.525
  576SOL    HW2 2628   0.366   3.605   3.561
  577SOL     OW 2629   3.693   1.835   3.396
  577SOL    HW1 2630   3.722   1.791   3.482
  577SOL    HW2 2631   3.684   1.934   3.411
  578SOL     OW 2632   6.577   3.110   4.730
  578SOL    HW1 2633   6.518   3.080   4.655
  578SOL    HW2 2634   6.588   3.034   4.794
  579SOL     OW 2635   4.398   3.430   0.908
  579SOL    HW1 2636   4.452   3.346   0.919
  579SOL    HW2 2637   4.309   3.406   0.869
  580SOL     OW 2638   0.034   6.967   6.942
  580SOL    HW1 2639   7.001   6.898   6.888
  580SOL    HW2 2640   0.021   0.040   6.899
  581SOL     OW 2641   3.778   3.113   3.398
  581SOL    HW1 2642   3.692   3.162   3.382
  581SOL    HW2 2643   3.819   3.088   3.310
  582SOL     OW 2644   0.135   3.863   0.424
  582SOL    HW1 2645   0.137   3.775   0.472
  582SOL    HW2 2646   0.093   3.932   0.483
  583SOL     OW 2647   3.002   6.786   6.935
  583SOL    HW1 2648   3.073   6.729   6.894
  583SOL    HW2 2649   2.913   6.763   6.897
  584SOL     OW 2650   1.799   5.184   4.751
  584SOL    HW1 2651   1.878   5.133   4.718
  584SOL    HW2 2652   1.829   5.271   4.791
  585SOL     OW 2653   5.425   2.002   5.347
  585SOL    HW1 2654   5.459   2.085   5.392
  585SOL    HW2 2655   5.501   1.954   5.303
  586SOL     OW 2656   3.550   5.221   1.053
  586SOL    HW1 2657   3.604   5.173   1.123
  586SOL    HW2 2658   3.554   5.170   0.968
  587SOL     OW 2659   2.517   3.029   6.456
  587SOL    HW1 2660   2.427   3.063   6.429
  587SOL    HW2 2661   2.585   3.102   6.444
  588SOL     OW 2662   2.085   0.305   1.818
  588SOL    HW1 2663   2.021   0.278   1.746
  588SOL    HW2 2664   2.136   0.225   1.849
  589SOL     OW 2665   4.718   5.236   2.164
  589SOL    HW1 2666   4.619   5.237   2.177
  589SOL    HW2 2667   4.742   5.169   2.094
  590SOL     OW 2668   0.587   4.287   1.858
  590SOL    HW1 2669   0.679   4.324   1.853
  590SOL    HW2 2670   0.532   4.340   1.923
  591SOL     OW 2671   2.364   0.383   2.916
  591SOL    HW1 2672   2.406   0.362   2.827
  591SOL    HW2 2673   2.402   0.322   2.986
  592SOL     OW 2674   5.031   0.103   6.640
  592SOL    HW1 2675   4.989   0.046   6.569
  592SOL    HW2 2676   4.993   0.195   6.636
  593SOL     OW 2677   0.169   0.647   4.478
  593SOL    HW1 2678   0.259   0.611   4.503
  593SOL    HW2 2679   0.121   0.677   4.560
  594SOL     OW 2680   5.278   2.254   1.116
  594SOL    HW1 2681   5.240   2.185   1.178
  594SOL    HW2 2682   5.216   2.333   1.111
  595SOL     OW 2683   2.854   6.783   3.772
  595SOL    HW1 2684   2.834   6.749   3.864
  595SOL    HW2 2685   2.950   6.765   3.750
  596SOL     OW 2686   0.703   4.722   2.807
  596SOL    HW1 2687   0.728   4.736   2.903
  596SOL    HW2 2688   0.744   4.637   2.774
  597SOL     OW 2689   4.597   2.237   5.355
  597SOL    HW1 2690   4.540   2.304   5.306
  597SOL    HW2 2691   4.587   2.148   5.311
  598SOL     OW 2692   3.747   3.484   1.661
  598SOL    HW1 2693   3.763   3.411   1.728
  598SOL    HW2 2694   3.718   3.567   1.708
  599SOL     OW 2695   5.861   5.447   3.503
  599SOL    HW1 2696   5.784   5.410   3.555
  599SOL    HW2 2697   5.943   5.447   3.561
  600SOL     OW 2698   3.044   1.791   0.559
  600SOL    HW1 2699   3.106   1.716   0.580
  600SOL    HW2 2700   3.080   1.844   0.483
  601SOL     OW 2701   1.674   4.844   1.535
  601SOL    HW1 2702   1.594   4.900   1.513
  601SOL    HW2 2703   1.645   4.764   1.588
  602SOL     OW 2704   0.428   1.122   2.653
  602SOL    HW1 2705   0.354   1.069   2.612
  602SOL    HW2 2706   0.392   1.182   2.724
  603SOL     OW 2707   4.318   1.763   3.122
  603SOL    HW1 2708   4.282   1.687   3.175
  603SOL    HW2 2709   4.315   1.740   3.025
  604SOL     OW 2710   1.821   2.952   6.082
  604SOL    HW1 2711   1.842   3.029   6.022
  604SOL    HW2 2712   1.831   2.980   6.178
  605SOL     OW 2713   5.065   0.145   4.451
  605SOL    HW1 2714   5.073   0.216   4.522
  605SOL    HW2 2715   5.093   0.183   4.363
  606SOL     OW 2716   2.301   6.807   2.195
  606SOL    HW1 2717   2.302   6.796   2.096
  606SOL    HW2 2718   2.216   6.851   2.223
  607SOL     OW 2719   3.707   6.834   4.438
  607SOL    HW1 2720   3.805   6.821   4.449
  607SOL    HW2 2721   3.660   6.815   4.525
  608SOL     OW 2722   6.646   2.878   1.180
  608SOL    HW1 2723   6.626   2.923   1.093
  608SOL    HW2 2724   6.575   2.810   1.199
  609SOL     OW 2725   3.377   4.095   5.025
  609SOL    HW1 2726   3.292   4.094   5.077
  609SOL    HW2 2727   3.359   4.129   4.933
  610SOL     OW 2728   6.876   2.119   5.169
  610SOL    HW1 2729   6.949   2.059   5.202
  610SOL    HW2 2730   6.889   2.138   5.072
  611SOL     OW 2731   6.703   7.011   0.423
  611SOL    HW1 2732   6.662   0.020   0.335
  611SOL    HW2 2733   6.802   7.016   0.416
  612SOL     OW 2734   1.484   4.459   6.381
  612SOL    HW1 2735   1.534   4.374   6.402
  612SOL    HW2 2736   1.511   4.530   6.445
  613SOL     OW 2737   3.769   1.475   6.721
  613SOL    HW1 2738   3.779   1.464   6.820
  613SOL    HW2 2739   3.738   1.388   6.681
  614SOL     OW 2740   5.222   2.635   0.638
  614SOL    HW1 2741   5.250   2.551   0.590
  614SOL    HW2 2742   5.197   2.705   0.571
  615SOL     OW 2743   6.096   5.488   0.687
  615SOL    HW1 2744   6.162   5.562   0.702
  615SOL    HW2 2745   6.145   5.404   0.665
  616SOL     OW 2746   5.003   1.366   4.678
  616SOL    HW1 2747   4.996   1.409   4.767
  616SOL    HW2 2748   5.070   1.415   4.622
  617SOL     OW 2749   6.363   0.360   5.044
  617SOL    HW1 2750   6.430   0.288   5.022
  617SOL    HW2 2751   6.317   0.337   5.129
  618SOL     OW 2752   5.311   4.518   1.029
  618SOL    HW1 2753   5.354   4.436   1.066
  618SOL    HW2 2754   5.231   4.493   0.975
  619SOL     OW 2755   1.349   0.098   0.092
  619SOL    HW1 2756   1.431   0.112   0.147
  619SOL    HW2 2757   1.312   0.007   0.109
  620SOL     OW 2758   4.795   1.844   1.584
  620SOL    HW1 2759   4.880   1.792   1.567
  620SOL    HW2 2760   4.739   1.843   1.501
  621SOL     OW 2761   1.855   6.544   6.496
  621SOL    HW1 2762   1.801   6.533   6.412
  621SOL    HW2 2763   1.863   6.456   6.542
  622SOL     OW 2764   0.694   2.906   5.641
  622SOL    HW1 2765   0.688   2.968   5.563
  622SOL    HW2 2766   0.790   2.894   5.666
  623SOL     OW 2767   6.392   1.456   2.745
  623SOL    HW1 2768   6.447   1.432   2.826
  623SOL    HW2 2769   6.400   1.554   2.727
  624SOL     OW 2770   5.865   0.516   5.892
  624SOL    HW1 2771   5.794   0.456   5.854
  624SOL    HW2 2772   5.835   0.551   5.981
  625SOL     OW 2773   3.231   1.121   1.308
  625SOL    HW1 2774   3.197   1.078   1.392
  625SOL    HW2 2775   3.278   1.206   1.331
  626SOL     OW 2776   6.839   0.049   3.853
  626SOL    HW1 2777   6.938   0.057   3.840
  626SOL    HW2 2778   6.799   0.140   3.860
  627SOL     OW 2779   6.430   3.976   5.880
  627SOL    HW1 2780   6.484   4.053   5.913
  627SOL    HW2 2781   6.431   3.903   5.949
  628SOL     OW 2782   3.651   4.447   6.955
  628SOL    HW1 2783   3.610   4.370   6.907
  628SOL    HW2 2784   3.661   4.524   6.891
  629SOL     OW 2785   2.245   6.839   6.933
  629SOL    HW1 2786   2.165   6.838   6.873
  629SOL    HW2 2787   2.252   6.928   6.978
  630SOL     OW 2788   6.531   2.199   0.538
  630SOL    HW1 2789   6.529   2.254   0.621
  630SOL    HW2 2790   6.570   2.253   0.463
  631SOL     OW 2791   1.925   3.646   2.113
  631SOL    HW1 2792   1.833   3.670   2.145
  631SOL    HW2 2793   1.970   3.728   2.076
  632SOL     OW 2794   3.871   4.934   0.935
  632SOL    HW1 2795   3.874   4.886   1.022
  632SOL    HW2 2796   3.964   4.961   0.908
  633SOL     OW 2797   1.530   6.270   6.872
  633SOL    HW1 2798   1.541   6.265   6.972
  633SOL    HW2 2799   1.455   6.332   6.850
  634SOL     OW 2800   2.013   3.558   5.404
  634SOL    HW1 2801   2.112   3.549   5.399
  634SOL    HW2 2802   1.976   3.489   5.466
  635SOL     OW 2803   0.317   5.784   6.553
  635SOL    HW1 2804   0.247   5.852   6.536
  635SOL    HW2 2805   0.405   5.829   6.566
  636SOL     OW 2806   1.507   2.003   4.845
  636SOL    HW1 2807   1.572   2.064   4.890
  636SOL    HW2 2808   1.509   2.019   4.746
  637SOL     OW 2809   6.234   1.433   1.695
  637SOL    HW1 2810   6.311   1.379   1.662
  637SOL    HW2 2811   6.179   1.379   1.758
  638SOL     OW 2812   0.406   3.696   5.680
  638SOL    HW1 2813   0.488   3.643   5.657
  638SOL    HW2 2814   0.376   3.747   5.600
  639SOL     OW 2815   5.889   3.591   0.954
  639SOL    HW1 2816   5.863   3.521   1.021
  639SOL    HW2 2817   5.810   3.615   0.898
  640SOL     OW 2818   6.313   3.733   2.341
  640SOL    HW1 2819   6.224   3.688   2.353
  640SOL    HW2 2820   6.322   3.808   2.407
  641SOL     OW 2821   2.360   5.992   4.328
  641SOL    HW1 2822   2.367   5.908   4.274
  641SOL    HW2 2823   2.452   6.023   4.353
  642SOL     OW 2824   0.944   5.462   4.323
  642SOL    HW1 2825   1.013   5.394   4.346
  642SOL    HW2 2826   0.867   5.455   4.387
  643SOL     OW 2827   3.932   4.784   0.157
  643SOL    HW1 2828   3.835   4.762   0.161
  643SOL    HW2 2829   3.985   4.699   0.152
  644SOL     OW 2830   5.398   0.683   4.679
  644SOL    HW1 2831   5.417   0.751   4.749
  644SOL    HW2 2832   5.431   0.594   4.708
  645SOL     OW 2833   4.007   6.114   2.412
  645SOL    HW1 2834   3.944   6.184   2.377
  645SOL    HW2 2835   3.966   6.068   2.490
  646SOL     OW 2836   3.286   0.949   5.451
  646SOL    HW1 2837   3.257   1.033   5.406
  646SOL    HW2 2838   3.227   0.874   5.423
  647SOL     OW 2839   1.837   2.312   6.816
  647SOL    HW1 2840   1.910   2.380   6.823
  647SOL    HW2 2841   1.780   2.317   6.898
  648SOL     OW 2842   5.114   2.489   3.877
  648SOL    HW1 2843   5.199   2.542   3.879
  648SOL    HW2 2844   5.065   2.499   3.964
  649SOL     OW 2845   3.914   6.262   1.040
  649SOL    HW1 2846   3.978   6.227   1.109
  649SOL    HW2 2847   3.962   6.272   0.953
  650SOL     OW 2848   2.192   3.517   1.682
  650SOL    HW1 2849   2.215   3.605   1.642
  650SOL    HW2 2850   2.266   3.487   1.742
  651SOL     OW 2851   0.124   1.670   3.396
  651SOL    HW1 2852   0.191   1.680   3.470
  651SOL    HW2 2853   0.150   1.593   3.337
  652SOL     OW 2854   3.996   6.320   0.562
  652SOL    HW1 2855   4.069   6.278   0.509
  652SOL    HW2 2856   3.908   6.281   0.535
  653SOL     OW 2857   1.577   0.503   2.989
  653SOL    HW1 2858   1.584   0.415   3.036
  653SOL    HW2 2859   1.646   0.566   3.026
  654SOL     OW 2860   1.531   0.393   5.980
  654SOL    HW1 2861   1.472   0.448   6.039
  654SOL    HW2 2862   1.475   0.330   5.926
  655SOL     OW 2863   1.172   4.054   2.078
  655SOL    HW1 2864   1.183   3.968   2.028
  655SOL    HW2 2865   1.075   4.071   2.093
  656SOL     OW 2866   2.355   0.527   6.836
  656SOL    HW1 2867   2.257   0.514   6.821
  656SOL    HW2 2868   2.376   0.624   6.847
  657SOL     OW 2869   3.222   3.261   4.483
  657SOL    HW1 2870   3.262   3.328   4.546
  657SOL    HW2 2871   3.136   3.296   4.446
  658SOL     OW 2872   2.600   0.145   5.326
  658SOL    HW1 2873   2.697   0.159   5.346
  658SOL    HW2 2874   2.579   0.047   5.333
  659SOL     OW 2875   1.581   4.589   6.590
  659SOL    HW1 2876   1.595   4.687   6.575
  659SOL    HW2 2877   1.574   4.571   6.688
  660SOL     OW 2878   5.771   3.307   2.378
  660SOL    HW1 2879   5.731   3.369   2.446
  660SOL    HW2 2880   5.751   3.213   2.402
  661SOL     OW 2881   4.605   5.505   4.135
  661SOL    HW1 2882   4.509   5.534   4.140
  661SOL    HW2 2883   4.614   5.412   4.169
  662SOL     OW 2884   0.014   3.083   0.165
  662SOL    HW1 2885   0.109   3.052   0.179
  662SOL    HW2 2886   0.015   3.178   0.133
  663SOL     OW 2887   1.725   4.259   6.016
  663SOL    HW1 2888   1.648   4.220   6.066
  663SOL    HW2 2889   1.715   4.358   6.011
  664SOL     OW 2890   2.195   0.032   5.747
  664SOL    HW1 2891   2.289   0.025   5.713
  664SOL    HW2 2892   2.187   6.996   5.832
  665SOL     OW 2893   2.398   4.370   3.718
  665SOL    HW1 2894   2.459   4.415   3.653
  665SOL    HW2 2895   2.314   4.424   3.729
  666SOL     OW 2896   3.048   0.327   0.161
  666SOL    HW1 2897   2.958   0.290   0.141
  666SOL    HW2 2898   3.042   0.391   0.237
  667SOL     OW 2899   2.143   3.015   2.308
  667SOL    HW1 2900   2.113   2.920   2.308
  667SOL    HW2 2901   2.121   3.057   2.396
  668SOL     OW 2902   5.135   6.942   0.419
  668SOL    HW1 2903   5.113   6.844   0.416
  668SOL    HW2 2904   5.160   6.968   0.512
  669SOL     OW 2905   6.171   5.532   2.391
  669SOL    HW1 2906   6.251   5.543   2.332
  669SOL    HW2 2907   6.117   5.617   2.390
  670SOL     OW 2908   3.330   3.951   3.457
  670SOL    HW1 2909   3.276   3.889   3.514
  670SOL    HW2 2910   3.358   4.031   3.511
  671SOL     OW 2911   1.468   0.389   6.868
  671SOL    HW1 2912   1.383   0.394   6.920
  671SOL    HW2 2913   1.533   0.456   6.904
  672SOL     OW 2914   0.362   2.329   2.593
  672SOL    HW1 2915   0.376   2.310   2.690
  672SOL    HW2 2916   0.438   2.290   2.540
  673SOL     OW 2917   4.782   0.771   6.370
  673SOL    HW1 2918   4.767   0.673   6.361
  673SOL    HW2 2919   4.853   0.800   6.306
  674SOL     OW 2920   6.549   2.693   4.305
  674SOL    HW1 2921   6.583   2.765   4.245
  674SOL    HW2 2922   6.562   2.720   4.400
  675SOL     OW 2923   5.842   6.998   3.694
  675SOL    HW1 2924   5.883   6.946   3.619
  675SOL    HW2 2925   5.785   6.937   3.749
  676SOL     OW 2926   3.398   4.781   5.248
  676SOL    HW1 2927   3.298   4.773   5.246
  676SOL    HW2 2928   3.435   4.714   5.313
  677SOL     OW 2929   4.993   6.445   0.669
  677SOL    HW1 2930   5.091   6.467   0.670
  677SOL    HW2 2931   4.981   6.347   0.658
  678SOL     OW 2932   2.375   0.399   6.434
  678SOL    HW1 2933   2.376   0.432   6.340
  678SOL    HW2 2934   2.431   0.317   6.441
  679SOL     OW 2935   0.231   0.312   2.569
  679SOL    HW1 2936   0.273   0.292   2.481
  679SOL    HW2 2937   0.136   0.340   2.556
  680SOL     OW 2938   6.146   3.209   3.759
  680SOL    HW1 2939   6.200   3.124   3.760
  680SOL    HW2 2940   6.134   3.240   3.665
  681SOL     OW 2941   0.953   5.412   3.428
  681SOL    HW1 2942   0.894   5.372   3.498
  681SOL    HW2 2943   0.898   5.439   3.349
  682SOL     OW 2944   0.582   6.834   5.592
  682SOL    HW1 2945   0.648   6.828   5.667
  682SOL    HW2 2946   0.562   6.743   5.557
  683SOL     OW 2947   5.080   1.460   1.232
  683SOL    HW1 2948   5.106   1.473   1.327
  683SOL    HW2 2949   4.985   1.430   1.227
  684SOL     OW 2950   6.720   5.432   6.275
  684SOL    HW1 2951   6.703   5.347   6.324
  684SOL    HW2 2952   6.692   5.510   6.332
  685SOL     OW 2953   6.086   0.098   4.849
  685SOL    HW1 2954   6.028   0.102   4.930
  685SOL    HW2 2955   6.160   0.164   4.857
  686SOL     OW 2956   5.666   4.337   0.924
  686SOL    HW1 2957   5.681   4.319   1.021
  686SOL    HW2 2958   5.676   4.435   0.906
  687SOL     OW 2959   5.309   2.907   6.664
  687SOL    HW1 2960   5.357   2.941   6.584
  687SOL    HW2 2961   5.289   2.983   6.726
  688SOL     OW 2962   0.067   2.737   5.039
  688SOL    HW1 2963   0.153   2.766   5.080
  688SOL    HW2 2964   7.008   2.752   5.104
  689SOL     OW 2965   5.413   4.965   4.269
  689SOL    HW1 2966   5.327   4.914   4.272
  689SOL    HW2 2967   5.423   5.018   4.353
  690SOL     OW 2968   7.013   2.265   4.162
  690SOL    HW1 2969   0.021   2.171   4.139
  690SOL    HW2 2970   0.011   2.324   4.082
  691SOL     OW 2971   1.401   2.854   6.601
  691SOL    HW1 2972   1.386   2.792   6.524
  691SOL    HW2 2973   1.474   2.918   6.578
  692SOL     OW 2974   2.439   0.444   4.020
  692SOL    HW1 2975   2.528   0.466   3.980
  692SOL    HW2 2976   2.367   0.492   3.970
  693SOL     OW 2977   5.909   1.089   3.240
  693SOL    HW1 2978   5.870   1.018   3.298
  693SOL    HW2 2979   5.914   1.175   3.291
  694SOL     OW 2980   1.309   0.330   2.467
  694SOL    HW1 2981   1.324   0.242   2.512
  694SOL    HW2 2982   1.391   0.386   2.474
  695SOL     OW 2983   4.340   5.867   6.554
  695SOL    HW1 2984   4.269   5.928   6.518
  695SOL    HW2 2985   4.299   5.779   6.578
  696SOL     OW 2986   5.524   5.710   2.496
  696SOL    HW1 2987   5.560   5.671   2.411
  696SOL    HW2 2988   5.567   5.799   2.513
  697SOL     OW 2989   1.334   4.365   3.239
  697SOL    HW1 2990   1.387   4.449   3.253
  697SOL    HW2 2991   1.380   4.307   3.172
  698SOL     OW 2992   4.720   6.643   4.070
  698SOL    HW1 2993   4.802   6.684   4.110
  698SOL    HW2 2994   4.679   6.580   4.135
  699SOL     OW 2995   1.993   5.904   6.213
  699SOL    HW1 2996   1.950   5.838   6.274
  699SOL    HW2 2997   1.924   5.941   6.150
  700SOL     OW 2998   1.664   2.205   4.957
  700SOL    HW1 2999   1.710   2.291   4.935
  700SOL    HW2 3000   1.630   2.209   5.052
  701SOL     OW 3001   0.624   5.107   5.995
  701SOL    HW1 3002   0.647   5.029   6.053
  701SOL    HW2 3003   0.685   5.110   5.916
  702SOL     OW 3004   5.617   6.137   5.770
  702SOL    HW1 3005   5.606   6.095   5.680
  702SOL    HW2 3006   5.709   6.175   5.779
  703SOL     OW 3007   6.147   3.653   5.996
  703SOL    HW1 3008   6.176   3.595   5.920
  703SOL    HW2 3009   6.092   3.600   6.060
  704SOL     OW 3010   2.201   0.084   1.964
  704SOL    HW1 3011   2.280   0.138   1.993
  704SOL    HW2 3012   2.228   7.006   1.950
  705SOL     OW 3013   1.262   1.816   4.597
  705SOL    HW1 3014   1.330   1.888   4.580
  705SOL    HW2 3015   1.170   1.854   4.587
  706SOL     OW 3016   5.772   3.377   3.345
  706SOL    HW1 3017   5.706   3.377   3.270
  706SOL    HW2 3018   5.865   3.386   3.308
  707SOL     OW 3019   4.837   3.242   2.917
  707SOL    HW1 3020   4.878   3.235   2.826
  707SOL    HW2 3021   4.795   3.332   2.928
  708SOL     OW 3022   5.191   1.029   1.975
  708SOL    HW1 3023   5.101   0.987   1.989
  708SOL    HW2 3024   5.191   1.080   1.888
  709SOL     OW 3025   1.652   3.675   6.500
  709SOL    HW1 3026   1.627   3.587   6.542
  709SOL    HW2 3027   1.589   3.746   6.532
  710SOL     OW 3028   3.243   3.355   4.009
  710SOL    HW1 3029   3.223   3.426   4.076
  710SOL    HW2 3030   3.158   3.311   3.980
  711SOL     OW 3031   1.389   1.097   3.845
  711SOL    HW1 3032   1.307   1.062   3.799
  711SOL    HW2 3033   1.408   1.190   3.814
  712SOL     OW 3034   0.044   5.112   3.785
  712SOL    HW1 3035   0.076   5.189   3.841
  712SOL    HW2 3036   0.116   5.043   3.778
  713SOL     OW 3037   2.246   3.834   5.661
  713SOL    HW1 3038   2.246   3.815   5.563
  713SOL    HW2 3039   2.338   3.819   5.698
  714SOL     OW 3040   4.993   4.857   4.746
  714SOL    HW1 3041   5.011   4.784   4.680
  714SOL    HW2 3042   4.895   4.875   4.750
  715SOL     OW 3043   6.564   0.437   5.930
  715SOL    HW1 3044   6.571   0.483   5.842
  715SOL    HW2 3045   6.622   0.356   5.930
  716SOL     OW 3046   6.533   5.624   6.873
  716SOL    HW1 3047   6.507   5.536   6.913
  716SOL    HW2 3048   6.450   5.676   6.851
  717SOL     OW 3049   5.947   2.739   5.826
  717SOL    HW1 3050   6.012   2.722   5.901
  717SOL    HW2 3051   5.867   2.682   5.839
  718SOL     OW 3052   3.597   3.479   0.563
  718SOL    HW1 3053   3.635   3.401   0.614
  718SOL    HW2 3054   3.509   3.503   0.602
  719SOL     OW 3055   6.760   4.352   0.138
  719SOL    HW1 3056   6.716   4.329   0.225
  719SOL    HW2 3057   6.843   4.404   0.156
  720SOL     OW 3058   3.959   0.759   5.754
  720SOL    HW1 3059   3.991   0.669   5.725
  720SOL    HW2 3060   4.012   0.830   5.707
  721SOL     OW 3061   1.920   0.458   4.914
  721SOL    HW1 3062   1.996   0.460   4.849
  721SOL    HW2 3063   1.851   0.525   4.888
  722SOL     OW 3064   4.604   1.335   5.204
  722SOL    HW1 3065   4.589   1.301   5.111
  722SOL    HW2 3066   4.674   1.406   5.204
  723SOL     OW 3067   0.230   3.963   1.813
  723SOL    HW1 3068   0.161   3.895   1.837
  723SOL    HW2 3069   0.303   3.920   1.760
  724SOL     OW 3070   0.321   2.505   4.430
  724SOL    HW1 3071   0.374   2.422   4.449
  724SOL    HW2 3072   0.342   2.574   4.500
  725SOL     OW 3073   2.414   5.279   2.061
  725SOL    HW1 3074   2.451   5.365   2.023
  725SOL    HW2 3075   2.324   5.262   2.023
  726SOL     OW 3076   5.357   6.168   6.966
  726SOL    HW1 3077   5.387   6.260   6.991
  726SOL    HW2 3078   5.426   6.101   6.996
  727SOL     OW 3079   1.328   4.741   4.649
  727SOL    HW1 3080   1.365   4.709   4.562
  727SOL    HW2 3081   1.305   4.838   4.641
  728SOL     OW 3082   6.600   2.038   6.295
  728SOL    HW1 3083   6.681   2.052   6.238
  728SOL    HW2 3084   6.532   1.984   6.245
  729SOL     OW 3085   4.090   1.384   0.401
  729SOL    HW1 3086   4.149   1.464   0.392
  729SOL    HW2 3087   4.020   1.402   0.469
  730SOL     OW 3088   5.979   1.221   3.772
  730SOL    HW1 3089   6.034   1.261   3.846
  730SOL    HW2 3090   5.916   1.154   3.810
  731SOL     OW 3091   0.651   1.937   3.417
  731SOL    HW1 3092   0.684   1.986   3.336
  731SOL    HW2 3093   0.640   2.001   3.493
  732SOL     OW 3094   0.091   4.316   3.942
  732SOL    HW1 3095   0.131   4.390   3.888
  732SOL    HW2 3096   0.046   4.251   3.880
  733SOL     OW 3097   5.209   4.528   4.868
  733SOL    HW1 3098   5.286   4.586   4.843
  733SOL    HW2 3099   5.240   4.434   4.881
  734SOL     OW 3100   0.956   0.104   6.951
  734SOL    HW1 3101   0.887   0.078   6.883
  734SOL    HW2 3102   1.045   0.066   6.923
  735SOL     OW 3103   3.320   4.472   0.155
  735SOL    HW1 3104   3.295   4.377   0.174
  735SOL    HW2 3105   3.415   4.487   0.182
  736SOL     OW 3106   5.831   1.446   2.284
  736SOL    HW1 3107   5.882   1.385   2.345
  736SOL    HW2 3108   5.738   1.457   2.318
  737SOL     OW 3109   5.220   3.550   0.234
  737SOL    HW1 3110   5.294   3.580   0.294
  737SOL    HW2 3111   5.156   3.626   0.220
  738SOL     OW 3112   6.473   3.603   4.203
  738SOL    HW1 3113   6.427   3.634   4.286
  738SOL    HW2 3114   6.572   3.606   4.217
  739SOL     OW 3115   4.581   5.946   6.422
  739SOL    HW1 3116   4.507   5.953   6.488
  739SOL    HW2 3117   4.661   5.904   6.466
  740SOL     OW 3118   5.646   6.938   0.483
  740SOL    HW1 3119   5.623   7.009   0.417
  740SOL    HW2 3120   5.741   6.948   0.512
  741SOL     OW 3121   1.616   0.409   3.383
  741SOL    HW1 3122   1.665   0.354   3.451
  741SOL    HW2 3123   1.623   0.365   3.293
  742SOL     OW 3124   1.235   5.915   2.347
  742SOL    HW1 3125   1.172   5.912   2.269
  742SOL    HW2 3126   1.246   5.823   2.385
  743SOL     OW 3127   1.559   3.083   2.704
  743SOL    HW1 3128   1.602   3.000   2.737
  743SOL    HW2 3129   1.627   3.140   2.657
  744SOL     OW 3130   6.767   5.247   0.796
  744SOL    HW1 3131   6.794   5.165   0.846
  744SOL    HW2 3132   6.685   5.228   0.742
  745SOL     OW 3133   1.268   6.590   1.804
  745SOL    HW1 3134   1.362   6.574   1.835
  745SOL    HW2 3135   1.205   6.534   1.857
  746SOL     OW 3136   3.075   0.105   3.156
  746SOL    HW1 3137   3.154   0.096   3.217
  746SOL    HW2 3138   3.034   0.015   3.141
  747SOL     OW 3139   0.450   3.887   0.500
  747SOL    HW1 3140   0.439   3.850   0.592
  747SOL    HW2 3141   0.374   3.858   0.443
  748SOL     OW 3142   2.946   3.577   3.429
  748SOL    HW1 3143   2.903   3.666   3.438
  748SOL    HW2 3144   2.970   3.560   3.333
  749SOL     OW 3145   5.063   3.135   5.691
  749SOL    HW1 3146   4.977   3.123   5.740
  749SOL    HW2 3147   5.082   3.053   5.637
  750SOL     OW 3148   2.864   3.249   1.871
  750SOL    HW1 3149   2.856   3.299   1.957
  750SOL    HW2 3150   2.810   3.295   1.800
  751SOL     OW 3151   5.670   1.160   0.354
  751SOL    HW1 3152   5.600   1.100   0.393
  751SOL    HW2 3153   5.691   1.131   0.261
  752SOL     OW 3154   4.226   0.498   2.222
  752SOL    HW1 3155   4.292   0.534   2.288
  752SOL    HW2 3156   4.133   0.521   2.252
  753SOL     OW 3157   3.336   1.730   1.985
  753SOL    HW1 3158   3.257   1.706   2.040
  753SOL    HW2 3159   3.326   1.693   1.892
  754SOL     OW 3160   5.209   5.315   6.693
  754SOL    HW1 3161   5.248   5.342   6.781
  754SOL    HW2 3162   5.120   5.361   6.681
  755SOL     OW 3163   5.754   4.958   2.274
  755SOL    HW1 3164   5.656   4.976   2.280
  755SOL    HW2 3165   5.771   4.861   2.291
  756SOL     OW 3166   2.499   6.924   4.478
  756SOL    HW1 3167   2.515   6.840   4.426
  756SOL    HW2 3168   2.534   7.002   4.427
  757SOL     OW 3169   6.805   0.810   4.160
  757SOL    HW1 3170   6.861   0.882   4.201
  757SOL    HW2 3171   6.731   0.852   4.107
  758SOL     OW 3172   4.056   1.995   0.300
  758SOL    HW1 3173   4.112   1.946   0.367
  758SOL    HW2 3174   4.084   1.971   0.208
  759SOL     OW 3175   2.382   0.411   1.190
  759SOL    HW1 3176   2.399   0.313   1.183
  759SOL    HW2 3177   2.441   0.460   1.125
  760SOL     OW 3178   4.711   1.566   5.869
  760SOL    HW1 3179   4.754   1.520   5.947
  760SOL    HW2 3180   4.635   1.511   5.835
  761SOL     OW 3181   5.195   0.535   6.517
  761SOL    HW1 3182   5.135   0.600   6.471
  761SOL    HW2 3183   5.202   0.451   6.463
  762SOL     OW 3184   2.414   4.468   4.758
  762SOL    HW1 3185   2.497   4.512   4.793
  762SOL    HW2 3186   2.340   4.479   4.825
  763SOL     OW 3187   0.607   4.432   1.128
  763SOL    HW1 3188   0.670   4.491   1.078
  763SOL    HW2 3189   0.557   4.485   1.196
  764SOL     OW 3190   5.957   1.287   2.457
  764SOL    HW1 3191   5.981   1.307   2.552
  764SOL    HW2 3192   6.030   1.233   2.415
  765SOL     OW 3193   1.253   6.541   2.892
  765SOL    HW1 3194   1.239   6.634   2.859
  765SOL    HW2 3195   1.252   6.477   2.816
  766SOL     OW 3196   0.449   5.784   0.025
  766SOL    HW1 3197   0.356   5.750   0.038
  766SOL    HW2 3198   0.514   5.718   0.062
  767SOL     OW 3199   5.774   6.247   1.391
  767SOL    HW1 3200   5.753   6.192   1.472
  767SOL    HW2 3201   5.847   6.312   1.412
  768SOL     OW 3202   2.791   6.420   4.402
  768SOL    HW1 3203   2.786   6.400   4.304
  768SOL    HW2 3204   2.861   6.489   4.419
  769SOL     OW 3205   3.313   0.563   0.331
  769SOL    HW1 3206   3.324   0.534   0.426
  769SOL    HW2 3207   3.367   0.503   0.272
  770SOL     OW 3208   4.029   5.377   4.933
  770SOL    HW1 3209   4.024   5.330   4.845
  770SOL    HW2 3210   4.000   5.315   5.006
  771SOL     OW 3211   0.495   6.545   4.549
  771SOL    HW1 3212   0.417   6.493   4.514
  771SOL    HW2 3213   0.520   6.616   4.484
  772SOL     OW 3214   0.690   3.209   6.197
  772SOL    HW1 3215   0.761   3.266   6.157
  772SOL    HW2 3216   0.675   3.237   6.292
  773SOL     OW 3217   6.999   3.266   1.843
  773SOL    HW1 3218   6.906   3.296   1.863
  773SOL    HW2 3219   0.016   3.209   1.918
  774SOL     OW 3220   1.562   1.666   1.935
  774SOL    HW1 3221   1.589   1.658   2.031
  774SOL    HW2 3222   1.537   1.761   1.915
  775SOL     OW 3223   1.804   2.565   4.204
  775SOL    HW1 3224   1.871   2.553   4.277
  775SOL    HW2 3225   1.727   2.502   4.219
  776SOL     OW 3226   2.423   1.149   4.846
  776SOL    HW1 3227   2.326   1.128   4.835
  776SOL    HW2 3228   2.461   1.091   4.919
  777SOL     OW 3229   4.279   0.376   0.071
  777SOL    HW1 3230   4.292   0.277   0.064
  777SOL    HW2 3231   4.318   0.421   7.007
  778SOL     OW 3232   5.002   5.841   5.325
  778SOL    HW1 3233   5.062   5.818   5.248
  778SOL    HW2 3234   4.964   5.932   5.311
  779SOL     OW 3235   0.294   0.323   2.280
  779SOL    HW1 3236   0.299   0.419   2.309
  779SOL    HW2 3237   0.211   0.308   2.226
  780SOL     OW 3238   5.660   2.225   5.178
  780SOL    HW1 3239   5.665   2.125   5.176
  780SOL    HW2 3240   5.605   2.255   5.255
  781SOL     OW 3241   1.369   4.040   0.212
  781SOL    HW1 3242   1.386   4.110   0.281
  781SOL    HW2 3243   1.446   4.037   0.148
  782SOL     OW 3244   0.221   5.245   0.646
  782SOL    HW1 3245   0.291   5.238   0.717
  782SOL    HW2 3246   0.247   5.318   0.581
  783SOL     OW 3247   1.327   5.652   0.987
  783SOL    HW1 3248   1.413   5.636   1.036
  783SOL    HW2 3249   1.312   5.580   0.920
  784SOL     OW 3250   5.098   5.474   3.176
  784SOL    HW1 3251   5.122   5.382   3.147
  784SOL    HW2 3252   5.062   5.471   3.270
  785SOL     OW 3253   6.018   2.769   3.419
  785SOL    HW1 3254   6.046   2.673   3.411
  785SOL    HW2 3255   6.099   2.827   3.425
  786SOL     OW 3256   6.184   6.641   1.283
  786SOL    HW1 3257   6.178   6.580   1.203
  786SOL    HW2 3258   6.266   6.697   1.276
  787SOL     OW 3259   4.280   1.197   6.066
  787SOL    HW1 3260   4.262   1.273   6.004
  787SOL    HW2 3261   4.270   1.111   6.018
  788SOL     OW 3262   6.709   4.725   3.264
  788SOL    HW1 3263   6.628   4.689   3.311
  788SOL    HW2 3264   6.788   4.717   3.326
  789SOL     OW 3265   6.322   2.919   0.138
  789SOL    HW1 3266   6.311   3.015   0.166
  789SOL    HW2 3267   6.282   2.859   0.207
  790SOL     OW 3268   2.737   0.491   4.240
  790SOL    HW1 3269   2.672   0.524   4.309
  790SOL    HW2 3270   2.707   0.401   4.208
  791SOL     OW 3271   3.367   1.125   3.855
  791SOL    HW1 3272   3.288   1.167   3.899
  791SOL    HW2 3273   3.447   1.184   3.866
  792SOL     OW 3274   5.098   0.715   3.924
  792SOL    HW1 3275   5.174   0.778   3.941
  792SOL    HW2 3276   5.053   0.738   3.837
  793SOL     OW 3277   0.602   6.749   6.591
  793SOL    HW1 3278   0.674   6.683   6.613
  793SOL    HW2 3279   0.546   6.713   6.517
  794SOL     OW 3280   3.576   5.203   4.705
  794SOL    HW1 3281   3.498   5.141   4.716
  794SOL    HW2 3282   3.594   5.249   4.792
  795SOL     OW 3283   4.976   5.498   6.729
  795SOL    HW1 3284   5.021   5.525   6.814
  795SOL    HW2 3285   4.881   5.530   6.730
  796SOL     OW 3286   1.271   1.777   6.085
  796SOL    HW1 3287   1.231   1.702   6.137
  796SOL    HW2 3288   1.204   1.811   6.019
  797SOL     OW 3289   6.059   3.001   5.759
  797SOL    HW1 3290   6.026   3.085   5.803
  797SOL    HW2 3291   6.024   2.922   5.808
  798SOL     OW 3292   6.298   0.359   4.432
  798SOL    HW1 3293   6.331   0.417   4.357
  798SOL    HW2 3294   6.202   0.378   4.449
  799SOL     OW 3295   6.559   3.974   3.941
  799SOL    HW1 3296   6.515   3.997   3.854
  799SOL    HW2 3297   6.592   3.880   3.937
  800SOL     OW 3298   0.564   2.560   2.484
  800SOL    HW1 3299   0.510   2.486   2.524
  800SOL    HW2 3300   0.521   2.648   2.504
  801SOL     OW 3301   0.261   3.933   3.457
  801SOL    HW1 3302   0.225   4.021   3.489
  801SOL    HW2 3303   0.256   3.929   3.357
  802SOL     OW 3304   6.480   0.939   0.595
  802SOL    HW1 3305   6.403   0.886   0.632
  802SOL    HW2 3306   6.541   0.965   0.670
  803SOL     OW 3307   2.459   6.643   4.479
  803SOL    HW1 3308   2.383   6.651   4.544
  803SOL    HW2 3309   2.544   6.629   4.528
  804SOL     OW 3310   5.656   5.792   0.475
  804SOL    HW1 3311   5.730   5.745   0.427
  804SOL    HW2 3312   5.628   5.738   0.555
  805SOL     OW 3313   2.401   2.833   6.142
  805SOL    HW1 3314   2.485   2.827   6.196
  805SOL    HW2 3315   2.322   2.827   6.202
  806SOL     OW 3316   4.035   6.801   0.217
  806SOL    HW1 3317   3.955   6.762   0.263
  806SOL    HW2 3318   4.072   6.877   0.272
  807SOL     OW 3319   6.794   0.894   3.256
  807SOL    HW1 3320   6.786   0.958   3.179
  807SOL    HW2 3321   6.796   0.800   3.222
  808SOL     OW 3322   5.560   3.594   5.041
  808SOL    HW1 3323   5.597   3.670   5.095
  808SOL    HW2 3324   5.536   3.519   5.102
  809SOL     OW 3325   6.890   5.715   5.601
  809SOL    HW1 3326   6.866   5.647   5.532
  809SOL    HW2 3327   6.988   5.708   5.622
  810SOL     OW 3328   5.985   4.908   6.089
  810SOL    HW1 3329   6.080   4.903   6.118
  810SOL    HW2 3330   5.976   4.871   5.997
  811SOL     OW 3331   2.632   4.719   2.374
  811SOL    HW1 3332   2.588   4.807   2.390
  811SOL    HW2 3333   2.701   4.729   2.302
  812SOL     OW 3334   6.949   0.525   2.912
  812SOL    HW1 3335   6.997   0.612   2.895
  812SOL    HW2 3336   6.993   0.477   2.988
  813SOL     OW 3337   5.018   4.729   1.762
  813SOL    HW1 3338   4.919   4.731   1.773
  813SOL    HW2 3339   5.046   4.638   1.731
  814SOL     OW 3340   5.374   5.067   1.854
  814SOL    HW1 3341   5.440   5.028   1.918
  814SOL    HW2 3342   5.283   5.032   1.874
  815SOL     OW 3343   0.998   1.204   0.977
  815SOL    HW1 3344   0.962   1.284   1.025
  815SOL    HW2 3345   1.013   1.130   1.043
  816SOL     OW 3346   6.045   0.584   1.432
  816SOL    HW1 3347   6.020   0.515   1.500
  816SOL    HW2 3348   5.971   0.649   1.422
  817SOL     OW 3349   0.512   2.185   1.974
  817SOL    HW1 3350   0.584   2.175   1.906
  817SOL    HW2 3351   0.515   2.107   2.037
  818SOL     OW 3352   5.561   1.706   3.095
  818SOL    HW1 3353   5.581   1.610   3.115
  818SOL    HW2 3354   5.550   1.718   2.996
  819SOL     OW 3355   0.321   4.957   2.833
  819SOL    HW1 3356   0.267   4.942   2.750
  819SOL    HW2 3357   0.399   5.015   2.812
  820SOL     OW 3358   2.394   3.446   5.891
  820SOL    HW1 3359   2.361   3.411   5.979
  820SOL    HW2 3360   2.327   3.427   5.820
  821SOL     OW 3361   1.161   4.355   0.533
  821SOL    HW1 3362   1.091   4.410   0.488
  821SOL    HW2 3363   1.205   4.294   0.466
  822SOL     OW 3364   0.678   3.145   5.458
  822SOL    HW1 3365   0.733   3.228   5.471
  822SOL    HW2 3366   0.707   3.099   5.374
  823SOL     OW 3367   4.265   4.254   1.375
  823SOL    HW1 3368   4.244   4.295   1.463
  823SOL    HW2 3369   4.227   4.311   1.302
  824SOL     OW 3370   6.502   3.708   6.552
  824SOL    HW1 3371   6.450   3.642   6.498
  824SOL    HW2 3372   6.552   3.770   6.491
  825SOL     OW 3373   2.186   2.746   1.312
  825SOL    HW1 3374   2.119   2.679   1.281
  825SOL    HW2 3375   2.166   2.835   1.270
  826SOL     OW 3376   0.951   1.674   6.725
  826SOL    HW1 3377   0.941   1.582   6.688
  826SOL    HW2 3378   0.988   1.735   6.655
  827SOL     OW 3379   3.919   4.461   0.851
  827SOL    HW1 3380   3.999   4.510   0.815
  827SOL    HW2 3381   3.905   4.377   0.799
  828SOL     OW 3382   5.934   1.148   5.454
  828SOL    HW1 3383   5.949   1.054   5.422
  828SOL    HW2 3384   5.848   1.182   5.417
  829SOL     OW 3385   4.522   4.357   5.734
  829SOL    HW1 3386   4.584   4.280   5.747
  829SOL    HW2 3387   4.475   4.348   5.646
  830SOL     OW 3388   4.317   3.520   6.498
  830SOL    HW1 3389   4.255   3.559   6.431
  830SOL    HW2 3390   4.348   3.430   6.466
  831SOL     OW 3391   5.169   2.035   5.403
  831SOL    HW1 3392   5.122   1.956   5.442
  831SOL    HW2 3393   5.261   2.007   5.374
  832SOL     OW 3394   3.087   1.627   5.533
  832SOL    HW1 3395   3.176   1.637   5.490
  832SOL    HW2 3396   3.030   1.707   5.512
  833SOL     OW 3397   1.124   0.647   5.297
  833SOL    HW1 3398   1.042   0.674   5.247
  833SOL    HW2 3399   1.194   0.617   5.233
  834SOL     OW 3400   3.067   4.657   5.512
  834SOL    HW1 3401   3.134   4.714   5.560
  834SOL    HW2 3402   3.068   4.565   5.549
  835SOL     OW 3403   3.868   1.771   2.918
  835SOL    HW1 3404   3.847   1.833   2.993
  835SOL    HW2 3405   3.948   1.715   2.942
  836SOL     OW 3406   2.291   1.419   5.339
  836SOL    HW1 3407   2.356   1.368   5.283
  836SOL    HW2 3408   2.282   1.375   5.429
  837SOL     OW 3409   4.057   1.513   4.350
  837SOL    HW1 3410   4.153   1.487   4.349
  837SOL    HW2 3411   4.003   1.442   4.396
  838SOL     OW 3412   0.610   6.453   2.218
  838SOL    HW1 3413   0.648   6.401   2.294
  838SOL    HW2 3414   0.511   6.440   2.213
  839SOL     OW 3415   2.201   1.847   2.378
  839SOL    HW1 3416   2.152   1.840   2.291
  839SOL    HW2 3417   2.278   1.784   2.377
  840SOL     OW 3418   2.077   0.785   4.976
  840SOL    HW1 3419   2.118   0.741   5.055
  840SOL    HW2 3420   1.979   0.797   4.991
  841SOL     OW 3421   0.438   3.353   0.656
  841SOL    HW1 3422   0.502   3.419   0.694
  841SOL    HW2 3423   0.444   3.267   0.707
  842SOL     OW 3424   3.864   5.034   4.223
  842SOL    HW1 3425   3.824   4.986   4.144
  842SOL    HW2 3426   3.805   5.110   4.249
  843SOL     OW 3427   6.928   2.626   1.298
  843SOL    HW1 3428   6.944   2.714   1.252
  843SOL    HW2 3429   7.016   2.584   1.319
  844SOL     OW 3430   5.708   4.620   6.138
  844SOL    HW1 3431   5.786   4.661   6.185
  844SOL    HW2 3432   5.633   4.686   6.133
  845SOL     OW 3433   2.147   4.965   5.527
  845SOL    HW1 3434   2.141   4.893   5.596
  845SOL    HW2 3435   2.096   4.937   5.446
  846SOL     OW 3436   5.079   2.060   0.196
  846SOL    HW1 3437   5.097   1.965   0.221
  846SOL    HW2 3438   4.981   2.078   0.201
  847SOL     OW 3439   5.274   4.106   2.116
  847SOL    HW1 3440   5.321   4.042   2.054
  847SOL    HW2 3441   5.337   4.178   2.144
  848SOL     OW 3442   5.630   0.108   5.802
  848SOL    HW1 3443   5.577   0.071   5.726
  848SOL    HW2 3444   5.625   0.208   5.800
  849SOL     OW 3445   0.862   6.999   3.644
  849SOL    HW1 3446   0.808   0.060   3.608
  849SOL    HW2 3447   0.800   6.927   3.675
  850SOL     OW 3448   2.729   1.077   2.916
  850SOL    HW1 3449   2.736   1.051   2.819
  850SOL    HW2 3450   2.638   1.115   2.933
  851SOL     OW 3451   6.758   1.381   6.122
  851SOL    HW1 3452   6.758   1.311   6.051
  851SOL    HW2 3453   6.850   1.418   6.133
  852SOL     OW 3454   3.566   5.159   4.405
  852SOL    HW1 3455   3.613   5.095   4.466
  852SOL    HW2 3456   3.499   5.211   4.458
  853SOL     OW 3457   0.763   3.780   0.615
  853SOL    HW1 3458   0.792   3.865   0.659
  853SOL    HW2 3459   0.837   3.713   0.618
  854SOL     OW 3460   6.558   4.771   1.258
  854SOL    HW1 3461   6.534   4.866   1.236
  854SOL    HW2 3462   6.478   4.724   1.294
  855SOL     OW 3463   4.893   0.341   0.407
  855SOL    HW1 3464   4.797   0.312   0.399
  855SOL    HW2 3465   4.952   0.275   0.362
  856SOL     OW 3466   1.749   0.956   5.279
  856SOL    HW1 3467   1.674   0.936   5.342
  856SOL    HW2 3468   1.832   0.978   5.331
  857SOL     OW 3469   6.149   4.587   2.285
  857SOL    HW1 3470   6.140   4.643   2.367
  857SOL    HW2 3471   6.245   4.562   2.272
  858SOL     OW 3472   3.893   3.514   1.928
  858SOL    HW1 3473   3.867   3.430   1.879
  858SOL    HW2 3474   3.826   3.533   1.999
  859SOL     OW 3475   6.518   4.107   1.313
  859SOL    HW1 3476   6.521   4.200   1.351
  859SOL    HW2 3477   6.477   4.110   1.221
  860SOL     OW 3478   1.542   4.157   6.180
  860SOL    HW1 3479   1.561   4.067   6.141
  860SOL    HW2 3480   1.443   4.170   6.186
  861SOL     OW 3481   4.365   4.643   6.367
  861SOL    HW1 3482   4.361   4.653   6.267
  861SOL    HW2 3483   4.272   4.630   6.402
  862SOL     OW 3484   4.212   4.678   3.755
  862SOL    HW1 3485   4.129   4.647   3.709
  862SOL    HW2 3486   4.226   4.776   3.739
  863SOL     OW 3487   6.614   3.167   1.319
  863SOL    HW1 3488   6.543   3.104   1.350
  863SOL    HW2 3489   6.591   3.202   1.228
  864SOL     OW 3490   1.033   6.419   1.888
  864SOL    HW1 3491   0.963   6.473   1.842
  864SOL    HW2 3492   0.993   6.373   1.967
  865SOL     OW 3493   1.102   1.432   3.715
  865SOL    HW1 3494   1.118   1.530   3.711
  865SOL    HW2 3495   1.090   1.403   3.810
  866SOL     OW 3496   4.015   1.073   1.776
  866SOL    HW1 3497   4.041   1.100   1.868
  866SOL    HW2 3498   4.094   1.032   1.730
  867SOL     OW 3499   2.919   1.482   6.139
  867SOL    HW1 3500   2.837   1.510   6.090
  867SOL    HW2 3501   2.996   1.538   6.110
  868SOL     OW 3502   4.932   1.957   3.082
  868SOL    HW1 3503   4.875   1.991   3.007
  868SOL    HW2 3504   4.885   1.975   3.169
  869SOL     OW 3505   6.680   3.618   0.945
  869SOL    HW1 3506   6.625   3.553   0.893
  869SOL    HW2 3507   6.681   3.590   1.041
  870SOL     OW 3508   6.242   1.669   0.665
  870SOL    HW1 3509   6.265   1.757   0.707
  870SOL    HW2 3510   6.323   1.611   0.660
  871SOL     OW 3511   6.885   4.478   0.731
  871SOL    HW1 3512   6.882   4.575   0.756
  871SOL    HW2 3513   6.795   4.437   0.743
  872SOL     OW 3514   6.865   1.815   1.904
  872SOL    HW1 3515   6.852   1.902   1.952
  872SOL    HW2 3516   6.880   1.833   1.806
  873SOL     OW 3517   3.950   7.014   4.291
  873SOL    HW1 3518   3.974   6.917   4.289
  873SOL    HW2 3519   3.854   0.007   4.319
  874SOL     OW 3520   1.310   3.356   6.336
  874SOL    HW1 3521   1.295   3.441   6.285
  874SOL    HW2 3522   1.242   3.349   6.408
  875SOL     OW 3523   5.803   6.051   6.535
  875SOL    HW1 3524   5.818   6.133   6.591
  875SOL    HW2 3525   5.736   5.991   6.580
  876SOL     OW 3526   2.901   2.258   1.683
  876SOL    HW1 3527   2.996   2.259   1.649
  876SOL    HW2 3528   2.892   2.320   1.760
  877SOL     OW 3529   6.376   5.711   6.023
  877SOL    HW1 3530   6.304   5.683   5.961
  877SOL    HW2 3531   6.423   5.791   5.987
  878SOL     OW 3532   4.428   3.127   1.002
  878SOL    HW1 3533   4.333   3.116   1.032
  878SOL    HW2 3534   4.465   3.037   0.976
  879SOL     OW 3535   5.206   3.170   3.204
  879SOL    HW1 3536   5.177   3.177   3.109
  879SOL    HW2 3537   5.192   3.077   3.237
  880SOL     OW 3538   4.366   0.045   1.480
  880SOL    HW1 3539   4.387   0.079   1.389
  880SOL    HW2 3540   4.436   0.074   1.545
  881SOL     OW 3541   4.743   5.595   3.443
  881SOL    HW1 3542   4.666   5.593   3.379
  881SOL    HW2 3543   4.713   5.638   3.529
  882SOL     OW 3544   0.549   2.423   5.328
  882SOL    HW1 3545   0.531   2.511   5.284
  882SOL    HW2 3546   0.536   2.349   5.263
  883SOL     OW 3547   3.126   4.966   6.920
  883SOL    HW1 3548   3.083   4.882   6.888
  883SOL    HW2 3549   3.200   4.945   6.983
  884SOL     OW 3550   4.518   4.698   1.189
  884SOL    HW1 3551   4.497   4.627   1.121
  884SOL    HW2 3552   4.550   4.654   1.273
  885SOL     OW 3553   3.794   5.650   6.776
  885SOL    HW1 3554   3.822   5.556   6.796
  885SOL    HW2 3555   3.756   5.692   6.859
  886SOL     OW 3556   3.958   2.669   6.417
  886SOL    HW1 3557   3.870   2.621   6.417
  886SOL    HW2 3558   3.941   2.768   6.425
  887SOL     OW 3559   6.117   6.686   4.977
  887SOL    HW1 3560   6.182   6.615   4.951
  887SOL    HW2 3561   6.164   6.759   5.026
  888SOL     OW 3562   6.407   1.268   3.574
  888SOL    HW1 3563   6.348   1.347   3.594
  888SOL    HW2 3564   6.412   1.256   3.475
  889SOL     OW 3565   0.656   0.397   4.712
  889SOL    HW1 3566   0.675   0.387   4.809
  889SOL    HW2 3567   0.732   0.444   4.667
  890SOL     OW 3568   2.527   3.572   0.718
  890SOL    HW1 3569   2.489   3.524   0.797
  890SOL    HW2 3570   2.464   3.566   0.641
  891SOL     OW 3571   6.502   2.944   5.555
  891SOL    HW1 3572   6.491   2.883   5.477
  891SOL    HW2 3573   6.530   2.891   5.635
  892SOL     OW 3574   2.227   4.569   1.806
  892SOL    HW1 3575   2.243   4.647   1.745
  892SOL    HW2 3576   2.279   4.582   1.890
  893SOL     OW 3577   1.977   0.578   1.783
  893SOL    HW1 3578   1.890   0.626   1.788
  893SOL    HW2 3579   1.987   0.534   1.694
  894SOL     OW 3580   1.155   5.294   4.043
  894SOL    HW1 3581   1.179   5.201   4.018
  894SOL    HW2 3582   1.191   5.315   4.134
  895SOL     OW 3583   2.897   1.238   4.273
  895SOL    HW1 3584   2.859   1.211   4.361
  895SOL    HW2 3585   2.849   1.189   4.199
  896SOL     OW 3586   4.748   0.170   3.558
  896SOL    HW1 3587   4.708   0.113   3.486
  896SOL    HW2 3588   4.847   0.175   3.547
  897SOL     OW 3589   6.450   1.321   6.714
  897SOL    HW1 3590   6.534   1.374   6.725
  897SOL    HW2 3591   6.465   1.227   6.746
  898SOL     OW 3592   5.584   5.745   3.542
  898SOL    HW1 3593   5.501   5.793   3.571
  898SOL    HW2 3594   5.601   5.764   3.445
  899SOL     OW 3595   1.455   4.717   6.966
  899SOL    HW1 3596   1.519   4.697   0.024
  899SOL    HW2 3597   1.418   4.631   6.929
  900SOL     OW 3598   0.119   5.826   3.321
  900SOL    HW1 3599   0.024   5.795   3.332
  900SOL    HW2 3600   0.163   5.771   3.250
  901SOL     OW 3601   6.470   2.028   3.674
  901SOL    HW1 3602   6.545   1.971   3.707
  901SOL    HW2 3603   6.431   1.987   3.591
  902SOL     OW 3604   1.397   5.896   0.245
  902SOL    HW1 3605   1.311   5.844   0.253
  902SOL    HW2 3606   1.474   5.836   0.266
  903SOL     OW 3607   1.092   4.678   6.652
  903SOL    HW1 3608   1.172   4.689   6.592
  903SOL    HW2 3609   1.031   4.610   6.614
  904SOL     OW 3610   1.198   2.447   4.406
  904SOL    HW1 3611   1.108   2.490   4.415
  904SOL    HW2 3612   1.258   2.506   4.351
  905SOL     OW 3613   6.516   3.499   3.533
  905SOL    HW1 3614   6.502   3.544   3.445
  905SOL    HW2 3615   6.512   3.567   3.606
  906SOL     OW 3616   0.060   3.380   5.635
  906SOL    HW1 3617   0.160   3.385   5.633
  906SOL    HW2 3618   0.031   3.286   5.613
  907SOL     OW 3619   6.828   4.597   2.888
  907SOL    HW1 3620   6.740   4.567   2.851
  907SOL    HW2 3621   6.900   4.582   2.820
  908SOL     OW 3622   2.601   0.976   3.532
  908SOL    HW1 3623   2.561   1.039   3.465
  908SOL    HW2 3624   2.661   1.026   3.594
  909SOL     OW 3625   3.119   6.835   2.374
  909SOL    HW1 3626   3.078   6.800   2.290
  909SOL    HW2 3627   3.082   6.925   2.394
  910SOL     OW 3628   1.299   0.613   1.899
  910SOL    HW1 3629   1.218   0.644   1.850
  910SOL    HW2 3630   1.289   0.516   1.923
  911SOL     OW 3631   1.063   2.777   1.116
  911SOL    HW1 3632   1.151   2.814   1.086
  911SOL    HW2 3633   1.023   2.723   1.042
  912SOL     OW 3634   2.370   0.981   1.167
  912SOL    HW1 3635   2.441   0.928   1.120
  912SOL    HW2 3636   2.414   1.049   1.227
  913SOL     OW 3637   2.204   0.750   1.814
  913SOL    HW1 3638   2.121   0.704   1.847
  913SOL    HW2 3639   2.266   0.682   1.775
  914SOL     OW 3640   3.321   4.860   2.343
  914SOL    HW1 3641   3.308   4.932   2.274
  914SOL    HW2 3642   3.416   4.831   2.343
  915SOL     OW 3643   3.453   2.226   1.225
  915SOL    HW1 3644   3.536   2.184   1.189
  915SOL    HW2 3645   3.477   2.294   1.294
  916SOL     OW 3646   0.233   4.095   2.680
  916SOL    HW1 3647   0.172   4.155   2.628
  916SOL    HW2 3648   0.280   4.033   2.618
  917SOL     OW 3649   4.113   0.616   5.237
  917SOL    HW1 3650   4.156   0.704   5.258
  917SOL    HW2 3651   4.035   0.602   5.298
  918SOL     OW 3652   0.004   2.480   5.022
  918SOL    HW1 3653   0.022   2.578   5.031
  918SOL    HW2 3654   0.084   2.429   5.052
  919SOL     OW 3655   0.859   0.200   0.978
  919SOL    HW1 3656   0.778   0.181   1.034
  919SOL    HW2 3657   0.881   0.297   0.984
  920SOL     OW 3658   1.369   2.128   2.904
  920SOL    HW1 3659   1.317   2.214   2.907
  920SOL    HW2 3660   1.399   2.111   2.810
  921SOL     OW 3661   4.267   4.204   0.140
  921SOL    HW1 3662   4.215   4.214   0.225
  921SOL    HW2 3663   4.213   4.151   0.074
  922SOL     OW 3664   2.148   5.776   6.551
  922SOL    HW1 3665   2.233   5.828   6.546
  922SOL    HW2 3666   2.117   5.755   6.458
  923SOL     OW 3667   3.530   1.056   0.317
  923SOL    HW1 3668   3.504   1.139   0.267
  923SOL    HW2 3669   3.625   1.063   0.345
  924SOL     OW 3670   5.213   5.339   1.348
  924SOL    HW1 3671   5.153   5.262   1.369
  924SOL    HW2 3672   5.300   5.306   1.312
  925SOL     OW 3673   5.826   1.986   1.434
  925SOL    HW1 3674   5.867   2.025   1.352
  925SOL    HW2 3675   5.730   1.964   1.417
  926SOL     OW 3676   4.060   5.747   1.870
  926SOL    HW1 3677   4.001   5.827   1.856
  926SOL    HW2 3678   4.143   5.774   1.919
  927SOL     OW 3679   5.507   5.348   5.802
  927SOL    HW1 3680   5.436   5.290   5.762
  927SOL    HW2 3681   5.476   5.444   5.799
  928SOL     OW 3682   6.764   1.434   2.098
  928SOL    HW1 3683   6.709   1.354   2.123
  928SOL    HW2 3684   6.843   1.404   2.045
  929SOL     OW 3685   6.539   1.974   2.767
  929SOL    HW1 3686   6.443   1.976   2.740
  929SOL    HW2 3687   6.595   2.005   2.690
  930SOL     OW 3688   5.903   4.224   2.566
  930SOL    HW1 3689   5.823   4.224   2.506
  930SOL    HW2 3690   5.957   4.306   2.550
  931SOL     OW 3691   0.319   2.737   0.939
  931SOL    HW1 3692   0.303   2.732   0.841
  931SOL    HW2 3693   0.236   2.710   0.988
  932SOL     OW 3694   4.332   6.649   0.392
  932SOL    HW1 3695   4.303   6.626   0.485
  932SOL    HW2 3696   4.377   6.738   0.392
  933SOL     OW 3697   0.417   6.733   3.183
  933SOL    HW1 3698   0.403   6.675   3.263
  933SOL    HW2 3699   0.479   6.808   3.207
  934SOL     OW 3700   4.529   1.947   4.981
  934SOL    HW1 3701   4.509   1.849   4.982
  934SOL    HW2 3702   4.520   1.982   4.888
  935SOL     OW 3703   0.677   3.989   4.342
  935SOL    HW1 3704   0.729   4.043   4.276
  935SOL    HW2 3705   0.603   4.045   4.380
  936SOL     OW 3706   0.953   0.994   1.171
  936SOL    HW1 3707   0.979   1.019   1.264
  936SOL    HW2 3708   0.898   0.911   1.172
  937SOL     OW 3709   4.723   1.937   2.873
  937SOL    HW1 3710   4.664   2.006   2.917
  937SOL    HW2 3711   4.689   1.919   2.781
  938SOL     OW 3712   0.458   0.889   6.060
  938SOL    HW1 3713   0.449   0.799   6.102
  938SOL    HW2 3714   0.536   0.890   5.998
  939SOL     OW 3715   0.180   0.887   4.357
  939SOL    HW1 3716   0.233   0.933   4.428
  939SOL    HW2 3717   0.165   0.792   4.383
  940SOL     OW 3718   6.207   0.130   3.486
  940SOL    HW1 3719   6.214   0.229   3.472
  940SOL    HW2 3720   6.235   0.109   3.580
  941SOL     OW 3721   5.609   2.646   4.729
  941SOL    HW1 3722   5.665   2.706   4.671
  941SOL    HW2 3723   5.651   2.555   4.733
  942SOL     OW 3724   4.091   6.455   6.185
  942SOL    HW1 3725   4.014   6.429   6.242
  942SOL    HW2 3726   4.115   6.378   6.125
  943SOL     OW 3727   5.021   1.694   6.692
  943SOL    HW1 3728   4.965   1.768   6.654
  943SOL    HW2 3729   5.116   1.706   6.664
  944SOL     OW 3730   5.380   4.664   4.296
  944SOL    HW1 3731   5.453   4.617   4.248
  944SOL    HW2 3732   5.377   4.633   4.391
  945SOL     OW 3733   6.269   3.248   6.029
  945SOL    HW1 3734   6.287   3.279   5.936
  945SOL    HW2 3735   6.180   3.284   6.059
  946SOL     OW 3736   6.259   2.975   6.103
  946SOL    HW1 3737   6.282   3.063   6.062
  946SOL    HW2 3738   6.190   2.988   6.174
  947SOL     OW 3739   1.502   1.699   6.202
  947SOL    HW1 3740   1.487   1.714   6.300
  947SOL    HW2 3741   1.421   1.730   6.152
  948SOL     OW 3742   3.617   1.927   1.373
  948SOL    HW1 3743   3.632   2.013   1.422
  948SOL    HW2 3744   3.678   1.857   1.409
  949SOL     OW 3745   5.398   5.080   5.719
  949SOL    HW1 3746   5.416   5.055   5.624
  949SOL    HW2 3747   5.299   5.090   5.733
  950SOL     OW 3748   3.822   5.359   0.837
  950SOL    HW1 3749   3.845   5.291   0.906
  950SOL    HW2 3750   3.860   5.448   0.864
  951SOL     OW 3751   0.298   3.501   3.027
  951SOL    HW1 3752   0.354   3.485   3.108
  951SOL    HW2 3753   0.357   3.510   2.947
  952SOL     OW 3754   4.362   1.150   0.994
  952SOL    HW1 3755   4.406   1.197   1.071
  952SOL    HW2 3756   4.361   1.211   0.914
  953SOL     OW 3757   4.419   6.580   6.079
  953SOL    HW1 3758   4.353   6.606   6.008
  953SOL    HW2 3759   4.370   6.551   6.161
  954SOL     OW 3760   6.511   6.593   1.385
  954SOL    HW1 3761   6.480   6.639   1.302
  954SOL    HW2 3762   6.505   6.494   1.372
  955SOL     OW 3763   1.511   6.535   3.647
  955SOL    HW1 3764   1.574   6.527   3.570
  955SOL    HW2 3765   1.551   6.492   3.728
  956SOL     OW 3766   1.763   2.842   0.801
  956SOL    HW1 3767   1.851   2.879   0.768
  956SOL    HW2 3768   1.780   2.774   0.872
  957SOL     OW 3769   2.620   6.084   4.399
  957SOL    HW1 3770   2.688   6.158   4.395
  957SOL    HW2 3771   2.587   6.074   4.493
  958SOL     OW 3772   4.349   2.360   6.642
  958SOL    HW1 3773   4.329   2.348   6.739
  958SOL    HW2 3774   4.319   2.279   6.591
  959SOL     OW 3775   1.462   4.412   0.186
  959SOL    HW1 3776   1.550   4.457   0.193
  959SOL    HW2 3777   1.430   4.417   0.091
  960SOL     OW 3778   1.676   3.929   5.484
  960SOL    HW1 3779   1.624   3.860   5.536
  960SOL    HW2 3780   1.617   4.008   5.467
  961SOL     OW 3781   3.880   6.601   6.581
  961SOL    HW1 3782   3.887   6.668   6.507
  961SOL    HW2 3783   3.958   6.538   6.575
  962SOL     OW 3784   0.142   0.125   3.878
  962SOL    HW1 3785   0.192   0.041   3.859
  962SOL    HW2 3786   0.141   0.183   3.797
  963SOL     OW 3787   5.768   6.977   3.299
  963SOL    HW1 3788   5.706   6.921   3.354
  963SOL    HW2 3789   5.859   6.979   3.343
  964SOL     OW 3790   5.916   4.149   1.642
  964SOL    HW1 3791   6.007   4.107   1.643
  964SOL    HW2 3792   5.923   4.242   1.607
  965SOL     OW 3793   1.988   2.233   0.112
  965SOL    HW1 3794   2.007   2.157   0.050
  965SOL    HW2 3795   1.928   2.201   0.185
  966SOL     OW 3796   5.317   1.961   1.955
  966SOL    HW1 3797   5.220   1.946   1.937
  966SOL    HW2 3798   5.372   1.903   1.894
  967SOL     OW 3799   0.605   5.617   3.067
  967SOL    HW1 3800   0.580   5.705   3.107
  967SOL    HW2 3801   0.541   5.594   2.994
  968SOL     OW 3802   0.294   4.323   0.844
  968SOL    HW1 3803   0.270   4.409   0.888
  968SOL    HW2 3804   0.211   4.277   0.812
  969SOL     OW 3805   3.649   6.923   6.555
  969SOL    HW1 3806   3.613   6.990   6.619
  969SOL    HW2 3807   3.655   6.834   6.600
  970SOL     OW 3808   5.445   3.920   6.441
  970SOL    HW1 3809   5.364   3.882   6.397
  970SOL    HW2 3810   5.468   3.865   6.522
  971SOL     OW 3811   0.555   1.662   0.085
  971SOL    HW1 3812   0.642   1.669   0.038
  971SOL    HW2 3813   0.567   1.686   0.182
  972SOL     OW 3814   3.839   0.033   6.296
  972SOL    HW1 3815   3.781   0.029   6.215
  972SOL    HW2 3816   3.784   0.058   6.375
  973SOL     OW 3817   6.502   3.294   6.164
  973SOL    HW1 3818   6.484   3.370   6.225
  973SOL    HW2 3819   6.418   3.269   6.115
  974SOL     OW 3820   2.317   0.791   3.921
  974SOL    HW1 3821   2.404   0.786   3.970
  974SOL    HW2 3822   2.284   0.699   3.901
  975SOL     OW 3823   2.825   6.422   4.106
  975SOL    HW1 3824   2.923   6.404   4.095
  975SOL    HW2 3825   2.773   6.355   4.053
  976SOL     OW 3826   0.534   5.269   4.774
  976SOL    HW1 3827   0.470   5.232   4.706
  976SOL    HW2 3828   0.625   5.233   4.757
  977SOL     OW 3829   0.849   2.177   1.862
  977SOL    HW1 3830   0.806   2.185   1.772
  977SOL    HW2 3831   0.909   2.097   1.864
  978SOL     OW 3832   6.146   2.603   3.730
  978SOL    HW1 3833   6.142   2.688   3.783
  978SOL    HW2 3834   6.179   2.623   3.638
  979SOL     OW 3835   5.674   1.481   2.655
  979SOL    HW1 3836   5.671   1.400   2.596
  979SOL    HW2 3837   5.590   1.534   2.643
  980SOL     OW 3838   6.108   6.111   5.336
  980SOL    HW1 3839   6.137   6.201   5.367
  980SOL    HW2 3840   6.149   6.041   5.394
  981SOL     OW 3841   6.428   2.982   6.780
  981SOL    HW1 3842   6.347   3.016   6.733
  981SOL    HW2 3843   6.459   2.898   6.736
  982SOL     OW 3844   1.272   4.547   6.854
  982SOL    HW1 3845   1.254   4.451   6.876
  982SOL    HW2 3846   1.193   4.586   6.808
  983SOL     OW 3847   5.644   1.246   3.475
  983SOL    HW1 3848   5.624   1.215   3.382
  983SOL    HW2 3849   5.734   1.288   3.478
  984SOL     OW 3850   4.951   3.397   5.198
  984SOL    HW1 3851   4.948   3.343   5.282
  984SOL    HW2 3852   4.864   3.444   5.185
  985SOL     OW 3853   1.755   4.331   7.011
  985SOL    HW1 3854   1.814   4.408   6.987
  985SOL    HW2 3855   1.770   4.306   0.090
  986SOL     OW 3856   5.699   4.585   4.901
  986SOL    HW1 3857   5.701   4.571   5.000
  986SOL    HW2 3858   5.759   4.518   4.857
  987SOL     OW 3859   2.488   1.419   3.112
  987SOL    HW1 3860   2.394   1.451   3.105
  987SOL    HW2 3861   2.546   1.491   3.149
  988SOL     OW 3862   3.793   3.591   1.329
  988SOL    HW1 3863   3.865   3.586   1.399
  988SOL    HW2 3864   3.704   3.588   1.374
  989SOL     OW 3865   1.071   1.047   5.112
  989SOL    HW1 3866   1.051   0.992   5.193
  989SOL    HW2 3867   0.994   1.044   5.049
  990SOL     OW 3868   4.463   6.107   2.140
  990SOL    HW1 3869   4.413   6.194   2.140
  990SOL    HW2 3870   4.532   6.108   2.212
  991SOL     OW 3871   6.131   1.504   6.134
  991SOL    HW1 3872   6.099   1.484   6.227
  991SOL    HW2 3873   6.215   1.558   6.139
  992SOL     OW 3874   0.261   2.770   0.676
  992SOL    HW1 3875   0.203   2.690   0.659
  992SOL    HW2 3876   0.227   2.848   0.624
  993SOL     OW 3877   3.980   6.754   4.211
  993SOL    HW1 3878   3.977   6.665   4.165
  993SOL    HW2 3879   3.992   6.741   4.309
  994SOL     OW 3880   2.996   3.770   3.946
  994SOL    HW1 3881   2.971   3.742   4.039
  994SOL    HW2 3882   2.926   3.739   3.883
  995SOL     OW 3883   1.306   1.511   5.108
  995SOL    HW1 3884   1.242   1.437   5.086
  995SOL    HW2 3885   1.395   1.472   5.131
  996SOL     OW 3886   2.315   3.132   0.558
  996SOL    HW1 3887   2.241   3.193   0.530
  996SOL    HW2 3888   2.372   3.178   0.625
  997SOL     OW 3889   6.930   1.063   0.585
  997SOL    HW1 3890   6.938   1.143   0.526
  997SOL    HW2 3891   6.872   0.994   0.539
  998SOL     OW 3892   4.851   6.586   3.824
  998SOL    HW1 3893   4.834   6.581   3.923
  998SOL    HW2 3894   4.816   6.673   3.789
  999SOL     OW 3895   0.151   4.625   6.456
  999SOL    HW1 3896   0.123   4.615   6.361
  999SOL    HW2 3897   0.078   4.592   6.516
 1000SOL     OW 3898   3.550   1.958   5.471
 1000SOL    HW1 3899   3.475   1.988   5.413
 1000SOL    HW2 3900   3.635   1.960   5.419
 1001SOL     OW 3901   5.180   1.151   4.615
 1001SOL    HW1 3902   5.209   1.157   4.520
 1001SOL    HW2 3903   5.130   1.234   4.640
 1002SOL     OW 3904   0.157   1.195   0.638
 1002SOL    HW1 3905   0.095   1.118   0.633
 1002SOL    HW2 3906   0.159   1.231   0.731
 1003SOL     OW 3907   4.427   5.002   2.367
 1003SOL    HW1 3908   4.409   5.046   2.455
 1003SOL    HW2 3909   4.482   4.920   2.382
 1004SOL     OW 3910   5.930   5.736   6.864
 1004SOL    HW1 3911   6.017   5.710   6.820
 1004SOL    HW2 3912   5.947   5.807   6.932
 1005SOL     OW 3913   5.111   6.390   2.913
 1005SOL    HW1 3914   5.055   6.320   2.958
 1005SOL    HW2 3915   5.070   6.415   2.826
 1006SOL     OW 3916   1.608   5.736   0.270
 1006SOL    HW1 3917   1.599   5.645   0.311
 1006SOL    HW2 3918   1.664   5.730   0.188
 1007SOL     OW 3919   5.943   1.958   2.570
 1007SOL    HW1 3920   5.917   1.996   2.482
 1007SOL    HW2 3921   5.895   1.871   2.584
 1008SOL     OW 3922   3.566   1.132   5.236
 1008SOL    HW1 3923   3.526   1.163   5.322
 1008SOL    HW2 3924   3.496   1.086   5.181
 1009SOL     OW 3925   3.430   6.203   5.868
 1009SOL    HW1 3926   3.484   6.284   5.889
 1009SOL    HW2 3927   3.352   6.229   5.811
 1010SOL     OW 3928   4.990   6.327   5.713
 1010SOL    HW1 3929   4.963   6.418   5.680
 1010SOL    HW2 3930   5.044   6.338   5.797
 1011SOL     OW 3931   2.494   5.108   4.622
 1011SOL    HW1 3932   2.487   5.118   4.523
 1011SOL    HW2 3933   2.485   5.012   4.647
 1012SOL     OW 3934   2.900   6.121   0.650
 1012SOL    HW1 3935   2.975   6.157   0.706
 1012SOL    HW2 3936   2.879   6.028   0.679
 1013SOL     OW 3937   0.949   0.154   0.195
 1013SOL    HW1 3938   0.917   0.131   0.103
 1013SOL    HW2 3939   0.871   0.161   0.257
 1014SOL     OW 3940   6.363   6.647   6.749
 1014SOL    HW1 3941   6.453   6.621   6.784
 1014SOL    HW2 3942   6.323   6.570   6.700
 1015SOL     OW 3943   2.596   0.125   4.369
 1015SOL    HW1 3944   2.637   0.198   4.424
 1015SOL    HW2 3945   2.519   0.161   4.317
 1016SOL     OW 3946   4.269   3.401   1.701
 1016SOL    HW1 3947   4.197   3.339   1.669
 1016SOL    HW2 3948   4.352   3.348   1.720
 1017SOL     OW 3949   5.020   6.632   6.346
 1017SOL    HW1 3950   4.964   6.549   6.355
 1017SOL    HW2 3951   4.978   6.707   6.398
 1018SOL     OW 3952   1.097   1.717   1.428
 1018SOL    HW1 3953   1.142   1.645   1.481
 1018SOL    HW2 3954   1.062   1.787   1.490
 1019SOL     OW 3955   5.607   0.593   0.384
 1019SOL    HW1 3956   5.678   0.561   0.322
 1019SOL    HW2 3957   5.626   0.688   0.411
 1020SOL     OW 3958   3.980   1.994   1.565
 1020SOL    HW1 3959   4.053   2.052   1.603
 1020SOL    HW2 3960   3.955   1.924   1.632
 1021SOL     OW 3961   5.154   1.023   1.475
 1021SOL    HW1 3962   5.128   1.114   1.443
 1021SOL    HW2 3963   5.077   0.961   1.465
 1022SOL     OW 3964   2.650   3.797   0.049
 1022SOL    HW1 3965   2.660   3.894   0.072
 1022SOL    HW2 3966   2.722   3.771   7.001
 1023SOL     OW 3967   6.670   1.215   4.229
 1023SOL    HW1 3968   6.760   1.256   4.244
 1023SOL    HW2 3969   6.648   1.217   4.131
 1024SOL     OW 3970   6.474   2.464   4.184
 1024SOL    HW1 3971   6.487   2.562   4.201
 1024SOL    HW2 3972   6.554   2.427   4.136
 1025SOL     OW 3973   2.335   4.330   1.518
 1025SOL    HW1 3974   2.287   4.260   1.466
 1025SOL    HW2 3975   2.312   4.420   1.482
 1026SOL     OW 3976   0.374   3.342   6.727
 1026SOL    HW1 3977   0.433   3.422   6.737
 1026SOL    HW2 3978   0.286   3.359   6.772
 1027SOL     OW 3979   1.885   4.871   1.039
 1027SOL    HW1 3980   1.852   4.777   1.041
 1027SOL    HW2 3981   1.868   4.914   1.127
 1028SOL     OW 3982   0.377   5.079   0.079
 1028SOL    HW1 3983   0.447   5.017   0.044
 1028SOL    HW2 3984   0.410   5.173   0.072
 1029SOL     OW 3985   3.758   0.508   4.823
 1029SOL    HW1 3986   3.810   0.502   4.738
 1029SOL    HW2 3987   3.661   0.518   4.803
 1030SOL     OW 3988   4.238   4.741   4.638
 1030SOL    HW1 3989   4.283   4.792   4.565
 1030SOL    HW2 3990   4.307   4.700   4.697
 1031SOL     OW 3991   2.582   5.723   1.061
 1031SOL    HW1 3992   2.679   5.730   1.039
 1031SOL    HW2 3993   2.545   5.814   1.081
 1032SOL     OW 3994   1.356   2.513   5.122
 1032SOL    HW1 3995   1.334   2.416   5.127
 1032SOL    HW2 3996   1.343   2.546   5.028
 1033SOL     OW 3997   2.627   0.074   2.221
 1033SOL    HW1 3998   2.686   0.035   2.151
 1033SOL    HW2 3999   2.680   0.090   2.304
 1034SOL     OW 4000   0.336   5.241   2.523
 1034SOL    HW1 4001   0.353   5.338   2.541
 1034SOL    HW2 4002   0.345   5.190   2.608
 1035SOL     OW 4003   3.172   2.122   3.261
 1035SOL    HW1 4004   3.266   2.106   3.230
 1035SOL    HW2 4005   3.136   2.038   3.300
 1036SOL     OW 4006   4.688   6.536   6.711
 1036SOL    HW1 4007   4.751   6.614   6.714
 1036SOL    HW2 4008   4.738   6.452   6.729
 1037SOL     OW 4009   3.725   1.000   6.001
 1037SOL    HW1 4010   3.696   1.077   5.945
 1037SOL    HW2 4011   3.825   0.995   6.001
 1038SOL     OW 4012   3.236   1.581   4.728
 1038SOL    HW1 4013   3.175   1.502   4.723
 1038SOL    HW2 4014   3.184   1.663   4.704
 1039SOL     OW 4015   5.356   1.609   1.957
 1039SOL    HW1 4016   5.407   1.538   2.006
 1039SOL    HW2 4017   5.295   1.656   2.021
 1040SOL     OW 4018   6.093   4.922   4.840
 1040SOL    HW1 4019   6.120   5.014   4.813
 1040SOL    HW2 4020   6.154   4.889   4.911
 1041SOL     OW 4021   1.115   6.856   4.648
 1041SOL    HW1 4022   1.017   6.854   4.666
 1041SOL    HW2 4023   1.149   6.950   4.654
 1042SOL     OW 4024   4.336   4.633   0.280
 1042SOL    HW1 4025   4.261   4.603   0.339
 1042SOL    HW2 4026   4.420   4.586   0.307
 1043SOL     OW 4027   4.673   6.967   6.255
 1043SOL    HW1 4028   4.585   6.934   6.220
 1043SOL    HW2 4029   4.708   6.904   6.323
 1044SOL     OW 4030   3.986   3.453   4.078
 1044SOL    HW1 4031   4.016   3.359   4.066
 1044SOL    HW2 4032   3.969   3.471   4.175
 1045SOL     OW 4033   1.900   1.724   2.686
 1045SOL    HW1 4034   1.937   1.812   2.656
 1045SOL    HW2 4035   1.893   1.723   2.786
 1046SOL     OW 4036   2.789   1.008   2.124
 1046SOL    HW1 4037   2.730   1.078   2.164
 1046SOL    HW2 4038   2.792   1.019   2.025
 1047SOL     OW 4039   0.600   6.373   2.518
 1047SOL    HW1 4040   0.568   6.439   2.585
 1047SOL    HW2 4041   0.578   6.281   2.549
 1048SOL     OW 4042   0.263   3.722   4.984
 1048SOL    HW1 4043   0.246   3.629   4.951
 1048SOL    HW2 4044   0.331   3.719   5.057
 1049SOL     OW 4045   0.737   4.062   5.577
 1049SOL    HW1 4046   0.774   3.975   5.608
 1049SOL    HW2 4047   0.779   4.137   5.628
 1050SOL     OW 4048   3.191   0.697   1.718
 1050SOL    HW1 4049   3.094   0.684   1.740
 1050SOL    HW2 4050   3.239   0.610   1.729
 1051SOL     OW 4051   5.158   3.232   2.071
 1051SOL    HW1 4052   5.251   3.208   2.100
 1051SOL    HW2 4053   5.116   3.290   2.141
 1052SOL     OW 4054   2.354   6.239   3.818
 1052SOL    HW1 4055   2.442   6.240   3.866
 1052SOL    HW2 4056   2.324   6.332   3.800
 1053SOL     OW 4057   3.176   5.814   3.117
 1053SOL    HW1 4058   3.121   5.889   3.153
 1053SOL    HW2 4059   3.259   5.851   3.074
 1054SOL     OW 4060   3.625   6.076   5.663
 1054SOL    HW1 4061   3.636   5.977   5.668
 1054SOL    HW2 4062   3.549   6.104   5.721
 1055SOL     OW 4063   3.638   4.930   4.791
 1055SOL    HW1 4064   3.726   4.970   4.816
 1055SOL    HW2 4065   3.594   4.892   4.872
 1056SOL     OW 4066   2.793   5.982   0.313
 1056SOL    HW1 4067   2.793   5.964   0.411
 1056SOL    HW2 4068   2.832   5.903   0.264
 1057SOL     OW 4069   3.598   3.951   1.171
 1057SOL    HW1 4070   3.683   3.908   1.139
 1057SOL    HW2 4071   3.551   3.889   1.233
 1058SOL     OW 4072   2.349   0.248   2.326
 1058SOL    HW1 4073   2.399   0.215   2.405
 1058SOL    HW2 4074   2.261   0.286   2.356
 1059SOL     OW 4075   3.878   0.469   0.564
 1059SOL    HW1 4076   3.957   0.505   0.613
 1059SOL    HW2 4077   3.837   0.395   0.616
 1060SOL     OW 4078   3.757   1.762   4.117
 1060SOL    HW1 4079   3.683   1.695   4.120
 1060SOL    HW2 4080   3.803   1.765   4.206
 1061SOL     OW 4081   2.738   5.299   1.106
 1061SOL    HW1 4082   2.797   5.300   1.026
 1061SOL    HW2 4083   2.658   5.243   1.089
 1062SOL     OW 4084   5.479   4.141   5.292
 1062SOL    HW1 4085   5.489   4.136   5.193
 1062SOL    HW2 4086   5.513   4.229   5.325
 1063SOL     OW 4087   4.069   2.039   5.993
 1063SOL    HW1 4088   4.017   1.959   6.024
 1063SOL    HW2 4089   4.167   2.019   5.998
 1064SOL     OW 4090   0.617   3.066   2.672
 1064SOL    HW1 4091   0.551   3.009   2.721
 1064SOL    HW2 4092   0.606   3.054   2.574
 1065SOL     OW 4093   3.982   5.798   0.470
 1065SOL    HW1 4094   4.049   5.870   0.483
 1065SOL    HW2 4095   3.999   5.750   0.384
 1066SOL     OW 4096   5.321   6.280   3.349
 1066SOL    HW1 4097   5.284   6.187   3.339
 1066SOL    HW2 4098   5.290   6.336   3.273
 1067SOL     OW 4099   3.385   4.405   0.978
 1067SOL    HW1 4100   3.399   4.447   1.068
 1067SOL    HW2 4101   3.307   4.343   0.982
 1068SOL     OW 4102   1.377   5.134   2.303
 1068SOL    HW1 4103   1.393   5.159   2.398
 1068SOL    HW2 4104   1.457   5.161   2.248
 1069SOL     OW 4105   3.920   3.916   3.206
 1069SOL    HW1 4106   3.833   3.948   3.169
 1069SOL    HW2 4107   3.992   3.980   3.179
 1070SOL     OW 4108   1.457   6.435   0.120
 1070SOL    HW1 4109   1.538   6.384   0.150
 1070SOL    HW2 4110   1.393   6.443   0.196
 1071SOL     OW 4111   4.294   4.963   3.748
 1071SOL    HW1 4112   4.221   5.002   3.692
 1071SOL    HW2 4113   4.343   5.036   3.795
 1072SOL     OW 4114   4.421   5.304   3.473
 1072SOL    HW1 4115   4.370   5.272   3.552
 1072SOL    HW2 4116   4.518   5.310   3.495
 1073SOL     OW 4117   2.918   5.631   4.102
 1073SOL    HW1 4118   2.906   5.607   4.005
 1073SOL    HW2 4119   2.979   5.710   4.109
 1074SOL     OW 4120   2.421   5.338   3.869
 1074SOL    HW1 4121   2.418   5.242   3.843
 1074SOL    HW2 4122   2.331   5.367   3.902
 1075SOL     OW 4123   0.975   4.330   2.911
 1075SOL    HW1 4124   0.987   4.380   2.997
 1075SOL    HW2 4125   1.060   4.283   2.887
 1076SOL     OW 4126   5.136   3.739   3.332
 1076SOL    HW1 4127   5.198   3.661   3.336
 1076SOL    HW2 4128   5.076   3.738   3.412
 1077SOL     OW 4129   3.967   0.636   2.152
 1077SOL    HW1 4130   3.884   0.660   2.201
 1077SOL    HW2 4131   3.989   0.708   2.086
 1078SOL     OW 4132   6.022   2.444   1.923
 1078SOL    HW1 4133   6.085   2.521   1.935
 1078SOL    HW2 4134   6.073   2.363   1.895
 1079SOL     OW 4135   1.667   5.059   3.075
 1079SOL    HW1 4136   1.674   4.999   3.155
 1079SOL    HW2 4137   1.699   5.010   2.994
 1080SOL     OW 4138   2.261   5.319   4.225
 1080SOL    HW1 4139   2.231   5.303   4.319
 1080SOL    HW2 4140   2.223   5.406   4.192
 1081SOL     OW 4141   1.353   0.488   0.635
 1081SOL    HW1 4142   1.268   0.502   0.687
 1081SOL    HW2 4143   1.342   0.414   0.570
 1082SOL     OW 4144   2.135   0.860   1.225
 1082SOL    HW1 4145   2.221   0.903   1.199
 1082SOL    HW2 4146   2.134   0.843   1.323
 1083SOL     OW 4147   3.472   3.928   1.987
 1083SOL    HW1 4148   3.430   3.845   1.953
 1083SOL    HW2 4149   3.548   3.954   1.928
 1084SOL     OW 4150   5.788   4.432   1.597
 1084SOL    HW1 4151   5.857   4.422   1.669
 1084SOL    HW2 4152   5.708   4.478   1.635
 1085SOL     OW 4153   1.639   6.049   3.572
 1085SOL    HW1 4154   1.716   6.086   3.623
 1085SOL    HW2 4155   1.654   5.951   3.555
 1086SOL     OW 4156   2.911   6.634   2.647
 1086SOL    HW1 4157   2.981   6.597   2.586
 1086SOL    HW2 4158   2.825   6.645   2.597
 1087SOL     OW 4159   3.695   3.083   5.400
 1087SOL    HW1 4160   3.661   3.017   5.333
 1087SOL    HW2 4161   3.629   3.090   5.475
 1088SOL     OW 4162   6.699   5.242   2.606
 1088SOL    HW1 4163   6.685   5.168   2.540
 1088SOL    HW2 4164   6.645   5.223   2.688
 1089SOL     OW 4165   6.914   0.533   3.745
 1089SOL    HW1 4166   6.871   0.596   3.810
 1089SOL    HW2 4167   6.938   0.582   3.662
 1090SOL     OW 4168   3.377   2.116   6.743
 1090SOL    HW1 4169   3.430   2.141   6.824
 1090SOL    HW2 4170   3.403   2.025   6.712
 1091SOL     OW 4171   1.573   1.727   5.595
 1091SOL    HW1 4172   1.635   1.653   5.620
 1091SOL    HW2 4173   1.584   1.804   5.659
 1092SOL     OW 4174   2.996   4.583   0.769
 1092SOL    HW1 4175   2.999   4.669   0.718
 1092SOL    HW2 4176   3.072   4.525   0.740
 1093SOL     OW 4177   0.144   1.873   1.213
 1093SOL    HW1 4178   0.095   1.930   1.148
 1093SOL    HW2 4179   0.120   1.901   1.306
 1094SOL     OW 4180   0.426   5.587   2.833
 1094SOL    HW1 4181   0.468   5.659   2.777
 1094SOL    HW2 4182   0.371   5.528   2.774
 1095SOL     OW 4183   1.769   2.947   5.228
 1095SOL    HW1 4184   1.720   2.902   5.155
 1095SOL    HW2 4185   1.811   2.879   5.288
 1096SOL     OW 4186   3.560   2.817   2.006
 1096SOL    HW1 4187   3.611   2.733   2.026
 1096SOL    HW2 4188   3.550   2.826   1.907
 1097SOL     OW 4189   2.913   5.279   5.633
 1097SOL    HW1 4190   3.004   5.276   5.592
 1097SOL    HW2 4191   2.911   5.219   5.714
 1098SOL     OW 4192   2.681   0.505   2.583
 1098SOL    HW1 4193   2.685   0.531   2.486
 1098SOL    HW2 4194   2.707   0.583   2.640
 1099SOL     OW 4195   3.129   0.599   2.343
 1099SOL    HW1 4196   3.063   0.618   2.270
 1099SOL    HW2 4197   3.088   0.621   2.431
 1100SOL     OW 4198   0.114   0.549   0.642
 1100SOL    HW1 4199   0.032   0.508   0.604
 1100SOL    HW2 4200   0.190   0.485   0.635
 1101SOL     OW 4201   5.841   4.274   1.176
 1101SOL    HW1 4202   5.805   4.185   1.149
 1101SOL    HW2 4203   5.912   4.302   1.111
 1102SOL     OW 4204   6.652   4.303   4.198
 1102SOL    HW1 4205   6.751   4.291   4.193
 1102SOL    HW2 4206   6.607   4.214   4.205
 1103SOL     OW 4207   0.740   2.703   6.507
 1103SOL    HW1 4208   0.808   2.644   6.550
 1103SOL    HW2 4209   0.773   2.734   6.418
 1104SOL     OW 4210   3.275   5.301   5.422
 1104SOL    HW1 4211   3.221   5.290   5.505
 1104SOL    HW2 4212   3.339   5.224   5.413
 1105SOL     OW 4213   3.978   5.953   0.835
 1105SOL    HW1 4214   3.954   5.952   0.932
 1105SOL    HW2 4215   3.900   5.920   0.782
 1106SOL     OW 4216   0.973   2.451   6.289
 1106SOL    HW1 4217   1.011   2.539   6.317
 1106SOL    HW2 4218   1.046   2.384   6.280
 1107SOL     OW 4219   6.360   6.734   1.576
 1107SOL    HW1 4220   6.428   6.689   1.518
 1107SOL    HW2 4221   6.272   6.689   1.564
 1108SOL     OW 4222   1.287   1.149   6.838
 1108SOL    HW1 4223   1.226   1.077   6.807
 1108SOL    HW2 4224   1.233   1.231   6.860
 1109SOL     OW 4225   4.186   1.599   3.311
 1109SOL    HW1 4226   4.237   1.524   3.352
 1109SOL    HW2 4227   4.208   1.685   3.358
 1110SOL     OW 4228   3.708   3.724   3.108
 1110SOL    HW1 4229   3.649   3.644   3.118
 1110SOL    HW2 4230   3.782   3.703   3.044
 1111SOL     OW 4231   3.988   0.302   6.599
 1111SOL    HW1 4232   3.991   0.357   6.682
 1111SOL    HW2 4233   3.972   0.361   6.520
 1112SOL     OW 4234   0.842   1.421   2.577
 1112SOL    HW1 4235   0.754   1.377   2.597
 1112SOL    HW2 4236   0.874   1.471   2.657
 1113SOL     OW 4237   0.881   5.176   2.115
 1113SOL    HW1 4238   0.801   5.168   2.174
 1113SOL    HW2 4239   0.956   5.217   2.166
 1114SOL     OW 4240   5.958   0.638   5.663
 1114SOL    HW1 4241   5.947   0.569   5.735
 1114SOL    HW2 4242   5.985   0.725   5.705
 1115SOL     OW 4243   1.792   5.071   0.019
 1115SOL    HW1 4244   1.737   5.059   0.102
 1115SOL    HW2 4245   1.834   5.162   0.020
 1116SOL     OW 4246   3.130   6.740   6.057
 1116SOL    HW1 4247   3.151   6.658   6.004
 1116SOL    HW2 4248   3.108   6.714   6.151
 1117SOL     OW 4249   3.268   2.556   0.683
 1117SOL    HW1 4250   3.302   2.644   0.650
 1117SOL    HW2 4251   3.314   2.482   0.636
 1118SOL     OW 4252   2.095   2.218   1.312
 1118SOL    HW1 4253   2.174   2.207   1.372
 1118SOL    HW2 4254   2.014   2.178   1.356
 1119SOL     OW 4255   3.445   3.425   3.602
 1119SOL    HW1 4256   3.526   3.397   3.550
 1119SOL    HW2 4257   3.423   3.356   3.670
 1120SOL     OW 4258   3.193   1.312   3.246
 1120SOL    HW1 4259   3.193   1.372   3.167
 1120SOL    HW2 4260   3.172   1.365   3.328
 1121SOL     OW 4261   4.841   3.974   2.813
 1121SOL    HW1 4262   4.787   3.921   2.747
 1121SOL    HW2 4263   4.869   4.060   2.772
 1122SOL     OW 4264   4.771   4.668   6.926
 1122SOL    HW1 4265   4.788   4.642   6.831
 1122SOL    HW2 4266   4.826   4.748   6.950
 1123SOL     OW 4267   4.282   0.624   1.996
 1123SOL    HW1 4268   4.259   0.718   2.022
 1123SOL    HW2 4269   4.276   0.565   2.077
 1124SOL     OW 4270   2.780   5.116   3.430
 1124SOL    HW1 4271   2.807   5.117   3.527
 1124SOL    HW2 4272   2.702   5.177   3.417
 1125SOL     OW 4273   3.406   4.532   5.693
 1125SOL    HW1 4274   3.444   4.479   5.617
 1125SOL    HW2 4275   3.421   4.484   5.779
 1126SOL     OW 4276   6.048   0.683   2.099
 1126SOL    HW1 4277   6.067   0.679   2.198
 1126SOL    HW2 4278   6.096   0.761   2.060
 1127SOL     OW 4279   2.909   5.571   5.998
 1127SOL    HW1 4280   2.826   5.516   5.984
 1127SOL    HW2 4281   2.959   5.577   5.912
 1128SOL     OW 4282   2.545   1.586   5.599
 1128SOL    HW1 4283   2.477   1.649   5.561
 1128SOL    HW2 4284   2.625   1.584   5.539
 1129SOL     OW 4285   4.158   6.015   6.698
 1129SOL    HW1 4286   4.118   5.928   6.666
 1129SOL    HW2 4287   4.182   6.006   6.794
 1130SOL     OW 4288   1.196   4.712   5.435
 1130SOL    HW1 4289   1.182   4.679   5.529
 1130SOL    HW2 4290   1.123   4.677   5.377
 1131SOL     OW 4291   1.426   4.314   5.624
 1131SOL    HW1 4292   1.415   4.223   5.665
 1131SOL    HW2 4293   1.364   4.379   5.667
 1132SOL     OW 4294   5.366   6.679   4.722
 1132SOL    HW1 4295   5.290   6.651   4.664
 1132SOL    HW2 4296   5.423   6.746   4.673
 1133SOL     OW 4297   0.252   1.932   6.999
 1133SOL    HW1 4298   0.161   1.956   0.017
 1133SOL    HW2 4299   0.252   1.837   6.969
 1134SOL     OW 4300   0.100   3.674   5.996
 1134SOL    HW1 4301   0.050   3.606   5.943
 1134SOL    HW2 4302   0.074   3.668   6.092
 1135SOL     OW 4303   6.832   1.891   4.163
 1135SOL    HW1 4304   6.836   1.795   4.134
 1135SOL    HW2 4305   6.789   1.946   4.092
 1136SOL     OW 4306   3.931   5.582   3.989
 1136SOL    HW1 4307   3.863   5.654   4.005
 1136SOL    HW2 4308   3.885   5.501   3.952
 1137SOL     OW 4309   0.656   0.430   6.839
 1137SOL    HW1 4310   0.728   0.483   6.795
 1137SOL    HW2 4311   0.658   0.445   6.938
 1138SOL     OW 4312   0.784   2.408   5.873
 1138SOL    HW1 4313   0.696   2.376   5.907
 1138SOL    HW2 4314   0.856   2.347   5.905
 1139SOL     OW 4315   6.975   0.225   2.790
 1139SOL    HW1 4316   7.009   0.297   2.850
 1139SOL    HW2 4317   0.031   0.200   2.724
 1140SOL     OW 4318   4.367   2.035   3.329
 1140SOL    HW1 4319   4.400   2.040   3.235
 1140SOL    HW2 4320   4.289   2.096   3.341
 1141SOL     OW 4321   0.587   0.319   6.094
 1141SOL    HW1 4322   0.638   0.304   6.010
 1141SOL    HW2 4323   0.624   0.399   6.142
 1142SOL     OW 4324   5.777   6.868   5.861
 1142SOL    HW1 4325   5.762   6.813   5.778
 1142SOL    HW2 4326   5.767   6.965   5.838
 1143SOL     OW 4327   5.511   2.538   1.331
 1143SOL    HW1 4328   5.503   2.579   1.240
 1143SOL    HW2 4329   5.543   2.444   1.322
 1144SOL     OW 4330   0.896   6.398   4.564
 1144SOL    HW1 4331   0.985   6.444   4.554
 1144SOL    HW2 4332   0.843   6.443   4.636
 1145SOL     OW 4333   3.203   4.916   4.919
 1145SOL    HW1 4334   3.270   4.987   4.938
 1145SOL    HW2 4335   3.213   4.841   4.984
 1146SOL     OW 4336   5.621   1.913   2.086
 1146SOL    HW1 4337   5.692   1.936   2.020
 1146SOL    HW2 4338   5.552   1.985   2.088
 1147SOL     OW 4339   6.710   4.010   2.712
 1147SOL    HW1 4340   6.616   4.041   2.724
 1147SOL    HW2 4341   6.748   3.985   2.801
 1148SOL     OW 4342   5.933   6.555   6.195
 1148SOL    HW1 4343   5.956   6.633   6.136
 1148SOL    HW2 4344   5.954   6.578   6.290
 1149SOL     OW 4345   4.880   3.472   2.481
 1149SOL    HW1 4346   4.968   3.503   2.444
 1149SOL    HW2 4347   4.810   3.480   2.410
 1150SOL     OW 4348   2.790   5.829   5.048
 1150SOL    HW1 4349   2.716   5.786   5.099
 1150SOL    HW2 4350   2.861   5.761   5.029
 1151SOL     OW 4351   1.782   5.569   0.631
 1151SOL    HW1 4352   1.853   5.636   0.609
 1151SOL    HW2 4353   1.817   5.504   0.699
 1152SOL     OW 4354   6.633   0.847   3.657
 1152SOL    HW1 4355   6.559   0.913   3.670
 1152SOL    HW2 4356   6.599   0.755   3.676
 1153SOL     OW 4357   1.178   4.470   2.157
 1153SOL    HW1 4358   1.267   4.497   2.194
 1153SOL    HW2 4359   1.109   4.475   2.230
 1154SOL     OW 4360   1.576   3.390   2.122
 1154SOL    HW1 4361   1.508   3.337   2.071
 1154SOL    HW2 4362   1.590   3.479   2.077
 1155SOL     OW 4363   4.951   0.923   2.066
 1155SOL    HW1 4364   4.933   1.017   2.097
 1155SOL    HW2 4365   4.880   0.862   2.100
 1156SOL     OW 4366   2.935   1.353   3.990
 1156SOL    HW1 4367   2.888   1.421   4.046
 1156SOL    HW2 4368   2.883   1.268   3.990
 1157SOL     OW 4369   2.138   3.568   3.248
 1157SOL    HW1 4370   2.098   3.576   3.157
 1157SOL    HW2 4371   2.207   3.639   3.260
 1158SOL     OW 4372   4.941   5.605   5.099
 1158SOL    HW1 4373   4.885   5.648   5.028
 1158SOL    HW2 4374   4.954   5.509   5.077
 1159SOL     OW 4375   6.207   4.154   3.348
 1159SOL    HW1 4376   6.190   4.116   3.439
 1159SOL    HW2 4377   6.127   4.139   3.290
 1160SOL     OW 4378   3.101   2.329   1.301
 1160SOL    HW1 4379   3.152   2.410   1.272
 1160SOL    HW2 4380   3.155   2.280   1.370
 1161SOL     OW 4381   4.001   1.216   2.888
 1161SOL    HW1 4382   3.993   1.193   2.985
 1161SOL    HW2 4383   3.935   1.162   2.835
 1162SOL     OW 4384   3.484   4.763   0.997
 1162SOL    HW1 4385   3.576   4.730   0.974
 1162SOL    HW2 4386   3.448   4.817   0.921
 1163SOL     OW 4387   4.934   6.382   3.663
 1163SOL    HW1 4388   5.031   6.365   3.681
 1163SOL    HW2 4389   4.898   6.444   3.733
 1164SOL     OW 4390   6.401   4.195   4.447
 1164SOL    HW1 4391   6.444   4.142   4.374
 1164SOL    HW2 4392   6.302   4.198   4.432
 1165SOL     OW 4393   0.157   5.243   2.320
 1165SOL    HW1 4394   0.150   5.334   2.277
 1165SOL    HW2 4395   0.209   5.251   2.405
 1166SOL     OW 4396   3.192   1.265   5.626
 1166SOL    HW1 4397   3.141   1.192   5.671
 1166SOL    HW2 4398   3.189   1.347   5.684
 1167SOL     OW 4399   4.314   1.657   5.444
 1167SOL    HW1 4400   4.292   1.568   5.484
 1167SOL    HW2 4401   4.411   1.659   5.420
 1168SOL     OW 4402   5.536   1.215   4.225
 1168SOL    HW1 4403   5.436   1.213   4.231
 1168SOL    HW2 4404   5.564   1.196   4.131
 1169SOL     OW 4405   2.226   2.567   0.949
 1169SOL    HW1 4406   2.264   2.479   0.921
 1169SOL    HW2 4407   2.167   2.603   0.876
 1170SOL     OW 4408   2.228   1.063   2.097
 1170SOL    HW1 4409   2.139   1.077   2.141
 1170SOL    HW2 4410   2.300   1.103   2.153
 1171SOL     OW 4411   4.703   0.712   0.928
 1171SOL    HW1 4412   4.627   0.658   0.961
 1171SOL    HW2 4413   4.732   0.679   0.838
 1172SOL     OW 4414   3.623   3.502   5.666
 1172SOL    HW1 4415   3.554   3.484   5.736
 1172SOL    HW2 4416   3.679   3.420   5.652
 1173SOL     OW 4417   5.422   6.070   0.379
 1173SOL    HW1 4418   5.503   6.100   0.328
 1173SOL    HW2 4419   5.403   5.974   0.358
 1174SOL     OW 4420   3.862   6.315   6.307
 1174SOL    HW1 4421   3.807   6.253   6.251
 1174SOL    HW2 4422   3.836   6.305   6.403
 1175SOL     OW 4423   6.982   5.300   5.254
 1175SOL    HW1 4424   6.905   5.236   5.251
 1175SOL    HW2 4425   0.031   5.276   5.182
 1176SOL     OW 4426   6.155   2.978   1.336
 1176SOL    HW1 4427   6.131   3.030   1.254
 1176SOL    HW2 4428   6.121   2.885   1.328
 1177SOL     OW 4429   0.030   3.032   5.246
 1177SOL    HW1 4430   6.988   3.105   5.212
 1177SOL    HW2 4431   0.113   3.026   5.189
 1178SOL     OW 4432   4.466   4.675   2.087
 1178SOL    HW1 4433   4.461   4.632   1.997
 1178SOL    HW2 4434   4.490   4.605   2.155
 1179SOL     OW 4435   1.472   5.312   6.396
 1179SOL    HW1 4436   1.453   5.247   6.322
 1179SOL    HW2 4437   1.417   5.394   6.383
 1180SOL     OW 4438   2.195   1.341   4.015
 1180SOL    HW1 4439   2.217   1.269   3.950
 1180SOL    HW2 4440   2.203   1.305   4.108
 1181SOL     OW 4441   0.986   4.170   1.793
 1181SOL    HW1 4442   1.079   4.191   1.762
 1181SOL    HW2 4443   0.931   4.253   1.789
 1182SOL     OW 4444   6.852   3.844   3.938
 1182SOL    HW1 4445   6.861   3.940   3.909
 1182SOL    HW2 4446   6.861   3.785   3.858
 1183SOL     OW 4447   4.150   5.942   0.616
 1183SOL    HW1 4448   4.181   6.036   0.603
 1183SOL    HW2 4449   4.083   5.939   0.690
 1184SOL     OW 4450   4.187   3.635   6.744
 1184SOL    HW1 4451   4.280   3.666   6.767
 1184SOL    HW2 4452   4.192   3.555   6.685
 1185SOL     OW 4453   3.583   1.343   6.146
 1185SOL    HW1 4454   3.605   1.293   6.230
 1185SOL    HW2 4455   3.609   1.439   6.157
 1186SOL     OW 4456   4.501   6.461   5.122
 1186SOL    HW1 4457   4.456   6.540   5.164
 1186SOL    HW2 4458   4.524   6.394   5.193
 1187SOL     OW 4459   0.636   2.467   4.632
 1187SOL    HW1 4460   0.561   2.455   4.697
 1187SOL    HW2 4461   0.657   2.565   4.623
 1188SOL     OW 4462   2.508   1.061   5.371
 1188SOL    HW1 4463   2.488   1.135   5.307
 1188SOL    HW2 4464   2.474   0.975   5.334
 1189SOL     OW 4465   1.023   1.158   1.446
 1189SOL    HW1 4466   1.120   1.150   1.469
 1189SOL    HW2 4467   0.996   1.254   1.451
 1190SOL     OW 4468   2.985   6.205   1.390
 1190SOL    HW1 4469   3.006   6.240   1.482
 1190SOL    HW2 4470   2.947   6.279   1.335
 1191SOL     OW 4471   1.713   3.910   1.837
 1191SOL    HW1 4472   1.649   3.833   1.835
 1191SOL    HW2 4473   1.684   3.975   1.907
 1192SOL     OW 4474   3.440   5.603   2.367
 1192SOL    HW1 4475   3.406   5.526   2.421
 1192SOL    HW2 4476   3.385   5.613   2.284
 1193SOL     OW 4477   3.248   2.162   3.809
 1193SOL    HW1 4478   3.200   2.102   3.745
 1193SOL    HW2 4479   3.334   2.192   3.769
 1194SOL     OW 4480   6.415   2.513   2.398
 1194SOL    HW1 4481   6.342   2.581   2.408
 1194SOL    HW2 4482   6.453   2.520   2.305
 1195SOL     OW 4483   4.261   0.566   6.864
 1195SOL    HW1 4484   4.174   0.616   6.868
 1195SOL    HW2 4485   4.318   0.605   6.793
 1196SOL     OW 4486   1.362   5.714   3.484
 1196SOL    HW1 4487   1.308   5.768   3.549
 1196SOL    HW2 4488   1.362   5.618   3.513
 1197SOL     OW 4489   3.745   5.053   0.126
 1197SOL    HW1 4490   3.811   5.128   0.134
 1197SOL    HW2 4491   3.792   4.970   0.097
 1198SOL     OW 4492   3.506   1.451   3.408
 1198SOL    HW1 4493   3.543   1.369   3.452
 1198SOL    HW2 4494   3.579   1.497   3.356
 1199SOL     OW 4495   3.191   4.029   4.052
 1199SOL    HW1 4496   3.114   3.969   4.074
 1199SOL    HW2 4497   3.188   4.053   3.955
 1200SOL     OW 4498   4.890   3.949   1.035
 1200SOL    HW1 4499   4.856   3.988   1.120
 1200SOL    HW2 4500   4.936   4.019   0.982
 1201SOL     OW 4501   1.989   1.311   5.329
 1201SOL    HW1 4502   1.953   1.399   5.297
 1201SOL    HW2 4503   2.088   1.317   5.338
 1202SOL     OW 4504   5.984   6.694   4.091
 1202SOL    HW1 4505   5.943   6.704   4.000
 1202SOL    HW2 4506   6.081   6.672   4.082
 1203SOL     OW 4507   5.217   0.144   1.365
 1203SOL    HW1 4508   5.231   0.081   1.441
 1203SOL    HW2 4509   5.269   0.111   1.286
 1204SOL     OW 4510   2.643   0.599   0.050
 1204SOL    HW1 4511   2.572   0.544   0.095
 1204SOL    HW2 4512   2.636   0.694   0.081
 1205SOL     OW 4513   1.106   2.683   6.328
 1205SOL    HW1 4514   1.053   2.763   6.357
 1205SOL    HW2 4515   1.191   2.679   6.380
 1206SOL     OW 4516   6.276   1.706   5.636
 1206SOL    HW1 4517   6.319   1.625   5.677
 1206SOL    HW2 4518   6.336   1.743   5.565
 1207SOL     OW 4519   6.155   5.964   5.810
 1207SOL    HW1 4520   6.225   5.896   5.786
 1207SOL    HW2 4521   6.172   6.049   5.761
 1208SOL     OW 4522   3.432   4.149   3.604
 1208SOL    HW1 4523   3.426   4.249   3.598
 1208SOL    HW2 4524   3.525   4.123   3.630
 1209SOL     OW 4525   0.003   3.361   4.761
 1209SOL    HW1 4526   6.965   3.444   4.760
 1209SOL    HW2 4527   0.026   3.335   4.667
 1210SOL     OW 4528   2.403   0.260   4.234
 1210SOL    HW1 4529   2.423   0.297   4.143
 1210SOL    HW2 4530   2.355   0.329   4.288
 1211SOL     OW 4531   6.945   3.848   3.436
 1211SOL    HW1 4532   6.988   3.839   3.526
 1211SOL    HW2 4533   6.864   3.790   3.432
 1212SOL     OW 4534   1.066   3.855   2.596
 1212SOL    HW1 4535   1.089   3.778   2.655
 1212SOL    HW2 4536   1.084   3.829   2.501
 1213SOL     OW 4537   6.585   3.727   5.033
 1213SOL    HW1 4538   6.614   3.747   5.127
 1213SOL    HW2 4539   6.649   3.770   4.969
 1214SOL     OW 4540   0.480   1.731   0.502
 1214SOL    HW1 4541   0.480   1.749   0.600
 1214SOL    HW2 4542   0.525   1.805   0.454
 1215SOL     OW 4543   0.791   0.463   1.839
 1215SOL    HW1 4544   0.807   0.532   1.909
 1215SOL    HW2 4545   0.738   0.387   1.877
 1216SOL     OW 4546   1.832   6.864   0.692
 1216SOL    HW1 4547   1.783   6.949   0.713
 1216SOL    HW2 4548   1.839   6.853   0.593
 1217SOL     OW 4549   1.584   2.710   3.431
 1217SOL    HW1 4550   1.578   2.688   3.334
 1217SOL    HW2 4551   1.493   2.731   3.467
 1218SOL     OW 4552   6.833   4.709   3.777
 1218SOL    HW1 4553   6.900   4.733   3.847
 1218SOL    HW2 4554   6.748   4.758   3.794
 1219SOL     OW 4555   1.282   6.094   2.754
 1219SOL    HW1 4556   1.375   6.067   2.729
 1219SOL    HW2 4557   1.229   6.113   2.671
 1220SOL     OW 4558   6.532   4.417   3.190
 1220SOL    HW1 4559   6.534   4.424   3.090
 1220SOL    HW2 4560   6.438   4.428   3.222
 1221SOL     OW 4561   4.689   5.005   0.226
 1221SOL    HW1 4562   4.640   5.079   0.272
 1221SOL    HW2 4563   4.637   4.976   0.145
 1222SOL     OW 4564   6.827   4.921   1.153
 1222SOL    HW1 4565   6.746   4.863   1.155
 1222SOL    HW2 4566   6.861   4.935   1.246
 1223SOL     OW 4567   0.843   4.114   5.272
 1223SOL    HW1 4568   0.913   4.076   5.332
 1223SOL    HW2 4569   0.787   4.179   5.322
 1224SOL     OW 4570   4.047   5.302   1.840
 1224SOL    HW1 4571   4.037   5.401   1.824
 1224SOL    HW2 4572   3.956   5.260   1.848
 1225SOL     OW 4573   5.258   1.520   6.486
 1225SOL    HW1 4574   5.184   1.463   6.521
 1225SOL    HW2 4575   5.254   1.610   6.530
 1226SOL     OW 4576   5.877   5.629   1.081
 1226SOL    HW1 4577   5.956   5.601   1.026
 1226SOL    HW2 4578   5.793   5.615   1.028
 1227SOL     OW 4579   6.282   4.498   0.769
 1227SOL    HW1 4580   6.187   4.476   0.746
 1227SOL    HW2 4581   6.331   4.528   0.687
 1228SOL     OW 4582   4.198   3.744   5.218
 1228SOL    HW1 4583   4.188   3.704   5.127
 1228SOL    HW2 4584   4.202   3.671   5.286
 1229SOL     OW 4585   1.520   5.608   2.004
 1229SOL    HW1 4586   1.604   5.555   1.994
 1229SOL    HW2 4587   1.532   5.697   1.960
 1230SOL     OW 4588   5.637   4.429   0.519
 1230SOL    HW1 4589   5.618   4.501   0.586
 1230SOL    HW2 4590   5.711   4.371   0.553
 1231SOL     OW 4591   2.338   0.701   0.864
 1231SOL    HW1 4592   2.415   0.759   0.839
 1231SOL    HW2 4593   2.252   0.750   0.850
 1232SOL     OW 4594   2.436   2.183   5.788
 1232SOL    HW1 4595   2.506   2.136   5.735
 1232SOL    HW2 4596   2.346   2.147   5.763
 1233SOL     OW 4597   0.191   5.289   5.046
 1233SOL    HW1 4598   0.268   5.227   5.064
 1233SOL    HW2 4599   0.142   5.257   4.965
 1234SOL     OW 4600   6.888   4.194   5.180
 1234SOL    HW1 4601   6.905   4.285   5.217
 1234SOL    HW2 4602   6.818   4.148   5.234
 1235SOL     OW 4603   6.510   5.167   0.288
 1235SOL    HW1 4604   6.511   5.068   0.306
 1235SOL    HW2 4605   6.601   5.204   0.302
 1236SOL     OW 4606   0.276   1.286   2.785
 1236SOL    HW1 4607   0.249   1.370   2.832
 1236SOL    HW2 4608   0.204   1.259   2.721
 1237SOL     OW 4609   0.675   0.419   5.632
 1237SOL    HW1 4610   0.678   0.472   5.717
 1237SOL    HW2 4611   0.647   0.325   5.652
 1238SOL     OW 4612   0.441   0.511   4.291
 1238SOL    HW1 4613   0.535   0.536   4.266
 1238SOL    HW2 4614   0.438   0.482   4.386
 1239SOL     OW 4615   4.465   5.163   3.206
 1239SOL    HW1 4616   4.494   5.069   3.188
 1239SOL    HW2 4617   4.445   5.174   3.303
 1240SOL     OW 4618   0.914   4.143   2.057
 1240SOL    HW1 4619   0.946   4.173   1.967
 1240SOL    HW2 4620   0.815   4.127   2.053
 1241SOL     OW 4621   3.322   5.545   6.292
 1241SOL    HW1 4622   3.387   5.621   6.293
 1241SOL    HW2 4623   3.234   5.578   6.259
 1242SOL     OW 4624   2.426   5.693   0.598
 1242SOL    HW1 4625   2.497   5.729   0.538
 1242SOL    HW2 4626   2.342   5.678   0.545
 1243SOL     OW 4627   0.846   4.469   4.333
 1243SOL    HW1 4628   0.945   4.466   4.342
 1243SOL    HW2 4629   0.817   4.560   4.305
 1244SOL     OW 4630   5.907   6.407   5.004
 1244SOL    HW1 4631   5.963   6.486   5.030
 1244SOL    HW2 4632   5.834   6.437   4.942
 1245SOL     OW 4633   4.218   6.890   1.724
 1245SOL    HW1 4634   4.280   6.964   1.749
 1245SOL    HW2 4635   4.225   6.872   1.626
 1246SOL     OW 4636   5.041   1.973   2.436
 1246SOL    HW1 4637   5.020   2.044   2.503
 1246SOL    HW2 4638   5.129   1.993   2.393
 1247SOL     OW 4639   4.514   6.202   2.982
 1247SOL    HW1 4640   4.424   6.161   2.964
 1247SOL    HW2 4641   4.566   6.143   3.044
 1248SOL     OW 4642   0.323   0.550   4.960
 1248SOL    HW1 4643   0.343   0.635   4.909
 1248SOL    HW2 4644   0.244   0.505   4.918
 1249SOL     OW 4645   6.319   0.065   0.437
 1249SOL    HW1 4646   6.244   0.131   0.426
 1249SOL    HW2 4647   6.404   0.115   0.455
 1250SOL     OW 4648   0.453   4.379   4.893
 1250SOL    HW1 4649   0.355   4.389   4.913
 1250SOL    HW2 4650   0.479   4.283   4.899
 1251SOL     OW 4651   1.941   0.220   3.227
 1251SOL    HW1 4652   1.924   0.131   3.184
 1251SOL    HW2 4653   2.031   0.254   3.199
 1252SOL     OW 4654   3.064   5.028   6.342
 1252SOL    HW1 4655   2.983   4.978   6.311
 1252SOL    HW2 4656   3.073   5.018   6.441
 1253SOL     OW 4657   3.169   5.210   0.418
 1253SOL    HW1 4658   3.143   5.160   0.500
 1253SOL    HW2 4659   3.147   5.307   0.430
 1254SOL     OW 4660   6.337   0.997   3.948
 1254SOL    HW1 4661   6.251   0.947   3.959
 1254SOL    HW2 4662   6.329   1.088   3.988
 1255SOL     OW 4663   5.727   1.883   6.427
 1255SOL    HW1 4664   5.807   1.938   6.403
 1255SOL    HW2 4665   5.757   1.793   6.460
 1256SOL     OW 4666   6.570   6.245   6.312
 1256SOL    HW1 4667   6.599   6.225   6.219
 1256SOL    HW2 4668   6.487   6.301   6.311
 1257SOL     OW 4669   6.767   6.075   2.032
 1257SOL    HW1 4670   6.682   6.126   2.021
 1257SOL    HW2 4671   6.747   5.978   2.040
 1258SOL     OW 4672   5.061   5.504   6.227
 1258SOL    HW1 4673   5.084   5.571   6.298
 1258SOL    HW2 4674   5.144   5.465   6.189
 1259SOL     OW 4675   5.871   6.713   4.862
 1259SOL    HW1 4676   5.958   6.708   4.912
 1259SOL    HW2 4677   5.803   6.761   4.918
 1260SOL     OW 4678   3.313   0.605   0.882
 1260SOL    HW1 4679   3.375   0.529   0.865
 1260SOL    HW2 4680   3.324   0.636   0.976
 1261SOL     OW 4681   1.125   3.923   5.197
 1261SOL    HW1 4682   1.030   3.903   5.174
 1261SOL    HW2 4683   1.128   3.973   5.284
 1262SOL     OW 4684   4.820   6.664   0.396
 1262SOL    HW1 4685   4.771   6.586   0.435
 1262SOL    HW2 4686   4.780   6.749   0.431
 1263SOL     OW 4687   6.947   1.274   1.076
 1263SOL    HW1 4688   6.970   1.196   1.134
 1263SOL    HW2 4689   6.977   1.359   1.119
 1264SOL     OW 4690   5.931   2.569   4.559
 1264SOL    HW1 4691   5.861   2.548   4.627
 1264SOL    HW2 4692   5.965   2.484   4.519
 1265SOL     OW 4693   6.041   5.942   3.693
 1265SOL    HW1 4694   5.987   5.876   3.640
 1265SOL    HW2 4695   6.002   5.950   3.784
 1266SOL     OW 4696   2.432   1.034   4.362
 1266SOL    HW1 4697   2.347   0.987   4.385
 1266SOL    HW2 4698   2.416   1.133   4.357
 1267SOL     OW 4699   6.959   4.608   1.748
 1267SOL    HW1 4700   0.011   4.677   1.768
 1267SOL    HW2 4701   7.004   4.521   1.727
 1268SOL     OW 4702   6.522   4.371   6.374
 1268SOL    HW1 4703   6.463   4.413   6.442
 1268SOL    HW2 4704   6.467   4.342   6.295
 1269SOL     OW 4705   1.161   3.564   5.692
 1269SOL    HW1 4706   1.232   3.635   5.686
 1269SOL    HW2 4707   1.120   3.551   5.601
 1270SOL     OW 4708   1.342   2.669   3.621
 1270SOL    HW1 4709   1.331   2.600   3.550
 1270SOL    HW2 4710   1.269   2.737   3.613
 1271SOL     OW 4711   5.123   4.118   2.800
 1271SOL    HW1 4712   5.179   4.201   2.799
 1271SOL    HW2 4713   5.163   4.051   2.862
 1272SOL     OW 4714   5.802   0.034   0.832
 1272SOL    HW1 4715   5.836   0.013   0.740
 1272SOL    HW2 4716   5.874   0.013   0.899
 1273SOL     OW 4717   2.382   6.209   4.174
 1273SOL    HW1 4718   2.367   6.142   4.246
 1273SOL    HW2 4719   2.318   6.193   4.099
 1274SOL     OW 4720   5.600   2.330   1.489
 1274SOL    HW1 4721   5.542   2.272   1.432
 1274SOL    HW2 4722   5.622   2.282   1.574
 1275SOL     OW 4723   3.544   1.154   3.460
 1275SOL    HW1 4724   3.612   1.084   3.437
 1275SOL    HW2 4725   3.486   1.121   3.534
 1276SOL     OW 4726   5.077   6.624   3.576
 1276SOL    HW1 4727   5.015   6.592   3.504
 1276SOL    HW2 4728   5.118   6.545   3.622
 1277SOL     OW 4729   0.521   1.849   4.809
 1277SOL    HW1 4730   0.442   1.909   4.792
 1277SOL    HW2 4731   0.490   1.754   4.811
 1278SOL     OW 4732   2.805   1.441   4.639
 1278SOL    HW1 4733   2.796   1.528   4.592
 1278SOL    HW2 4734   2.764   1.447   4.730
 1279SOL     OW 4735   2.096   5.004   0.635
 1279SOL    HW1 4736   2.151   4.940   0.581
 1279SOL    HW2 4737   2.002   5.005   0.600
 1280SOL     OW 4738   0.719   6.678   2.886
 1280SOL    HW1 4739   0.647   6.743   2.908
 1280SOL    HW2 4740   0.737   6.620   2.965
 1281SOL     OW 4741   1.245   6.574   4.068
 1281SOL    HW1 4742   1.246   6.508   4.142
 1281SOL    HW2 4743   1.189   6.539   3.993
 1282SOL     OW 4744   1.753   6.886   2.405
 1282SOL    HW1 4745   1.761   6.899   2.503
 1282SOL    HW2 4746   1.772   6.790   2.382
 1283SOL     OW 4747   5.561   4.588   5.549
 1283SOL    HW1 4748   5.524   4.606   5.640
 1283SOL    HW2 4749   5.611   4.668   5.517
 1284SOL     OW 4750   2.761   2.275   2.911
 1284SOL    HW1 4751   2.836   2.234   2.964
 1284SOL    HW2 4752   2.798   2.315   2.827
 1285SOL     OW 4753   6.197   2.147   5.702
 1285SOL    HW1 4754   6.121   2.167   5.764
 1285SOL    HW2 4755   6.281   2.184   5.741
 1286SOL     OW 4756   5.100   5.633   0.968
 1286SOL    HW1 4757   5.144   5.700   1.027
 1286SOL    HW2 4758   5.169   5.584   0.914
 1287SOL     OW 4759   6.028   3.353   6.132
 1287SOL    HW1 4760   5.967   3.315   6.063
 1287SOL    HW2 4761   5.999   3.446   6.155
 1288SOL     OW 4762   6.836   3.197   3.179
 1288SOL    HW1 4763   6.790   3.215   3.092
 1288SOL    HW2 4764   6.818   3.103   3.208
 1289SOL     OW 4765   0.265   4.966   3.241
 1289SOL    HW1 4766   0.169   4.995   3.236
 1289SOL    HW2 4767   0.318   5.034   3.292
 1290SOL     OW 4768   6.611   6.972   2.147
 1290SOL    HW1 4769   6.699   6.925   2.154
 1290SOL    HW2 4770   6.580   6.971   2.052
 1291SOL     OW 4771   1.808   5.553   1.183
 1291SOL    HW1 4772   1.836   5.507   1.268
 1291SOL    HW2 4773   1.889   5.578   1.131
 1292SOL     OW 4774   1.631   6.921   0.450
 1292SOL    HW1 4775   1.720   6.881   0.427
 1292SOL    HW2 4776   1.558   6.864   0.412
 1293SOL     OW 4777   6.711   1.139   6.593
 1293SOL    HW1 4778   6.642   1.089   6.541
 1293SOL    HW2 4779   6.741   1.219   6.542
 1294SOL     OW 4780   0.792   1.534   3.900
 1294SOL    HW1 4781   0.821   1.450   3.946
 1294SOL    HW2 4782   0.783   1.608   3.967
 1295SOL     OW 4783   5.154   4.142   0.528
 1295SOL    HW1 4784   5.073   4.144   0.586
 1295SOL    HW2 4785   5.180   4.236   0.503
 1296SOL     OW 4786   4.003   0.933   0.662
 1296SOL    HW1 4787   4.013   0.931   0.762
 1296SOL    HW2 4788   3.915   0.893   0.637
 1297SOL     OW 4789   5.376   0.810   6.060
 1297SOL    HW1 4790   5.291   0.789   6.108
 1297SOL    HW2 4791   5.447   0.833   6.126
 1298SOL     OW 4792   5.896   2.542   2.774
 1298SOL    HW1 4793   5.976   2.577   2.822
 1298SOL    HW2 4794   5.813   2.568   2.824
 1299SOL     OW 4795   1.332   4.341   4.219
 1299SOL    HW1 4796   1.274   4.414   4.254
 1299SOL    HW2 4797   1.278   4.280   4.161
 1300SOL     OW 4798   3.354   3.302   3.038
 1300SOL    HW1 4799   3.404   3.240   2.978
 1300SOL    HW2 4800   3.382   3.396   3.019
 1301SOL     OW 4801   0.734   0.816   1.690
 1301SOL    HW1 4802   0.708   0.720   1.678
 1301SOL    HW2 4803   0.748   0.836   1.787
 1302SOL     OW 4804   2.710   5.463   5.557
 1302SOL    HW1 4805   2.725   5.529   5.631
 1302SOL    HW2 4806   2.765   5.381   5.575
 1303SOL     OW 4807   2.952   6.870   1.768
 1303SOL    HW1 4808   3.049   6.849   1.766
 1303SOL    HW2 4809   2.927   6.918   1.683
 1304SOL     OW 4810   3.648   0.711   5.415
 1304SOL    HW1 4811   3.612   0.646   5.348
 1304SOL    HW2 4812   3.624   0.681   5.507
 1305SOL     OW 4813   5.888   6.389   4.119
 1305SOL    HW1 4814   5.912   6.475   4.072
 1305SOL    HW2 4815   5.838   6.330   4.055
 1306SOL     OW 4816   1.456   5.481   3.593
 1306SOL    HW1 4817   1.489   5.508   3.684
 1306SOL    HW2 4818   1.391   5.405   3.603
 1307SOL     OW 4819   1.063   0.920   5.347
 1307SOL    HW1 4820   0.970   0.886   5.364
 1307SOL    HW2 4821   1.126   0.843   5.338
 1308SOL     OW 4822   4.443   6.503   3.647
 1308SOL    HW1 4823   4.405   6.585   3.604
 1308SOL    HW2 4824   4.442   6.428   3.581
 1309SOL     OW 4825   6.575   2.891   4.098
 1309SOL    HW1 4826   6.534   2.982   4.098
 1309SOL    HW2 4827   6.631   2.880   4.016
 1310SOL     OW 4828   5.208   4.023   6.102
 1310SOL    HW1 4829   5.274   4.095   6.126
 1310SOL    HW2 4830   5.222   3.944   6.162
 1311SOL     OW 4831   5.398   4.539   0.209
 1311SOL    HW1 4832   5.428   4.515   0.116
 1311SOL    HW2 4833   5.405   4.459   0.268
 1312SOL     OW 4834   6.576   1.630   2.212
 1312SOL    HW1 4835   6.499   1.573   2.182
 1312SOL    HW2 4836   6.662   1.589   2.181
 1313SOL     OW 4837   4.239   5.045   4.903
 1313SOL    HW1 4838   4.252   5.083   4.995
 1313SOL    HW2 4839   4.258   5.115   4.835
 1314SOL     OW 4840   0.231   1.323   6.305
 1314SOL    HW1 4841   0.155   1.265   6.334
 1314SOL    HW2 4842   0.313   1.267   6.291
 1315SOL     OW 4843   1.256   6.611   3.628
 1315SOL    HW1 4844   1.228   6.664   3.548
 1315SOL    HW2 4845   1.351   6.582   3.616
 1316SOL     OW 4846   3.283   5.718   4.388
 1316SOL    HW1 4847   3.375   5.681   4.380
 1316SOL    HW2 4848   3.280   5.783   4.464
 1317SOL     OW 4849   0.446   3.462   3.263
 1317SOL    HW1 4850   0.523   3.516   3.296
 1317SOL    HW2 4851   0.375   3.459   3.334
 1318SOL     OW 4852   0.519   6.939   2.163
 1318SOL    HW1 4853   0.517   0.018   2.131
 1318SOL    HW2 4854   0.461   6.930   2.244
 1319SOL     OW 4855   0.416   6.655   1.241
 1319SOL    HW1 4856   0.509   6.686   1.262
 1319SOL    HW2 4857   0.359   6.666   1.322
 1320SOL     OW 4858   5.987   4.802   5.498
 1320SOL    HW1 4859   5.921   4.727   5.499
 1320SOL    HW2 4860   5.948   4.882   5.454
 1321SOL     OW 4861   3.595   1.411   1.272
 1321SOL    HW1 4862   3.565   1.355   1.195
 1321SOL    HW2 4863   3.632   1.497   1.238
 1322SOL     OW 4864   5.166   1.058   6.114
 1322SOL    HW1 4865   5.140   0.966   6.142
 1322SOL    HW2 4866   5.264   1.070   6.123
 1323SOL     OW 4867   6.541   0.609   4.476
 1323SOL    HW1 4868   6.634   0.602   4.439
 1323SOL    HW2 4869   6.475   0.584   4.405
 1324SOL     OW 4870   1.407   2.768   0.637
 1324SOL    HW1 4871   1.340   2.694   0.629
 1324SOL    HW2 4872   1.367   2.843   0.689
 1325SOL     OW 4873   4.565   5.311   3.774
 1325SOL    HW1 4874   4.475   5.288   3.811
 1325SOL    HW2 4875   4.605   5.386   3.827
 1326SOL     OW 4876   5.231   3.994   4.220
 1326SOL    HW1 4877   5.136   4.002   4.252
 1326SOL    HW2 4878   5.276   4.083   4.227
 1327SOL     OW 4879   3.478   6.522   3.401
 1327SOL    HW1 4880   3.544   6.579   3.353
 1327SOL    HW2 4881   3.508   6.426   3.400
 1328SOL     OW 4882   2.327   1.599   1.403
 1328SOL    HW1 4883   2.348   1.655   1.323
 1328SOL    HW2 4884   2.243   1.633   1.446
 1329SOL     OW 4885   1.010   5.703   1.539
 1329SOL    HW1 4886   1.075   5.779   1.529
 1329SOL    HW2 4887   0.919   5.739   1.556
 1330SOL     OW 4888   6.163   6.455   1.700
 1330SOL    HW1 4889   6.232   6.445   1.772
 1330SOL    HW2 4890   6.134   6.550   1.695
 1331SOL     OW 4891   0.862   2.111   1.426
 1331SOL    HW1 4892   0.822   2.127   1.336
 1331SOL    HW2 4893   0.935   2.177   1.442
 1332SOL     OW 4894   4.655   1.802   0.386
 1332SOL    HW1 4895   4.669   1.704   0.396
 1332SOL    HW2 4896   4.662   1.827   0.289
 1333SOL     OW 4897   4.179   3.502   5.416
 1333SOL    HW1 4898   4.201   3.499   5.514
 1333SOL    HW2 4899   4.188   3.411   5.377
 1334SOL     OW 4900   1.943   3.473   4.071
 1334SOL    HW1 4901   1.893   3.394   4.105
 1334SOL    HW2 4902   1.967   3.533   4.148
 1335SOL     OW 4903   2.135   5.633   3.476
 1335SOL    HW1 4904   2.192   5.698   3.527
 1335SOL    HW2 4905   2.143   5.542   3.517
 1336SOL     OW 4906   0.065   6.454   4.749
 1336SOL    HW1 4907   0.093   6.432   4.843
 1336SOL    HW2 4908   0.093   6.548   4.727
 1337SOL     OW 4909   2.841   0.222   6.938
 1337SOL    HW1 4910   2.840   0.316   6.904
 1337SOL    HW2 4911   2.928   0.179   6.914
 1338SOL     OW 4912   3.865   4.470   0.485
 1338SOL    HW1 4913   3.857   4.566   0.513
 1338SOL    HW2 4914   3.843   4.411   0.562
 1339SOL     OW 4915   0.359   4.281   6.433
 1339SOL    HW1 4916   0.306   4.242   6.508
 1339SOL    HW2 4917   0.389   4.373   6.458
 1340SOL     OW 4918   2.766   2.235   5.851
 1340SOL    HW1 4919   2.735   2.164   5.788
 1340SOL    HW2 4920   2.778   2.321   5.801
 1341SOL     OW 4921   5.145   1.880   3.988
 1341SOL    HW1 4922   5.072   1.822   4.023
 1341SOL    HW2 4923   5.226   1.824   3.968
 1342SOL     OW 4924   0.523   5.754   0.393
 1342SOL    HW1 4925   0.546   5.814   0.469
 1342SOL    HW2 4926   0.520   5.659   0.424
 1343SOL     OW 4927   3.049   5.979   3.258
 1343SOL    HW1 4928   3.090   6.008   3.344
 1343SOL    HW2 4929   3.026   6.060   3.203
 1344SOL     OW 4930   4.552   1.495   2.247
 1344SOL    HW1 4931   4.641   1.512   2.207
 1344SOL    HW2 4932   4.503   1.582   2.256
 1345SOL     OW 4933   6.125   5.408   1.962
 1345SOL    HW1 4934   6.193   5.442   1.896
 1345SOL    HW2 4935   6.172   5.369   2.041
 1346SOL     OW 4936   6.588   1.589   3.192
 1346SOL    HW1 4937   6.583   1.688   3.178
 1346SOL    HW2 4938   6.591   1.569   3.290
 1347SOL     OW 4939   4.205   0.762   4.033
 1347SOL    HW1 4940   4.127   0.761   4.096
 1347SOL    HW2 4941   4.205   0.848   3.982
 1348SOL     OW 4942   5.339   6.383   4.787
 1348SOL    HW1 4943   5.277   6.373   4.865
 1348SOL    HW2 4944   5.363   6.479   4.775
 1349SOL     OW 4945   5.488   1.176   6.533
 1349SOL    HW1 4946   5.504   1.120   6.614
 1349SOL    HW2 4947   5.525   1.267   6.547
 1350SOL     OW 4948   3.937   1.342   4.681
 1350SOL    HW1 4949   4.020   1.289   4.696
 1350SOL    HW2 4950   3.922   1.353   4.583
 1351SOL     OW 4951   1.086   1.337   4.331
 1351SOL    HW1 4952   1.165   1.377   4.285
 1351SOL    HW2 4953   1.019   1.409   4.351
 1352SOL     OW 4954   1.362   6.253   4.274
 1352SOL    HW1 4955   1.301   6.330   4.294
 1352SOL    HW2 4956   1.308   6.177   4.237
 1353SOL     OW 4957   2.820   3.360   6.057
 1353SOL    HW1 4958   2.759   3.425   6.103
 1353SOL    HW2 4959   2.832   3.388   5.962
 1354SOL     OW 4960   0.511   6.317   6.821
 1354SOL    HW1 4961   0.455   6.372   6.758
 1354SOL    HW2 4962   0.561   6.248   6.768
 1355SOL     OW 4963   4.991   3.356   0.208
 1355SOL    HW1 4964   4.941   3.341   0.293
 1355SOL    HW2 4965   5.085   3.323   0.219
 1356SOL     OW 4966   3.741   3.440   2.862
 1356SOL    HW1 4967   3.726   3.361   2.922
 1356SOL    HW2 4968   3.791   3.511   2.911
 1357SOL     OW 4969   4.011   2.305   5.906
 1357SOL    HW1 4970   3.959   2.334   5.986
 1357SOL    HW2 4971   4.033   2.208   5.914
 1358SOL     OW 4972   1.899   3.093   4.764
 1358SOL    HW1 4973   1.922   2.996   4.771
 1358SOL    HW2 4974   1.950   3.134   4.688
 1359SOL     OW 4975   0.954   1.428   6.597
 1359SOL    HW1 4976   0.916   1.436   6.504
 1359SOL    HW2 4977   0.967   1.331   6.619
 1360SOL     OW 4978   3.193   3.423   4.804
 1360SOL    HW1 4979   3.141   3.340   4.785
 1360SOL    HW2 4980   3.246   3.411   4.888
 1361SOL     OW 4981   1.465   6.254   1.142
 1361SOL    HW1 4982   1.428   6.312   1.215
 1361SOL    HW2 4983   1.521   6.309   1.081
 1362SOL     OW 4984   3.622   1.035   6.268
 1362SOL    HW1 4985   3.685   1.023   6.345
 1362SOL    HW2 4986   3.672   1.033   6.182
 1363SOL     OW 4987   6.601   6.319   1.065
 1363SOL    HW1 4988   6.563   6.249   1.004
 1363SOL    HW2 4989   6.652   6.275   1.139
 1364SOL     OW 4990   1.282   3.175   1.105
 1364SOL    HW1 4991   1.289   3.102   1.173
 1364SOL    HW2 4992   1.205   3.157   1.044
 1365SOL     OW 4993   1.682   2.803   6.402
 1365SOL    HW1 4994   1.627   2.731   6.360
 1365SOL    HW2 4995   1.760   2.824   6.344
 1366SOL     OW 4996   3.960   1.470   1.702
 1366SOL    HW1 4997   3.919   1.474   1.794
 1366SOL    HW2 4998   3.936   1.383   1.659
 1367SOL     OW 4999   1.631   0.421   4.186
 1367SOL    HW1 5000   1.557   0.470   4.232
 1367SOL    HW2 5001   1.617   0.424   4.087
 1368SOL     OW 5002   1.867   5.633   4.929
 1368SOL    HW1 5003   1.770   5.638   4.906
 1368SOL    HW2 5004   1.893   5.537   4.939
 1369SOL     OW 5005   2.668   5.765   3.173
 1369SOL    HW1 5006   2.667   5.665   3.179
 1369SOL    HW2 5007   2.578   5.801   3.199
 1370SOL     OW 5008   6.553   3.263   3.033
 1370SOL    HW1 5009   6.541   3.164   3.022
 1370SOL    HW2 5010   6.631   3.293   2.979
 1371SOL     OW 5011   6.403   1.779   6.449
 1371SOL    HW1 5012   6.333   1.793   6.379
 1371SOL    HW2 5013   6.393   1.687   6.488
 1372SOL     OW 5014   4.993   1.985   2.042
 1372SOL    HW1 5015   4.995   2.069   2.096
 1372SOL    HW2 5016   4.899   1.959   2.022
 1373SOL     OW 5017   4.245   2.650   1.265
 1373SOL    HW1 5018   4.325   2.669   1.209
 1373SOL    HW2 5019   4.166   2.634   1.205
 1374SOL     OW 5020   3.195   3.555   4.181
 1374SOL    HW1 5021   3.264   3.608   4.230
 1374SOL    HW2 5022   3.104   3.586   4.208
 1375SOL     OW 5023   6.287   3.996   5.375
 1375SOL    HW1 5024   6.301   3.915   5.432
 1375SOL    HW2 5025   6.260   3.968   5.283
 1376SOL     OW 5026   3.091   4.730   6.054
 1376SOL    HW1 5027   3.029   4.710   6.130
 1376SOL    HW2 5028   3.070   4.820   6.017
 1377SOL     OW 5029   1.015   2.166   3.762
 1377SOL    HW1 5030   1.007   2.198   3.668
 1377SOL    HW2 5031   0.986   2.239   3.825
 1378SOL     OW 5032   5.069   2.537   3.617
 1378SOL    HW1 5033   5.138   2.605   3.591
 1378SOL    HW2 5034   5.098   2.489   3.700
 1379SOL     OW 5035   5.408   5.527   6.334
 1379SOL    HW1 5036   5.472   5.463   6.375
 1379SOL    HW2 5037   5.325   5.531   6.389
 1380SOL     OW 5038   7.002   6.708   4.018
 1380SOL    HW1 5039   0.027   6.766   3.948
 1380SOL    HW2 5040   6.915   6.748   4.048
 1381SOL     OW 5041   6.842   2.700   6.000
 1381SOL    HW1 5042   6.781   2.726   6.075
 1381SOL    HW2 5043   6.840   2.600   5.989
 1382SOL     OW 5044   4.594   2.206   5.629
 1382SOL    HW1 5045   4.585   2.232   5.533
 1382SOL    HW2 5046   4.565   2.111   5.641
 1383SOL     OW 5047   5.390   0.455   0.472
 1383SOL    HW1 5048   5.322   0.421   0.408
 1383SOL    HW2 5049   5.470   0.488   0.422
 1384SOL     OW 5050   5.514   2.106   2.460
 1384SOL    HW1 5051   5.600   2.156   2.449
 1384SOL    HW2 5052   5.440   2.170   2.477
 1385SOL     OW 5053   6.630   6.456   1.845
 1385SOL    HW1 5054   6.636   6.446   1.745
 1385SOL    HW2 5055   6.534   6.456   1.873
 1386SOL     OW 5056   1.828   0.587   4.267
 1386SOL    HW1 5057   1.766   0.515   4.236
 1386SOL    HW2 5058   1.876   0.557   4.349
 1387SOL     OW 5059   1.096   5.963   1.726
 1387SOL    HW1 5060   1.178   5.955   1.783
 1387SOL    HW2 5061   1.121   5.951   1.630
 1388SOL     OW 5062   6.299   1.054   1.573
 1388SOL    HW1 5063   6.368   1.038   1.501
 1388SOL    HW2 5064   6.208   1.037   1.536
 1389SOL     OW 5065   6.694   0.555   0.963
 1389SOL    HW1 5066   6.729   0.479   0.908
 1389SOL    HW2 5067   6.690   0.638   0.907
 1390SOL     OW 5068   1.423   1.599   4.498
 1390SOL    HW1 5069   1.362   1.678   4.493
 1390SOL    HW2 5070   1.496   1.617   4.564
 1391SOL     OW 5071   0.465   3.460   3.916
 1391SOL    HW1 5072   0.442   3.362   3.925
 1391SOL    HW2 5073   0.548   3.470   3.862
 1392SOL     OW 5074   5.246   5.357   3.860
 1392SOL    HW1 5075   5.308   5.430   3.890
 1392SOL    HW2 5076   5.180   5.395   3.795
 1393SOL     OW 5077   3.504   4.630   6.762
 1393SOL    HW1 5078   3.446   4.618   6.842
 1393SOL    HW2 5079   3.447   4.625   6.679
 1394SOL     OW 5080   1.270   6.929   6.463
 1394SOL    HW1 5081   1.192   6.876   6.430
 1394SOL    HW2 5082   1.240   0.007   6.479
 1395SOL     OW 5083   4.231   4.983   6.570
 1395SOL    HW1 5084   4.300   4.945   6.508
 1395SOL    HW2 5085   4.173   4.909   6.604
 1396SOL     OW 5086   5.203   5.948   2.824
 1396SOL    HW1 5087   5.216   5.892   2.742
 1396SOL    HW2 5088   5.108   5.943   2.853
 1397SOL     OW 5089   5.786   5.882   4.802
 1397SOL    HW1 5090   5.833   5.863   4.715
 1397SOL    HW2 5091   5.815   5.971   4.836
 1398SOL     OW 5092   1.720   0.045   5.009
 1398SOL    HW1 5093   1.766   0.033   5.097
 1398SOL    HW2 5094   1.732   6.978   4.954
 1399SOL     OW 5095   2.673   5.457   2.352
 1399SOL    HW1 5096   2.742   5.524   2.382
 1399SOL    HW2 5097   2.678   5.446   2.253
 1400SOL     OW 5098   1.196   0.393   3.458
 1400SOL    HW1 5099   1.183   0.492   3.453
 1400SOL    HW2 5100   1.251   0.363   3.380
 1401SOL     OW 5101   6.675   2.123   4.291
 1401SOL    HW1 5102   6.714   2.209   4.323
 1401SOL    HW2 5103   6.748   2.065   4.254
 1402SOL     OW 5104   5.589   2.240   0.032
 1402SOL    HW1 5105   5.679   2.253   0.073
 1402SOL    HW2 5106   5.518   2.247   0.102
 1403SOL     OW 5107   4.073   1.189   2.026
 1403SOL    HW1 5108   4.094   1.286   2.039
 1403SOL    HW2 5109   4.153   1.134   2.051
 1404SOL     OW 5110   4.456   1.196   6.471
 1404SOL    HW1 5111   4.420   1.262   6.406
 1404SOL    HW2 5112   4.443   1.230   6.564
 1405SOL     OW 5113   3.667   2.686   0.760
 1405SOL    HW1 5114   3.745   2.748   0.764
 1405SOL    HW2 5115   3.633   2.669   0.852
 1406SOL     OW 5116   0.836   3.305   1.920
 1406SOL    HW1 5117   0.891   3.266   1.993
 1406SOL    HW2 5118   0.897   3.349   1.853
 1407SOL     OW 5119   6.790   2.343   2.723
 1407SOL    HW1 5120   6.755   2.301   2.640
 1407SOL    HW2 5121   6.716   2.390   2.771
 1408SOL     OW 5122   6.693   4.610   6.899
 1408SOL    HW1 5123   6.699   4.523   6.947
 1408SOL    HW2 5124   6.633   4.599   6.819
 1409SOL     OW 5125   0.271   1.054   4.092
 1409SOL    HW1 5126   0.340   1.008   4.147
 1409SOL    HW2 5127   0.197   0.991   4.071
 1410SOL     OW 5128   0.228   1.841   6.665
 1410SOL    HW1 5129   0.257   1.818   6.758
 1410SOL    HW2 5130   0.252   1.766   6.603
 1411SOL     OW 5131   1.525   1.432   1.390
 1411SOL    HW1 5132   1.554   1.412   1.296
 1411SOL    HW2 5133   1.594   1.488   1.435
 1412SOL     OW 5134   1.932   2.231   0.671
 1412SOL    HW1 5135   1.871   2.152   0.660
 1412SOL    HW2 5136   1.963   2.261   0.581
 1413SOL     OW 5137   3.286   0.016   3.291
 1413SOL    HW1 5138   3.291   0.059   3.382
 1413SOL    HW2 5139   3.298   6.934   3.300
 1414SOL     OW 5140   1.454   1.022   2.355
 1414SOL    HW1 5141   1.404   1.108   2.369
 1414SOL    HW2 5142   1.455   0.970   2.440
 1415SOL     OW 5143   5.658   6.726   4.659
 1415SOL    HW1 5144   5.748   6.695   4.691
 1415SOL    HW2 5145   5.659   6.825   4.650
 1416SOL     OW 5146   4.660   5.539   3.879
 1416SOL    HW1 5147   4.744   5.582   3.847
 1416SOL    HW2 5148   4.664   5.528   3.978
 1417SOL     OW 5149   3.501   3.100   5.594
 1417SOL    HW1 5150   3.455   3.011   5.599
 1417SOL    HW2 5151   3.535   3.125   5.684
 1418SOL     OW 5152   3.337   4.158   4.271
 1418SOL    HW1 5153   3.429   4.157   4.231
 1418SOL    HW2 5154   3.272   4.117   4.207
 1419SOL     OW 5155   3.117   6.155   3.798
 1419SOL    HW1 5156   3.207   6.142   3.839
 1419SOL    HW2 5157   3.071   6.066   3.788
 1420SOL     OW 5158   0.334   6.556   2.745
 1420SOL    HW1 5159   0.369   6.630   2.688
 1420SOL    HW2 5160   0.388   6.549   2.829
 1421SOL     OW 5161   3.432   1.169   3.199
 1421SOL    HW1 5162   3.339   1.205   3.205
 1421SOL    HW2 5163   3.473   1.169   3.290
 1422SOL     OW 5164   2.696   5.917   0.733
 1422SOL    HW1 5165   2.618   5.980   0.729
 1422SOL    HW2 5166   2.716   5.883   0.641
 1423SOL     OW 5167   4.665   0.311   2.703
 1423SOL    HW1 5168   4.742   0.335   2.644
 1423SOL    HW2 5169   4.596   0.383   2.699
 1424SOL     OW 5170   6.270   5.263   2.130
 1424SOL    HW1 5171   6.188   5.248   2.184
 1424SOL    HW2 5172   6.329   5.182   2.135
 1425SOL     OW 5173   2.087   0.503   4.071
 1425SOL    HW1 5174   2.043   0.414   4.084
 1425SOL    HW2 5175   2.017   0.574   4.061
 1426SOL     OW 5176   1.742   1.204   5.864
 1426SOL    HW1 5177   1.792   1.228   5.780
 1426SOL    HW2 5178   1.683   1.281   5.890
 1427SOL     OW 5179   5.052   2.189   6.231
 1427SOL    HW1 5180   4.979   2.162   6.294
 1427SOL    HW2 5181   5.077   2.112   6.173
 1428SOL     OW 5182   5.860   0.558   0.805
 1428SOL    HW1 5183   5.772   0.599   0.781
 1428SOL    HW2 5184   5.908   0.618   0.869
 1429SOL     OW 5185   5.170   5.944   0.577
 1429SOL    HW1 5186   5.258   5.972   0.615
 1429SOL    HW2 5187   5.118   5.896   0.648
 1430SOL     OW 5188   2.947   4.874   2.629
 1430SOL    HW1 5189   2.860   4.825   2.637
 1430SOL    HW2 5190   2.950   4.924   2.543
 1431SOL     OW 5191   1.972   1.012   0.517
 1431SOL    HW1 5192   1.912   0.973   0.586
 1431SOL    HW2 5193   2.059   0.962   0.515
 1432SOL     OW 5194   3.358   6.999   1.536
 1432SOL    HW1 5195   3.437   0.012   1.591
 1432SOL    HW2 5196   3.388   6.975   1.444
 1433SOL     OW 5197   5.091   6.863   3.424
 1433SOL    HW1 5198   5.005   6.876   3.474
 1433SOL    HW2 5199   5.137   6.780   3.457
 1434SOL     OW 5200   0.780   1.216   5.095
 1434SOL    HW1 5201   0.703   1.206   5.033
 1434SOL    HW2 5202   0.793   1.312   5.117
 1435SOL     OW 5203   6.967   2.061   3.758
 1435SOL    HW1 5204   6.900   2.101   3.821
 1435SOL    HW2 5205   6.925   2.048   3.668
 1436SOL     OW 5206   5.019   3.477   1.563
 1436SOL    HW1 5207   4.934   3.527   1.581
 1436SOL    HW2 5208   5.048   3.430   1.646
 1437SOL     OW 5209   4.665   0.521   2.973
 1437SOL    HW1 5210   4.631   0.570   3.053
 1437SOL    HW2 5211   4.587   0.489   2.918
 1438SOL     OW 5212   2.825   6.986   2.011
 1438SOL    HW1 5213   2.732   6.951   2.011
 1438SOL    HW2 5214   2.857   6.998   1.917
 1439SOL     OW 5215   0.817   5.781   2.522
 1439SOL    HW1 5216   0.899   5.784   2.580
 1439SOL    HW2 5217   0.825   5.707   2.456
 1440SOL     OW 5218   2.514   2.889   1.267
 1440SOL    HW1 5219   2.596   2.942   1.292
 1440SOL    HW2 5220   2.526   2.794   1.294
 1441SOL     OW 5221   4.941   6.152   6.539
 1441SOL    HW1 5222   4.942   6.161   6.638
 1441SOL    HW2 5223   4.849   6.171   6.505
 1442SOL     OW 5224   4.932   5.373   1.712
 1442SOL    HW1 5225   4.906   5.462   1.749
 1442SOL    HW2 5226   5.027   5.376   1.680
 1443SOL     OW 5227   6.861   2.665   2.395
 1443SOL    HW1 5228   6.877   2.569   2.373
 1443SOL    HW2 5229   6.779   2.673   2.452
 1444SOL     OW 5230   0.480   6.692   5.021
 1444SOL    HW1 5231   0.537   6.773   5.031
 1444SOL    HW2 5232   0.504   6.625   5.091
 1445SOL     OW 5233   0.903   2.398   1.187
 1445SOL    HW1 5234   0.912   2.469   1.116
 1445SOL    HW2 5235   0.809   2.367   1.192
 1446SOL     OW 5236   6.095   5.152   1.546
 1446SOL    HW1 5237   6.068   5.149   1.643
 1446SOL    HW2 5238   6.193   5.167   1.539
 1447SOL     OW 5239   0.213   6.571   4.037
 1447SOL    HW1 5240   0.266   6.653   4.060
 1447SOL    HW2 5241   0.115   6.593   4.041
 1448SOL     OW 5242   2.090   1.045   5.332
 1448SOL    HW1 5243   2.072   1.085   5.242
 1448SOL    HW2 5244   2.108   1.117   5.398
 1449SOL     OW 5245   1.870   2.980   2.585
 1449SOL    HW1 5246   1.926   3.060   2.567
 1449SOL    HW2 5247   1.911   2.926   2.659
 1450SOL     OW 5248   3.109   2.081   2.471
 1450SOL    HW1 5249   3.067   2.075   2.380
 1450SOL    HW2 5250   3.206   2.105   2.461
 1451SOL     OW 5251   4.343   1.759   2.852
 1451SOL    HW1 5252   4.270   1.807   2.804
 1451SOL    HW2 5253   4.394   1.701   2.788
 1452SOL     OW 5254   4.342   2.941   5.377
 1452SOL    HW1 5255   4.402   2.879   5.326
 1452SOL    HW2 5256   4.250   2.938   5.339
 1453SOL     OW 5257   1.835   3.141   5.037
 1453SOL    HW1 5258   1.836   3.080   5.116
 1453SOL    HW2 5259   1.851   3.089   4.953
 1454SOL     OW 5260   3.019   2.079   2.209
 1454SOL    HW1 5261   3.020   2.082   2.109
 1454SOL    HW2 5262   2.950   2.142   2.244
 1455SOL     OW 5263   0.169   5.763   2.516
 1455SOL    HW1 5264   0.096   5.732   2.576
 1455SOL    HW2 5265   0.166   5.863   2.509
 1456SOL     OW 5266   6.470   5.932   3.588
 1456SOL    HW1 5267   6.432   5.896   3.673
 1456SOL    HW2 5268   6.562   5.967   3.605
 1457SOL     OW 5269   0.999   5.344   5.789
 1457SOL    HW1 5270   0.916   5.397   5.801
 1457SOL    HW2 5271   1.077   5.394   5.826
 1458SOL     OW 5272   6.929   5.650   4.958
 1458SOL    HW1 5273   6.989   5.628   5.035
 1458SOL    HW2 5274   6.846   5.694   4.991
 1459SOL     OW 5275   6.828   6.051   5.515
 1459SOL    HW1 5276   6.774   6.066   5.598
 1459SOL    HW2 5277   6.834   5.954   5.495
 1460SOL     OW 5278   1.349   6.305   4.978
 1460SOL    HW1 5279   1.361   6.222   4.923
 1460SOL    HW2 5280   1.361   6.385   4.919
 1461SOL     OW 5281   5.787   3.783   3.633
 1461SOL    HW1 5282   5.800   3.860   3.695
 1461SOL    HW2 5283   5.862   3.718   3.642
 1462SOL     OW 5284   1.148   2.116   2.073
 1462SOL    HW1 5285   1.066   2.146   2.123
 1462SOL    HW2 5286   1.121   2.052   2.001
 1463SOL     OW 5287   1.899   4.684   6.765
 1463SOL    HW1 5288   1.879   4.604   6.709
 1463SOL    HW2 5289   1.856   4.765   6.726
 1464SOL     OW 5290   0.932   4.334   5.684
 1464SOL    HW1 5291   0.943   4.271   5.761
 1464SOL    HW2 5292   0.842   4.379   5.690
 1465SOL     OW 5293   1.377   3.054   5.697
 1465SOL    HW1 5294   1.475   3.054   5.718
 1465SOL    HW2 5295   1.340   2.962   5.712
 1466SOL     OW 5296   5.463   1.173   2.674
 1466SOL    HW1 5297   5.388   1.132   2.622
 1466SOL    HW2 5298   5.536   1.199   2.611
 1467SOL     OW 5299   0.237   0.441   3.840
 1467SOL    HW1 5300   0.205   0.486   3.924
 1467SOL    HW2 5301   0.159   0.400   3.793
 1468SOL     OW 5302   3.396   6.757   3.874
 1468SOL    HW1 5303   3.339   6.686   3.914
 1468SOL    HW2 5304   3.428   6.819   3.946
 1469SOL     OW 5305   5.340   4.524   3.260
 1469SOL    HW1 5306   5.295   4.437   3.241
 1469SOL    HW2 5307   5.390   4.517   3.346
 1470SOL     OW 5308   6.197   1.599   1.913
 1470SOL    HW1 5309   6.206   1.567   1.819
 1470SOL    HW2 5310   6.100   1.601   1.938
 1471SOL     OW 5311   4.936   6.600   0.142
 1471SOL    HW1 5312   4.914   6.619   0.237
 1471SOL    HW2 5313   4.887   6.519   0.111
 1472SOL     OW 5314   2.846   0.966   6.771
 1472SOL    HW1 5315   2.778   0.906   6.728
 1472SOL    HW2 5316   2.914   0.911   6.819
 1473SOL     OW 5317   1.606   5.884   3.203
 1473SOL    HW1 5318   1.650   5.839   3.280
 1473SOL    HW2 5319   1.587   5.817   3.131
 1474SOL     OW 5320   1.556   4.218   1.486
 1474SOL    HW1 5321   1.497   4.159   1.431
 1474SOL    HW2 5322   1.542   4.199   1.583
 1475SOL     OW 5323   6.667   0.003   6.496
 1475SOL    HW1 5324   6.625   6.930   6.512
 1475SOL    HW2 5325   6.726   7.015   6.415
 1476SOL     OW 5326   5.840   0.134   6.652
 1476SOL    HW1 5327   5.824   0.058   6.715
 1476SOL    HW2 5328   5.814   0.106   6.559
 1477SOL     OW 5329   3.594   4.180   1.829
 1477SOL    HW1 5330   3.587   4.279   1.822
 1477SOL    HW2 5331   3.545   4.138   1.752
 1478SOL     OW 5332   4.374   3.906   6.293
 1478SOL    HW1 5333   4.405   3.988   6.343
 1478SOL    HW2 5334   4.308   3.933   6.223
 1479SOL     OW 5335   4.407   4.725   0.773
 1479SOL    HW1 5336   4.427   4.823   0.763
 1479SOL    HW2 5337   4.313   4.708   0.744
 1480SOL     OW 5338   2.880   1.757   3.517
 1480SOL    HW1 5339   2.858   1.855   3.511
 1480SOL    HW2 5340   2.797   1.707   3.542
 1481SOL     OW 5341   4.079   1.779   5.428
 1481SOL    HW1 5342   4.177   1.761   5.425
 1481SOL    HW2 5343   4.029   1.697   5.400
 1482SOL     OW 5344   6.603   1.383   1.240
 1482SOL    HW1 5345   6.530   1.444   1.271
 1482SOL    HW2 5346   6.635   1.413   1.150
 1483SOL     OW 5347   6.469   6.078   0.535
 1483SOL    HW1 5348   6.409   6.090   0.614
 1483SOL    HW2 5349   6.561   6.053   0.566
 1484SOL     OW 5350   3.204   6.247   5.686
 1484SOL    HW1 5351   3.151   6.214   5.764
 1484SOL    HW2 5352   3.162   6.329   5.650
 1485SOL     OW 5353   5.335   3.926   3.459
 1485SOL    HW1 5354   5.261   3.869   3.422
 1485SOL    HW2 5355   5.412   3.868   3.486
 1486SOL     OW 5356   5.994   6.233   4.327
 1486SOL    HW1 5357   5.928   6.245   4.402
 1486SOL    HW2 5358   5.967   6.289   4.249
 1487SOL     OW 5359   5.663   0.381   6.434
 1487SOL    HW1 5360   5.595   0.403   6.363
 1487SOL    HW2 5361   5.624   0.400   6.524
 1488SOL     OW 5362   6.657   2.750   2.557
 1488SOL    HW1 5363   6.680   2.844   2.585
 1488SOL    HW2 5364   6.563   2.730   2.585
 1489SOL     OW 5365   3.179   5.688   0.260
 1489SOL    HW1 5366   3.159   5.682   0.358
 1489SOL    HW2 5367   3.240   5.613   0.234
 1490SOL     OW 5368   6.022   2.729   2.089
 1490SOL    HW1 5369   6.102   2.675   2.064
 1490SOL    HW2 5370   6.037   2.825   2.063
 1491SOL     OW 5371   5.543   3.486   4.460
 1491SOL    HW1 5372   5.465   3.508   4.402
 1491SOL    HW2 5373   5.623   3.468   4.403
 1492SOL     OW 5374   1.270   2.923   1.911
 1492SOL    HW1 5375   1.328   2.844   1.889
 1492SOL    HW2 5376   1.278   2.992   1.839
 1493SOL     OW 5377   6.244   2.156   6.541
 1493SOL    HW1 5378   6.322   2.217   6.532
 1493SOL    HW2 5379   6.272   2.072   6.587
 1494SOL     OW 5380   1.658   3.004   6.581
 1494SOL    HW1 5381   1.652   3.074   6.510
 1494SOL    HW2 5382   1.685   2.917   6.540
 1495SOL     OW 5383   5.931   3.996   4.241
 1495SOL    HW1 5384   5.846   3.955   4.208
 1495SOL    HW2 5385   5.929   4.000   4.341
 1496SOL     OW 5386   6.625   6.126   5.738
 1496SOL    HW1 5387   6.672   6.039   5.748
 1496SOL    HW2 5388   6.530   6.116   5.767
 1497SOL     OW 5389   4.632   2.687   2.679
 1497SOL    HW1 5390   4.610   2.695   2.582
 1497SOL    HW2 5391   4.670   2.773   2.711
 1498SOL     OW 5392   3.717   4.052   0.810
 1498SOL    HW1 5393   3.618   4.061   0.822
 1498SOL    HW2 5394   3.736   3.973   0.751
 1499SOL     OW 5395   1.082   4.528   4.168
 1499SOL    HW1 5396   1.010   4.485   4.115
 1499SOL    HW2 5397   1.111   4.613   4.123
 1500SOL     OW 5398   2.397   5.450   1.447
 1500SOL    HW1 5399   2.470   5.463   1.380
 1500SOL    HW2 5400   2.363   5.539   1.477
 1501SOL     OW 5401   5.413   1.053   1.440
 1501SOL    HW1 5402   5.320   1.017   1.452
 1501SOL    HW2 5403   5.409   1.138   1.388
 1502SOL     OW 5404   0.842   6.472   6.174
 1502SOL    HW1 5405   0.785   6.544   6.214
 1502SOL    HW2 5406   0.783   6.396   6.146
 1503SOL     OW 5407   6.248   5.848   2.284
 1503SOL    HW1 5408   6.157   5.881   2.261
 1503SOL    HW2 5409   6.248   5.809   2.376
 1504SOL     OW 5410   1.598   6.949   3.828
 1504SOL    HW1 5411   1.572   6.939   3.732
 1504SOL    HW2 5412   1.555   6.877   3.882
 1505SOL     OW 5413   6.590   4.323   5.077
 1505SOL    HW1 5414   6.657   4.377   5.026
 1505SOL    HW2 5415   6.501   4.330   5.033
 1506SOL     OW 5416   1.134   1.049   0.697
 1506SOL    HW1 5417   1.081   0.971   0.664
 1506SOL    HW2 5418   1.180   1.024   0.783
 1507SOL     OW 5419   2.136   2.397   3.638
 1507SOL    HW1 5420   2.090   2.312   3.611
 1507SOL    HW2 5421   2.070   2.472   3.641
 1508SOL     OW 5422   1.356   0.641   1.564
 1508SOL    HW1 5423   1.372   0.721   1.621
 1508SOL    HW2 5424   1.277   0.657   1.505
 1509SOL     OW 5425   4.273   0.914   4.720
 1509SOL    HW1 5426   4.205   0.841   4.721
 1509SOL    HW2 5427   4.346   0.892   4.655
 1510SOL     OW 5428   2.470   6.815   5.286
 1510SOL    HW1 5429   2.524   6.842   5.366
 1510SOL    HW2 5430   2.390   6.764   5.316
 1511SOL     OW 5431   3.828   4.071   5.099
 1511SOL    HW1 5432   3.835   4.038   5.006
 1511SOL    HW2 5433   3.907   4.041   5.152
 1512SOL     OW 5434   5.552   0.139   0.960
 1512SOL    HW1 5435   5.646   0.164   0.985
 1512SOL    HW2 5436   5.536   0.162   0.864
 1513SOL     OW 5437   3.183   6.351   5.258
 1513SOL    HW1 5438   3.264   6.391   5.301
 1513SOL    HW2 5439   3.140   6.288   5.322
 1514SOL     OW 5440   2.888   1.805   0.207
 1514SOL    HW1 5441   2.870   1.731   0.272
 1514SOL    HW2 5442   2.819   1.803   0.135
 1515SOL     OW 5443   3.546   0.771   1.479
 1515SOL    HW1 5444   3.530   0.833   1.556
 1515SOL    HW2 5445   3.643   0.774   1.454
 1516SOL     OW 5446   0.112   6.600   6.605
 1516SOL    HW1 5447   0.026   6.635   6.642
 1516SOL    HW2 5448   0.166   6.560   6.679
 1517SOL     OW 5449   2.112   6.133   2.639
 1517SOL    HW1 5450   2.064   6.193   2.575
 1517SOL    HW2 5451   2.186   6.086   2.591
 1518SOL     OW 5452   1.898   2.230   6.550
 1518SOL    HW1 5453   1.948   2.144   6.550
 1518SOL    HW2 5454   1.914   2.278   6.636
 1519SOL     OW 5455   0.570   4.366   7.016
 1519SOL    HW1 5456   0.527   4.456   7.001
 1519SOL    HW2 5457   0.658   4.364   6.968
 1520SOL     OW 5458   7.005   6.614   3.009
 1520SOL    HW1 5459   7.011   6.531   2.952
 1520SOL    HW2 5460   0.048   6.604   3.088
 1521SOL     OW 5461   2.731   4.823   0.089
 1521SOL    HW1 5462   2.768   4.808   0.181
 1521SOL    HW2 5463   2.631   4.817   0.092
 1522SOL     OW 5464   5.999   6.121   3.969
 1522SOL    HW1 5465   5.918   6.144   3.915
 1522SOL    HW2 5466   6.029   6.202   4.020
 1523SOL     OW 5467   2.707   6.785   0.376
 1523SOL    HW1 5468   2.718   6.784   0.276
 1523SOL    HW2 5469   2.670   6.873   0.404
 1524SOL     OW 5470   1.933   2.491   4.453
 1524SOL    HW1 5471   2.030   2.470   4.465
 1524SOL    HW2 5472   1.878   2.412   4.479
 1525SOL     OW 5473   6.283   3.903   0.328
 1525SOL    HW1 5474   6.336   3.823   0.297
 1525SOL    HW2 5475   6.239   3.881   0.415
 1526SOL     OW 5476   0.961   1.365   1.811
 1526SOL    HW1 5477   0.988   1.375   1.715
 1526SOL    HW2 5478   0.895   1.289   1.819
 1527SOL     OW 5479   5.273   1.159   4.338
 1527SOL    HW1 5480   5.197   1.193   4.283
 1527SOL    HW2 5481   5.285   1.061   4.322
 1528SOL     OW 5482   2.855   3.391   2.111
 1528SOL    HW1 5483   2.863   3.465   2.177
 1528SOL    HW2 5484   2.760   3.359   2.108
 1529SOL     OW 5485   4.192   0.961   5.939
 1529SOL    HW1 5486   4.155   0.974   5.846
 1529SOL    HW2 5487   4.159   0.875   5.976
 1530SOL     OW 5488   2.776   6.659   1.835
 1530SOL    HW1 5489   2.858   6.707   1.804
 1530SOL    HW2 5490   2.717   6.640   1.756
 1531SOL     OW 5491   5.774   6.245   4.651
 1531SOL    HW1 5492   5.835   6.168   4.630
 1531SOL    HW2 5493   5.797   6.322   4.592
 1532SOL     OW 5494   2.824   5.219   2.256
 1532SOL    HW1 5495   2.847   5.245   2.162
 1532SOL    HW2 5496   2.761   5.286   2.295
 1533SOL     OW 5497   5.594   6.030   1.571
 1533SOL    HW1 5498   5.651   5.979   1.507
 1533SOL    HW2 5499   5.541   5.966   1.627
 1534SOL     OW 5500   2.734   5.114   6.712
 1534SOL    HW1 5501   2.759   5.066   6.796
 1534SOL    HW2 5502   2.724   5.049   6.637
 1535SOL     OW 5503   4.676   4.943   3.435
 1535SOL    HW1 5504   4.700   4.857   3.392
 1535SOL    HW2 5505   4.613   4.926   3.511
 1536SOL     OW 5506   4.108   4.619   6.464
 1536SOL    HW1 5507   4.088   4.706   6.510
 1536SOL    HW2 5508   4.025   4.562   6.463
 1537SOL     OW 5509   2.838   6.097   1.984
 1537SOL    HW1 5510   2.929   6.104   2.024
 1537SOL    HW2 5511   2.841   6.123   1.888
 1538SOL     OW 5512   2.736   1.516   0.598
 1538SOL    HW1 5513   2.799   1.556   0.531
 1538SOL    HW2 5514   2.672   1.455   0.552
 1539SOL     OW 5515   0.450   3.085   0.750
 1539SOL    HW1 5516   0.467   3.020   0.824
 1539SOL    HW2 5517   0.373   3.053   0.695
 1540SOL     OW 5518   3.453   5.546   3.482
 1540SOL    HW1 5519   3.359   5.535   3.512
 1540SOL    HW2 5520   3.472   5.483   3.407
 1541SOL     OW 5521   4.755   2.632   5.346
 1541SOL    HW1 5522   4.742   2.696   5.422
 1541SOL    HW2 5523   4.764   2.539   5.381
 1542SOL     OW 5524   0.792   4.453   2.761
 1542SOL    HW1 5525   0.862   4.416   2.823
 1542SOL    HW2 5526   0.701   4.433   2.797
 1543SOL     OW 5527   4.131   5.001   0.844
 1543SOL    HW1 5528   4.199   5.049   0.899
 1543SOL    HW2 5529   4.115   5.052   0.759
 1544SOL     OW 5530   3.662   2.903   3.534
 1544SOL    HW1 5531   3.696   2.923   3.626
 1544SOL    HW2 5532   3.704   2.966   3.469
 1545SOL     OW 5533   6.474   4.592   0.944
 1545SOL    HW1 5534   6.423   4.657   1.001
 1545SOL    HW2 5535   6.413   4.553   0.875
 1546SOL     OW 5536   6.220   6.538   5.736
 1546SOL    HW1 5537   6.188   6.445   5.757
 1546SOL    HW2 5538   6.314   6.533   5.700
 1547SOL     OW 5539   1.623   2.732   6.738
 1547SOL    HW1 5540   1.533   2.769   6.713
 1547SOL    HW2 5541   1.684   2.736   6.659
 1548SOL     OW 5542   0.058   2.619   0.571
 1548SOL    HW1 5543   0.090   2.527   0.547
 1548SOL    HW2 5544   0.002   2.655   0.497
 1549SOL     OW 5545   4.693   0.447   4.186
 1549SOL    HW1 5546   4.704   0.503   4.103
 1549SOL    HW2 5547   4.613   0.479   4.237
 1550SOL     OW 5548   3.084   3.635   4.691
 1550SOL    HW1 5549   3.149   3.576   4.739
 1550SOL    HW2 5550   3.017   3.671   4.755
 1551SOL     OW 5551   0.037   5.341   5.839
 1551SOL    HW1 5552   7.011   5.431   5.829
 1551SOL    HW2 5553   0.136   5.350   5.831
 1552SOL     OW 5554   2.165   4.151   1.195
 1552SOL    HW1 5555   2.241   4.124   1.255
 1552SOL    HW2 5556   2.085   4.094   1.216
 1553SOL     OW 5557   1.255   2.235   5.684
 1553SOL    HW1 5558   1.243   2.332   5.705
 1553SOL    HW2 5559   1.194   2.181   5.742
 1554SOL     OW 5560   4.462   1.872   3.527
 1554SOL    HW1 5561   4.461   1.955   3.470
 1554SOL    HW2 5562   4.508   1.892   3.613
 1555SOL     OW 5563   6.578   4.469   5.324
 1555SOL    HW1 5564   6.666   4.491   5.366
 1555SOL    HW2 5565   6.592   4.412   5.243
 1556SOL     OW 5566   2.340   0.883   5.266
 1556SOL    HW1 5567   2.311   0.799   5.221
 1556SOL    HW2 5568   2.267   0.952   5.258
 1557SOL     OW 5569   1.574   1.397   5.919
 1557SOL    HW1 5570   1.520   1.476   5.888
 1557SOL    HW2 5571   1.597   1.409   6.015
 1558SOL     OW 5572   6.646   6.967   4.262
 1558SOL    HW1 5573   6.587   6.948   4.341
 1558SOL    HW2 5574   6.654   0.049   4.249
 1559SOL     OW 5575   1.747   1.123   6.222
 1559SOL    HW1 5576   1.658   1.079   6.214
 1559SOL    HW2 5577   1.803   1.101   6.143
 1560SOL     OW 5578   0.174   0.535   1.489
 1560SOL    HW1 5579   0.262   0.563   1.527
 1560SOL    HW2 5580   0.109   0.520   1.564
 1561SOL     OW 5581   6.132   6.127   2.025
 1561SOL    HW1 5582   6.211   6.121   1.965
 1561SOL    HW2 5583   6.106   6.036   2.056
 1562SOL     OW 5584   5.630   6.961   4.371
 1562SOL    HW1 5585   5.695   6.962   4.295
 1562SOL    HW2 5586   5.590   6.869   4.380
 1563SOL     OW 5587   2.775   6.748   6.155
 1563SOL    HW1 5588   2.793   6.742   6.253
 1563SOL    HW2 5589   2.677   6.742   6.139
 1564SOL     OW 5590   1.852   2.904   3.040
 1564SOL    HW1 5591   1.929   2.898   3.103
 1564SOL    HW2 5592   1.820   2.998   3.036
 1565SOL     OW 5593   6.169   4.463   1.606
 1565SOL    HW1 5594   6.177   4.406   1.524
 1565SOL    HW2 5595   6.246   4.445   1.668
 1566SOL     OW 5596   5.895   4.139   1.932
 1566SOL    HW1 5597   5.815   4.188   1.965
 1566SOL    HW2 5598   5.901   4.148   1.833
 1567SOL     OW 5599   6.822   5.523   5.427
 1567SOL    HW1 5600   6.788   5.430   5.418
 1567SOL    HW2 5601   6.843   5.559   5.336
 1568SOL     OW 5602   0.397   6.452   1.034
 1568SOL    HW1 5603   0.494   6.474   1.046
 1568SOL    HW2 5604   0.341   6.531   1.059
 1569SOL     OW 5605   4.131   5.752   4.414
 1569SOL    HW1 5606   4.051   5.692   4.415
 1569SOL    HW2 5607   4.111   5.833   4.358
 1570SOL     OW 5608   2.731   2.171   1.492
 1570SOL    HW1 5609   2.779   2.169   1.405
 1570SOL    HW2 5610   2.782   2.226   1.557
 1571SOL     OW 5611   0.260   2.872   6.384
 1571SOL    HW1 5612   0.287   2.968   6.391
 1571SOL    HW2 5613   0.339   2.814   6.403
 1572SOL     OW 5614   0.625   5.816   4.339
 1572SOL    HW1 5615   0.546   5.760   4.362
 1572SOL    HW2 5616   0.680   5.833   4.420
 1573SOL     OW 5617   4.211   0.490   0.313
 1573SOL    HW1 5618   4.268   0.423   0.267
 1573SOL    HW2 5619   4.214   0.577   0.263
 1574SOL     OW 5620   4.938   3.429   2.195
 1574SOL    HW1 5621   4.946   3.529   2.200
 1574SOL    HW2 5622   4.913   3.402   2.102
 1575SOL     OW 5623   3.334   2.856   6.976
 1575SOL    HW1 5624   3.405   2.789   6.953
 1575SOL    HW2 5625   3.309   2.908   6.895
 1576SOL     OW 5626   5.966   5.033   2.907
 1576SOL    HW1 5627   5.906   5.109   2.932
 1576SOL    HW2 5628   5.971   4.968   2.983
 1577SOL     OW 5629   1.911   0.598   0.832
 1577SOL    HW1 5630   1.957   0.552   0.756
 1577SOL    HW2 5631   1.974   0.604   0.910
 1578SOL     OW 5632   5.623   6.283   4.947
 1578SOL    HW1 5633   5.710   6.254   4.907
 1578SOL    HW2 5634   5.596   6.371   4.908
 1579SOL     OW 5635   6.929   1.375   3.268
 1579SOL    HW1 5636   6.984   1.459   3.271
 1579SOL    HW2 5637   6.986   1.298   3.241
 1580SOL     OW 5638   3.524   3.746   5.796
 1580SOL    HW1 5639   3.506   3.683   5.871
 1580SOL    HW2 5640   3.454   3.733   5.725
 1581SOL     OW 5641   6.187   3.406   4.175
 1581SOL    HW1 5642   6.271   3.371   4.218
 1581SOL    HW2 5643   6.202   3.420   4.078
 1582SOL     OW 5644   6.231   6.309   4.099
 1582SOL    HW1 5645   6.234   6.331   4.196
 1582SOL    HW2 5646   6.172   6.374   4.051
 1583SOL     OW 5647   2.489   3.191   0.741
 1583SOL    HW1 5648   2.487   3.254   0.819
 1583SOL    HW2 5649   2.580   3.190   0.701
 1584SOL     OW 5650   1.629   0.129   6.553
 1584SOL    HW1 5651   1.721   0.139   6.517
 1584SOL    HW2 5652   1.588   0.045   6.519
 1585SOL     OW 5653   5.768   1.017   5.657
 1585SOL    HW1 5654   5.806   1.035   5.567
 1585SOL    HW2 5655   5.678   0.974   5.647
 1586SOL     OW 5656   3.918   3.619   2.973
 1586SOL    HW1 5657   3.965   3.675   2.905
 1586SOL    HW2 5658   3.972   3.538   2.994
 1587SOL     OW 5659   1.769   7.004   5.500
 1587SOL    HW1 5660   1.705   0.055   5.464
 1587SOL    HW2 5661   1.847   6.995   5.438
 1588SOL     OW 5662   0.056   3.993   0.649
 1588SOL    HW1 5663   6.987   3.942   0.662
 1588SOL    HW2 5664   0.036   4.091   0.648
 1589SOL     OW 5665   5.072   5.112   2.865
 1589SOL    HW1 5666   5.139   5.039   2.865
 1589SOL    HW2 5667   5.016   5.106   2.782
 1590SOL     OW 5668   2.200   6.096   4.802
 1590SOL    HW1 5669   2.297   6.121   4.802
 1590SOL    HW2 5670   2.184   6.024   4.734
 1591SOL     OW 5671   2.370   3.480   0.520
 1591SOL    HW1 5672   2.329   3.527   0.442
 1591SOL    HW2 5673   2.309   3.408   0.552
 1592SOL     OW 5674   3.663   3.678   4.237
 1592SOL    HW1 5675   3.653   3.626   4.153
 1592SOL    HW2 5676   3.655   3.616   4.316
 1593SOL     OW 5677   0.812   4.810   3.698
 1593SOL    HW1 5678   0.758   4.776   3.621
 1593SOL    HW2 5679   0.860   4.893   3.670
 1594SOL     OW 5680   0.571   5.376   2.665
 1594SOL    HW1 5681   0.642   5.426   2.716
 1594SOL    HW2 5682   0.607   5.351   2.575
 1595SOL     OW 5683   6.575   3.252   5.001
 1595SOL    HW1 5684   6.584   3.212   4.910
 1595SOL    HW2 5685   6.532   3.342   4.995
 1596SOL     OW 5686   3.628   4.953   6.384
 1596SOL    HW1 5687   3.589   4.867   6.416
 1596SOL    HW2 5688   3.564   5.027   6.403
 1597SOL     OW 5689   2.283   6.429   1.130
 1597SOL    HW1 5690   2.212   6.494   1.104
 1597SOL    HW2 5691   2.329   6.395   1.048
 1598SOL     OW 5692   6.597   5.418   1.824
 1598SOL    HW1 5693   6.549   5.461   1.900
 1598SOL    HW2 5694   6.548   5.436   1.739
 1599SOL     OW 5695   3.465   5.282   0.340
 1599SOL    HW1 5696   3.448   5.187   0.365
 1599SOL    HW2 5697   3.563   5.300   0.342
 1600SOL     OW 5698   3.482   1.581   4.830
 1600SOL    HW1 5699   3.391   1.586   4.790
 1600SOL    HW2 5700   3.543   1.534   4.766
 1601SOL     OW 5701   1.415   5.333   5.000
 1601SOL    HW1 5702   1.446   5.274   4.925
 1601SOL    HW2 5703   1.339   5.390   4.968
 1602SOL     OW 5704   6.798   3.305   1.581
 1602SOL    HW1 5705   6.869   3.365   1.616
 1602SOL    HW2 5706   6.742   3.354   1.514
 1603SOL     OW 5707   6.056   7.007   0.989
 1603SOL    HW1 5708   6.116   0.057   1.035
 1603SOL    HW2 5709   6.102   6.919   0.982
 1604SOL     OW 5710   1.118   5.244   3.699
 1604SOL    HW1 5711   1.134   5.313   3.627
 1604SOL    HW2 5712   1.192   5.248   3.766
 1605SOL     OW 5713   5.077   5.191   1.912
 1605SOL    HW1 5714   5.090   5.273   1.968
 1605SOL    HW2 5715   4.982   5.159   1.922
 1606SOL     OW 5716   6.199   5.355   4.809
 1606SOL    HW1 5717   6.184   5.364   4.907
 1606SOL    HW2 5718   6.297   5.368   4.790
 1607SOL     OW 5719   5.812   3.643   1.415
 1607SOL    HW1 5720   5.847   3.595   1.495
 1607SOL    HW2 5721   5.770   3.729   1.444
 1608SOL     OW 5722   2.057   6.947   0.824
 1608SOL    HW1 5723   1.991   6.915   0.757
 1608SOL    HW2 5724   2.010   6.999   0.895
 1609SOL     OW 5725   6.053   2.290   5.452
 1609SOL    HW1 5726   6.092   2.232   5.524
 1609SOL    HW2 5727   5.995   2.360   5.493
 1610SOL     OW 5728   4.400   6.938   3.733
 1610SOL    HW1 5729   4.407   6.867   3.803
 1610SOL    HW2 5730   4.452   0.002   3.761
 1611SOL     OW 5731   4.316   3.726   1.360
 1611SOL    HW1 5732   4.398   3.678   1.330
 1611SOL    HW2 5733   4.339   3.788   1.435
 1612SOL     OW 5734   3.261   6.902   4.674
 1612SOL    HW1 5735   3.254   6.828   4.607
 1612SOL    HW2 5736   3.286   6.987   4.628
 1613SOL     OW 5737   2.467   0.088   1.640
 1613SOL    HW1 5738   2.368   0.100   1.647
 1613SOL    HW2 5739   2.495   0.010   1.697
 1614SOL     OW 5740   6.830   1.657   5.677
 1614SOL    HW1 5741   6.923   1.622   5.677
 1614SOL    HW2 5742   6.766   1.581   5.686
 1615SOL     OW 5743   6.470   5.510   5.300
 1615SOL    HW1 5744   6.418   5.428   5.323
 1615SOL    HW2 5745   6.410   5.575   5.253
 1616SOL     OW 5746   2.347   2.288   5.460
 1616SOL    HW1 5747   2.260   2.329   5.488
 1616SOL    HW2 5748   2.413   2.361   5.440
 1617SOL     OW 5749   3.027   0.844   2.857
 1617SOL    HW1 5750   2.929   0.857   2.863
 1617SOL    HW2 5751   3.062   0.813   2.946
 1618SOL     OW 5752   5.089   2.802   1.825
 1618SOL    HW1 5753   5.078   2.877   1.890
 1618SOL    HW2 5754   5.179   2.760   1.838
 1619SOL     OW 5755   1.678   3.104   4.541
 1619SOL    HW1 5756   1.699   3.187   4.490
 1619SOL    HW2 5757   1.709   3.114   4.636
 1620SOL     OW 5758   3.614   5.879   1.315
 1620SOL    HW1 5759   3.663   5.835   1.390
 1620SOL    HW2 5760   3.556   5.952   1.351
 1621SOL     OW 5761   2.839   2.498   1.358
 1621SOL    HW1 5762   2.806   2.408   1.328
 1621SOL    HW2 5763   2.829   2.564   1.283
 1622SOL     OW 5764   2.215   2.789   5.738
 1622SOL    HW1 5765   2.263   2.724   5.678
 1622SOL    HW2 5766   2.125   2.810   5.699
 1623SOL     OW 5767   2.168   2.255   4.643
 1623SOL    HW1 5768   2.262   2.221   4.637
 1623SOL    HW2 5769   2.165   2.350   4.610
 1624SOL     OW 5770   1.787   0.523   0.460
 1624SOL    HW1 5771   1.751   0.492   0.548
 1624SOL    HW2 5772   1.715   0.520   0.391
 1625SOL     OW 5773   1.401   6.840   0.688
 1625SOL    HW1 5774   1.471   6.847   0.616
 1625SOL    HW2 5775   1.444   6.853   0.777
 1626SOL     OW 5776   2.271   3.971   6.173
 1626SOL    HW1 5777   2.281   3.976   6.272
 1626SOL    HW2 5778   2.251   3.877   6.146
 1627SOL     OW 5779   4.831   4.264   2.914
 1627SOL    HW1 5780   4.778   4.329   2.968
 1627SOL    HW2 5781   4.861   4.189   2.972
 1628SOL     OW 5782   3.936   3.334   0.317
 1628SOL    HW1 5783   4.008   3.265   0.305
 1628SOL    HW2 5784   3.850   3.289   0.339
 1629SOL     OW 5785   2.132   2.473   3.180
 1629SOL    HW1 5786   2.064   2.531   3.224
 1629SOL    HW2 5787   2.184   2.424   3.250
 1630SOL     OW 5788   5.660   4.307   4.403
 1630SOL    HW1 5789   5.665   4.228   4.464
 1630SOL    HW2 5790   5.573   4.355   4.417
 1631SOL     OW 5791   0.882   0.746   5.517
 1631SOL    HW1 5792   0.838   0.656   5.506
 1631SOL    HW2 5793   0.965   0.736   5.571
 1632SOL     OW 5794   4.092   7.003   6.830
 1632SOL    HW1 5795   4.174   6.947   6.831
 1632SOL    HW2 5796   4.089   0.042   6.746
 1633SOL     OW 5797   6.470   4.076   2.787
 1633SOL    HW1 5798   6.418   4.157   2.760
 1633SOL    HW2 5799   6.407   4.009   2.828
 1634SOL     OW 5800   3.799   0.762   1.386
 1634SOL    HW1 5801   3.796   0.837   1.320
 1634SOL    HW2 5802   3.847   0.684   1.345
 1635SOL     OW 5803   2.235   4.055   4.094
 1635SOL    HW1 5804   2.241   4.107   4.009
 1635SOL    HW2 5805   2.218   3.959   4.074
 1636SOL     OW 5806   2.231   6.749   0.798
 1636SOL    HW1 5807   2.194   6.663   0.833
 1636SOL    HW2 5808   2.159   6.819   0.796
 1637SOL     OW 5809   1.218   3.071   2.128
 1637SOL    HW1 5810   1.283   3.041   2.197
 1637SOL    HW2 5811   1.242   3.030   2.040
 1638SOL     OW 5812   0.467   2.565   5.751
 1638SOL    HW1 5813   0.543   2.524   5.700
 1638SOL    HW2 5814   0.501   2.642   5.805
 1639SOL     OW 5815   3.237   5.207   2.981
 1639SOL    HW1 5816   3.235   5.188   2.882
 1639SOL    HW2 5817   3.166   5.274   3.004
 1640SOL     OW 5818   5.378   0.205   0.701
 1640SOL    HW1 5819   5.429   0.230   0.618
 1640SOL    HW2 5820   5.385   0.278   0.768
 1641SOL     OW 5821   6.257   2.571   4.545
 1641SOL    HW1 5822   6.203   2.488   4.530
 1641SOL    HW2 5823   6.354   2.550   4.527
 1642SOL     OW 5824   0.562   2.494   1.254
 1642SOL    HW1 5825   0.487   2.434   1.226
 1642SOL    HW2 5826   0.556   2.513   1.352
 1643SOL     OW 5827   4.426   0.437   5.444
 1643SOL    HW1 5828   4.440   0.481   5.355
 1643SOL    HW2 5829   4.374   0.498   5.503
 1644SOL     OW 5830   3.889   1.582   0.933
 1644SOL    HW1 5831   3.975   1.619   0.967
 1644SOL    HW2 5832   3.824   1.572   1.008
 1645SOL     OW 5833   2.325   5.604   5.752
 1645SOL    HW1 5834   2.331   5.601   5.652
 1645SOL    HW2 5835   2.232   5.629   5.778
 1646SOL     OW 5836   2.777   3.489   0.636
 1646SOL    HW1 5837   2.825   3.568   0.599
 1646SOL    HW2 5838   2.682   3.514   0.657
 1647SOL     OW 5839   6.174   2.956   1.958
 1647SOL    HW1 5840   6.208   3.012   1.883
 1647SOL    HW2 5841   6.091   2.997   1.996
 1648SOL     OW 5842   2.611   0.486   3.797
 1648SOL    HW1 5843   2.619   0.409   3.734
 1648SOL    HW2 5844   2.586   0.569   3.747
 1649SOL     OW 5845   2.928   0.404   4.566
 1649SOL    HW1 5846   2.992   0.449   4.505
 1649SOL    HW2 5847   2.958   0.416   4.661
 1650SOL     OW 5848   2.736   6.785   4.260
 1650SOL    HW1 5849   2.777   6.874   4.278
 1650SOL    HW2 5850   2.643   6.797   4.225
 1651SOL     OW 5851   1.494   6.972   2.384
 1651SOL    HW1 5852   1.586   6.940   2.361
 1651SOL    HW2 5853   1.429   6.937   2.316
 1652SOL     OW 5854   3.983   3.186   1.007
 1652SOL    HW1 5855   3.927   3.206   0.926
 1652SOL    HW2 5856   3.935   3.217   1.089
 1653SOL     OW 5857   1.080   4.239   0.766
 1653SOL    HW1 5858   1.013   4.303   0.804
 1653SOL    HW2 5859   1.119   4.278   0.683
 1654SOL     OW 5860   0.886   2.638   3.741
 1654SOL    HW1 5861   0.860   2.583   3.661
 1654SOL    HW2 5862   0.803   2.678   3.781
 1655SOL     OW 5863   4.185   4.229   5.293
 1655SOL    HW1 5864   4.212   4.248   5.388
 1655SOL    HW2 5865   4.210   4.306   5.235
 1656SOL     OW 5866   0.023   3.372   2.129
 1656SOL    HW1 5867   0.007   3.275   2.115
 1656SOL    HW2 5868   6.961   3.412   2.177
 1657SOL     OW 5869   1.039   0.831   6.007
 1657SOL    HW1 5870   1.128   0.877   6.015
 1657SOL    HW2 5871   1.051   0.733   6.024
 1658SOL     OW 5872   5.998   6.974   3.459
 1658SOL    HW1 5873   6.025   6.927   3.375
 1658SOL    HW2 5874   6.063   0.031   3.478
 1659SOL     OW 5875   6.011   2.623   6.276
 1659SOL    HW1 5876   5.960   2.689   6.331
 1659SOL    HW2 5877   6.076   2.574   6.334
 1660SOL     OW 5878   2.444   5.637   3.814
 1660SOL    HW1 5879   2.479   5.545   3.830
 1660SOL    HW2 5880   2.491   5.677   3.735
 1661SOL     OW 5881   2.216   0.964   3.514
 1661SOL    HW1 5882   2.146   1.024   3.475
 1661SOL    HW2 5883   2.299   1.017   3.532
 1662SOL     OW 5884   0.519   1.619   3.919
 1662SOL    HW1 5885   0.619   1.615   3.923
 1662SOL    HW2 5886   0.483   1.528   3.897
 1663SOL     OW 5887   0.949   0.523   3.122
 1663SOL    HW1 5888   0.878   0.578   3.166
 1663SOL    HW2 5889   1.023   0.583   3.091
 1664SOL     OW 5890   1.783   6.064   3.947
 1664SOL    HW1 5891   1.751   6.154   3.977
 1664SOL    HW2 5892   1.859   6.035   4.005
 1665SOL     OW 5893   6.972   1.002   4.228
 1665SOL    HW1 5894   0.024   0.940   4.266
 1665SOL    HW2 5895   6.964   1.083   4.287
 1666SOL     OW 5896   6.444   1.845   0.297
 1666SOL    HW1 5897   6.346   1.853   0.312
 1666SOL    HW2 5898   6.479   1.931   0.259
 1667SOL     OW 5899   6.581   6.875   0.759
 1667SOL    HW1 5900   6.560   6.777   0.757
 1667SOL    HW2 5901   6.668   6.891   0.712
 1668SOL     OW 5902   2.431   6.950   4.743
 1668SOL    HW1 5903   2.457   6.960   4.647
 1668SOL    HW2 5904   2.335   6.976   4.755
 1669SOL     OW 5905   5.302   5.741   6.715
 1669SOL    HW1 5906   5.359   5.687   6.776
 1669SOL    HW2 5907   5.344   5.830   6.699
 1670SOL     OW 5908   6.734   3.663   6.681
 1670SOL    HW1 5909   6.657   3.710   6.636
 1670SOL    HW2 5910   6.806   3.729   6.700
 1671SOL     OW 5911   6.419   4.239   1.063
 1671SOL    HW1 5912   6.439   4.334   1.086
 1671SOL    HW2 5913   6.395   4.233   0.966
 1672SOL     OW 5914   2.268   4.507   3.201
 1672SOL    HW1 5915   2.299   4.414   3.184
 1672SOL    HW2 5916   2.223   4.543   3.119
 1673SOL     OW 5917   6.171   3.738   3.365
 1673SOL    HW1 5918   6.250   3.689   3.328
 1673SOL    HW2 5919   6.200   3.801   3.436
 1674SOL     OW 5920   2.408   5.954   0.390
 1674SOL    HW1 5921   2.404   6.047   0.354
 1674SOL    HW2 5922   2.465   5.898   0.330
 1675SOL     OW 5923   5.069   2.366   6.594
 1675SOL    HW1 5924   5.054   2.465   6.603
 1675SOL    HW2 5925   5.160   2.350   6.557
 1676SOL     OW 5926   3.006   1.747   3.174
 1676SOL    HW1 5927   3.064   1.712   3.100
 1676SOL    HW2 5928   2.947   1.819   3.138
 1677SOL     OW 5929   5.301   6.948   6.143
 1677SOL    HW1 5930   5.207   6.962   6.113
 1677SOL    HW2 5931   5.362   6.954   6.064
 1678SOL     OW 5932   4.473   6.636   2.196
 1678SOL    HW1 5933   4.551   6.612   2.140
 1678SOL    HW2 5934   4.499   6.635   2.292
 1679SOL     OW 5935   6.498   4.567   0.287
 1679SOL    HW1 5936   6.579   4.621   0.262
 1679SOL    HW2 5937   6.500   4.480   0.238
 1680SOL     OW 5938   0.170   2.121   5.823
 1680SOL    HW1 5939   0.213   2.114   5.913
 1680SOL    HW2 5940   0.196   2.207   5.780
 1681SOL     OW 5941   4.710   5.453   0.864
 1681SOL    HW1 5942   4.746   5.537   0.904
 1681SOL    HW2 5943   4.785   5.394   0.836
 1682SOL     OW 5944   0.277   3.830   5.863
 1682SOL    HW1 5945   0.313   3.770   5.792
 1682SOL    HW2 5946   0.221   3.777   5.927
 1683SOL     OW 5947   5.926   5.423   5.590
 1683SOL    HW1 5948   6.000   5.490   5.583
 1683SOL    HW2 5949   5.852   5.460   5.646
 1684SOL     OW 5950   0.539   6.782   4.363
 1684SOL    HW1 5951   0.566   6.712   4.297
 1684SOL    HW2 5952   0.607   6.855   4.364
 1685SOL     OW 5953   1.183   2.175   6.890
 1685SOL    HW1 5954   1.092   2.185   6.932
 1685SOL    HW2 5955   1.193   2.082   6.855
 1686SOL     OW 5956   1.777   0.496   5.863
 1686SOL    HW1 5957   1.838   0.417   5.871
 1686SOL    HW2 5958   1.691   0.476   5.910
 1687SOL     OW 5959   2.711   6.821   2.511
 1687SOL    HW1 5960   2.780   6.803   2.440
 1687SOL    HW2 5961   2.621   6.830   2.468
 1688SOL     OW 5962   0.621   1.893   2.951
 1688SOL    HW1 5963   0.688   1.957   2.988
 1688SOL    HW2 5964   0.631   1.804   2.995
 1689SOL     OW 5965   2.102   1.832   1.669
 1689SOL    HW1 5966   2.013   1.873   1.689
 1689SOL    HW2 5967   2.089   1.745   1.621
 1690SOL     OW 5968   1.547   1.430   0.332
 1690SOL    HW1 5969   1.582   1.412   0.240
 1690SOL    HW2 5970   1.587   1.364   0.396
 1691SOL     OW 5971   4.894   4.040   3.626
 1691SOL    HW1 5972   4.816   4.084   3.669
 1691SOL    HW2 5973   4.953   4.109   3.585
 1692SOL     OW 5974   0.312   6.369   3.898
 1692SOL    HW1 5975   0.273   6.428   3.968
 1692SOL    HW2 5976   0.239   6.323   3.849
 1693SOL     OW 5977   4.009   2.148   3.902
 1693SOL    HW1 5978   4.107   2.170   3.902
 1693SOL    HW2 5979   3.992   2.069   3.960
 1694SOL     OW 5980   6.007   6.460   5.243
 1694SOL    HW1 5981   5.984   6.383   5.182
 1694SOL    HW2 5982   5.932   6.526   5.242
 1695SOL     OW 5983   3.922   1.707   6.368
 1695SOL    HW1 5984   3.930   1.658   6.454
 1695SOL    HW2 5985   3.890   1.800   6.385
 1696SOL     OW 5986   3.070   5.994   2.094
 1696SOL    HW1 5987   3.157   5.964   2.054
 1696SOL    HW2 5988   3.079   5.997   2.194
 1697SOL     OW 5989   1.880   1.718   1.927
 1697SOL    HW1 5990   1.883   1.782   1.850
 1697SOL    HW2 5991   1.785   1.698   1.949
 1698SOL     OW 5992   5.052   1.431   6.642
 1698SOL    HW1 5993   4.989   1.354   6.638
 1698SOL    HW2 5994   5.005   1.510   6.681
 1699SOL     OW 5995   2.571   4.821   1.335
 1699SOL    HW1 5996   2.496   4.882   1.312
 1699SOL    HW2 5997   2.547   4.770   1.418
 1700SOL     OW 5998   5.815   3.166   4.628
 1700SOL    HW1 5999   5.747   3.237   4.649
 1700SOL    HW2 6000   5.781   3.077   4.661
 1701SOL     OW 6001   5.557   3.108   4.745
 1701SOL    HW1 6002   5.504   3.129   4.663
 1701SOL    HW2 6003   5.525   3.023   4.785
 1702SOL     OW 6004   5.135   2.715   1.499
 1702SOL    HW1 6005   5.188   2.724   1.583
 1702SOL    HW2 6006   5.103   2.621   1.490
 1703SOL     OW 6007   2.235   3.781   1.618
 1703SOL    HW1 6008   2.223   3.771   1.519
 1703SOL    HW2 6009   2.321   3.827   1.636
 1704SOL     OW 6010   6.818   1.791   2.358
 1704SOL    HW1 6011   6.789   1.883   2.330
 1704SOL    HW2 6012   6.866   1.747   2.282
 1705SOL     OW 6013   3.812   2.991   2.360
 1705SOL    HW1 6014   3.801   2.961   2.265
 1705SOL    HW2 6015   3.903   3.030   2.372
 1706SOL     OW 6016   2.420   0.765   6.186
 1706SOL    HW1 6017   2.354   0.691   6.173
 1706SOL    HW2 6018   2.501   0.729   6.233
 1707SOL     OW 6019   4.892   1.480   2.657
 1707SOL    HW1 6020   4.837   1.458   2.576
 1707SOL    HW2 6021   4.892   1.579   2.672
 1708SOL     OW 6022   0.323   4.057   1.214
 1708SOL    HW1 6023   0.264   4.018   1.143
 1708SOL    HW2 6024   0.386   4.122   1.173
 1709SOL     OW 6025   3.106   5.171   4.074
 1709SOL    HW1 6026   3.113   5.211   4.165
 1709SOL    HW2 6027   3.174   5.098   4.064
 1710SOL     OW 6028   6.587   4.118   4.814
 1710SOL    HW1 6029   6.624   4.153   4.900
 1710SOL    HW2 6030   6.620   4.175   4.738
 1711SOL     OW 6031   0.761   4.431   6.138
 1711SOL    HW1 6032   0.769   4.355   6.202
 1711SOL    HW2 6033   0.838   4.430   6.074
 1712SOL     OW 6034   1.601   4.362   2.107
 1712SOL    HW1 6035   1.630   4.423   2.034
 1712SOL    HW2 6036   1.536   4.409   2.167
 1713SOL     OW 6037   2.260   3.638   0.941
 1713SOL    HW1 6038   2.212   3.637   1.028
 1713SOL    HW2 6039   2.273   3.732   0.910
 1714SOL     OW 6040   4.549   1.011   0.603
 1714SOL    HW1 6041   4.553   1.000   0.703
 1714SOL    HW2 6042   4.571   1.105   0.579
 1715SOL     OW 6043   1.481   3.750   3.555
 1715SOL    HW1 6044   1.437   3.737   3.643
 1715SOL    HW2 6045   1.577   3.773   3.568
 1716SOL     OW 6046   0.169   6.738   0.562
 1716SOL    HW1 6047   0.211   6.664   0.510
 1716SOL    HW2 6048   0.190   6.826   0.518
 1717SOL     OW 6049   3.268   0.990   0.296
 1717SOL    HW1 6050   3.212   1.071   0.313
 1717SOL    HW2 6051   3.363   1.008   0.323
 1718SOL     OW 6052   1.792   4.229   5.345
 1718SOL    HW1 6053   1.823   4.135   5.352
 1718SOL    HW2 6054   1.803   4.261   5.251
 1719SOL     OW 6055   2.587   2.939   0.657
 1719SOL    HW1 6056   2.605   2.844   0.682
 1719SOL    HW2 6057   2.597   2.997   0.738
 1720SOL     OW 6058   0.282   2.068   2.362
 1720SOL    HW1 6059   0.373   2.053   2.401
 1720SOL    HW2 6060   0.232   1.982   2.359
 1721SOL     OW 6061   0.691   5.763   4.082
 1721SOL    HW1 6062   0.608   5.787   4.033
 1721SOL    HW2 6063   0.680   5.785   4.179
 1722SOL     OW 6064   5.051   0.100   1.668
 1722SOL    HW1 6065   4.995   0.032   1.715
 1722SOL    HW2 6066   5.032   0.097   1.570
 1723SOL     OW 6067   5.910   0.954   3.516
 1723SOL    HW1 6068   5.900   0.855   3.505
 1723SOL    HW2 6069   6.004   0.976   3.542
 1724SOL     OW 6070   5.290   6.938   0.192
 1724SOL    HW1 6071   5.232   6.947   0.273
 1724SOL    HW2 6072   5.342   0.007   0.179
 1725SOL     OW 6073   4.304   5.880   2.323
 1725SOL    HW1 6074   4.312   5.976   2.350
 1725SOL    HW2 6075   4.391   5.849   2.284
 1726SOL     OW 6076   6.339   4.278   5.022
 1726SOL    HW1 6077   6.335   4.298   5.119
 1726SOL    HW2 6078   6.261   4.318   4.975
 1727SOL     OW 6079   2.707   4.637   5.811
 1727SOL    HW1 6080   2.621   4.664   5.854
 1727SOL    HW2 6081   2.689   4.602   5.719
 1728SOL     OW 6082   4.697   5.822   3.648
 1728SOL    HW1 6083   4.637   5.795   3.725
 1728SOL    HW2 6084   4.649   5.890   3.592
 1729SOL     OW 6085   6.519   3.037   3.369
 1729SOL    HW1 6086   6.546   3.057   3.274
 1729SOL    HW2 6087   6.547   3.113   3.428
 1730SOL     OW 6088   4.569   2.688   4.639
 1730SOL    HW1 6089   4.564   2.764   4.704
 1730SOL    HW2 6090   4.482   2.640   4.637
 1731SOL     OW 6091   0.333   6.921   6.344
 1731SOL    HW1 6092   0.260   6.981   6.378
 1731SOL    HW2 6093   0.350   6.850   6.412
 1732SOL     OW 6094   1.211   4.395   6.511
 1732SOL    HW1 6095   1.269   4.345   6.575
 1732SOL    HW2 6096   1.262   4.472   6.472
 1733SOL     OW 6097   1.996   3.997   6.455
 1733SOL    HW1 6098   1.939   4.058   6.511
 1733SOL    HW2 6099   1.994   4.027   6.360
 1734SOL     OW 6100   5.346   4.035   0.730
 1734SOL    HW1 6101   5.294   3.961   0.772
 1734SOL    HW2 6102   5.299   4.066   0.648
 1735SOL     OW 6103   4.872   4.996   6.918
 1735SOL    HW1 6104   4.904   5.025   7.008
 1735SOL    HW2 6105   4.938   5.023   6.849
 1736SOL     OW 6106   3.946   3.415   0.590
 1736SOL    HW1 6107   3.860   3.367   0.605
 1736SOL    HW2 6108   3.975   3.404   0.495
 1737SOL     OW 6109   0.716   6.463   3.075
 1737SOL    HW1 6110   0.728   6.375   3.122
 1737SOL    HW2 6111   0.763   6.535   3.126
 1738SOL     OW 6112   0.614   1.313   2.219
 1738SOL    HW1 6113   0.639   1.256   2.297
 1738SOL    HW2 6114   0.640   1.408   2.236
 1739SOL     OW 6115   4.209   1.618   6.849
 1739SOL    HW1 6116   4.296   1.593   6.891
 1739SOL    HW2 6117   4.154   1.669   6.915
 1740SOL     OW 6118   0.679   1.781   6.770
 1740SOL    HW1 6119   0.775   1.766   6.746
 1740SOL    HW2 6120   0.626   1.699   6.749
 1741SOL     OW 6121   0.628   0.503   2.640
 1741SOL    HW1 6122   0.584   0.428   2.690
 1741SOL    HW2 6123   0.585   0.590   2.666
 1742SOL     OW 6124   6.094   6.279   3.643
 1742SOL    HW1 6125   6.064   6.351   3.580
 1742SOL    HW2 6126   6.180   6.240   3.609
 1743SOL     OW 6127   4.193   1.343   0.016
 1743SOL    HW1 6128   4.222   1.270   0.077
 1743SOL    HW2 6129   4.101   1.324   6.998
 1744SOL     OW 6130   4.159   6.416   1.662
 1744SOL    HW1 6131   4.072   6.370   1.646
 1744SOL    HW2 6132   4.202   6.380   1.745
 1745SOL     OW 6133   0.414   1.781   5.349
 1745SOL    HW1 6134   0.512   1.797   5.337
 1745SOL    HW2 6135   0.375   1.749   5.263
 1746SOL     OW 6136   2.861   1.562   0.364
 1746SOL    HW1 6137   2.957   1.566   0.393
 1746SOL    HW2 6138   2.839   1.470   0.333
 1747SOL     OW 6139   4.164   6.987   4.871
 1747SOL    HW1 6140   4.130   6.991   4.777
 1747SOL    HW2 6141   4.245   0.028   4.879
 1748SOL     OW 6142   5.542   0.982   1.951
 1748SOL    HW1 6143   5.605   0.905   1.943
 1748SOL    HW2 6144   5.448   0.947   1.961
 1749SOL     OW 6145   5.597   6.723   6.046
 1749SOL    HW1 6146   5.557   6.792   5.986
 1749SOL    HW2 6147   5.541   6.713   6.128
 1750SOL     OW 6148   3.652   1.221   3.012
 1750SOL    HW1 6149   3.726   1.245   3.074
 1750SOL    HW2 6150   3.571   1.196   3.064
 1751SOL     OW 6151   2.401   5.797   4.674
 1751SOL    HW1 6152   2.449   5.780   4.760
 1751SOL    HW2 6153   2.459   5.772   4.597
 1752SOL     OW 6154   6.798   1.988   6.079
 1752SOL    HW1 6155   6.817   2.005   5.982
 1752SOL    HW2 6156   6.750   1.901   6.089
 1753SOL     OW 6157   1.585   0.142   1.963
 1753SOL    HW1 6158   1.625   0.120   2.051
 1753SOL    HW2 6159   1.539   0.061   1.926
 1754SOL     OW 6160   2.958   3.453   3.179
 1754SOL    HW1 6161   2.962   3.520   3.106
 1754SOL    HW2 6162   2.937   3.363   3.141
 1755SOL     OW 6163   0.187   4.175   6.639
 1755SOL    HW1 6164   0.100   4.225   6.639
 1755SOL    HW2 6165   0.250   4.220   6.702
 1756SOL     OW 6166   5.760   5.274   5.824
 1756SOL    HW1 6167   5.780   5.309   5.916
 1756SOL    HW2 6168   5.664   5.291   5.801
 1757SOL     OW 6169   3.960   0.208   5.062
 1757SOL    HW1 6170   3.886   0.245   5.117
 1757SOL    HW2 6171   3.945   0.110   5.047
 1758SOL     OW 6172   2.177   1.161   3.279
 1758SOL    HW1 6173   2.121   1.220   3.221
 1758SOL    HW2 6174   2.233   1.102   3.222
 1759SOL     OW 6175   6.600   5.926   6.141
 1759SOL    HW1 6176   6.697   5.933   6.164
 1759SOL    HW2 6177   6.548   5.907   6.224
 1760SOL     OW 6178   4.690   6.210   3.677
 1760SOL    HW1 6179   4.720   6.151   3.752
 1760SOL    HW2 6180   4.764   6.273   3.653
 1761SOL     OW 6181   6.397   3.197   0.883
 1761SOL    HW1 6182   6.335   3.212   0.961
 1761SOL    HW2 6183   6.344   3.165   0.805
 1762SOL     OW 6184   6.133   2.498   0.251
 1762SOL    HW1 6185   6.139   2.409   0.204
 1762SOL    HW2 6186   6.038   2.518   0.273
 1763SOL     OW 6187   2.040   2.198   3.857
 1763SOL    HW1 6188   2.074   2.140   3.783
 1763SOL    HW2 6189   1.955   2.243   3.828
 1764SOL     OW 6190   6.710   4.127   3.177
 1764SOL    HW1 6191   6.679   4.195   3.243
 1764SOL    HW2 6192   6.734   4.171   3.090
 1765SOL     OW 6193   2.302   3.114   6.155
 1765SOL    HW1 6194   2.239   3.037   6.163
 1765SOL    HW2 6195   2.395   3.084   6.174
 1766SOL     OW 6196   6.122   4.297   5.646
 1766SOL    HW1 6197   6.219   4.308   5.671
 1766SOL    HW2 6198   6.072   4.262   5.724
 1767SOL     OW 6199   6.816   4.767   1.412
 1767SOL    HW1 6200   6.782   4.764   1.506
 1767SOL    HW2 6201   6.744   4.734   1.350
 1768SOL     OW 6202   6.234   0.442   3.232
 1768SOL    HW1 6203   6.251   0.539   3.215
 1768SOL    HW2 6204   6.177   0.405   3.158
 1769SOL     OW 6205   4.302   0.515   4.088
 1769SOL    HW1 6206   4.270   0.606   4.060
 1769SOL    HW2 6207   4.271   0.496   4.181
 1770SOL     OW 6208   3.631   5.408   6.138
 1770SOL    HW1 6209   3.672   5.418   6.229
 1770SOL    HW2 6210   3.541   5.450   6.137
 1771SOL     OW 6211   5.201   5.594   6.502
 1771SOL    HW1 6212   5.134   5.534   6.545
 1771SOL    HW2 6213   5.213   5.676   6.557
 1772SOL     OW 6214   2.107   6.066   2.014
 1772SOL    HW1 6215   2.195   6.028   2.041
 1772SOL    HW2 6216   2.116   6.111   1.925
 1773SOL     OW 6217   2.355   6.458   6.834
 1773SOL    HW1 6218   2.274   6.483   6.780
 1773SOL    HW2 6219   2.435   6.454   6.775
 1774SOL     OW 6220   2.587   5.494   1.242
 1774SOL    HW1 6221   2.665   5.435   1.222
 1774SOL    HW2 6222   2.572   5.557   1.165
 1775SOL     OW 6223   0.699   5.230   0.440
 1775SOL    HW1 6224   0.685   5.192   0.348
 1775SOL    HW2 6225   0.672   5.163   0.508
 1776SOL     OW 6226   3.220   5.987   5.114
 1776SOL    HW1 6227   3.308   5.994   5.162
 1776SOL    HW2 6228   3.194   5.891   5.106
 1777SOL     OW 6229   4.526   6.391   6.562
 1777SOL    HW1 6230   4.459   6.440   6.506
 1777SOL    HW2 6231   4.596   6.455   6.594
 1778SOL     OW 6232   0.863   3.615   5.959
 1778SOL    HW1 6233   0.961   3.596   5.952
 1778SOL    HW2 6234   0.848   3.685   6.029
 1779SOL     OW 6235   4.321   6.294   4.830
 1779SOL    HW1 6236   4.281   6.381   4.859
 1779SOL    HW2 6237   4.313   6.227   4.904
 1780SOL     OW 6238   4.026   2.365   6.507
 1780SOL    HW1 6239   4.071   2.399   6.424
 1780SOL    HW2 6240   3.954   2.428   6.534
 1781SOL     OW 6241   1.868   6.524   3.208
 1781SOL    HW1 6242   1.818   6.477   3.136
 1781SOL    HW2 6243   1.927   6.459   3.256
 1782SOL     OW 6244   3.380   0.948   5.092
 1782SOL    HW1 6245   3.351   0.858   5.125
 1782SOL    HW2 6246   3.312   1.017   5.119
 1783SOL     OW 6247   2.187   5.599   0.205
 1783SOL    HW1 6248   2.112   5.663   0.218
 1783SOL    HW2 6249   2.229   5.578   0.293
 1784SOL     OW 6250   1.353   6.462   5.926
 1784SOL    HW1 6251   1.295   6.533   5.885
 1784SOL    HW2 6252   1.348   6.469   6.026
 1785SOL     OW 6253   0.099   5.012   2.624
 1785SOL    HW1 6254   0.043   4.990   2.704
 1785SOL    HW2 6255   0.082   5.107   2.597
 1786SOL     OW 6256   4.213   2.408   1.393
 1786SOL    HW1 6257   4.224   2.419   1.491
 1786SOL    HW2 6258   4.237   2.494   1.346
 1787SOL     OW 6259   4.431   0.152   4.883
 1787SOL    HW1 6260   4.486   0.210   4.823
 1787SOL    HW2 6261   4.467   0.158   4.976
 1788SOL     OW 6262   1.558   5.091   4.829
 1788SOL    HW1 6263   1.571   5.025   4.903
 1788SOL    HW2 6264   1.642   5.145   4.819
 1789SOL     OW 6265   4.849   6.165   0.596
 1789SOL    HW1 6266   4.895   6.135   0.680
 1789SOL    HW2 6267   4.831   6.085   0.538
 1790SOL     OW 6268   1.961   6.697   2.835
 1790SOL    HW1 6269   2.014   6.614   2.849
 1790SOL    HW2 6270   1.895   6.708   2.909
 1791SOL     OW 6271   0.950   6.916   3.031
 1791SOL    HW1 6272   0.989   6.965   3.109
 1791SOL    HW2 6273   1.023   6.891   2.968
 1792SOL     OW 6274   0.228   4.059   4.067
 1792SOL    HW1 6275   0.181   4.148   4.063
 1792SOL    HW2 6276   0.162   3.988   4.091
 1793SOL     OW 6277   7.004   0.460   4.359
 1793SOL    HW1 6278   6.965   0.374   4.390
 1793SOL    HW2 6279   0.022   0.512   4.437
 1794SOL     OW 6280   4.375   6.267   6.314
 1794SOL    HW1 6281   4.435   6.207   6.261
 1794SOL    HW2 6282   4.280   6.236   6.303
 1795SOL     OW 6283   0.948   3.352   6.879
 1795SOL    HW1 6284   0.986   3.422   6.939
 1795SOL    HW2 6285   0.999   3.267   6.890
 1796SOL     OW 6286   4.073   0.103   5.361
 1796SOL    HW1 6287   4.105   0.195   5.338
 1796SOL    HW2 6288   3.973   0.102   5.361
 1797SOL     OW 6289   0.326   1.251   2.392
 1797SOL    HW1 6290   0.372   1.175   2.346
 1797SOL    HW2 6291   0.293   1.220   2.481
 1798SOL     OW 6292   5.950   1.716   3.090
 1798SOL    HW1 6293   5.921   1.632   3.045
 1798SOL    HW2 6294   6.049   1.715   3.102
 1799SOL     OW 6295   2.866   0.001   0.913
 1799SOL    HW1 6296   2.829   6.930   0.881
 1799SOL    HW2 6297   2.864   0.067   0.838
 1800SOL     OW 6298   2.775   4.745   2.147
 1800SOL    HW1 6299   2.870   4.766   2.170
 1800SOL    HW2 6300   2.773   4.682   2.069
 1801SOL     OW 6301   5.542   6.400   0.892
 1801SOL    HW1 6302   5.501   6.487   0.920
 1801SOL    HW2 6303   5.492   6.324   0.934
 1802SOL     OW 6304   5.736   5.711   4.373
 1802SOL    HW1 6305   5.719   5.626   4.323
 1802SOL    HW2 6306   5.714   5.697   4.470
 1803SOL     OW 6307   6.044   4.796   0.262
 1803SOL    HW1 6308   6.134   4.767   0.228
 1803SOL    HW2 6309   6.026   4.890   0.234
 1804SOL     OW 6310   2.869   3.911   6.077
 1804SOL    HW1 6311   2.880   3.925   6.175
 1804SOL    HW2 6312   2.815   3.985   6.038
 1805SOL     OW 6313   0.166   2.673   0.006
 1805SOL    HW1 6314   0.140   2.718   0.091
 1805SOL    HW2 6315   0.263   2.689   7.004
 1806SOL     OW 6316   6.887   6.409   0.458
 1806SOL    HW1 6317   6.901   6.415   0.557
 1806SOL    HW2 6318   6.816   6.341   0.439
 1807SOL     OW 6319   6.811   1.787   5.427
 1807SOL    HW1 6320   6.828   1.762   5.522
 1807SOL    HW2 6321   6.874   1.860   5.400
 1808SOL     OW 6322   2.309   5.062   4.159
 1808SOL    HW1 6323   2.280   5.157   4.168
 1808SOL    HW2 6324   2.391   5.047   4.215
 1809SOL     OW 6325   3.878   0.294   6.042
 1809SOL    HW1 6326   3.969   0.301   6.082
 1809SOL    HW2 6327   3.812   0.341   6.099
 1810SOL     OW 6328   3.601   6.293   3.844
 1810SOL    HW1 6329   3.546   6.342   3.775
 1810SOL    HW2 6330   3.651   6.359   3.900
 1811SOL     OW 6331   4.883   5.583   3.019
 1811SOL    HW1 6332   4.859   5.669   3.063
 1811SOL    HW2 6333   4.964   5.544   3.063
 1812SOL     OW 6334   4.755   4.700   5.006
 1812SOL    HW1 6335   4.739   4.742   4.916
 1812SOL    HW2 6336   4.825   4.629   4.996
 1813SOL     OW 6337   0.189   6.489   5.043
 1813SOL    HW1 6338   0.184   6.463   5.139
 1813SOL    HW2 6339   0.284   6.482   5.012
 1814SOL     OW 6340   4.416   0.208   2.832
 1814SOL    HW1 6341   4.495   0.255   2.792
 1814SOL    HW2 6342   4.439   0.178   2.924
 1815SOL     OW 6343   0.284   1.171   3.038
 1815SOL    HW1 6344   0.259   1.203   2.946
 1815SOL    HW2 6345   0.201   1.145   3.088
 1816SOL     OW 6346   1.247   5.340   0.351
 1816SOL    HW1 6347   1.262   5.350   0.253
 1816SOL    HW2 6348   1.251   5.430   0.395
 1817SOL     OW 6349   1.242   4.243   1.674
 1817SOL    HW1 6350   1.179   4.313   1.641
 1817SOL    HW2 6351   1.271   4.267   1.767
 1818SOL     OW 6352   0.403   1.926   3.164
 1818SOL    HW1 6353   0.465   1.927   3.086
 1818SOL    HW2 6354   0.310   1.908   3.133
 1819SOL     OW 6355   1.318   4.202   2.441
 1819SOL    HW1 6356   1.396   4.169   2.388
 1819SOL    HW2 6357   1.233   4.179   2.394
 1820SOL     OW 6358   5.380   6.731   2.113
 1820SOL    HW1 6359   5.461   6.730   2.171
 1820SOL    HW2 6360   5.301   6.760   2.168
 1821SOL     OW 6361   1.497   2.042   3.130
 1821SOL    HW1 6362   1.542   2.113   3.184
 1821SOL    HW2 6363   1.444   2.084   3.057
 1822SOL     OW 6364   3.350   3.419   2.162
 1822SOL    HW1 6365   3.290   3.454   2.090
 1822SOL    HW2 6366   3.309   3.338   2.203
 1823SOL     OW 6367   4.144   6.613   2.555
 1823SOL    HW1 6368   4.069   6.679   2.558
 1823SOL    HW2 6369   4.232   6.661   2.550
 1824SOL     OW 6370   4.838   1.390   2.044
 1824SOL    HW1 6371   4.935   1.370   2.027
 1824SOL    HW2 6372   4.830   1.479   2.089
 1825SOL     OW 6373   0.420   0.353   1.333
 1825SOL    HW1 6374   0.436   0.438   1.285
 1825SOL    HW2 6375   0.399   0.280   1.268
 1826SOL     OW 6376   2.601   5.111   6.081
 1826SOL    HW1 6377   2.628   5.088   5.988
 1826SOL    HW2 6378   2.664   5.179   6.118
 1827SOL     OW 6379   5.631   0.645   0.688
 1827SOL    HW1 6380   5.621   0.595   0.602
 1827SOL    HW2 6381   5.550   0.702   0.703
 1828SOL     OW 6382   3.119   2.560   0.324
 1828SOL    HW1 6383   3.047   2.503   0.362
 1828SOL    HW2 6384   3.121   2.648   0.371
 1829SOL     OW 6385   5.169   5.302   2.308
 1829SOL    HW1 6386   5.228   5.319   2.387
 1829SOL    HW2 6387   5.110   5.224   2.326
 1830SOL     OW 6388   4.429   0.608   4.885
 1830SOL    HW1 6389   4.480   0.613   4.799
 1830SOL    HW2 6390   4.475   0.545   4.948
 1831SOL     OW 6391   5.152   1.368   3.147
 1831SOL    HW1 6392   5.227   1.379   3.213
 1831SOL    HW2 6393   5.068   1.403   3.186
 1832SOL     OW 6394   5.954   2.787   6.488
 1832SOL    HW1 6395   5.966   2.844   6.568
 1832SOL    HW2 6396   5.862   2.746   6.489
 1833SOL     OW 6397   5.929   1.618   6.001
 1833SOL    HW1 6398   5.986   1.692   5.967
 1833SOL    HW2 6399   5.988   1.550   6.046
 1834SOL     OW 6400   2.445   4.273   6.893
 1834SOL    HW1 6401   2.502   4.251   6.973
 1834SOL    HW2 6402   2.349   4.273   6.919
 1835SOL     OW 6403   2.256   4.860   0.461
 1835SOL    HW1 6404   2.262   4.761   0.471
 1835SOL    HW2 6405   2.193   4.883   0.388
 1836SOL     OW 6406   0.477   6.344   0.532
 1836SOL    HW1 6407   0.423   6.280   0.476
 1836SOL    HW2 6408   0.452   6.333   0.628
 1837SOL     OW 6409   6.678   2.811   4.544
 1837SOL    HW1 6410   6.644   2.830   4.636
 1837SOL    HW2 6411   6.755   2.747   4.549
 1838SOL     OW 6412   0.748   2.798   4.341
 1838SOL    HW1 6413   0.795   2.817   4.255
 1838SOL    HW2 6414   0.707   2.707   4.337
 1839SOL     OW 6415   1.555   1.334   0.073
 1839SOL    HW1 6416   1.484   1.403   0.055
 1839SOL    HW2 6417   1.611   1.323   7.007
 1840SOL     OW 6418   1.129   5.272   1.525
 1840SOL    HW1 6419   1.162   5.338   1.592
 1840SOL    HW2 6420   1.092   5.192   1.571
 1841SOL     OW 6421   1.744   2.850   4.480
 1841SOL    HW1 6422   1.836   2.821   4.457
 1841SOL    HW2 6423   1.743   2.949   4.495
 1842SOL     OW 6424   1.779   5.713   6.609
 1842SOL    HW1 6425   1.860   5.709   6.667
 1842SOL    HW2 6426   1.704   5.756   6.661
 1843SOL     OW 6427   4.859   2.194   5.394
 1843SOL    HW1 6428   4.764   2.226   5.397
 1843SOL    HW2 6429   4.861   2.101   5.358
 1844SOL     OW 6430   5.536   5.005   3.449
 1844SOL    HW1 6431   5.604   4.994   3.377
 1844SOL    HW2 6432   5.454   5.048   3.412
 1845SOL     OW 6433   5.159   6.600   0.974
 1845SOL    HW1 6434   5.185   6.603   0.877
 1845SOL    HW2 6435   5.073   6.551   0.984
 1846SOL     OW 6436   3.805   1.141   5.665
 1846SOL    HW1 6437   3.765   1.141   5.757
 1846SOL    HW2 6438   3.773   1.222   5.615
 1847SOL     OW 6439   1.532   5.897   6.523
 1847SOL    HW1 6440   1.620   5.895   6.476
 1847SOL    HW2 6441   1.547   5.909   6.621
 1848SOL     OW 6442   2.164   1.893   4.399
 1848SOL    HW1 6443   2.088   1.937   4.448
 1848SOL    HW2 6444   2.237   1.959   4.384
 1849SOL     OW 6445   2.766   1.037   5.461
 1849SOL    HW1 6446   2.851   1.077   5.428
 1849SOL    HW2 6447   2.689   1.098   5.440
 1850SOL     OW 6448   5.426   2.051   0.909
 1850SOL    HW1 6449   5.349   2.064   0.972
 1850SOL    HW2 6450   5.439   2.133   0.855
 1851SOL     OW 6451   6.061   4.500   2.875
 1851SOL    HW1 6452   6.058   4.403   2.896
 1851SOL    HW2 6453   6.115   4.548   2.943
 1852SOL     OW 6454   5.675   1.715   5.650
 1852SOL    HW1 6455   5.657   1.753   5.740
 1852SOL    HW2 6456   5.743   1.772   5.603
 1853SOL     OW 6457   1.423   5.002   0.250
 1853SOL    HW1 6458   1.370   5.073   0.205
 1853SOL    HW2 6459   1.360   4.934   0.288
 1854SOL     OW 6460   2.235   5.338   4.492
 1854SOL    HW1 6461   2.308   5.309   4.554
 1854SOL    HW2 6462   2.246   5.436   4.472
 1855SOL     OW 6463   6.513   4.528   1.670
 1855SOL    HW1 6464   6.459   4.601   1.627
 1855SOL    HW2 6465   6.497   4.529   1.768
 1856SOL     OW 6466   5.441   3.045   0.408
 1856SOL    HW1 6467   5.514   3.113   0.399
 1856SOL    HW2 6468   5.386   3.044   0.324
 1857SOL     OW 6469   5.482   0.922   3.410
 1857SOL    HW1 6470   5.388   0.893   3.428
 1857SOL    HW2 6471   5.538   0.842   3.390
 1858SOL     OW 6472   5.572   3.878   2.571
 1858SOL    HW1 6473   5.664   3.902   2.604
 1858SOL    HW2 6474   5.505   3.898   2.642
 1859SOL     OW 6475   5.778   2.224   3.895
 1859SOL    HW1 6476   5.766   2.206   3.797
 1859SOL    HW2 6477   5.869   2.264   3.910
 1860SOL     OW 6478   3.699   2.015   4.848
 1860SOL    HW1 6479   3.730   1.919   4.851
 1860SOL    HW2 6480   3.600   2.017   4.839
 1861SOL     OW 6481   4.810   6.602   2.193
 1861SOL    HW1 6482   4.857   6.690   2.194
 1861SOL    HW2 6483   4.751   6.597   2.112
 1862SOL     OW 6484   3.144   2.813   0.954
 1862SOL    HW1 6485   3.198   2.799   0.871
 1862SOL    HW2 6486   3.090   2.731   0.973
 1863SOL     OW 6487   1.988   1.612   1.578
 1863SOL    HW1 6488   1.900   1.601   1.533
 1863SOL    HW2 6489   2.035   1.524   1.583
 1864SOL     OW 6490   6.876   6.721   2.776
 1864SOL    HW1 6491   6.911   6.806   2.737
 1864SOL    HW2 6492   6.930   6.698   2.857
 1865SOL     OW 6493   5.823   3.062   6.944
 1865SOL    HW1 6494   5.777   2.976   6.968
 1865SOL    HW2 6495   5.908   3.069   6.996
 1866SOL     OW 6496   5.945   5.515   1.700
 1866SOL    HW1 6497   5.889   5.442   1.740
 1866SOL    HW2 6498   6.041   5.488   1.699
 1867SOL     OW 6499   1.455   4.255   6.618
 1867SOL    HW1 6500   1.537   4.231   6.567
 1867SOL    HW2 6501   1.480   4.314   6.695
 1868SOL     OW 6502   6.109   3.989   5.137
 1868SOL    HW1 6503   6.067   4.062   5.083
 1868SOL    HW2 6504   6.195   3.961   5.093
 1869SOL     OW 6505   5.586   0.799   5.094
 1869SOL    HW1 6506   5.585   0.862   5.172
 1869SOL    HW2 6507   5.494   0.794   5.055
 1870SOL     OW 6508   2.129   3.809   5.015
 1870SOL    HW1 6509   2.198   3.880   5.011
 1870SOL    HW2 6510   2.169   3.725   5.053
 1871SOL     OW 6511   1.844   1.233   1.075
 1871SOL    HW1 6512   1.788   1.192   1.002
 1871SOL    HW2 6513   1.786   1.291   1.131
 1872SOL     OW 6514   1.532   5.736   6.299
 1872SOL    HW1 6515   1.538   5.799   6.377
 1872SOL    HW2 6516   1.500   5.647   6.330
 1873SOL     OW 6517   5.615   6.295   6.814
 1873SOL    HW1 6518   5.612   6.395   6.825
 1873SOL    HW2 6519   5.573   6.270   6.727
 1874SOL     OW 6520   0.722   4.115   3.165
 1874SOL    HW1 6521   0.654   4.053   3.203
 1874SOL    HW2 6522   0.799   4.123   3.229
 1875SOL     OW 6523   0.291   0.047   2.034
 1875SOL    HW1 6524   0.309   6.993   1.965
 1875SOL    HW2 6525   0.235   0.120   1.994
 1876SOL     OW 6526   1.949   5.928   4.124
 1876SOL    HW1 6527   2.040   5.901   4.092
 1876SOL    HW2 6528   1.955   5.965   4.217
 1877SOL     OW 6529   6.828   0.247   4.456
 1877SOL    HW1 6530   6.816   0.166   4.513
 1877SOL    HW2 6531   6.787   0.230   4.366
 1878SOL     OW 6532   6.329   3.088   5.727
 1878SOL    HW1 6533   6.238   3.046   5.723
 1878SOL    HW2 6534   6.393   3.035   5.672
 1879SOL     OW 6535   1.736   6.054   5.573
 1879SOL    HW1 6536   1.659   6.115   5.554
 1879SOL    HW2 6537   1.764   6.008   5.489
 1880SOL     OW 6538   6.703   0.217   4.220
 1880SOL    HW1 6539   6.603   0.218   4.216
 1880SOL    HW2 6540   6.739   0.244   4.131
 1881SOL     OW 6541   0.837   2.497   6.685
 1881SOL    HW1 6542   0.779   2.503   6.766
 1881SOL    HW2 6543   0.803   2.425   6.624
 1882SOL     OW 6544   0.806   6.257   0.119
 1882SOL    HW1 6545   0.761   6.330   0.067
 1882SOL    HW2 6546   0.738   6.211   0.177
 1883SOL     OW 6547   0.107   2.022   4.076
 1883SOL    HW1 6548   0.052   1.941   4.054
 1883SOL    HW2 6549   0.164   2.046   3.998
 1884SOL     OW 6550   6.043   1.711   1.260
 1884SOL    HW1 6551   5.943   1.706   1.263
 1884SOL    HW2 6552   6.071   1.787   1.201
 1885SOL     OW 6553   3.420   1.064   4.834
 1885SOL    HW1 6554   3.514   1.072   4.800
 1885SOL    HW2 6555   3.422   1.030   4.928
 1886SOL     OW 6556   0.287   6.520   3.655
 1886SOL    HW1 6557   0.258   6.444   3.598
 1886SOL    HW2 6558   0.346   6.486   3.729
 1887SOL     OW 6559   2.271   5.430   6.340
 1887SOL    HW1 6560   2.172   5.434   6.352
 1887SOL    HW2 6561   2.295   5.360   6.273
 1888SOL     OW 6562   2.193   0.141   3.723
 1888SOL    HW1 6563   2.281   0.122   3.767
 1888SOL    HW2 6564   2.176   0.239   3.723
 1889SOL     OW 6565   0.324   3.662   2.618
 1889SOL    HW1 6566   0.307   3.744   2.563
 1889SOL    HW2 6567   0.361   3.590   2.560
 1890SOL     OW 6568   1.790   5.972   4.668
 1890SOL    HW1 6569   1.716   5.970   4.736
 1890SOL    HW2 6570   1.873   5.934   4.708
 1891SOL     OW 6571   3.924   3.499   3.794
 1891SOL    HW1 6572   3.868   3.420   3.771
 1891SOL    HW2 6573   3.950   3.494   3.891
 1892SOL     OW 6574   0.209   1.000   2.552
 1892SOL    HW1 6575   0.139   0.994   2.623
 1892SOL    HW2 6576   0.192   0.931   2.482
 1893SOL     OW 6577   3.365   2.913   3.883
 1893SOL    HW1 6578   3.411   2.858   3.953
 1893SOL    HW2 6579   3.268   2.924   3.908
 1894SOL     OW 6580   3.007   3.023   5.531
 1894SOL    HW1 6581   2.919   3.068   5.544
 1894SOL    HW2 6582   3.004   2.930   5.566
 1895SOL     OW 6583   1.146   6.427   1.533
 1895SOL    HW1 6584   1.172   6.487   1.608
 1895SOL    HW2 6585   1.099   6.346   1.570
 1896SOL     OW 6586   6.457   2.862   0.647
 1896SOL    HW1 6587   6.377   2.909   0.611
 1896SOL    HW2 6588   6.496   2.915   0.722
 1897SOL     OW 6589   2.447   4.719   3.269
 1897SOL    HW1 6590   2.394   4.653   3.216
 1897SOL    HW2 6591   2.447   4.807   3.221
 1898SOL     OW 6592   2.335   5.797   2.235
 1898SOL    HW1 6593   2.321   5.872   2.170
 1898SOL    HW2 6594   2.246   5.770   2.273
 1899SOL     OW 6595   6.820   1.014   2.359
 1899SOL    HW1 6596   6.908   1.030   2.403
 1899SOL    HW2 6597   6.825   0.931   2.304
 1900SOL     OW 6598   2.944   6.289   6.281
 1900SOL    HW1 6599   2.994   6.333   6.355
 1900SOL    HW2 6600   2.915   6.198   6.309
 1901SOL     OW 6601   4.001   3.162   2.815
 1901SOL    HW1 6602   4.066   3.087   2.829
 1901SOL    HW2 6603   3.917   3.126   2.776
 1902SOL     OW 6604   1.374   6.833   5.194
 1902SOL    HW1 6605   1.295   6.846   5.254
 1902SOL    HW2 6606   1.379   6.910   5.130
 1903SOL     OW 6607   0.562   2.383   4.179
 1903SOL    HW1 6608   0.527   2.292   4.158
 1903SOL    HW2 6609   0.496   2.452   4.150
 1904SOL     OW 6610   5.584   5.585   1.919
 1904SOL    HW1 6611   5.662   5.535   1.958
 1904SOL    HW2 6612   5.612   5.679   1.899
 1905SOL     OW 6613   0.182   2.926   3.647
 1905SOL    HW1 6614   0.100   2.869   3.643
 1905SOL    HW2 6615   0.157   3.021   3.663
 1906SOL     OW 6616   0.082   6.300   3.758
 1906SOL    HW1 6617   0.106   6.357   3.680
 1906SOL    HW2 6618   0.007   6.342   3.809
 1907SOL     OW 6619   6.905   2.938   0.639
 1907SOL    HW1 6620   6.973   2.917   0.710
 1907SOL    HW2 6621   6.930   2.891   0.554
 1908SOL     OW 6622   4.623   0.477   1.665
 1908SOL    HW1 6623   4.672   0.391   1.647
 1908SOL    HW2 6624   4.537   0.478   1.615
 1909SOL     OW 6625   6.673   5.315   4.789
 1909SOL    HW1 6626   6.649   5.266   4.873
 1909SOL    HW2 6627   6.591   5.357   4.750
 1910SOL     OW 6628   0.296   6.215   4.838
 1910SOL    HW1 6629   0.272   6.157   4.916
 1910SOL    HW2 6630   0.338   6.300   4.871
 1911SOL     OW 6631   5.729   6.250   3.944
 1911SOL    HW1 6632   5.713   6.320   3.875
 1911SOL    HW2 6633   5.644   6.201   3.963
 1912SOL     OW 6634   3.653   4.885   2.362
 1912SOL    HW1 6635   3.747   4.887   2.397
 1912SOL    HW2 6636   3.598   4.953   2.409
 1913SOL     OW 6637   2.864   4.018   6.332
 1913SOL    HW1 6638   2.866   4.118   6.322
 1913SOL    HW2 6639   2.888   3.994   6.426
 1914SOL     OW 6640   4.637   4.561   0.385
 1914SOL    HW1 6641   4.735   4.541   0.377
 1914SOL    HW2 6642   4.622   4.624   0.461
 1915SOL     OW 6643   4.213   2.022   0.048
 1915SOL    HW1 6644   4.237   2.036   6.968
 1915SOL    HW2 6645   4.251   2.096   0.103
 1916SOL     OW 6646   3.493   1.818   2.981
 1916SOL    HW1 6647   3.499   1.754   3.059
 1916SOL    HW2 6648   3.453   1.771   2.903
 1917SOL     OW 6649   2.478   4.012   1.384
 1917SOL    HW1 6650   2.566   3.970   1.362
 1917SOL    HW2 6651   2.462   4.006   1.483
 1918SOL     OW 6652   5.204   3.084   4.232
 1918SOL    HW1 6653   5.257   3.159   4.194
 1918SOL    HW2 6654   5.251   3.046   4.312
 1919SOL     OW 6655   6.347   0.867   6.416
 1919SOL    HW1 6656   6.305   0.808   6.347
 1919SOL    HW2 6657   6.276   0.911   6.471
 1920SOL     OW 6658   4.965   3.649   0.432
 1920SOL    HW1 6659   5.058   3.620   0.454
 1920SOL    HW2 6660   4.900   3.583   0.468
 1921SOL     OW 6661   3.181   2.209   0.054
 1921SOL    HW1 6662   3.118   2.242   6.999
 1921SOL    HW2 6663   3.185   2.109   0.052
 1922SOL     OW 6664   3.584   3.491   4.452
 1922SOL    HW1 6665   3.506   3.535   4.496
 1922SOL    HW2 6666   3.554   3.445   4.369
 1923SOL     OW 6667   3.052   0.146   4.136
 1923SOL    HW1 6668   3.085   0.120   4.045
 1923SOL    HW2 6669   2.957   0.177   4.129
 1924SOL     OW 6670   5.375   0.575   1.130
 1924SOL    HW1 6671   5.330   0.625   1.057
 1924SOL    HW2 6672   5.363   0.477   1.116
 1925SOL     OW 6673   1.271   4.545   0.882
 1925SOL    HW1 6674   1.336   4.617   0.858
 1925SOL    HW2 6675   1.289   4.464   0.826
 1926SOL     OW 6676   2.616   6.660   1.590
 1926SOL    HW1 6677   2.537   6.687   1.536
 1926SOL    HW2 6678   2.699   6.694   1.547
 1927SOL     OW 6679   1.744   5.236   1.003
 1927SOL    HW1 6680   1.767   5.324   0.962
 1927SOL    HW2 6681   1.673   5.191   0.948
 1928SOL     OW 6682   1.471   4.226   3.053
 1928SOL    HW1 6683   1.511   4.151   3.106
 1928SOL    HW2 6684   1.544   4.274   3.005
 1929SOL     OW 6685   3.059   0.340   3.324
 1929SOL    HW1 6686   3.061   0.381   3.232
 1929SOL    HW2 6687   2.972   0.361   3.367
 1930SOL     OW 6688   3.291   3.706   6.983
 1930SOL    HW1 6689   3.279   3.777   6.913
 1930SOL    HW2 6690   3.207   3.652   6.990
 1931SOL     OW 6691   5.638   3.510   3.624
 1931SOL    HW1 6692   5.677   3.502   3.532
 1931SOL    HW2 6693   5.590   3.597   3.632
 1932SOL     OW 6694   4.810   0.869   1.804
 1932SOL    HW1 6695   4.717   0.884   1.836
 1932SOL    HW2 6696   4.868   0.844   1.882
 1933SOL     OW 6697   1.461   1.026   1.213
 1933SOL    HW1 6698   1.541   1.054   1.265
 1933SOL    HW2 6699   1.441   1.094   1.142
 1934SOL     OW 6700   6.446   0.664   6.957
 1934SOL    HW1 6701   6.401   0.622   6.878
 1934SOL    HW2 6702   6.386   0.733   6.997
 1935SOL     OW 6703   5.895   5.232   3.332
 1935SOL    HW1 6704   5.857   5.316   3.369
 1935SOL    HW2 6705   5.959   5.193   3.398
 1936SOL     OW 6706   5.927   2.950   6.687
 1936SOL    HW1 6707   5.928   2.903   6.775
 1936SOL    HW2 6708   5.923   3.048   6.701
 1937SOL     OW 6709   0.949   5.186   6.773
 1937SOL    HW1 6710   1.034   5.190   6.825
 1937SOL    HW2 6711   0.954   5.112   6.706
 1938SOL     OW 6712   0.052   1.472   6.512
 1938SOL    HW1 6713   0.022   1.522   6.594
 1938SOL    HW2 6714   6.996   1.410   6.483
 1939SOL     OW 6715   0.398   0.874   3.853
 1939SOL    HW1 6716   0.391   0.793   3.912
 1939SOL    HW2 6717   0.307   0.912   3.838
 1940SOL     OW 6718   1.169   5.290   2.187
 1940SOL    HW1 6719   1.198   5.305   2.093
 1940SOL    HW2 6720   1.234   5.229   2.233
 1941SOL     OW 6721   5.970   0.143   4.111
 1941SOL    HW1 6722   6.031   0.140   4.190
 1941SOL    HW2 6723   5.986   0.227   4.059
 1942SOL     OW 6724   0.769   6.248   1.802
 1942SOL    HW1 6725   0.771   6.280   1.897
 1942SOL    HW2 6726   0.844   6.290   1.751
 1943SOL     OW 6727   0.659   4.346   3.833
 1943SOL    HW1 6728   0.624   4.307   3.918
 1943SOL    HW2 6729   0.710   4.276   3.783
 1944SOL     OW 6730   0.099   3.831   3.653
 1944SOL    HW1 6731   0.127   3.742   3.691
 1944SOL    HW2 6732   0.173   3.867   3.597
 1945SOL     OW 6733   4.591   1.769   2.376
 1945SOL    HW1 6734   4.545   1.770   2.287
 1945SOL    HW2 6735   4.681   1.810   2.367
 1946SOL     OW 6736   6.120   4.817   6.739
 1946SOL    HW1 6737   6.112   4.833   6.641
 1946SOL    HW2 6738   6.035   4.842   6.784
 1947SOL     OW 6739   5.442   6.013   2.275
 1947SOL    HW1 6740   5.502   5.954   2.327
 1947SOL    HW2 6741   5.496   6.070   2.213
 1948SOL     OW 6742   4.913   2.987   2.971
 1948SOL    HW1 6743   4.937   2.974   3.067
 1948SOL    HW2 6744   4.870   3.077   2.960
 1949SOL     OW 6745   3.150   3.943   6.524
 1949SOL    HW1 6746   3.180   4.038   6.512
 1949SOL    HW2 6747   3.195   3.885   6.456
 1950SOL     OW 6748   4.031   3.425   4.372
 1950SOL    HW1 6749   4.075   3.415   4.461
 1950SOL    HW2 6750   3.979   3.342   4.351
 1951SOL     OW 6751   0.821   5.335   6.159
 1951SOL    HW1 6752   0.842   5.259   6.097
 1951SOL    HW2 6753   0.867   5.321   6.246
 1952SOL     OW 6754   5.796   3.531   0.148
 1952SOL    HW1 6755   5.779   3.623   0.112
 1952SOL    HW2 6756   5.731   3.467   0.107
 1953SOL     OW 6757   0.360   1.094   6.195
 1953SOL    HW1 6758   0.377   1.047   6.282
 1953SOL    HW2 6759   0.379   1.033   6.119
 1954SOL     OW 6760   4.267   6.699   3.259
 1954SOL    HW1 6761   4.314   6.621   3.217
 1954SOL    HW2 6762   4.258   6.773   3.192
 1955SOL     OW 6763   0.034   3.437   3.991
 1955SOL    HW1 6764   0.051   3.339   4.002
 1955SOL    HW2 6765   0.095   3.488   4.051
 1956SOL     OW 6766   4.598   1.418   1.544
 1956SOL    HW1 6767   4.580   1.322   1.568
 1956SOL    HW2 6768   4.625   1.469   1.625
 1957SOL     OW 6769   0.401   3.150   4.654
 1957SOL    HW1 6770   0.413   3.177   4.558
 1957SOL    HW2 6771   0.409   3.231   4.712
 1958SOL     OW 6772   5.418   2.181   0.341
 1958SOL    HW1 6773   5.371   2.194   0.254
 1958SOL    HW2 6774   5.381   2.102   0.388
 1959SOL     OW 6775   1.915   1.549   5.891
 1959SOL    HW1 6776   1.902   1.635   5.941
 1959SOL    HW2 6777   1.926   1.474   5.956
 1960SOL     OW 6778   4.742   4.411   1.917
 1960SOL    HW1 6779   4.651   4.371   1.918
 1960SOL    HW2 6780   4.782   4.406   2.009
 1961SOL     OW 6781   6.461   3.607   4.520
 1961SOL    HW1 6782   6.513   3.525   4.545
 1961SOL    HW2 6783   6.523   3.685   4.516
 1962SOL     OW 6784   0.064   6.901   2.158
 1962SOL    HW1 6785   6.996   6.954   2.150
 1962SOL    HW2 6786   0.139   6.951   2.112
 1963SOL     OW 6787   0.615   1.001   6.841
 1963SOL    HW1 6788   0.671   1.062   6.785
 1963SOL    HW2 6789   0.546   0.957   6.784
 1964SOL     OW 6790   5.423   3.379   0.563
 1964SOL    HW1 6791   5.448   3.337   0.650
 1964SOL    HW2 6792   5.326   3.401   0.563
 1965SOL     OW 6793   5.626   5.058   4.868
 1965SOL    HW1 6794   5.659   5.083   4.777
 1965SOL    HW2 6795   5.624   5.139   4.926
 1966SOL     OW 6796   1.829   5.188   6.642
 1966SOL    HW1 6797   1.897   5.257   6.667
 1966SOL    HW2 6798   1.750   5.195   6.702
 1967SOL     OW 6799   6.336   2.732   4.025
 1967SOL    HW1 6800   6.420   2.782   4.044
 1967SOL    HW2 6801   6.264   2.763   4.087
 1968SOL     OW 6802   2.556   1.313   5.680
 1968SOL    HW1 6803   2.484   1.248   5.654
 1968SOL    HW2 6804   2.580   1.370   5.602
 1969SOL     OW 6805   0.336   6.173   1.840
 1969SOL    HW1 6806   0.384   6.092   1.875
 1969SOL    HW2 6807   0.392   6.254   1.858
 1970SOL     OW 6808   4.985   4.213   2.587
 1970SOL    HW1 6809   5.058   4.247   2.528
 1970SOL    HW2 6810   5.023   4.157   2.660
 1971SOL     OW 6811   1.266   5.593   4.204
 1971SOL    HW1 6812   1.291   5.574   4.109
 1971SOL    HW2 6813   1.182   5.647   4.207
 1972SOL     OW 6814   5.311   2.284   3.651
 1972SOL    HW1 6815   5.379   2.356   3.643
 1972SOL    HW2 6816   5.314   2.246   3.743
 1973SOL     OW 6817   4.373   2.238   6.883
 1973SOL    HW1 6818   4.457   2.229   6.936
 1973SOL    HW2 6819   4.354   2.153   6.835
 1974SOL     OW 6820   2.116   6.476   4.388
 1974SOL    HW1 6821   2.112   6.402   4.455
 1974SOL    HW2 6822   2.198   6.465   4.331
 1975SOL     OW 6823   1.999   2.510   2.901
 1975SOL    HW1 6824   2.072   2.496   2.968
 1975SOL    HW2 6825   2.039   2.525   2.810
 1976SOL     OW 6826   2.669   0.337   4.522
 1976SOL    HW1 6827   2.767   0.358   4.521
 1976SOL    HW2 6828   2.618   0.418   4.492
 1977SOL     OW 6829   1.184   4.416   0.260
 1977SOL    HW1 6830   1.155   4.332   0.213
 1977SOL    HW2 6831   1.284   4.419   0.262
 1978SOL     OW 6832   2.676   0.840   2.336
 1978SOL    HW1 6833   2.586   0.844   2.378
 1978SOL    HW2 6834   2.686   0.916   2.271
 1979SOL     OW 6835   5.410   3.032   6.973
 1979SOL    HW1 6836   5.362   3.083   6.901
 1979SOL    HW2 6837   5.370   3.054   0.046
 1980SOL     OW 6838   4.201   6.841   1.458
 1980SOL    HW1 6839   4.271   6.771   1.450
 1980SOL    HW2 6840   4.231   6.924   1.411
 1981SOL     OW 6841   4.488   2.730   1.591
 1981SOL    HW1 6842   4.544   2.668   1.536
 1981SOL    HW2 6843   4.535   2.817   1.602
 1982SOL     OW 6844   2.577   2.044   6.419
 1982SOL    HW1 6845   2.605   2.015   6.327
 1982SOL    HW2 6846   2.601   2.140   6.432
 1983SOL     OW 6847   6.992   2.281   0.967
 1983SOL    HW1 6848   6.939   2.255   0.886
 1983SOL    HW2 6849   6.935   2.337   1.027
 1984SOL     OW 6850   4.712   3.232   6.390
 1984SOL    HW1 6851   4.691   3.250   6.294
 1984SOL    HW2 6852   4.641   3.174   6.429
 1985SOL     OW 6853   5.136   5.806   5.103
 1985SOL    HW1 6854   5.061   5.740   5.093
 1985SOL    HW2 6855   5.142   5.863   5.020
 1986SOL     OW 6856   3.186   3.339   3.291
 1986SOL    HW1 6857   3.258   3.335   3.221
 1986SOL    HW2 6858   3.100   3.366   3.248
 1987SOL     OW 6859   1.601   2.359   1.950
 1987SOL    HW1 6860   1.635   2.429   1.888
 1987SOL    HW2 6861   1.650   2.273   1.933
 1988SOL     OW 6862   1.389   1.688   2.365
 1988SOL    HW1 6863   1.337   1.765   2.402
 1988SOL    HW2 6864   1.418   1.628   2.439
 1989SOL     OW 6865   3.235   5.091   3.487
 1989SOL    HW1 6866   3.164   5.158   3.466
 1989SOL    HW2 6867   3.318   5.138   3.518
 1990SOL     OW 6868   4.657   0.151   0.918
 1990SOL    HW1 6869   4.613   0.181   1.003
 1990SOL    HW2 6870   4.722   0.220   0.887
 1991SOL     OW 6871   2.988   5.035   2.371
 1991SOL    HW1 6872   3.072   5.072   2.411
 1991SOL    HW2 6873   2.942   5.107   2.318
 1992SOL     OW 6874   0.479   0.609   3.292
 1992SOL    HW1 6875   0.549   0.639   3.356
 1992SOL    HW2 6876   0.510   0.626   3.198
 1993SOL     OW 6877   1.360   0.796   1.161
 1993SOL    HW1 6878   1.413   0.878   1.182
 1993SOL    HW2 6879   1.297   0.777   1.237
 1994SOL     OW 6880   3.046   3.448   1.456
 1994SOL    HW1 6881   3.080   3.541   1.439
 1994SOL    HW2 6882   2.974   3.451   1.525
 1995SOL     OW 6883   6.405   0.524   4.230
 1995SOL    HW1 6884   6.441   0.616   4.213
 1995SOL    HW2 6885   6.375   0.483   4.144
 1996SOL     OW 6886   4.576   0.305   1.166
 1996SOL    HW1 6887   4.638   0.305   1.244
 1996SOL    HW2 6888   4.522   0.220   1.167
 1997SOL     OW 6889   2.618   1.676   3.178
 1997SOL    HW1 6890   2.709   1.701   3.212
 1997SOL    HW2 6891   2.618   1.680   3.078
 1998SOL     OW 6892   2.164   3.530   1.191
 1998SOL    HW1 6893   2.168   3.469   1.270
 1998SOL    HW2 6894   2.100   3.494   1.124
 1999SOL     OW 6895   0.217   0.165   5.696
 1999SOL    HW1 6896   0.295   0.189   5.753
 1999SOL    HW2 6897   0.241   0.088   5.637
 2000SOL     OW 6898   4.212   4.189   6.363
 2000SOL    HW1 6899   4.142   4.117   6.367
 2000SOL    HW2 6900   4.252   4.191   6.271
 2001SOL     OW 6901   1.337   1.519   0.056
 2001SOL    HW1 6902   1.401   1.527   0.133
 2001SOL    HW2 6903   1.276   1.598   0.055
 2002SOL     OW 6904   5.883   4.456   6.804
 2002SOL    HW1 6905   5.806   4.396   6.826
 2002SOL    HW2 6906   5.877   4.483   6.708
 2003SOL     OW 6907   0.093   5.294   1.370
 2003SOL    HW1 6908   0.056   5.301   1.463
 2003SOL    HW2 6909   0.188   5.264   1.375
 2004SOL     OW 6910   3.117   0.776   3.137
 2004SOL    HW1 6911   3.211   0.806   3.156
 2004SOL    HW2 6912   3.120   0.685   3.095
 2005SOL     OW 6913   1.644   6.591   6.954
 2005SOL    HW1 6914   1.571   6.540   6.999
 2005SOL    HW2 6915   1.725   6.591   7.013
 2006SOL     OW 6916   6.112   0.458   1.936
 2006SOL    HW1 6917   6.101   0.531   2.004
 2006SOL    HW2 6918   6.063   0.377   1.967
 2007SOL     OW 6919   5.606   4.710   5.832
 2007SOL    HW1 6920   5.600   4.773   5.909
 2007SOL    HW2 6921   5.514   4.692   5.796
 2008SOL     OW 6922   2.198   3.111   2.729
 2008SOL    HW1 6923   2.116   3.095   2.783
 2008SOL    HW2 6924   2.239   3.199   2.755
 2009SOL     OW 6925   5.824   0.249   3.657
 2009SOL    HW1 6926   5.815   0.255   3.557
 2009SOL    HW2 6927   5.860   0.159   3.682
 2010SOL     OW 6928   6.698   1.289   1.663
 2010SOL    HW1 6929   6.731   1.358   1.600
 2010SOL    HW2 6930   6.760   1.211   1.663
 2011SOL     OW 6931   0.763   0.477   5.212
 2011SOL    HW1 6932   0.666   0.472   5.189
 2011SOL    HW2 6933   0.775   0.469   5.310
 2012SOL     OW 6934   0.404   2.331   0.412
 2012SOL    HW1 6935   0.406   2.326   0.312
 2012SOL    HW2 6936   0.309   2.336   0.443
 2013SOL     OW 6937   0.569   2.545   2.143
 2013SOL    HW1 6938   0.516   2.493   2.210
 2013SOL    HW2 6939   0.533   2.528   2.051
 2014SOL     OW 6940   4.109   2.138   2.868
 2014SOL    HW1 6941   4.194   2.190   2.866
 2014SOL    HW2 6942   4.110   2.070   2.794
 2015SOL     OW 6943   3.299   6.343   1.133
 2015SOL    HW1 6944   3.324   6.246   1.136
 2015SOL    HW2 6945   3.353   6.394   1.201
 2016SOL     OW 6946   2.243   0.478   4.325
 2016SOL    HW1 6947   2.190   0.493   4.408
 2016SOL    HW2 6948   2.186   0.497   4.245
 2017SOL     OW 6949   1.083   6.713   4.267
 2017SOL    HW1 6950   1.142   6.793   4.264
 2017SOL    HW2 6951   1.129   6.635   4.225
 2018SOL     OW 6952   0.454   1.386   4.623
 2018SOL    HW1 6953   0.542   1.432   4.612
 2018SOL    HW2 6954   0.390   1.421   4.554
 2019SOL     OW 6955   0.727   4.818   6.779
 2019SOL    HW1 6956   0.684   4.908   6.788
 2019SOL    HW2 6957   0.825   4.826   6.795
 2020SOL     OW 6958   1.925   6.738   1.342
 2020SOL    HW1 6959   1.966   6.804   1.405
 2020SOL    HW2 6960   1.931   6.773   1.249
 2021SOL     OW 6961   0.081   5.351   3.931
 2021SOL    HW1 6962   0.085   5.437   3.880
 2021SOL    HW2 6963   0.045   5.369   4.023
 2022SOL     OW 6964   2.149   3.254   4.172
 2022SOL    HW1 6965   2.152   3.231   4.075
 2022SOL    HW2 6966   2.078   3.199   4.218
 2023SOL     OW 6967   0.703   5.957   6.186
 2023SOL    HW1 6968   0.613   5.925   6.215
 2023SOL    HW2 6969   0.757   5.982   6.267
 2024SOL     OW 6970   6.190   5.408   2.995
 2024SOL    HW1 6971   6.130   5.477   2.954
 2024SOL    HW2 6972   6.138   5.352   3.059
 2025SOL     OW 6973   1.948   0.786   4.510
 2025SOL    HW1 6974   1.953   0.807   4.412
 2025SOL    HW2 6975   1.957   0.688   4.524
 2026SOL     OW 6976   1.403   6.703   5.574
 2026SOL    HW1 6977   1.403   6.614   5.619
 2026SOL    HW2 6978   1.493   6.721   5.536
 2027SOL     OW 6979   6.057   6.859   3.207
 2027SOL    HW1 6980   6.054   6.842   3.108
 2027SOL    HW2 6981   6.150   6.849   3.240
 2028SOL     OW 6982   2.001   5.834   4.778
 2028SOL    HW1 6983   1.946   5.768   4.830
 2028SOL    HW2 6984   2.059   5.885   4.841
 2029SOL     OW 6985   0.095   2.262   0.110
 2029SOL    HW1 6986   0.195   2.255   0.105
 2029SOL    HW2 6987   0.057   2.255   0.018
 2030SOL     OW 6988   1.460   6.304   2.440
 2030SOL    HW1 6989   1.527   6.240   2.478
 2030SOL    HW2 6990   1.499   6.396   2.439
 2031SOL     OW 6991   6.800   0.683   4.412
 2031SOL    HW1 6992   6.779   0.741   4.333
 2031SOL    HW2 6993   6.864   0.611   4.384
 2032SOL     OW 6994   3.053   2.446   6.294
 2032SOL    HW1 6995   3.018   2.430   6.201
 2032SOL    HW2 6996   2.981   2.487   6.350
 2033SOL     OW 6997   2.696   6.928   1.167
 2033SOL    HW1 6998   2.787   6.957   1.141
 2033SOL    HW2 6999   2.693   6.912   1.266
 2034SOL     OW 7000   0.823   3.631   4.872
 2034SOL    HW1 7001   0.864   3.719   4.894
 2034SOL    HW2 7002   0.893   3.559   4.876
 2035SOL     OW 7003   4.849   6.015   3.372
 2035SOL    HW1 7004   4.761   6.030   3.416
 2035SOL    HW2 7005   4.875   5.918   3.379
 2036SOL     OW 7006   6.988   3.630   5.628
 2036SOL    HW1 7007   6.988   3.531   5.645
 2036SOL    HW2 7008   6.942   3.677   5.704
 2037SOL     OW 7009   0.541   2.480   6.535
 2037SOL    HW1 7010   0.539   2.568   6.487
 2037SOL    HW2 7011   0.617   2.425   6.500
 2038SOL     OW 7012   2.177   0.823   5.605
 2038SOL    HW1 7013   2.266   0.784   5.625
 2038SOL    HW2 7014   2.162   0.822   5.506
 2039SOL     OW 7015   5.395   5.934   4.824
 2039SOL    HW1 7016   5.450   5.938   4.907
 2039SOL    HW2 7017   5.402   6.021   4.775
 2040SOL     OW 7018   2.812   1.266   0.784
 2040SOL    HW1 7019   2.775   1.335   0.722
 2040SOL    HW2 7020   2.905   1.291   0.810
 2041SOL     OW 7021   2.513   0.159   6.347
 2041SOL    HW1 7022   2.609   0.134   6.345
 2041SOL    HW2 7023   2.461   0.086   6.392
 2042SOL     OW 7024   0.390   0.140   5.178
 2042SOL    HW1 7025   0.369   0.103   5.087
 2042SOL    HW2 7026   0.479   0.105   5.208
 2043SOL     OW 7027   1.224   3.250   0.385
 2043SOL    HW1 7028   1.236   3.307   0.466
 2043SOL    HW2 7029   1.254   3.157   0.406
 2044SOL     OW 7030   2.717   1.333   2.440
 2044SOL    HW1 7031   2.726   1.315   2.538
 2044SOL    HW2 7032   2.759   1.421   2.419
 2045SOL     OW 7033   1.509   6.243   3.421
 2045SOL    HW1 7034   1.561   6.172   3.468
 2045SOL    HW2 7035   1.524   6.331   3.467
 2046SOL     OW 7036   0.341   2.296   5.504
 2046SOL    HW1 7037   0.290   2.380   5.521
 2046SOL    HW2 7038   0.428   2.318   5.460
 2047SOL     OW 7039   6.590   0.459   1.941
 2047SOL    HW1 7040   6.614   0.532   1.877
 2047SOL    HW2 7041   6.502   0.419   1.914
 2048SOL     OW 7042   2.336   1.256   3.564
 2048SOL    HW1 7043   2.254   1.314   3.564
 2048SOL    HW2 7044   2.382   1.263   3.476
 2049SOL     OW 7045   4.450   2.373   5.140
 2049SOL    HW1 7046   4.358   2.379   5.102
 2049SOL    HW2 7047   4.517   2.389   5.068
 2050SOL     OW 7048   7.003   0.984   2.721
 2050SOL    HW1 7049   6.967   1.077   2.720
 2050SOL    HW2 7050   6.926   0.919   2.723
 2051SOL     OW 7051   3.065   6.898   6.597
 2051SOL    HW1 7052   3.030   6.992   6.597
 2051SOL    HW2 7053   3.147   6.893   6.654
 2052SOL     OW 7054   0.668   4.146   0.842
 2052SOL    HW1 7055   0.590   4.151   0.905
 2052SOL    HW2 7056   0.747   4.109   0.891
 2053SOL     OW 7057   4.706   5.052   1.490
 2053SOL    HW1 7058   4.718   4.964   1.535
 2053SOL    HW2 7059   4.720   5.041   1.391
 2054SOL     OW 7060   2.916   3.687   4.185
 2054SOL    HW1 7061   2.903   3.588   4.187
 2054SOL    HW2 7062   2.939   3.720   4.276
 2055SOL     OW 7063   3.227   2.947   5.864
 2055SOL    HW1 7064   3.283   2.940   5.947
 2055SOL    HW2 7065   3.140   2.900   5.879
 2056SOL     OW 7066   3.045   5.435   1.560
 2056SOL    HW1 7067   3.056   5.433   1.460
 2056SOL    HW2 7068   3.038   5.342   1.595
 2057SOL     OW 7069   6.152   3.173   4.445
 2057SOL    HW1 7070   6.070   3.220   4.411
 2057SOL    HW2 7071   6.222   3.173   4.375
 2058SOL     OW 7072   5.343   0.665   3.758
 2058SOL    HW1 7073   5.405   0.615   3.818
 2058SOL    HW2 7074   5.312   0.604   3.685
 2059SOL     OW 7075   2.778   1.415   5.807
 2059SOL    HW1 7076   2.743   1.474   5.880
 2059SOL    HW2 7077   2.701   1.376   5.757
 2060SOL     OW 7078   1.623   2.238   6.575
 2060SOL    HW1 7079   1.707   2.210   6.530
 2060SOL    HW2 7080   1.627   2.335   6.598
 2061SOL     OW 7081   2.520   2.514   3.757
 2061SOL    HW1 7082   2.609   2.482   3.790
 2061SOL    HW2 7083   2.447   2.464   3.803
 2062SOL     OW 7084   4.663   5.033   4.094
 2062SOL    HW1 7085   4.695   4.943   4.123
 2062SOL    HW2 7086   4.734   5.077   4.039
 2063SOL     OW 7087   1.212   1.743   4.122
 2063SOL    HW1 7088   1.139   1.806   4.096
 2063SOL    HW2 7089   1.295   1.794   4.143
 2064SOL     OW 7090   6.888   3.947   4.484
 2064SOL    HW1 7091   6.824   3.972   4.411
 2064SOL    HW2 7092   6.903   3.848   4.483
 2065SOL     OW 7093   3.284   3.222   5.463
 2065SOL    HW1 7094   3.364   3.192   5.515
 2065SOL    HW2 7095   3.223   3.144   5.448
 2066SOL     OW 7096   2.195   2.498   4.533
 2066SOL    HW1 7097   2.271   2.466   4.476
 2066SOL    HW2 7098   2.229   2.565   4.599
 2067SOL     OW 7099   5.777   4.307   3.124
 2067SOL    HW1 7100   5.706   4.262   3.070
 2067SOL    HW2 7101   5.846   4.345   3.062
 2068SOL     OW 7102   3.043   6.613   4.370
 2068SOL    HW1 7103   2.992   6.679   4.315
 2068SOL    HW2 7104   3.021   6.626   4.467
 2069SOL     OW 7105   5.455   1.694   2.854
 2069SOL    HW1 7106   5.433   1.749   2.774
 2069SOL    HW2 7107   5.386   1.623   2.866
 2070SOL     OW 7108   0.703   5.814   2.032
 2070SOL    HW1 7109   0.696   5.732   1.976
 2070SOL    HW2 7110   0.779   5.871   2.000
 2071SOL     OW 7111   6.981   2.470   3.998
 2071SOL    HW1 7112   6.986   2.569   4.010
 2071SOL    HW2 7113   6.972   2.449   3.901
 2072SOL     OW 7114   5.491   2.933   5.887
 2072SOL    HW1 7115   5.454   2.977   5.805
 2072SOL    HW2 7116   5.438   2.962   5.967
 2073SOL     OW 7117   3.155   5.840   6.923
 2073SOL    HW1 7118   3.240   5.891   6.937
 2073SOL    HW2 7119   3.176   5.744   6.905
 2074SOL     OW 7120   3.502   4.582   5.392
 2074SOL    HW1 7121   3.586   4.532   5.374
 2074SOL    HW2 7122   3.427   4.518   5.406
 2075SOL     OW 7123   5.085   0.862   1.132
 2075SOL    HW1 7124   5.081   0.807   1.216
 2075SOL    HW2 7125   4.993   0.888   1.104
 2076SOL     OW 7126   6.467   0.078   3.243
 2076SOL    HW1 7127   6.394   0.068   3.176
 2076SOL    HW2 7128   6.553   0.045   3.204
 2077SOL     OW 7129   0.607   4.260   1.403
 2077SOL    HW1 7130   0.621   4.270   1.305
 2077SOL    HW2 7131   0.579   4.167   1.424
 2078SOL     OW 7132   0.980   2.517   0.649
 2078SOL    HW1 7133   0.909   2.579   0.684
 2078SOL    HW2 7134   0.996   2.444   0.716
 2079SOL     OW 7135   5.381   1.716   3.906
 2079SOL    HW1 7136   5.447   1.779   3.944
 2079SOL    HW2 7137   5.366   1.736   3.809
 2080SOL     OW 7138   2.003   2.762   4.525
 2080SOL    HW1 7139   1.992   2.795   4.619
 2080SOL    HW2 7140   2.013   2.663   4.525
 2081SOL     OW 7141   0.536   5.766   2.657
 2081SOL    HW1 7142   0.629   5.729   2.656
 2081SOL    HW2 7143   0.527   5.835   2.584
 2082SOL     OW 7144   6.528   6.216   4.319
 2082SOL    HW1 7145   6.440   6.182   4.286
 2082SOL    HW2 7146   6.523   6.233   4.417
 2083SOL     OW 7147   1.128   5.828   3.033
 2083SOL    HW1 7148   1.178   5.804   3.116
 2083SOL    HW2 7149   1.110   5.926   3.032
 2084SOL     OW 7150   5.913   2.503   1.444
 2084SOL    HW1 7151   5.930   2.413   1.404
 2084SOL    HW2 7152   5.822   2.505   1.483
 2085SOL     OW 7153   6.146   4.854   6.468
 2085SOL    HW1 7154   6.188   4.919   6.405
 2085SOL    HW2 7155   6.156   4.761   6.431
 2086SOL     OW 7156   5.398   1.626   5.672
 2086SOL    HW1 7157   5.491   1.642   5.637
 2086SOL    HW2 7158   5.389   1.666   5.763
 2087SOL     OW 7159   4.796   1.284   6.031
 2087SOL    HW1 7160   4.770   1.212   6.095
 2087SOL    HW2 7161   4.893   1.305   6.042
 2088SOL     OW 7162   0.648   3.569   5.595
 2088SOL    HW1 7163   0.599   3.554   5.509
 2088SOL    HW2 7164   0.723   3.503   5.603
 2089SOL     OW 7165   3.010   5.261   4.548
 2089SOL    HW1 7166   2.989   5.195   4.620
 2089SOL    HW2 7167   2.946   5.338   4.553
 2090SOL     OW 7168   5.611   2.278   6.140
 2090SOL    HW1 7169   5.655   2.346   6.198
 2090SOL    HW2 7170   5.629   2.299   6.044
 2091SOL     OW 7171   5.469   0.449   0.852
 2091SOL    HW1 7172   5.559   0.407   0.837
 2091SOL    HW2 7173   5.476   0.548   0.846
 2092SOL     OW 7174   3.651   3.295   2.640
 2092SOL    HW1 7175   3.669   3.369   2.705
 2092SOL    HW2 7176   3.576   3.238   2.674
 2093SOL     OW 7177   4.968   0.343   6.907
 2093SOL    HW1 7178   5.067   0.352   6.895
 2093SOL    HW2 7179   4.948   0.254   6.948
 2094SOL     OW 7180   4.891   2.840   0.988
 2094SOL    HW1 7181   4.923   2.814   1.079
 2094SOL    HW2 7182   4.869   2.938   0.987
 2095SOL     OW 7183   3.824   6.099   4.228
 2095SOL    HW1 7184   3.761   6.024   4.248
 2095SOL    HW2 7185   3.826   6.163   4.304
 2096SOL     OW 7186   3.742   0.611   2.698
 2096SOL    HW1 7187   3.751   0.516   2.668
 2096SOL    HW2 7188   3.652   0.645   2.674
 2097SOL     OW 7189   2.621   5.699   5.374
 2097SOL    HW1 7190   2.609   5.783   5.427
 2097SOL    HW2 7191   2.597   5.620   5.430
 2098SOL     OW 7192   1.425   0.158   4.152
 2098SOL    HW1 7193   1.490   0.090   4.186
 2098SOL    HW2 7194   1.446   0.180   4.057
 2099SOL     OW 7195   4.688   1.910   0.134
 2099SOL    HW1 7196   4.767   1.877   0.082
 2099SOL    HW2 7197   4.607   1.912   0.075
 2100SOL     OW 7198   4.802   0.411   0.900
 2100SOL    HW1 7199   4.877   0.378   0.842
 2100SOL    HW2 7200   4.840   0.470   0.972
 2101SOL     OW 7201   0.613   0.657   3.042
 2101SOL    HW1 7202   0.669   0.598   3.100
 2101SOL    HW2 7203   0.667   0.686   2.963
 2102SOL     OW 7204   3.774   3.054   2.642
 2102SOL    HW1 7205   3.715   3.135   2.638
 2102SOL    HW2 7206   3.799   3.026   2.549
 2103SOL     OW 7207   1.433   6.925   1.443
 2103SOL    HW1 7208   1.513   6.982   1.425
 2103SOL    HW2 7209   1.463   6.835   1.475
 2104SOL     OW 7210   1.162   4.653   2.456
 2104SOL    HW1 7211   1.163   4.576   2.520
 2104SOL    HW2 7212   1.242   4.711   2.473
 2105SOL     OW 7213   5.285   6.403   5.731
 2105SOL    HW1 7214   5.351   6.402   5.656
 2105SOL    HW2 7215   5.322   6.354   5.809
 2106SOL     OW 7216   3.703   3.693   0.769
 2106SOL    HW1 7217   3.706   3.633   0.689
 2106SOL    HW2 7218   3.791   3.737   0.781
 2107SOL     OW 7219   5.748   4.558   4.372
 2107SOL    HW1 7220   5.709   4.599   4.454
 2107SOL    HW2 7221   5.726   4.461   4.368
 2108SOL     OW 7222   4.316   6.064   5.562
 2108SOL    HW1 7223   4.221   6.061   5.532
 2108SOL    HW2 7224   4.330   6.143   5.622
 2109SOL     OW 7225   2.675   6.293   2.064
 2109SOL    HW1 7226   2.653   6.283   2.161
 2109SOL    HW2 7227   2.721   6.211   2.032
 2110SOL     OW 7228   3.805   5.866   0.658
 2110SOL    HW1 7229   3.874   5.840   0.591
 2110SOL    HW2 7230   3.724   5.902   0.611
 2111SOL     OW 7231   1.156   2.700   0.541
 2111SOL    HW1 7232   1.148   2.700   0.442
 2111SOL    HW2 7233   1.088   2.639   0.580
 2112SOL     OW 7234   0.762   0.799   6.115
 2112SOL    HW1 7235   0.752   0.850   6.200
 2112SOL    HW2 7236   0.857   0.800   6.086
 2113SOL     OW 7237   6.456   1.641   4.598
 2113SOL    HW1 7238   6.488   1.563   4.543
 2113SOL    HW2 7239   6.400   1.701   4.541
 2114SOL     OW 7240   2.869   0.531   5.592
 2114SOL    HW1 7241   2.857   0.604   5.659
 2114SOL    HW2 7242   2.966   0.525   5.566
 2115SOL     OW 7243   0.175   0.060   4.381
 2115SOL    HW1 7244   0.191   0.117   4.300
 2115SOL    HW2 7245   0.087   0.013   4.371
 2116SOL     OW 7246   2.680   6.862   6.713
 2116SOL    HW1 7247   2.627   6.808   6.779
 2116SOL    HW2 7248   2.685   6.957   6.745
 2117SOL     OW 7249   6.580   2.995   0.919
 2117SOL    HW1 7250   6.513   3.069   0.906
 2117SOL    HW2 7251   6.669   3.023   0.883
 2118SOL     OW 7252   0.141   2.919   2.696
 2118SOL    HW1 7253   0.163   3.001   2.644
 2118SOL    HW2 7254   0.169   2.931   2.791
 2119SOL     OW 7255   2.120   2.441   6.729
 2119SOL    HW1 7256   2.188   2.380   6.769
 2119SOL    HW2 7257   2.155   2.478   6.643
 2120SOL     OW 7258   6.451   1.496   0.720
 2120SOL    HW1 7259   6.544   1.461   0.704
 2120SOL    HW2 7260   6.449   1.547   0.805
 2121SOL     OW 7261   2.608   5.909   1.977
 2121SOL    HW1 7262   2.602   5.911   1.877
 2121SOL    HW2 7263   2.684   5.966   2.007
 2122SOL     OW 7264   0.376   1.407   5.336
 2122SOL    HW1 7265   0.319   1.379   5.414
 2122SOL    HW2 7266   0.472   1.404   5.362
 2123SOL     OW 7267   0.647   4.549   3.154
 2123SOL    HW1 7268   0.586   4.529   3.077
 2123SOL    HW2 7269   0.639   4.477   3.222
 2124SOL     OW 7270   5.754   3.461   6.371
 2124SOL    HW1 7271   5.712   3.489   6.285
 2124SOL    HW2 7272   5.735   3.364   6.387
 2125SOL     OW 7273   2.192   5.279   6.065
 2125SOL    HW1 7274   2.102   5.298   6.027
 2125SOL    HW2 7275   2.262   5.297   5.996
 2126SOL     OW 7276   2.363   6.004   2.032
 2126SOL    HW1 7277   2.446   5.949   2.026
 2126SOL    HW2 7278   2.378   6.092   1.987
 2127SOL     OW 7279   1.614   3.602   4.199
 2127SOL    HW1 7280   1.579   3.539   4.269
 2127SOL    HW2 7281   1.709   3.624   4.219
 2128SOL     OW 7282   5.133   3.100   0.917
 2128SOL    HW1 7283   5.169   3.006   0.922
 2128SOL    HW2 7284   5.033   3.097   0.919
 2129SOL     OW 7285   5.536   4.928   4.032
 2129SOL    HW1 7286   5.497   4.852   3.980
 2129SOL    HW2 7287   5.501   4.926   4.126
 2130SOL     OW 7288   2.029   0.047   2.866
 2130SOL    HW1 7289   2.118   0.012   2.838
 2130SOL    HW2 7290   2.003   0.008   2.954
 2131SOL     OW 7291   6.026   6.854   6.642
 2131SOL    HW1 7292   5.948   6.798   6.669
 2131SOL    HW2 7293   6.036   6.854   6.543
 2132SOL     OW 7294   3.134   1.554   0.430
 2132SOL    HW1 7295   3.191   1.592   0.503
 2132SOL    HW2 7296   3.189   1.545   0.347
 2133SOL     OW 7297   3.308   3.171   2.281
 2133SOL    HW1 7298   3.392   3.213   2.315
 2133SOL    HW2 7299   3.330   3.100   2.215
 2134SOL     OW 7300   2.548   6.658   4.852
 2134SOL    HW1 7301   2.490   6.600   4.909
 2134SOL    HW2 7302   2.584   6.604   4.776
 2135SOL     OW 7303   0.127   5.576   3.811
 2135SOL    HW1 7304   0.120   5.628   3.726
 2135SOL    HW2 7305   0.150   5.638   3.886
 2136SOL     OW 7306   0.110   4.832   3.681
 2136SOL    HW1 7307   0.040   4.855   3.614
 2136SOL    HW2 7308   0.191   4.888   3.665
 2137SOL     OW 7309   0.087   0.159   4.797
 2137SOL    HW1 7310   0.045   0.213   4.870
 2137SOL    HW2 7311   0.030   0.161   4.716
 2138SOL     OW 7312   1.161   2.025   0.369
 2138SOL    HW1 7313   1.208   2.112   0.380
 2138SOL    HW2 7314   1.220   1.961   0.319
 2139SOL     OW 7315   4.033   6.522   4.661
 2139SOL    HW1 7316   3.966   6.453   4.632
 2139SOL    HW2 7317   3.999   6.569   4.743
 2140SOL     OW 7318   0.875   5.761   3.459
 2140SOL    HW1 7319   0.862   5.742   3.362
 2140SOL    HW2 7320   0.843   5.683   3.513
 2141SOL     OW 7321   6.594   0.813   6.766
 2141SOL    HW1 7322   6.526   0.767   6.709
 2141SOL    HW2 7323   6.560   0.821   6.859
 2142SOL     OW 7324   3.709   1.580   3.264
 2142SOL    HW1 7325   3.708   1.678   3.282
 2142SOL    HW2 7326   3.691   1.563   3.167
 2143SOL     OW 7327   3.336   5.431   0.541
 2143SOL    HW1 7328   3.415   5.480   0.577
 2143SOL    HW2 7329   3.367   5.355   0.484
 2144SOL     OW 7330   1.152   1.429   1.995
 2144SOL    HW1 7331   1.106   1.434   2.083
 2144SOL    HW2 7332   1.089   1.395   1.925
 2145SOL     OW 7333   2.554   6.066   3.378
 2145SOL    HW1 7334   2.473   6.014   3.351
 2145SOL    HW2 7335   2.627   6.051   3.311
 2146SOL     OW 7336   2.996   1.962   1.310
 2146SOL    HW1 7337   3.058   1.910   1.368
 2146SOL    HW2 7338   2.910   1.913   1.300
 2147SOL     OW 7339   6.871   0.551   4.029
 2147SOL    HW1 7340   6.970   0.551   4.014
 2147SOL    HW2 7341   6.844   0.639   4.069
 2148SOL     OW 7342   6.530   4.360   3.956
 2148SOL    HW1 7343   6.577   4.347   4.043
 2148SOL    HW2 7344   6.473   4.280   3.937
 2149SOL     OW 7345   1.960   1.101   2.147
 2149SOL    HW1 7346   1.933   1.162   2.073
 2149SOL    HW2 7347   1.894   1.109   2.222
 2150SOL     OW 7348   5.889   0.645   3.222
 2150SOL    HW1 7349   5.933   0.698   3.149
 2150SOL    HW2 7350   5.889   0.548   3.197
 2151SOL     OW 7351   5.239   4.670   5.282
 2151SOL    HW1 7352   5.161   4.632   5.233
 2151SOL    HW2 7353   5.217   4.763   5.313
 2152SOL     OW 7354   0.071   6.406   2.416
 2152SOL    HW1 7355   0.036   6.497   2.441
 2152SOL    HW2 7356   0.026   6.375   2.333
 2153SOL     OW 7357   4.322   2.297   3.132
 2153SOL    HW1 7358   4.265   2.268   3.209
 2153SOL    HW2 7359   4.361   2.387   3.152
 2154SOL     OW 7360   4.354   0.275   3.919
 2154SOL    HW1 7361   4.297   0.239   3.846
 2154SOL    HW2 7362   4.320   0.366   3.946
 2155SOL     OW 7363   5.993   3.670   0.713
 2155SOL    HW1 7364   5.910   3.670   0.657
 2155SOL    HW2 7365   5.969   3.651   0.809
 2156SOL     OW 7366   5.866   5.494   2.483
 2156SOL    HW1 7367   5.955   5.463   2.516
 2156SOL    HW2 7368   5.835   5.572   2.538
 2157SOL     OW 7369   5.252   1.356   4.111
 2157SOL    HW1 7370   5.267   1.275   4.054
 2157SOL    HW2 7371   5.325   1.422   4.095
 2158SOL     OW 7372   4.264   1.009   3.443
 2158SOL    HW1 7373   4.318   1.060   3.375
 2158SOL    HW2 7374   4.214   1.074   3.500
 2159SOL     OW 7375   2.005   2.050   4.589
 2159SOL    HW1 7376   2.074   2.122   4.593
 2159SOL    HW2 7377   1.915   2.087   4.612
 2160SOL     OW 7378   2.040   4.095   0.845
 2160SOL    HW1 7379   2.062   4.141   0.759
 2160SOL    HW2 7380   2.019   4.164   0.915
 2161SOL     OW 7381   4.342   2.328   2.199
 2161SOL    HW1 7382   4.398   2.245   2.207
 2161SOL    HW2 7383   4.263   2.319   2.259
 2162SOL     OW 7384   1.732   1.354   2.915
 2162SOL    HW1 7385   1.776   1.297   2.985
 2162SOL    HW2 7386   1.739   1.309   2.826
 2163SOL     OW 7387   4.710   1.572   0.807
 2163SOL    HW1 7388   4.785   1.511   0.783
 2163SOL    HW2 7389   4.739   1.634   0.880
 2164SOL     OW 7390   6.290   0.045   2.130
 2164SOL    HW1 7391   6.363   6.999   2.160
 2164SOL    HW2 7392   6.227   7.012   2.070
 2165SOL     OW 7393   2.037   6.882   2.135
 2165SOL    HW1 7394   2.039   6.972   2.091
 2165SOL    HW2 7395   1.992   6.816   2.075
 2166SOL     OW 7396   5.795   2.441   4.785
 2166SOL    HW1 7397   5.801   2.457   4.884
 2166SOL    HW2 7398   5.762   2.347   4.769
 2167SOL     OW 7399   3.292   1.564   1.168
 2167SOL    HW1 7400   3.197   1.594   1.172
 2167SOL    HW2 7401   3.352   1.644   1.176
 2168SOL     OW 7402   5.852   6.617   4.313
 2168SOL    HW1 7403   5.888   6.653   4.227
 2168SOL    HW2 7404   5.753   6.633   4.317
 2169SOL     OW 7405   4.986   2.643   5.116
 2169SOL    HW1 7406   5.018   2.591   5.037
 2169SOL    HW2 7407   4.886   2.641   5.118
 2170SOL     OW 7408   4.833   5.593   4.705
 2170SOL    HW1 7409   4.932   5.593   4.692
 2170SOL    HW2 7410   4.806   5.673   4.759
 2171SOL     OW 7411   0.639   3.110   0.240
 2171SOL    HW1 7412   0.702   3.032   0.237
 2171SOL    HW2 7413   0.572   3.095   0.313
 2172SOL     OW 7414   2.346   0.596   3.310
 2172SOL    HW1 7415   2.403   0.516   3.329
 2172SOL    HW2 7416   2.404   0.676   3.297
 2173SOL     OW 7417   4.583   1.802   4.489
 2173SOL    HW1 7418   4.587   1.902   4.489
 2173SOL    HW2 7419   4.667   1.765   4.528
 2174SOL     OW 7420   1.080   6.290   5.475
 2174SOL    HW1 7421   1.116   6.322   5.563
 2174SOL    HW2 7422   1.136   6.215   5.441
 2175SOL     OW 7423   0.912   0.572   6.810
 2175SOL    HW1 7424   0.999   0.610   6.777
 2175SOL    HW2 7425   0.860   0.644   6.856
 2176SOL     OW 7426   2.454   2.371   2.076
 2176SOL    HW1 7427   2.479   2.447   2.135
 2176SOL    HW2 7428   2.358   2.346   2.092
 2177SOL     OW 7429   1.065   1.913   1.911
 2177SOL    HW1 7430   1.120   1.877   1.986
 2177SOL    HW2 7431   1.010   1.839   1.872
 2178SOL     OW 7432   6.330   5.765   0.455
 2178SOL    HW1 7433   6.425   5.774   0.484
 2178SOL    HW2 7434   6.325   5.710   0.371
 2179SOL     OW 7435   2.015   3.802   3.997
 2179SOL    HW1 7436   2.017   3.807   3.897
 2179SOL    HW2 7437   1.929   3.839   4.030
 2180SOL     OW 7438   2.963   3.177   2.783
 2180SOL    HW1 7439   3.030   3.110   2.750
 2180SOL    HW2 7440   2.907   3.208   2.706
 2181SOL     OW 7441   3.618   6.815   1.361
 2181SOL    HW1 7442   3.715   6.841   1.366
 2181SOL    HW2 7443   3.561   6.897   1.372
 2182SOL     OW 7444   4.884   4.190   0.398
 2182SOL    HW1 7445   4.913   4.122   0.465
 2182SOL    HW2 7446   4.833   4.262   0.444
 2183SOL     OW 7447   4.653   2.741   1.945
 2183SOL    HW1 7448   4.627   2.835   1.923
 2183SOL    HW2 7449   4.690   2.697   1.863
 2184SOL     OW 7450   4.590   2.645   5.799
 2184SOL    HW1 7451   4.613   2.610   5.708
 2184SOL    HW2 7452   4.521   2.586   5.841
 2185SOL     OW 7453   6.712   6.683   1.954
 2185SOL    HW1 7454   6.679   6.597   1.913
 2185SOL    HW2 7455   6.789   6.663   2.015
 2186SOL     OW 7456   6.528   4.721   3.020
 2186SOL    HW1 7457   6.473   4.638   3.029
 2186SOL    HW2 7458   6.604   4.717   3.084
 2187SOL     OW 7459   6.629   6.900   6.845
 2187SOL    HW1 7460   6.642   6.991   6.884
 2187SOL    HW2 7461   6.555   6.902   6.778
 2188SOL     OW 7462   4.770   2.798   3.502
 2188SOL    HW1 7463   4.672   2.790   3.481
 2188SOL    HW2 7464   4.788   2.755   3.591
 2189SOL     OW 7465   3.169   0.024   6.224
 2189SOL    HW1 7466   3.157   0.014   6.125
 2189SOL    HW2 7467   3.142   6.955   6.270
 2190SOL     OW 7468   5.997   3.285   1.290
 2190SOL    HW1 7469   5.952   3.254   1.373
 2190SOL    HW2 7470   6.048   3.369   1.309
 2191SOL     OW 7471   3.638   0.580   0.787
 2191SOL    HW1 7472   3.684   0.649   0.842
 2191SOL    HW2 7473   3.582   0.624   0.717
 2192SOL     OW 7474   4.206   6.673   2.110
 2192SOL    HW1 7475   4.300   6.673   2.145
 2192SOL    HW2 7476   4.203   6.626   2.022
 2193SOL     OW 7477   0.143   6.030   4.433
 2193SOL    HW1 7478   0.072   5.980   4.483
 2193SOL    HW2 7479   0.179   6.104   4.490
 2194SOL     OW 7480   2.340   6.821   3.009
 2194SOL    HW1 7481   2.374   6.733   3.040
 2194SOL    HW2 7482   2.390   6.851   2.929
 2195SOL     OW 7483   0.319   4.661   2.793
 2195SOL    HW1 7484   0.237   4.635   2.743
 2195SOL    HW2 7485   0.378   4.717   2.733
 2196SOL     OW 7486   4.695   4.042   6.723
 2196SOL    HW1 7487   4.691   3.943   6.730
 2196SOL    HW2 7488   4.610   4.082   6.757
 2197SOL     OW 7489   4.791   3.496   0.727
 2197SOL    HW1 7490   4.747   3.444   0.800
 2197SOL    HW2 7491   4.838   3.575   0.766
 2198SOL     OW 7492   0.933   4.741   6.410
 2198SOL    HW1 7493   0.835   4.736   6.431
 2198SOL    HW2 7494   0.978   4.658   6.441
 2199SOL     OW 7495   3.472   1.808   3.716
 2199SOL    HW1 7496   3.560   1.766   3.692
 2199SOL    HW2 7497   3.414   1.812   3.634
 2200SOL     OW 7498   4.047   0.417   3.756
 2200SOL    HW1 7499   3.951   0.433   3.734
 2200SOL    HW2 7500   4.054   0.346   3.827
 2201SOL     OW 7501   5.352   4.745   3.880
 2201SOL    HW1 7502   5.291   4.669   3.861
 2201SOL    HW2 7503   5.389   4.781   3.795
 2202SOL     OW 7504   4.718   5.712   4.263
 2202SOL    HW1 7505   4.694   5.761   4.347
 2202SOL    HW2 7506   4.652   5.639   4.247
 2203SOL     OW 7507   2.018   1.903   3.193
 2203SOL    HW1 7508   2.005   1.989   3.144
 2203SOL    HW2 7509   2.107   1.903   3.239
 2204SOL     OW 7510   4.037   2.381   0.969
 2204SOL    HW1 7511   4.001   2.336   0.887
 2204SOL    HW2 7512   4.083   2.313   1.026
 2205SOL     OW 7513   3.262   0.367   2.290
 2205SOL    HW1 7514   3.223   0.457   2.311
 2205SOL    HW2 7515   3.303   0.369   2.199
 2206SOL     OW 7516   1.525   5.007   6.929
 2206SOL    HW1 7517   1.623   4.990   6.933
 2206SOL    HW2 7518   1.475   4.922   6.947
 2207SOL     OW 7519   6.740   4.097   5.401
 2207SOL    HW1 7520   6.780   4.006   5.414
 2207SOL    HW2 7521   6.686   4.097   5.317
 2208SOL     OW 7522   6.767   5.014   2.437
 2208SOL    HW1 7523   6.712   5.005   2.354
 2208SOL    HW2 7524   6.863   5.022   2.413
 2209SOL     OW 7525   6.422   0.359   2.193
 2209SOL    HW1 7526   6.467   0.446   2.212
 2209SOL    HW2 7527   6.422   0.343   2.094
 2210SOL     OW 7528   2.592   4.648   3.521
 2210SOL    HW1 7529   2.690   4.663   3.517
 2210SOL    HW2 7530   2.552   4.663   3.430
 2211SOL     OW 7531   5.305   0.749   5.216
 2211SOL    HW1 7532   5.281   0.670   5.271
 2211SOL    HW2 7533   5.337   0.823   5.276
 2212SOL     OW 7534   2.380   5.883   6.461
 2212SOL    HW1 7535   2.338   5.913   6.376
 2212SOL    HW2 7536   2.417   5.961   6.510
 2213SOL     OW 7537   4.356   1.175   3.259
 2213SOL    HW1 7538   4.442   1.226   3.259
 2213SOL    HW2 7539   4.334   1.148   3.165
 2214SOL     OW 7540   4.316   0.162   4.156
 2214SOL    HW1 7541   4.357   0.079   4.119
 2214SOL    HW2 7542   4.336   0.239   4.095
 2215SOL     OW 7543   5.979   2.030   6.434
 2215SOL    HW1 7544   6.043   2.105   6.454
 2215SOL    HW2 7545   6.012   1.946   6.477
 2216SOL     OW 7546   3.096   1.433   2.644
 2216SOL    HW1 7547   3.174   1.425   2.706
 2216SOL    HW2 7548   3.129   1.444   2.551
 2217SOL     OW 7549   2.803   6.746   0.940
 2217SOL    HW1 7550   2.749   6.670   0.975
 2217SOL    HW2 7551   2.884   6.759   0.997
 2218SOL     OW 7552   6.656   1.219   2.291
 2218SOL    HW1 7553   6.639   1.287   2.362
 2218SOL    HW2 7554   6.718   1.149   2.325
 2219SOL     OW 7555   2.231   2.266   2.917
 2219SOL    HW1 7556   2.286   2.333   2.967
 2219SOL    HW2 7557   2.179   2.211   2.983
 2220SOL     OW 7558   2.005   5.982   3.305
 2220SOL    HW1 7559   1.935   5.952   3.370
 2220SOL    HW2 7560   2.049   5.902   3.264
 2221SOL     OW 7561   0.164   6.694   4.648
 2221SOL    HW1 7562   0.130   6.778   4.606
 2221SOL    HW2 7563   0.258   6.707   4.677
 2222SOL     OW 7564   5.212   5.580   3.654
 2222SOL    HW1 7565   5.311   5.566   3.657
 2222SOL    HW2 7566   5.182   5.591   3.559
 2223SOL     OW 7567   6.101   6.547   2.010
 2223SOL    HW1 7568   6.131   6.600   1.931
 2223SOL    HW2 7569   6.066   6.608   2.080
 2224SOL     OW 7570   0.437   5.632   1.496
 2224SOL    HW1 7571   0.459   5.547   1.543
 2224SOL    HW2 7572   0.358   5.617   1.436
 2225SOL     OW 7573   0.471   4.201   1.027
 2225SOL    HW1 7574   0.391   4.240   0.981
 2225SOL    HW2 7575   0.520   4.273   1.076
 2226SOL     OW 7576   3.456   4.087   3.251
 2226SOL    HW1 7577   3.408   4.059   3.334
 2226SOL    HW2 7578   3.403   4.058   3.171
 2227SOL     OW 7579   1.941   1.722   5.098
 2227SOL    HW1 7580   2.021   1.686   5.051
 2227SOL    HW2 7581   1.951   1.821   5.109
 2228SOL     OW 7582   1.149   4.763   4.058
 2228SOL    HW1 7583   1.201   4.805   4.133
 2228SOL    HW2 7584   1.060   4.808   4.050
 2229SOL     OW 7585   5.334   5.441   2.511
 2229SOL    HW1 7586   5.282   5.517   2.552
 2229SOL    HW2 7587   5.368   5.468   2.421
 2230SOL     OW 7588   1.767   5.550   3.047
 2230SOL    HW1 7589   1.808   5.460   3.035
 2230SOL    HW2 7590   1.832   5.621   3.020
 2231SOL     OW 7591   2.115   6.022   0.511
 2231SOL    HW1 7592   2.214   6.034   0.501
 2231SOL    HW2 7593   2.070   6.110   0.502
 2232SOL     OW 7594   6.039   2.431   3.424
 2232SOL    HW1 7595   6.071   2.455   3.332
 2232SOL    HW2 7596   6.109   2.376   3.470
 2233SOL     OW 7597   3.742   1.568   0.710
 2233SOL    HW1 7598   3.800   1.567   0.792
 2233SOL    HW2 7599   3.691   1.482   0.706
 2234SOL     OW 7600   4.505   2.551   1.133
 2234SOL    HW1 7601   4.451   2.518   1.055
 2234SOL    HW2 7602   4.578   2.610   1.100
 2235SOL     OW 7603   1.951   3.159   1.822
 2235SOL    HW1 7604   1.929   3.073   1.775
 2235SOL    HW2 7605   1.905   3.162   1.910
 2236SOL     OW 7606   1.583   3.800   5.104
 2236SOL    HW1 7607   1.551   3.892   5.126
 2236SOL    HW2 7608   1.636   3.802   5.020
 2237SOL     OW 7609   5.937   2.349   3.015
 2237SOL    HW1 7610   5.882   2.409   2.957
 2237SOL    HW2 7611   5.891   2.337   3.103
 2238SOL     OW 7612   4.716   6.242   6.795
 2238SOL    HW1 7613   4.754   6.160   6.838
 2238SOL    HW2 7614   4.622   6.224   6.766
 2239SOL     OW 7615   6.747   5.978   1.592
 2239SOL    HW1 7616   6.687   5.935   1.660
 2239SOL    HW2 7617   6.700   5.983   1.504
 2240SOL     OW 7618   0.809   3.844   1.816
 2240SOL    HW1 7619   0.830   3.773   1.748
 2240SOL    HW2 7620   0.804   3.933   1.770
 2241SOL     OW 7621   0.309   0.066   3.616
 2241SOL    HW1 7622   0.245   0.035   3.545
 2241SOL    HW2 7623   0.362   0.143   3.581
 2242SOL     OW 7624   1.902   1.417   3.335
 2242SOL    HW1 7625   1.804   1.398   3.326
 2242SOL    HW2 7626   1.923   1.505   3.293
 2243SOL     OW 7627   0.825   0.519   4.545
 2243SOL    HW1 7628   0.911   0.570   4.538
 2243SOL    HW2 7629   0.771   0.532   4.462
 2244SOL     OW 7630   3.333   0.717   4.356
 2244SOL    HW1 7631   3.246   0.668   4.359
 2244SOL    HW2 7632   3.355   0.740   4.261
 2245SOL     OW 7633   0.707   2.174   1.644
 2245SOL    HW1 7634   0.762   2.169   1.561
 2245SOL    HW2 7635   0.616   2.135   1.626
 2246SOL     OW 7636   0.504   4.709   4.607
 2246SOL    HW1 7637   0.414   4.667   4.620
 2246SOL    HW2 7638   0.569   4.667   4.670
 2247SOL     OW 7639   2.435   2.108   3.829
 2247SOL    HW1 7640   2.383   2.193   3.830
 2247SOL    HW2 7641   2.493   2.104   3.911
 2248SOL     OW 7642   5.047   3.928   5.901
 2248SOL    HW1 7643   5.033   3.989   5.823
 2248SOL    HW2 7644   5.099   3.975   5.972
 2249SOL     OW 7645   5.436   6.113   5.076
 2249SOL    HW1 7646   5.358   6.168   5.046
 2249SOL    HW2 7647   5.521   6.158   5.051
 2250SOL     OW 7648   4.120   4.746   2.749
 2250SOL    HW1 7649   4.142   4.756   2.652
 2250SOL    HW2 7650   4.127   4.836   2.793
 2251SOL     OW 7651   0.484   1.691   6.005
 2251SOL    HW1 7652   0.559   1.657   6.060
 2251SOL    HW2 7653   0.410   1.624   6.003
 2252SOL     OW 7654   4.046   1.443   6.155
 2252SOL    HW1 7655   3.966   1.503   6.152
 2252SOL    HW2 7656   4.065   1.409   6.063
 2253SOL     OW 7657   0.557   3.985   1.343
 2253SOL    HW1 7658   0.463   4.017   1.332
 2253SOL    HW2 7659   0.560   3.886   1.330
 2254SOL     OW 7660   1.532   5.280   5.924
 2254SOL    HW1 7661   1.435   5.278   5.947
 2254SOL    HW2 7662   1.576   5.197   5.960
 2255SOL     OW 7663   6.964   4.325   6.693
 2255SOL    HW1 7664   6.878   4.291   6.655
 2255SOL    HW2 7665   6.968   4.303   6.791
 2256SOL     OW 7666   2.845   5.807   2.617
 2256SOL    HW1 7667   2.832   5.715   2.579
 2256SOL    HW2 7668   2.914   5.803   2.689
 2257SOL     OW 7669   0.843   5.117   5.766
 2257SOL    HW1 7670   0.915   5.186   5.761
 2257SOL    HW2 7671   0.857   5.049   5.694
 2258SOL     OW 7672   2.088   6.769   6.129
 2258SOL    HW1 7673   1.991   6.747   6.137
 2258SOL    HW2 7674   2.130   6.770   6.220
 2259SOL     OW 7675   6.104   1.783   6.487
 2259SOL    HW1 7676   6.068   1.690   6.475
 2259SOL    HW2 7677   6.156   1.809   6.406
 2260SOL     OW 7678   4.640   3.311   1.664
 2260SOL    HW1 7679   4.560   3.253   1.680
 2260SOL    HW2 7680   4.610   3.402   1.633
 2261SOL     OW 7681   1.922   6.472   5.340
 2261SOL    HW1 7682   1.965   6.390   5.304
 2261SOL    HW2 7683   1.885   6.526   5.264
 2262SOL     OW 7684   2.694   2.046   4.573
 2262SOL    HW1 7685   2.629   2.026   4.500
 2262SOL    HW2 7686   2.781   2.075   4.532
 2263SOL     OW 7687   0.364   4.294   5.663
 2263SOL    HW1 7688   0.356   4.211   5.606
 2263SOL    HW2 7689   0.340   4.374   5.608
 2264SOL     OW 7690   3.202   2.980   4.515
 2264SOL    HW1 7691   3.188   3.056   4.579
 2264SOL    HW2 7692   3.294   2.942   4.528
 2265SOL     OW 7693   6.937   6.040   4.031
 2265SOL    HW1 7694   0.009   6.082   4.007
 2265SOL    HW2 7695   6.863   6.104   4.009
 2266SOL     OW 7696   0.006   0.563   5.237
 2266SOL    HW1 7697   0.105   0.582   5.236
 2266SOL    HW2 7698   6.980   0.605   5.156
 2267SOL     OW 7699   6.275   1.878   4.960
 2267SOL    HW1 7700   6.349   1.848   4.901
 2267SOL    HW2 7701   6.225   1.799   4.994
 2268SOL     OW 7702   0.591   6.826   0.341
 2268SOL    HW1 7703   0.524   6.889   0.381
 2268SOL    HW2 7704   0.606   6.750   0.404
 2269SOL     OW 7705   6.797   6.072   2.436
 2269SOL    HW1 7706   6.740   6.152   2.414
 2269SOL    HW2 7707   6.740   6.000   2.474
 2270SOL     OW 7708   2.962   3.194   3.073
 2270SOL    HW1 7709   2.946   3.188   2.974
 2270SOL    HW2 7710   2.991   3.104   3.107
 2271SOL     OW 7711   1.559   4.002   2.675
 2271SOL    HW1 7712   1.462   3.985   2.696
 2271SOL    HW2 7713   1.570   4.095   2.641
 2272SOL     OW 7714   4.505   0.675   6.262
 2272SOL    HW1 7715   4.591   0.725   6.274
 2272SOL    HW2 7716   4.508   0.625   6.175
 2273SOL     OW 7717   7.012   0.934   1.832
 2273SOL    HW1 7718   6.921   0.968   1.858
 2273SOL    HW2 7719   0.012   0.954   1.735
 2274SOL     OW 7720   6.558   5.149   3.478
 2274SOL    HW1 7721   6.474   5.168   3.529
 2274SOL    HW2 7722   6.625   5.108   3.540
 2275SOL     OW 7723   4.494   6.149   4.160
 2275SOL    HW1 7724   4.581   6.175   4.118
 2275SOL    HW2 7725   4.428   6.126   4.088
 2276SOL     OW 7726   3.494   5.871   3.329
 2276SOL    HW1 7727   3.455   5.779   3.333
 2276SOL    HW2 7728   3.471   5.913   3.241
 2277SOL     OW 7729   3.456   2.843   2.723
 2277SOL    HW1 7730   3.532   2.779   2.723
 2277SOL    HW2 7731   3.444   2.882   2.632
 2278SOL     OW 7732   4.183   5.070   1.607
 2278SOL    HW1 7733   4.099   5.098   1.561
 2278SOL    HW2 7734   4.219   5.147   1.661
 2279SOL     OW 7735   5.982   4.101   5.488
 2279SOL    HW1 7736   6.006   4.169   5.557
 2279SOL    HW2 7737   6.065   4.067   5.444
 2280SOL     OW 7738   5.535   0.876   5.549
 2280SOL    HW1 7739   5.484   0.847   5.630
 2280SOL    HW2 7740   5.598   0.803   5.522
 2281SOL     OW 7741   2.265   0.590   0.546
 2281SOL    HW1 7742   2.260   0.686   0.570
 2281SOL    HW2 7743   2.174   0.556   0.523
 2282SOL     OW 7744   3.194   0.482   2.678
 2282SOL    HW1 7745   3.152   0.450   2.763
 2282SOL    HW2 7746   3.132   0.547   2.633
 2283SOL     OW 7747   1.091   3.061   0.944
 2283SOL    HW1 7748   1.008   3.016   0.979
 2283SOL    HW2 7749   1.065   3.134   0.880
 2284SOL     OW 7750   1.647   2.653   0.655
 2284SOL    HW1 7751   1.702   2.723   0.699
 2284SOL    HW2 7752   1.551   2.680   0.657
 2285SOL     OW 7753   2.726   2.752   0.364
 2285SOL    HW1 7754   2.754   2.754   0.460
 2285SOL    HW2 7755   2.786   2.813   0.311
 2286SOL     OW 7756   6.475   5.503   4.029
 2286SOL    HW1 7757   6.381   5.537   4.034
 2286SOL    HW2 7758   6.485   5.427   4.092
 2287SOL     OW 7759   2.532   1.772   1.135
 2287SOL    HW1 7760   2.543   1.821   1.048
 2287SOL    HW2 7761   2.516   1.675   1.116
 2288SOL     OW 7762   3.262   5.721   5.029
 2288SOL    HW1 7763   3.340   5.670   5.064
 2288SOL    HW2 7764   3.284   5.758   4.939
 2289SOL     OW 7765   4.139   0.100   5.642
 2289SOL    HW1 7766   4.115   0.106   5.545
 2289SOL    HW2 7767   4.063   0.063   5.694
 2290SOL     OW 7768   2.169   3.727   6.078
 2290SOL    HW1 7769   2.181   3.670   5.996
 2290SOL    HW2 7770   2.080   3.771   6.075
 2291SOL     OW 7771   3.529   1.971   0.639
 2291SOL    HW1 7772   3.470   2.045   0.672
 2291SOL    HW2 7773   3.587   1.939   0.715
 2292SOL     OW 7774   5.202   2.523   2.536
 2292SOL    HW1 7775   5.196   2.525   2.436
 2292SOL    HW2 7776   5.121   2.565   2.575
 2293SOL     OW 7777   6.958   0.617   6.587
 2293SOL    HW1 7778   7.013   0.553   6.640
 2293SOL    HW2 7779   6.902   0.672   6.649
 2294SOL     OW 7780   6.989   2.622   5.463
 2294SOL    HW1 7781   0.061   2.599   5.505
 2294SOL    HW2 7782   6.920   2.633   5.534
 2295SOL     OW 7783   5.456   5.808   0.302
 2295SOL    HW1 7784   5.487   5.753   0.225
 2295SOL    HW2 7785   5.525   5.804   0.375
 2296SOL     OW 7786   4.139   5.810   4.674
 2296SOL    HW1 7787   4.138   5.787   4.577
 2296SOL    HW2 7788   4.119   5.907   4.686
 2297SOL     OW 7789   6.462   2.607   0.166
 2297SOL    HW1 7790   6.541   2.664   0.185
 2297SOL    HW2 7791   6.468   2.572   0.072
 2298SOL     OW 7792   1.979   3.942   4.815
 2298SOL    HW1 7793   2.019   3.881   4.884
 2298SOL    HW2 7794   2.035   4.024   4.806
 2299SOL     OW 7795   5.978   3.522   4.607
 2299SOL    HW1 7796   6.053   3.464   4.639
 2299SOL    HW2 7797   5.991   3.615   4.643
 2300SOL     OW 7798   3.844   1.041   2.694
 2300SOL    HW1 7799   3.755   0.995   2.698
 2300SOL    HW2 7800   3.851   1.093   2.609
 2301SOL     OW 7801   4.625   3.089   6.091
 2301SOL    HW1 7802   4.565   3.068   6.168
 2301SOL    HW2 7803   4.622   3.187   6.071
 2302SOL     OW 7804   0.378   3.406   4.785
 2302SOL    HW1 7805   0.454   3.463   4.818
 2302SOL    HW2 7806   0.313   3.391   4.859
 2303SOL     OW 7807   2.195   2.594   6.477
 2303SOL    HW1 7808   2.122   2.650   6.438
 2303SOL    HW2 7809   2.248   2.552   6.403
 2304SOL     OW 7810   3.609   0.193   3.539
 2304SOL    HW1 7811   3.567   0.250   3.469
 2304SOL    HW2 7812   3.597   0.096   3.516
 2305SOL     OW 7813   2.476   6.076   4.914
 2305SOL    HW1 7814   2.566   6.115   4.901
 2305SOL    HW2 7815   2.468   6.038   5.006
 2306SOL     OW 7816   0.830   4.834   5.634
 2306SOL    HW1 7817   0.847   4.857   5.539
 2306SOL    HW2 7818   0.732   4.835   5.652
 2307SOL     OW 7819   5.901   3.892   5.648
 2307SOL    HW1 7820   5.937   3.969   5.596
 2307SOL    HW2 7821   5.844   3.835   5.589
 2308SOL     OW 7822   1.106   6.404   3.102
 2308SOL    HW1 7823   1.011   6.435   3.093
 2308SOL    HW2 7824   1.166   6.469   3.055
 2309SOL     OW 7825   1.763   1.188   4.377
 2309SOL    HW1 7826   1.691   1.127   4.342
 2309SOL    HW2 7827   1.725   1.279   4.394
 2310SOL     OW 7828   4.936   5.965   0.436
 2310SOL    HW1 7829   5.028   5.975   0.474
 2310SOL    HW2 7830   4.939   5.981   0.337
 2311SOL     OW 7831   2.763   5.785   0.509
 2311SOL    HW1 7832   2.710   5.779   0.425
 2311SOL    HW2 7833   2.777   5.693   0.546
 2312SOL     OW 7834   2.710   5.163   1.701
 2312SOL    HW1 7835   2.787   5.104   1.676
 2312SOL    HW2 7836   2.681   5.141   1.795
 2313SOL     OW 7837   4.880   5.020   1.085
 2313SOL    HW1 7838   4.892   5.016   1.184
 2313SOL    HW2 7839   4.896   4.929   1.046
 2314SOL     OW 7840   2.005   4.679   2.290
 2314SOL    HW1 7841   1.934   4.721   2.347
 2314SOL    HW2 7842   2.070   4.630   2.349
 2315SOL     OW 7843   3.828   1.967   6.459
 2315SOL    HW1 7844   3.783   2.025   6.391
 2315SOL    HW2 7845   3.764   1.947   6.534
 2316SOL     OW 7846   6.209   4.026   1.624
 2316SOL    HW1 7847   6.288   4.065   1.673
 2316SOL    HW2 7848   6.214   3.926   1.627
 2317SOL     OW 7849   0.187   6.843   3.518
 2317SOL    HW1 7850   0.278   6.805   3.530
 2317SOL    HW2 7851   0.188   6.907   3.440
 2318SOL     OW 7852   6.756   1.616   3.614
 2318SOL    HW1 7853   6.795   1.564   3.690
 2318SOL    HW2 7854   6.821   1.617   3.538
 2319SOL     OW 7855   0.523   5.839   3.224
 2319SOL    HW1 7856   0.564   5.929   3.239
 2319SOL    HW2 7857   0.457   5.844   3.149
 2320SOL     OW 7858   6.732   4.561   3.561
 2320SOL    HW1 7859   6.779   4.555   3.473
 2320SOL    HW2 7860   6.788   4.613   3.625
 2321SOL     OW 7861   2.861   4.739   3.531
 2321SOL    HW1 7862   2.870   4.799   3.452
 2321SOL    HW2 7863   2.888   4.788   3.614
 2322SOL     OW 7864   2.168   1.673   4.942
 2322SOL    HW1 7865   2.251   1.685   4.996
 2322SOL    HW2 7866   2.140   1.760   4.902
 2323SOL     OW 7867   5.589   3.427   1.357
 2323SOL    HW1 7868   5.667   3.430   1.296
 2323SOL    HW2 7869   5.578   3.334   1.393
 2324SOL     OW 7870   6.950   5.386   4.202
 2324SOL    HW1 7871   6.872   5.448   4.204
 2324SOL    HW2 7872   6.981   5.368   4.295
 2325SOL     OW 7873   6.629   2.015   0.848
 2325SOL    HW1 7874   6.669   2.035   0.937
 2325SOL    HW2 7875   6.636   1.917   0.829
 2326SOL     OW 7876   0.482   5.351   0.134
 2326SOL    HW1 7877   0.543   5.419   0.092
 2326SOL    HW2 7878   0.535   5.291   0.193
 2327SOL     OW 7879   4.725   1.039   2.750
 2327SOL    HW1 7880   4.630   1.071   2.748
 2327SOL    HW2 7881   4.737   0.975   2.826
 2328SOL     OW 7882   5.987   5.345   3.724
 2328SOL    HW1 7883   6.053   5.355   3.799
 2328SOL    HW2 7884   5.894   5.344   3.760
 2329SOL     OW 7885   1.305   6.642   3.366
 2329SOL    HW1 7886   1.372   6.683   3.303
 2329SOL    HW2 7887   1.310   6.543   3.359
 2330SOL     OW 7888   1.508   3.764   6.884
 2330SOL    HW1 7889   1.499   3.675   6.928
 2330SOL    HW2 7890   1.489   3.754   6.786
 2331SOL     OW 7891   1.446   4.388   5.070
 2331SOL    HW1 7892   1.415   4.337   5.150
 2331SOL    HW2 7893   1.490   4.326   5.005
 2332SOL     OW 7894   6.816   3.470   6.905
 2332SOL    HW1 7895   6.754   3.515   6.970
 2332SOL    HW2 7896   6.801   3.509   6.814
 2333SOL     OW 7897   2.291   4.916   3.917
 2333SOL    HW1 7898   2.285   4.972   3.999
 2333SOL    HW2 7899   2.384   4.922   3.879
 2334SOL     OW 7900   1.957   0.290   5.901
 2334SOL    HW1 7901   2.049   0.308   5.864
 2334SOL    HW2 7902   1.950   0.192   5.923
 2335SOL     OW 7903   4.958   4.501   4.687
 2335SOL    HW1 7904   5.010   4.540   4.763
 2335SOL    HW2 7905   4.883   4.562   4.662
 2336SOL     OW 7906   4.282   1.432   5.615
 2336SOL    HW1 7907   4.198   1.392   5.654
 2336SOL    HW2 7908   4.339   1.358   5.579
 2337SOL     OW 7909   6.072   0.680   5.096
 2337SOL    HW1 7910   5.999   0.681   5.164
 2337SOL    HW2 7911   6.041   0.726   5.013
 2338SOL     OW 7912   1.641   6.921   0.000
 2338SOL    HW1 7913   1.648   6.998   6.953
 2338SOL    HW2 7914   1.664   6.836   6.969
 2339SOL     OW 7915   3.417   4.384   5.935
 2339SOL    HW1 7916   3.398   4.312   6.002
 2339SOL    HW2 7917   3.381   4.471   5.968
 2340SOL     OW 7918   4.159   5.184   4.181
 2340SOL    HW1 7919   4.177   5.271   4.134
 2340SOL    HW2 7920   4.231   5.119   4.157
 2341SOL     OW 7921   0.815   3.831   6.176
 2341SOL    HW1 7922   0.831   3.828   6.274
 2341SOL    HW2 7923   0.901   3.850   6.129
 2342SOL     OW 7924   4.882   1.206   5.085
 2342SOL    HW1 7925   4.830   1.258   5.018
 2342SOL    HW2 7926   4.980   1.220   5.071
 2343SOL     OW 7927   0.745   5.810   1.562
 2343SOL    HW1 7928   0.722   5.773   1.472
 2343SOL    HW2 7929   0.704   5.901   1.572
 2344SOL     OW 7930   1.599   0.311   2.785
 2344SOL    HW1 7931   1.698   0.308   2.798
 2344SOL    HW2 7932   1.557   0.363   2.859
 2345SOL     OW 7933   1.381   2.622   1.888
 2345SOL    HW1 7934   1.479   2.604   1.897
 2345SOL    HW2 7935   1.330   2.540   1.914
 2346SOL     OW 7936   5.744   2.950   5.026
 2346SOL    HW1 7937   5.822   2.954   4.963
 2346SOL    HW2 7938   5.730   3.040   5.068
 2347SOL     OW 7939   1.964   4.392   1.412
 2347SOL    HW1 7940   1.887   4.407   1.349
 2347SOL    HW2 7941   2.008   4.305   1.391
 2348SOL     OW 7942   3.300   0.179   1.829
 2348SOL    HW1 7943   3.380   0.146   1.780
 2348SOL    HW2 7944   3.226   0.198   1.763
 2349SOL     OW 7945   5.911   2.542   6.715
 2349SOL    HW1 7946   5.885   2.560   6.810
 2349SOL    HW2 7947   5.865   2.608   6.656
 2350SOL     OW 7948   2.474   5.771   5.147
 2350SOL    HW1 7949   2.430   5.857   5.174
 2350SOL    HW2 7950   2.519   5.731   5.227
 2351SOL     OW 7951   1.711   5.645   3.315
 2351SOL    HW1 7952   1.659   5.577   3.366
 2351SOL    HW2 7953   1.751   5.603   3.234
 2352SOL     OW 7954   6.025   6.097   6.319
 2352SOL    HW1 7955   5.990   6.096   6.225
 2352SOL    HW2 7956   5.949   6.088   6.383
 2353SOL     OW 7957   3.272   2.974   6.748
 2353SOL    HW1 7958   3.235   2.906   6.684
 2353SOL    HW2 7959   3.241   3.065   6.722
 2354SOL     OW 7960   3.306   1.779   2.312
 2354SOL    HW1 7961   3.225   1.797   2.257
 2354SOL    HW2 7962   3.333   1.862   2.361
 2355SOL     OW 7963   6.930   1.673   2.139
 2355SOL    HW1 7964   6.880   1.587   2.155
 2355SOL    HW2 7965   6.923   1.697   2.042
 2356SOL     OW 7966   3.614   5.220   3.977
 2356SOL    HW1 7967   3.560   5.278   3.916
 2356SOL    HW2 7968   3.564   5.136   3.996
 2357SOL     OW 7969   0.621   5.509   0.909
 2357SOL    HW1 7970   0.524   5.513   0.888
 2357SOL    HW2 7971   0.671   5.568   0.845
 2358SOL     OW 7972   2.514   0.945   5.027
 2358SOL    HW1 7973   2.466   0.956   5.114
 2358SOL    HW2 7974   2.498   0.853   4.992
 2359SOL     OW 7975   3.670   2.698   5.593
 2359SOL    HW1 7976   3.660   2.654   5.503
 2359SOL    HW2 7977   3.581   2.699   5.639
 2360SOL     OW 7978   3.682   5.136   1.984
 2360SOL    HW1 7979   3.671   5.234   1.973
 2360SOL    HW2 7980   3.630   5.088   1.913
 2361SOL     OW 7981   3.737   4.680   0.906
 2361SOL    HW1 7982   3.795   4.601   0.928
 2361SOL    HW2 7983   3.794   4.760   0.890
 2362SOL     OW 7984   2.921   4.993   4.280
 2362SOL    HW1 7985   2.975   4.947   4.350
 2362SOL    HW2 7986   2.879   4.925   4.220
 2363SOL     OW 7987   2.644   3.842   1.611
 2363SOL    HW1 7988   2.743   3.851   1.624
 2363SOL    HW2 7989   2.622   3.748   1.586
 2364SOL     OW 7990   4.557   0.734   2.688
 2364SOL    HW1 7991   4.557   0.810   2.754
 2364SOL    HW2 7992   4.651   0.711   2.663
 2365SOL     OW 7993   5.969   3.592   2.672
 2365SOL    HW1 7994   5.971   3.539   2.587
 2365SOL    HW2 7995   5.876   3.593   2.709
 2366SOL     OW 7996   4.303   5.159   4.666
 2366SOL    HW1 7997   4.375   5.199   4.723
 2366SOL    HW2 7998   4.225   5.222   4.660
 2367SOL     OW 7999   5.980   4.517   5.614
 2367SOL    HW1 8000   6.023   4.427   5.608
 2367SOL    HW2 8001   6.039   4.579   5.666
 2368SOL     OW 8002   5.243   1.676   5.165
 2368SOL    HW1 8003   5.336   1.696   5.195
 2368SOL    HW2 8004   5.204   1.757   5.121
 2369SOL     OW 8005   4.291   2.190   3.839
 2369SOL    HW1 8006   4.320   2.095   3.829
 2369SOL    HW2 8007   4.304   2.238   3.752
 2370SOL     OW 8008   3.964   2.195   0.462
 2370SOL    HW1 8009   3.974   2.129   0.388
 2370SOL    HW2 8010   3.948   2.286   0.424
 2371SOL     OW 8011   2.276   6.583   3.303
 2371SOL    HW1 8012   2.299   6.575   3.400
 2371SOL    HW2 8013   2.359   6.597   3.249
 2372SOL     OW 8014   5.592   6.575   6.816
 2372SOL    HW1 8015   5.499   6.569   6.780
 2372SOL    HW2 8016   5.589   6.580   6.915
 2373SOL     OW 8017   6.350   4.263   6.121
 2373SOL    HW1 8018   6.363   4.169   6.154
 2373SOL    HW2 8019   6.371   4.267   6.023
 2374SOL     OW 8020   0.487   5.146   2.774
 2374SOL    HW1 8021   0.472   5.162   2.871
 2374SOL    HW2 8022   0.518   5.230   2.730
 2375SOL     OW 8023   2.193   0.365   4.610
 2375SOL    HW1 8024   2.289   0.339   4.612
 2375SOL    HW2 8025   2.136   0.283   4.614
 2376SOL     OW 8026   6.020   3.053   4.037
 2376SOL    HW1 8027   5.974   3.135   4.006
 2376SOL    HW2 8028   5.958   2.998   4.093
 2377SOL     OW 8029   3.983   4.786   5.785
 2377SOL    HW1 8030   3.935   4.764   5.700
 2377SOL    HW2 8031   3.919   4.783   5.862
 2378SOL     OW 8032   0.572   0.113   0.604
 2378SOL    HW1 8033   0.656   0.165   0.619
 2378SOL    HW2 8034   0.545   0.068   0.689
 2379SOL     OW 8035   0.685   4.328   3.358
 2379SOL    HW1 8036   0.744   4.248   3.348
 2379SOL    HW2 8037   0.602   4.303   3.408
 2380SOL     OW 8038   4.750   5.700   6.314
 2380SOL    HW1 8039   4.789   5.737   6.399
 2380SOL    HW2 8040   4.701   5.616   6.334
 2381SOL     OW 8041   2.161   4.690   3.997
 2381SOL    HW1 8042   2.209   4.606   3.971
 2381SOL    HW2 8043   2.221   4.768   3.984
 2382SOL     OW 8044   6.217   5.786   2.550
 2382SOL    HW1 8045   6.254   5.752   2.636
 2382SOL    HW2 8046   6.199   5.884   2.557
 2383SOL     OW 8047   4.652   3.628   6.087
 2383SOL    HW1 8048   4.743   3.642   6.049
 2383SOL    HW2 8049   4.584   3.639   6.015
 2384SOL     OW 8050   0.948   2.577   3.034
 2384SOL    HW1 8051   0.959   2.559   2.936
 2384SOL    HW2 8052   0.864   2.631   3.048
 2385SOL     OW 8053   0.961   0.840   0.894
 2385SOL    HW1 8054   1.025   0.768   0.920
 2385SOL    HW2 8055   1.002   0.930   0.913
 2386SOL     OW 8056   0.023   4.947   6.425
 2386SOL    HW1 8057   0.094   4.905   6.481
 2386SOL    HW2 8058   0.046   5.043   6.406
 2387SOL     OW 8059   6.443   0.106   2.927
 2387SOL    HW1 8060   6.401   0.034   2.871
 2387SOL    HW2 8061   6.537   0.120   2.897
 2388SOL     OW 8062   2.011   4.984   3.766
 2388SOL    HW1 8063   1.963   4.955   3.683
 2388SOL    HW2 8064   1.950   4.975   3.845
 2389SOL     OW 8065   3.398   0.014   3.015
 2389SOL    HW1 8066   3.314   0.028   3.068
 2389SOL    HW2 8067   3.418   0.097   2.962
 2390SOL     OW 8068   5.110   3.255   4.920
 2390SOL    HW1 8069   5.186   3.191   4.913
 2390SOL    HW2 8070   5.026   3.212   4.887
 2391SOL     OW 8071   2.157   4.341   6.585
 2391SOL    HW1 8072   2.239   4.283   6.594
 2391SOL    HW2 8073   2.077   4.282   6.568
 2392SOL     OW 8074   3.967   4.968   5.538
 2392SOL    HW1 8075   4.039   4.913   5.580
 2392SOL    HW2 8076   4.005   5.055   5.507
 2393SOL     OW 8077   4.875   5.272   0.412
 2393SOL    HW1 8078   4.963   5.241   0.449
 2393SOL    HW2 8079   4.802   5.249   0.477
 2394SOL     OW 8080   6.893   2.343   3.052
 2394SOL    HW1 8081   6.895   2.243   3.046
 2394SOL    HW2 8082   6.798   2.374   3.057
 2395SOL     OW 8083   0.364   2.987   3.432
 2395SOL    HW1 8084   0.302   2.965   3.507
 2395SOL    HW2 8085   0.334   2.941   3.349
 2396SOL     OW 8086   0.294   0.587   5.554
 2396SOL    HW1 8087   0.232   0.533   5.495
 2396SOL    HW2 8088   0.280   0.561   5.649
 2397SOL     OW 8089   2.914   4.798   5.721
 2397SOL    HW1 8090   2.840   4.754   5.772
 2397SOL    HW2 8091   2.947   4.736   5.650
 2398SOL     OW 8092   3.932   6.198   5.141
 2398SOL    HW1 8093   3.898   6.210   5.048
 2398SOL    HW2 8094   3.855   6.195   5.205
 2399SOL     OW 8095   2.865   1.583   1.916
 2399SOL    HW1 8096   2.865   1.586   2.015
 2399SOL    HW2 8097   2.848   1.675   1.880
 2400SOL     OW 8098   1.077   1.629   6.215
 2400SOL    HW1 8099   1.014   1.695   6.257
 2400SOL    HW2 8100   1.028   1.574   6.147
 2401SOL     OW 8101   1.261   6.613   0.602
 2401SOL    HW1 8102   1.276   6.514   0.608
 2401SOL    HW2 8103   1.327   6.660   0.661
 2402SOL     OW 8104   0.715   3.063   1.475
 2402SOL    HW1 8105   0.810   3.064   1.443
 2402SOL    HW2 8106   0.660   3.006   1.415
 2403SOL     OW 8107   3.153   4.125   5.198
 2403SOL    HW1 8108   3.173   4.048   5.259
 2403SOL    HW2 8109   3.148   4.209   5.252
 2404SOL     OW 8110   6.406   1.898   1.671
 2404SOL    HW1 8111   6.425   1.805   1.700
 2404SOL    HW2 8112   6.318   1.928   1.708
 2405SOL     OW 8113   2.597   3.827   0.599
 2405SOL    HW1 8114   2.690   3.804   0.570
 2405SOL    HW2 8115   2.559   3.750   0.651
 2406SOL     OW 8116   4.709   5.920   5.404
 2406SOL    HW1 8117   4.725   5.846   5.339
 2406SOL    HW2 8118   4.772   5.995   5.385
 2407SOL     OW 8119   2.273   1.890   3.985
 2407SOL    HW1 8120   2.301   1.966   3.927
 2407SOL    HW2 8121   2.351   1.858   4.039
 2408SOL     OW 8122   4.658   6.457   5.752
 2408SOL    HW1 8123   4.643   6.447   5.851
 2408SOL    HW2 8124   4.741   6.510   5.736
 2409SOL     OW 8125   1.618   2.699   7.005
 2409SOL    HW1 8126   1.637   2.733   6.913
 2409SOL    HW2 8127   1.704   2.674   0.034
 2410SOL     OW 8128   6.701   2.946   5.009
 2410SOL    HW1 8129   6.726   2.946   5.106
 2410SOL    HW2 8130   6.764   3.006   4.959
 2411SOL     OW 8131   3.046   1.041   0.903
 2411SOL    HW1 8132   3.117   1.013   0.968
 2411SOL    HW2 8133   2.956   1.025   0.944
 2412SOL     OW 8134   3.631   2.455   0.030
 2412SOL    HW1 8135   3.557   2.401   0.070
 2412SOL    HW2 8136   3.619   2.459   6.947
 2413SOL     OW 8137   6.947   3.814   6.490
 2413SOL    HW1 8138   0.007   3.750   6.476
 2413SOL    HW2 8139   6.945   3.841   6.586
 2414SOL     OW 8140   6.189   1.969   5.298
 2414SOL    HW1 8141   6.153   2.061   5.316
 2414SOL    HW2 8142   6.116   1.902   5.308
 2415SOL     OW 8143   3.213   3.899   5.347
 2415SOL    HW1 8144   3.274   3.940   5.415
 2415SOL    HW2 8145   3.246   3.807   5.325
 2416SOL     OW 8146   6.365   3.271   3.232
 2416SOL    HW1 8147   6.300   3.204   3.197
 2416SOL    HW2 8148   6.433   3.292   3.162
 2417SOL     OW 8149   3.481   2.804   1.741
 2417SOL    HW1 8150   3.394   2.780   1.785
 2417SOL    HW2 8151   3.475   2.898   1.707
 2418SOL     OW 8152   6.195   3.621   6.729
 2418SOL    HW1 8153   6.273   3.560   6.715
 2418SOL    HW2 8154   6.110   3.574   6.705
 2419SOL     OW 8155   2.875   1.421   2.992
 2419SOL    HW1 8156   2.877   1.431   3.092
 2419SOL    HW2 8157   2.915   1.502   2.950
 2420SOL     OW 8158   0.425   2.857   1.480
 2420SOL    HW1 8159   0.425   2.856   1.380
 2420SOL    HW2 8160   0.331   2.872   1.513
 2421SOL     OW 8161   2.483   0.382   3.381
 2421SOL    HW1 8162   2.549   0.330   3.326
 2421SOL    HW2 8163   2.520   0.397   3.472
 2422SOL     OW 8164   3.950   0.168   0.296
 2422SOL    HW1 8165   3.867   0.139   0.249
 2422SOL    HW2 8166   3.968   0.265   0.276
 2423SOL     OW 8167   3.870   5.065   4.873
 2423SOL    HW1 8168   3.858   5.060   4.972
 2423SOL    HW2 8169   3.948   5.009   4.846
 2424SOL     OW 8170   4.941   0.279   6.322
 2424SOL    HW1 8171   4.947   0.296   6.421
 2424SOL    HW2 8172   4.968   0.185   6.303
 2425SOL     OW 8173   5.486   5.398   4.520
 2425SOL    HW1 8174   5.441   5.469   4.466
 2425SOL    HW2 8175   5.586   5.407   4.512
 2426SOL     OW 8176   3.015   2.086   5.219
 2426SOL    HW1 8177   3.058   2.160   5.167
 2426SOL    HW2 8178   2.966   2.124   5.297
 2427SOL     OW 8179   5.144   2.560   6.906
 2427SOL    HW1 8180   5.077   2.567   6.832
 2427SOL    HW2 8181   5.152   2.465   6.935
 2428SOL     OW 8182   1.821   1.912   1.741
 2428SOL    HW1 8183   1.837   1.999   1.788
 2428SOL    HW2 8184   1.725   1.886   1.750
 2429SOL     OW 8185   4.765   5.154   1.748
 2429SOL    HW1 8186   4.814   5.241   1.738
 2429SOL    HW2 8187   4.756   5.111   1.659
 2430SOL     OW 8188   6.876   5.855   6.621
 2430SOL    HW1 8189   6.786   5.814   6.631
 2430SOL    HW2 8190   6.946   5.784   6.622
 2431SOL     OW 8191   1.955   2.887   1.168
 2431SOL    HW1 8192   1.907   2.841   1.094
 2431SOL    HW2 8193   1.903   2.875   1.253
 2432SOL     OW 8194   3.218   5.852   2.595
 2432SOL    HW1 8195   3.137   5.903   2.626
 2432SOL    HW2 8196   3.271   5.822   2.675
 2433SOL     OW 8197   0.128   4.481   4.179
 2433SOL    HW1 8198   0.072   4.440   4.107
 2433SOL    HW2 8199   0.138   4.579   4.161
 2434SOL     OW 8200   3.837   2.123   2.903
 2434SOL    HW1 8201   3.935   2.132   2.885
 2434SOL    HW2 8202   3.824   2.072   2.988
 2435SOL     OW 8203   5.710   6.507   5.873
 2435SOL    HW1 8204   5.641   6.531   5.804
 2435SOL    HW2 8205   5.716   6.580   5.941
 2436SOL     OW 8206   0.446   3.070   0.043
 2436SOL    HW1 8207   0.422   2.973   0.050
 2436SOL    HW2 8208   0.501   3.097   0.122
 2437SOL     OW 8209   0.771   4.988   1.499
 2437SOL    HW1 8210   0.842   4.967   1.566
 2437SOL    HW2 8211   0.708   5.056   1.538
 2438SOL     OW 8212   3.963   1.774   4.320
 2438SOL    HW1 8213   4.001   1.840   4.384
 2438SOL    HW2 8214   4.018   1.691   4.321
 2439SOL     OW 8215   0.474   5.957   6.353
 2439SOL    HW1 8216   0.374   5.954   6.354
 2439SOL    HW2 8217   0.505   6.039   6.401
 2440SOL     OW 8218   0.418   2.582   5.132
 2440SOL    HW1 8219   0.374   2.493   5.124
 2440SOL    HW2 8220   0.347   2.652   5.145
 2441SOL     OW 8221   6.681   0.132   6.927
 2441SOL    HW1 8222   6.608   0.198   6.946
 2441SOL    HW2 8223   6.751   0.176   6.870
 2442SOL     OW 8224   5.415   3.017   2.988
 2442SOL    HW1 8225   5.406   2.919   3.007
 2442SOL    HW2 8226   5.327   3.053   2.957
 2443SOL     OW 8227   0.867   3.239   1.048
 2443SOL    HW1 8228   0.786   3.276   1.002
 2443SOL    HW2 8229   0.847   3.150   1.087
 2444SOL     OW 8230   3.186   5.147   2.713
 2444SOL    HW1 8231   3.235   5.062   2.694
 2444SOL    HW2 8232   3.219   5.219   2.652
 2445SOL     OW 8233   0.753   1.868   1.455
 2445SOL    HW1 8234   0.786   1.962   1.446
 2445SOL    HW2 8235   0.785   1.829   1.542
 2446SOL     OW 8236   6.437   5.793   1.120
 2446SOL    HW1 8237   6.445   5.782   1.220
 2446SOL    HW2 8238   6.358   5.742   1.087
 2447SOL     OW 8239   1.834   0.056   6.399
 2447SOL    HW1 8240   1.882   7.000   6.449
 2447SOL    HW2 8241   1.893   0.092   6.328
 2448SOL     OW 8242   5.109   0.830   4.335
 2448SOL    HW1 8243   5.085   0.751   4.279
 2448SOL    HW2 8244   5.026   0.874   4.369
 2449SOL     OW 8245   1.976   3.917   1.278
 2449SOL    HW1 8246   1.903   3.925   1.346
 2449SOL    HW2 8247   2.038   3.843   1.304
 2450SOL     OW 8248   6.629   6.445   5.769
 2450SOL    HW1 8249   6.648   6.355   5.729
 2450SOL    HW2 8250   6.716   6.489   5.793
 2451SOL     OW 8251   1.612   0.116   0.205
 2451SOL    HW1 8252   1.657   0.027   0.196
 2451SOL    HW2 8253   1.678   0.189   0.189
 2452SOL     OW 8254   1.738   2.319   3.946
 2452SOL    HW1 8255   1.762   2.413   3.921
 2452SOL    HW2 8256   1.689   2.276   3.870
 2453SOL     OW 8257   0.734   2.225   6.855
 2453SOL    HW1 8258   0.802   2.246   6.784
 2453SOL    HW2 8259   0.657   2.176   6.814
 2454SOL     OW 8260   2.295   6.486   0.534
 2454SOL    HW1 8261   2.376   6.491   0.476
 2454SOL    HW2 8262   2.308   6.543   0.615
 2455SOL     OW 8263   4.904   1.910   6.410
 2455SOL    HW1 8264   4.896   1.810   6.416
 2455SOL    HW2 8265   4.833   1.953   6.465
 2456SOL     OW 8266   1.190   3.238   5.781
 2456SOL    HW1 8267   1.213   3.291   5.863
 2456SOL    HW2 8268   1.265   3.176   5.759
 2457SOL     OW 8269   6.091   1.279   5.923
 2457SOL    HW1 8270   6.096   1.332   6.008
 2457SOL    HW2 8271   6.120   1.185   5.941
 2458SOL     OW 8272   0.990   0.234   1.730
 2458SOL    HW1 8273   1.011   0.161   1.795
 2458SOL    HW2 8274   0.892   0.253   1.731
 2459SOL     OW 8275   1.561   6.672   1.142
 2459SOL    HW1 8276   1.661   6.665   1.132
 2459SOL    HW2 8277   1.524   6.582   1.164
 2460SOL     OW 8278   0.485   0.959   4.233
 2460SOL    HW1 8279   0.548   0.971   4.311
 2460SOL    HW2 8280   0.472   0.861   4.216
 2461SOL     OW 8281   2.269   1.971   3.305
 2461SOL    HW1 8282   2.323   1.888   3.316
 2461SOL    HW2 8283   2.330   2.050   3.300
 2462SOL     OW 8284   0.291   5.463   0.467
 2462SOL    HW1 8285   0.381   5.488   0.501
 2462SOL    HW2 8286   0.271   5.513   0.383
 2463SOL     OW 8287   6.882   6.052   0.492
 2463SOL    HW1 8288   6.910   6.008   0.406
 2463SOL    HW2 8289   6.961   6.100   0.531
 2464SOL     OW 8290   0.672   2.732   4.664
 2464SOL    HW1 8291   0.655   2.761   4.758
 2464SOL    HW2 8292   0.751   2.782   4.627
 2465SOL     OW 8293   0.082   1.474   0.162
 2465SOL    HW1 8294   0.080   1.447   0.066
 2465SOL    HW2 8295   0.147   1.416   0.212
 2466SOL     OW 8296   1.174   1.797   0.937
 2466SOL    HW1 8297   1.163   1.698   0.922
 2466SOL    HW2 8298   1.102   1.829   0.999
 2467SOL     OW 8299   5.368   2.502   4.742
 2467SOL    HW1 8300   5.405   2.456   4.823
 2467SOL    HW2 8301   5.440   2.557   4.699
 2468SOL     OW 8302   3.385   6.545   4.601
 2468SOL    HW1 8303   3.395   6.549   4.502
 2468SOL    HW2 8304   3.292   6.518   4.624
 2469SOL     OW 8305   2.942   1.782   6.087
 2469SOL    HW1 8306   2.913   1.751   5.997
 2469SOL    HW2 8307   2.948   1.882   6.087
 2470SOL     OW 8308   1.869   5.163   6.139
 2470SOL    HW1 8309   1.950   5.111   6.163
 2470SOL    HW2 8310   1.819   5.187   6.222
 2471SOL     OW 8311   2.565   6.003   2.696
 2471SOL    HW1 8312   2.653   6.025   2.739
 2471SOL    HW2 8313   2.581   5.959   2.608
 2472SOL     OW 8314   4.927   0.492   2.929
 2472SOL    HW1 8315   4.969   0.583   2.932
 2472SOL    HW2 8316   4.830   0.499   2.953
 2473SOL     OW 8317   0.792   4.137   4.905
 2473SOL    HW1 8318   0.768   4.145   4.808
 2473SOL    HW2 8319   0.853   4.211   4.931
 2474SOL     OW 8320   1.734   0.344   1.158
 2474SOL    HW1 8321   1.811   0.397   1.194
 2474SOL    HW2 8322   1.664   0.336   1.228
 2475SOL     OW 8323   5.844   1.988   0.567
 2475SOL    HW1 8324   5.824   2.002   0.664
 2475SOL    HW2 8325   5.826   2.072   0.516
 2476SOL     OW 8326   4.637   6.843   6.933
 2476SOL    HW1 8327   4.722   6.871   6.977
 2476SOL    HW2 8328   4.597   6.766   6.984
 2477SOL     OW 8329   3.805   1.204   3.905
 2477SOL    HW1 8330   3.864   1.280   3.933
 2477SOL    HW2 8331   3.722   1.242   3.862
 2478SOL     OW 8332   3.418   0.531   4.015
 2478SOL    HW1 8333   3.392   0.530   3.919
 2478SOL    HW2 8334   3.369   0.605   4.062
 2479SOL     OW 8335   6.247   4.127   2.112
 2479SOL    HW1 8336   6.233   4.032   2.084
 2479SOL    HW2 8337   6.341   4.139   2.143
 2480SOL     OW 8338   2.948   1.982   1.654
 2480SOL    HW1 8339   2.989   1.993   1.564
 2480SOL    HW2 8340   2.891   2.062   1.674
 2481SOL     OW 8341   3.008   0.304   2.392
 2481SOL    HW1 8342   3.086   0.303   2.330
 2481SOL    HW2 8343   2.991   0.398   2.422
 2482SOL     OW 8344   0.286   3.253   0.145
 2482SOL    HW1 8345   0.202   3.292   0.108
 2482SOL    HW2 8346   0.324   3.187   0.081
 2483SOL     OW 8347   2.465   1.518   1.054
 2483SOL    HW1 8348   2.526   1.529   0.976
 2483SOL    HW2 8349   2.511   1.466   1.126
 2484SOL     OW 8350   4.306   0.934   6.230
 2484SOL    HW1 8351   4.375   0.861   6.232
 2484SOL    HW2 8352   4.320   0.989   6.148
 2485SOL     OW 8353   0.501   1.391   0.051
 2485SOL    HW1 8354   0.557   1.342   0.118
 2485SOL    HW2 8355   0.496   1.487   0.077
 2486SOL     OW 8356   6.552   5.755   2.663
 2486SOL    HW1 8357   6.591   5.819   2.729
 2486SOL    HW2 8358   6.473   5.709   2.704
 2487SOL     OW 8359   4.006   6.430   6.865
 2487SOL    HW1 8360   3.929   6.492   6.852
 2487SOL    HW2 8361   3.975   6.346   6.910
 2488SOL     OW 8362   0.621   3.676   0.410
 2488SOL    HW1 8363   0.650   3.738   0.483
 2488SOL    HW2 8364   0.522   3.664   0.414
 2489SOL     OW 8365   6.161   5.792   4.834
 2489SOL    HW1 8366   6.146   5.890   4.838
 2489SOL    HW2 8367   6.143   5.751   4.923
 2490SOL     OW 8368   3.125   6.008   2.350
 2490SOL    HW1 8369   3.158   6.103   2.343
 2490SOL    HW2 8370   3.182   5.958   2.414
 2491SOL     OW 8371   3.842   4.443   1.624
 2491SOL    HW1 8372   3.749   4.458   1.658
 2491SOL    HW2 8373   3.873   4.351   1.650
 2492SOL     OW 8374   6.804   4.730   1.975
 2492SOL    HW1 8375   6.786   4.828   1.960
 2492SOL    HW2 8376   6.873   4.699   1.909
 2493SOL     OW 8377   6.026   6.288   0.593
 2493SOL    HW1 8378   5.985   6.214   0.539
 2493SOL    HW2 8379   6.108   6.321   0.547
 2494SOL     OW 8380   6.923   3.564   1.588
 2494SOL    HW1 8381   6.875   3.636   1.638
 2494SOL    HW2 8382   6.907   3.574   1.490
 2495SOL     OW 8383   6.915   3.021   2.452
 2495SOL    HW1 8384   6.857   3.018   2.533
 2495SOL    HW2 8385   6.898   2.940   2.396
 2496SOL     OW 8386   4.994   3.651   5.891
 2496SOL    HW1 8387   5.065   3.585   5.914
 2496SOL    HW2 8388   5.033   3.743   5.889
 2497SOL     OW 8389   0.482   0.007   3.797
 2497SOL    HW1 8390   0.416   0.036   3.728
 2497SOL    HW2 8391   0.547   0.081   3.813
 2498SOL     OW 8392   2.100   3.115   4.569
 2498SOL    HW1 8393   2.065   3.199   4.528
 2498SOL    HW2 8394   2.119   3.049   4.496
 2499SOL     OW 8395   5.585   3.205   1.128
 2499SOL    HW1 8396   5.513   3.152   1.174
 2499SOL    HW2 8397   5.593   3.175   1.033
 2500SOL     OW 8398   3.938   3.947   2.405
 2500SOL    HW1 8399   4.010   3.878   2.397
 2500SOL    HW2 8400   3.911   3.977   2.313
 2501SOL     OW 8401   6.522   4.958   4.135
 2501SOL    HW1 8402   6.490   5.016   4.061
 2501SOL    HW2 8403   6.583   5.009   4.195
 2502SOL     OW 8404   2.337   6.093   3.575
 2502SOL    HW1 8405   2.353   6.141   3.661
 2502SOL    HW2 8406   2.404   6.123   3.507
 2503SOL     OW 8407   2.377   0.132   5.066
 2503SOL    HW1 8408   2.460   0.165   5.110
 2503SOL    HW2 8409   2.400   0.055   5.006
 2504SOL     OW 8410   3.912   1.217   3.145
 2504SOL    HW1 8411   3.872   1.144   3.200
 2504SOL    HW2 8412   3.915   1.301   3.199
 2505SOL     OW 8413   5.365   4.548   4.546
 2505SOL    HW1 8414   5.421   4.584   4.622
 2505SOL    HW2 8415   5.345   4.451   4.563
 2506SOL     OW 8416   6.270   4.607   6.368
 2506SOL    HW1 8417   6.301   4.553   6.446
 2506SOL    HW2 8418   6.280   4.554   6.284
 2507SOL     OW 8419   5.929   3.592   3.716
 2507SOL    HW1 8420   5.885   3.503   3.709
 2507SOL    HW2 8421   6.026   3.584   3.692
 2508SOL     OW 8422   5.738   0.770   4.074
 2508SOL    HW1 8423   5.760   0.802   3.982
 2508SOL    HW2 8424   5.805   0.805   4.140
 2509SOL     OW 8425   7.012   3.442   5.896
 2509SOL    HW1 8426   0.027   3.398   5.812
 2509SOL    HW2 8427   6.927   3.399   5.926
 2510SOL     OW 8428   3.293   4.027   2.368
 2510SOL    HW1 8429   3.194   4.039   2.359
 2510SOL    HW2 8430   3.339   4.066   2.288
 2511SOL     OW 8431   2.150   0.995   4.534
 2511SOL    HW1 8432   2.158   1.008   4.633
 2511SOL    HW2 8433   2.077   0.929   4.515
 2512SOL     OW 8434   2.919   4.810   3.819
 2512SOL    HW1 8435   3.007   4.838   3.781
 2512SOL    HW2 8436   2.875   4.888   3.862
 2513SOL     OW 8437   1.899   5.696   6.353
 2513SOL    HW1 8438   1.927   5.601   6.366
 2513SOL    HW2 8439   1.826   5.719   6.418
 2514SOL     OW 8440   1.168   2.762   2.430
 2514SOL    HW1 8441   1.246   2.774   2.369
 2514SOL    HW2 8442   1.157   2.845   2.485
 2515SOL     OW 8443   0.020   1.984   1.020
 2515SOL    HW1 8444   6.971   2.055   1.045
 2515SOL    HW2 8445   0.110   2.024   1.004
 2516SOL     OW 8446   6.872   2.515   4.784
 2516SOL    HW1 8447   6.920   2.479   4.864
 2516SOL    HW2 8448   6.935   2.519   4.707
 2517SOL     OW 8449   0.428   1.402   4.257
 2517SOL    HW1 8450   0.372   1.351   4.192
 2517SOL    HW2 8451   0.368   1.454   4.319
 2518SOL     OW 8452   3.114   3.537   0.913
 2518SOL    HW1 8453   3.014   3.535   0.907
 2518SOL    HW2 8454   3.146   3.455   0.960
 2519SOL     OW 8455   1.256   1.261   0.140
 2519SOL    HW1 8456   1.164   1.234   0.112
 2519SOL    HW2 8457   1.277   1.352   0.103
 2520SOL     OW 8458   3.146   2.595   1.258
 2520SOL    HW1 8459   3.103   2.633   1.176
 2520SOL    HW2 8460   3.081   2.596   1.334
 2521SOL     OW 8461   5.612   1.296   4.622
 2521SOL    HW1 8462   5.608   1.388   4.660
 2521SOL    HW2 8463   5.537   1.241   4.660
 2522SOL     OW 8464   2.265   2.293   0.312
 2522SOL    HW1 8465   2.217   2.381   0.310
 2522SOL    HW2 8466   2.198   2.219   0.314
 2523SOL     OW 8467   1.040   5.649   5.656
 2523SOL    HW1 8468   1.038   5.601   5.568
 2523SOL    HW2 8469   0.982   5.730   5.651
 2524SOL     OW 8470   0.916   2.252   4.870
 2524SOL    HW1 8471   0.852   2.182   4.839
 2524SOL    HW2 8472   0.975   2.280   4.794
 2525SOL     OW 8473   6.704   2.687   6.449
 2525SOL    HW1 8474   6.665   2.690   6.356
 2525SOL    HW2 8475   6.695   2.778   6.490
 2526SOL     OW 8476   2.103   1.199   0.950
 2526SOL    HW1 8477   2.157   1.230   1.028
 2526SOL    HW2 8478   2.006   1.198   0.974
 2527SOL     OW 8479   4.021   5.312   0.121
 2527SOL    HW1 8480   4.093   5.273   0.063
 2527SOL    HW2 8481   4.062   5.381   0.181
 2528SOL     OW 8482   4.319   5.580   6.698
 2528SOL    HW1 8483   4.387   5.513   6.727
 2528SOL    HW2 8484   4.278   5.551   6.611
 2529SOL     OW 8485   0.022   5.930   5.928
 2529SOL    HW1 8486   0.062   5.893   5.844
 2529SOL    HW2 8487   0.092   5.979   5.980
 2530SOL     OW 8488   2.150   5.880   6.949
 2530SOL    HW1 8489   2.127   5.975   6.926
 2530SOL    HW2 8490   2.227   5.879   7.013
 2531SOL     OW 8491   0.182   3.982   6.148
 2531SOL    HW1 8492   0.224   3.949   6.063
 2531SOL    HW2 8493   0.167   4.081   6.141
 2532SOL     OW 8494   5.205   5.824   3.403
 2532SOL    HW1 8495   5.117   5.785   3.377
 2532SOL    HW2 8496   5.279   5.769   3.361
 2533SOL     OW 8497   4.407   0.626   3.860
 2533SOL    HW1 8498   4.371   0.719   3.851
 2533SOL    HW2 8499   4.380   0.590   3.949
 2534SOL     OW 8500   4.438   1.681   2.596
 2534SOL    HW1 8501   4.357   1.671   2.539
 2534SOL    HW2 8502   4.512   1.723   2.542
 2535SOL     OW 8503   3.737   2.784   6.190
 2535SOL    HW1 8504   3.661   2.753   6.246
 2535SOL    HW2 8505   3.799   2.708   6.172
 2536SOL     OW 8506   0.991   0.456   0.977
 2536SOL    HW1 8507   0.920   0.523   1.000
 2536SOL    HW2 8508   1.078   0.484   1.019
 2537SOL     OW 8509   4.440   6.784   4.797
 2537SOL    HW1 8510   4.411   6.866   4.747
 2537SOL    HW2 8511   4.379   6.769   4.874
 2538SOL     OW 8512   5.844   4.024   3.767
 2538SOL    HW1 8513   5.755   4.070   3.763
 2538SOL    HW2 8514   5.881   4.032   3.860
 2539SOL     OW 8515   5.163   2.155   4.799
 2539SOL    HW1 8516   5.198   2.070   4.762
 2539SOL    HW2 8517   5.063   2.156   4.794
 2540SOL     OW 8518   2.457   2.136   1.522
 2540SOL    HW1 8519   2.556   2.151   1.512
 2540SOL    HW2 8520   2.437   2.039   1.508
 2541SOL     OW 8521   2.975   6.979   4.290
 2541SOL    HW1 8522   3.008   0.035   4.229
 2541SOL    HW2 8523   2.945   0.005   4.376
 2542SOL     OW 8524   1.726   5.737   6.119
 2542SOL    HW1 8525   1.650   5.722   6.183
 2542SOL    HW2 8526   1.810   5.701   6.159
 2543SOL     OW 8527   0.901   0.713   3.822
 2543SOL    HW1 8528   0.811   0.724   3.779
 2543SOL    HW2 8529   0.939   0.624   3.797
 2544SOL     OW 8530   0.861   5.912   5.952
 2544SOL    HW1 8531   0.799   5.939   6.026
 2544SOL    HW2 8532   0.876   5.813   5.956
 2545SOL     OW 8533   2.606   6.261   2.545
 2545SOL    HW1 8534   2.596   6.172   2.590
 2545SOL    HW2 8535   2.581   6.334   2.609
 2546SOL     OW 8536   6.757   1.048   1.871
 2546SOL    HW1 8537   6.729   0.985   1.798
 2546SOL    HW2 8538   6.704   1.029   1.953
 2547SOL     OW 8539   0.167   4.001   4.981
 2547SOL    HW1 8540   0.197   3.906   4.997
 2547SOL    HW2 8541   0.096   4.001   4.911
 2548SOL     OW 8542   6.965   0.708   5.873
 2548SOL    HW1 8543   6.940   0.670   5.963
 2548SOL    HW2 8544   0.030   0.766   5.883
 2549SOL     OW 8545   5.602   1.975   3.143
 2549SOL    HW1 8546   5.529   2.043   3.152
 2549SOL    HW2 8547   5.563   1.887   3.117
 2550SOL     OW 8548   5.391   5.235   0.242
 2550SOL    HW1 8549   5.365   5.261   0.149
 2550SOL    HW2 8550   5.365   5.140   0.258
 2551SOL     OW 8551   1.123   4.406   6.077
 2551SOL    HW1 8552   1.076   4.489   6.110
 2551SOL    HW2 8553   1.081   4.326   6.118
 2552SOL     OW 8554   1.426   6.098   3.202
 2552SOL    HW1 8555   1.457   6.172   3.262
 2552SOL    HW2 8556   1.497   6.028   3.196
 2553SOL     OW 8557   4.645   2.989   0.366
 2553SOL    HW1 8558   4.690   2.929   0.300
 2553SOL    HW2 8559   4.616   3.073   0.321
 2554SOL     OW 8560   1.201   1.845   0.650
 2554SOL    HW1 8561   1.258   1.917   0.611
 2554SOL    HW2 8562   1.220   1.837   0.748
 2555SOL     OW 8563   0.228   0.094   6.039
 2555SOL    HW1 8564   0.272   0.153   5.971
 2555SOL    HW2 8565   0.274   0.005   6.040
 2556SOL     OW 8566   4.206   5.199   6.970
 2556SOL    HW1 8567   4.224   5.271   6.903
 2556SOL    HW2 8568   4.264   5.120   6.950
 2557SOL     OW 8569   2.244   4.849   6.911
 2557SOL    HW1 8570   2.251   4.761   6.864
 2557SOL    HW2 8571   2.154   4.856   6.954
 2558SOL     OW 8572   4.269   0.903   5.330
 2558SOL    HW1 8573   4.312   0.860   5.251
 2558SOL    HW2 8574   4.311   0.867   5.414
 2559SOL     OW 8575   0.442   5.166   5.053
 2559SOL    HW1 8576   0.430   5.082   5.000
 2559SOL    HW2 8577   0.486   5.235   4.996
 2560SOL     OW 8578   6.307   0.384   0.460
 2560SOL    HW1 8579   6.402   0.364   0.437
 2560SOL    HW2 8580   6.301   0.411   0.556
 2561SOL     OW 8581   3.078   6.096   4.290
 2561SOL    HW1 8582   3.030   6.073   4.374
 2561SOL    HW2 8583   3.057   6.029   4.219
 2562SOL     OW 8584   2.059   3.897   0.263
 2562SOL    HW1 8585   1.988   3.840   0.303
 2562SOL    HW2 8586   2.022   3.988   0.243
 2563SOL     OW 8587   1.668   0.436   1.639
 2563SOL    HW1 8588   1.613   0.432   1.556
 2563SOL    HW2 8589   1.673   0.530   1.672
 2564SOL     OW 8590   1.655   6.292   2.222
 2564SOL    HW1 8591   1.695   6.377   2.188
 2564SOL    HW2 8592   1.562   6.310   2.256
 2565SOL     OW 8593   1.249   0.933   0.923
 2565SOL    HW1 8594   1.255   0.942   1.022
 2565SOL    HW2 8595   1.332   0.891   0.888
 2566SOL     OW 8596   2.408   6.305   5.153
 2566SOL    HW1 8597   2.388   6.348   5.241
 2566SOL    HW2 8598   2.337   6.238   5.132
 2567SOL     OW 8599   1.273   0.793   0.369
 2567SOL    HW1 8600   1.184   0.813   0.410
 2567SOL    HW2 8601   1.262   0.722   0.300
 2568SOL     OW 8602   5.762   3.699   0.557
 2568SOL    HW1 8603   5.750   3.656   0.467
 2568SOL    HW2 8604   5.695   3.661   0.621
 2569SOL     OW 8605   2.380   0.803   2.357
 2569SOL    HW1 8606   2.305   0.865   2.335
 2569SOL    HW2 8607   2.361   0.713   2.319
 2570SOL     OW 8608   5.995   2.216   6.237
 2570SOL    HW1 8609   5.950   2.129   6.258
 2570SOL    HW2 8610   6.052   2.244   6.314
 2571SOL     OW 8611   0.886   4.452   3.993
 2571SOL    HW1 8612   0.905   4.358   3.965
 2571SOL    HW2 8613   0.799   4.481   3.954
 2572SOL     OW 8614   1.363   5.083   3.120
 2572SOL    HW1 8615   1.439   5.019   3.129
 2572SOL    HW2 8616   1.333   5.112   3.211
 2573SOL     OW 8617   1.276   0.368   0.036
 2573SOL    HW1 8618   1.184   0.376   7.014
 2573SOL    HW2 8619   1.296   0.272   0.056
 2574SOL     OW 8620   6.618   3.471   1.425
 2574SOL    HW1 8621   6.552   3.453   1.352
 2574SOL    HW2 8622   6.569   3.482   1.511
 2575SOL     OW 8623   0.659   6.881   5.062
 2575SOL    HW1 8624   0.636   6.872   5.159
 2575SOL    HW2 8625   0.757   6.897   5.052
 2576SOL     OW 8626   4.314   6.267   5.762
 2576SOL    HW1 8627   4.289   6.347   5.708
 2576SOL    HW2 8628   4.267   6.269   5.850
 2577SOL     OW 8629   1.799   3.648   2.583
 2577SOL    HW1 8630   1.711   3.659   2.629
 2577SOL    HW2 8631   1.810   3.721   2.516
 2578SOL     OW 8632   4.191   1.441   2.087
 2578SOL    HW1 8633   4.177   1.525   2.035
 2578SOL    HW2 8634   4.144   1.448   2.175
 2579SOL     OW 8635   0.444   6.535   3.002
 2579SOL    HW1 8636   0.522   6.478   3.028
 2579SOL    HW2 8637   0.436   6.612   3.066
 2580SOL     OW 8638   2.962   2.154   5.476
 2580SOL    HW1 8639   2.970   2.251   5.498
 2580SOL    HW2 8640   3.033   2.102   5.523
 2581SOL     OW 8641   3.591   0.385   5.750
 2581SOL    HW1 8642   3.528   0.372   5.827
 2581SOL    HW2 8643   3.597   0.483   5.729
 2582SOL     OW 8644   0.194   3.658   0.861
 2582SOL    HW1 8645   0.127   3.658   0.935
 2582SOL    HW2 8646   0.286   3.652   0.898
 2583SOL     OW 8647   5.506   1.036   0.965
 2583SOL    HW1 8648   5.567   0.956   0.962
 2583SOL    HW2 8649   5.559   1.117   0.992
 2584SOL     OW 8650   3.371   4.516   6.552
 2584SOL    HW1 8651   3.419   4.429   6.554
 2584SOL    HW2 8652   3.364   4.548   6.457
 2585SOL     OW 8653   2.277   5.107   0.182
 2585SOL    HW1 8654   2.329   5.143   0.259
 2585SOL    HW2 8655   2.333   5.110   0.099
 2586SOL     OW 8656   2.033   1.292   3.109
 2586SOL    HW1 8657   1.968   1.216   3.122
 2586SOL    HW2 8658   2.022   1.358   3.182
 2587SOL     OW 8659   5.890   1.157   4.113
 2587SOL    HW1 8660   5.909   1.077   4.056
 2587SOL    HW2 8661   5.822   1.134   4.182
 2588SOL     OW 8662   4.835   1.621   6.439
 2588SOL    HW1 8663   4.921   1.574   6.423
 2588SOL    HW2 8664   4.785   1.575   6.512
 2589SOL     OW 8665   1.356   6.015   0.496
 2589SOL    HW1 8666   1.325   5.943   0.559
 2589SOL    HW2 8667   1.421   5.976   0.431
 2590SOL     OW 8668   2.535   5.089   0.751
 2590SOL    HW1 8669   2.525   5.155   0.825
 2590SOL    HW2 8670   2.464   5.018   0.759
 2591SOL     OW 8671   4.976   6.239   3.314
 2591SOL    HW1 8672   4.953   6.321   3.366
 2591SOL    HW2 8673   4.919   6.163   3.346
 2592SOL     OW 8674   3.172   3.514   0.646
 2592SOL    HW1 8675   3.167   3.522   0.746
 2592SOL    HW2 8676   3.189   3.604   0.606
 2593SOL     OW 8677   2.795   4.638   6.248
 2593SOL    HW1 8678   2.877   4.606   6.296
 2593SOL    HW2 8679   2.728   4.564   6.245
 2594SOL     OW 8680   2.280   2.838   3.394
 2594SOL    HW1 8681   2.318   2.808   3.306
 2594SOL    HW2 8682   2.272   2.759   3.455
 2595SOL     OW 8683   1.583   0.956   2.823
 2595SOL    HW1 8684   1.665   0.966   2.879
 2595SOL    HW2 8685   1.536   1.044   2.816
 2596SOL     OW 8686   7.000   1.006   0.957
 2596SOL    HW1 8687   6.965   1.099   0.971
 2596SOL    HW2 8688   0.083   1.006   0.965
 2597SOL     OW 8689   6.270   5.984   0.699
 2597SOL    HW1 8690   6.283   5.888   0.724
 2597SOL    HW2 8691   6.203   5.991   0.626
 2598SOL     OW 8692   4.791   2.783   2.184
 2598SOL    HW1 8693   4.806   2.882   2.183
 2598SOL    HW2 8694   4.730   2.757   2.109
 2599SOL     OW 8695   2.281   5.660   1.568
 2599SOL    HW1 8696   2.297   5.753   1.602
 2599SOL    HW2 8697   2.217   5.613   1.628
 2600SOL     OW 8698   5.604   5.529   4.158
 2600SOL    HW1 8699   5.519   5.566   4.120
 2600SOL    HW2 8700   5.680   5.548   4.095
 2601SOL     OW 8701   6.876   0.888   3.840
 2601SOL    HW1 8702   6.846   0.876   3.934
 2601SOL    HW2 8703   6.797   0.896   3.780
 2602SOL     OW 8704   1.705   4.476   3.252
 2602SOL    HW1 8705   1.748   4.395   3.291
 2602SOL    HW2 8706   1.687   4.461   3.155
 2603SOL     OW 8707   1.507   5.835   1.608
 2603SOL    HW1 8708   1.526   5.902   1.680
 2603SOL    HW2 8709   1.487   5.747   1.650
 2604SOL     OW 8710   5.085   3.424   2.865
 2604SOL    HW1 8711   5.023   3.440   2.941
 2604SOL    HW2 8712   5.120   3.330   2.869
 2605SOL     OW 8713   1.454   2.387   0.750
 2605SOL    HW1 8714   1.384   2.376   0.821
 2605SOL    HW2 8715   1.540   2.418   0.792
 2606SOL     OW 8716   5.225   3.890   1.149
 2606SOL    HW1 8717   5.319   3.865   1.171
 2606SOL    HW2 8718   5.197   3.966   1.208
 2607SOL     OW 8719   2.469   2.779   1.658
 2607SOL    HW1 8720   2.391   2.832   1.694
 2607SOL    HW2 8721   2.484   2.699   1.715
 2608SOL     OW 8722   3.590   4.887   5.080
 2608SOL    HW1 8723   3.509   4.849   5.125
 2608SOL    HW2 8724   3.662   4.904   5.147
 2609SOL     OW 8725   0.434   1.340   1.478
 2609SOL    HW1 8726   0.398   1.304   1.392
 2609SOL    HW2 8727   0.464   1.264   1.536
 2610SOL     OW 8728   1.538   4.824   4.887
 2610SOL    HW1 8729   1.491   4.840   4.801
 2610SOL    HW2 8730   1.516   4.732   4.920
 2611SOL     OW 8731   5.591   2.214   5.490
 2611SOL    HW1 8732   5.678   2.184   5.530
 2611SOL    HW2 8733   5.582   2.313   5.502
 2612SOL     OW 8734   6.636   6.012   0.083
 2612SOL    HW1 8735   6.688   6.034   0.000
 2612SOL    HW2 8736   6.551   5.965   0.059
 2613SOL     OW 8737   1.932   0.182   0.536
 2613SOL    HW1 8738   1.865   0.133   0.592
 2613SOL    HW2 8739   1.927   0.149   0.441
 2614SOL     OW 8740   6.321   1.925   0.742
 2614SOL    HW1 8741   6.320   1.986   0.821
 2614SOL    HW2 8742   6.403   1.943   0.687
 2615SOL     OW 8743   1.378   3.081   6.847
 2615SOL    HW1 8744   1.287   3.071   6.887
 2615SOL    HW2 8745   1.412   2.992   6.817
 2616SOL     OW 8746   1.003   1.645   5.204
 2616SOL    HW1 8747   1.077   1.598   5.155
 2616SOL    HW2 8748   0.977   1.727   5.154
 2617SOL     OW 8749   5.909   0.369   6.761
 2617SOL    HW1 8750   5.890   0.289   6.704
 2617SOL    HW2 8751   5.986   0.349   6.821
 2618SOL     OW 8752   1.867   0.177   0.035
 2618SOL    HW1 8753   1.826   0.154   6.963
 2618SOL    HW2 8754   1.820   0.255   0.074
 2619SOL     OW 8755   4.440   1.155   2.744
 2619SOL    HW1 8756   4.401   1.093   2.676
 2619SOL    HW2 8757   4.426   1.250   2.715
 2620SOL     OW 8758   5.538   2.414   1.901
 2620SOL    HW1 8759   5.633   2.421   1.933
 2620SOL    HW2 8760   5.489   2.499   1.923
 2621SOL     OW 8761   2.787   6.255   0.966
 2621SOL    HW1 8762   2.786   6.235   0.868
 2621SOL    HW2 8763   2.881   6.253   0.999
 2622SOL     OW 8764   2.328   3.433   6.786
 2622SOL    HW1 8765   2.367   3.510   6.838
 2622SOL    HW2 8766   2.291   3.467   6.700
 2623SOL     OW 8767   0.387   1.848   4.030
 2623SOL    HW1 8768   0.288   1.835   4.035
 2623SOL    HW2 8769   0.430   1.760   4.008
 2624SOL     OW 8770   1.250   1.173   5.339
 2624SOL    HW1 8771   1.196   1.089   5.345
 2624SOL    HW2 8772   1.318   1.164   5.266
 2625SOL     OW 8773   2.794   5.238   6.196
 2625SOL    HW1 8774   2.834   5.317   6.149
 2625SOL    HW2 8775   2.815   5.244   6.293
 2626SOL     OW 8776   6.911   6.677   0.429
 2626SOL    HW1 8777   6.938   6.582   0.441
 2626SOL    HW2 8778   6.976   6.736   0.477
 2627SOL     OW 8779   2.487   0.003   5.729
 2627SOL    HW1 8780   2.581   0.003   5.695
 2627SOL    HW2 8781   2.475   0.077   5.795
 2628SOL     OW 8782   6.913   5.364   1.588
 2628SOL    HW1 8783   6.873   5.453   1.567
 2628SOL    HW2 8784   6.872   5.328   1.671
 2629SOL     OW 8785   3.338   3.580   2.379
 2629SOL    HW1 8786   3.328   3.543   2.286
 2629SOL    HW2 8787   3.422   3.634   2.384
 2630SOL     OW 8788   3.162   1.138   4.787
 2630SOL    HW1 8789   3.101   1.082   4.731
 2630SOL    HW2 8790   3.252   1.096   4.792
 2631SOL     OW 8791   5.227   5.722   0.412
 2631SOL    HW1 8792   5.185   5.788   0.474
 2631SOL    HW2 8793   5.310   5.761   0.372
 2632SOL     OW 8794   4.456   5.254   2.218
 2632SOL    HW1 8795   4.375   5.270   2.162
 2632SOL    HW2 8796   4.446   5.168   2.268
 2633SOL     OW 8797   6.739   3.097   6.058
 2633SOL    HW1 8798   6.823   3.080   6.110
 2633SOL    HW2 8799   6.733   3.195   6.037
 2634SOL     OW 8800   2.178   2.011   6.192
 2634SOL    HW1 8801   2.124   1.951   6.251
 2634SOL    HW2 8802   2.194   1.966   6.104
 2635SOL     OW 8803   4.158   5.646   3.337
 2635SOL    HW1 8804   4.064   5.614   3.325
 2635SOL    HW2 8805   4.164   5.742   3.309
 2636SOL     OW 8806   3.167   6.938   5.901
 2636SOL    HW1 8807   3.251   6.904   5.857
 2636SOL    HW2 8808   3.147   6.881   5.981
 2637SOL     OW 8809   6.854   1.057   3.041
 2637SOL    HW1 8810   6.859   1.032   2.944
 2637SOL    HW2 8811   6.795   1.137   3.052
 2638SOL     OW 8812   0.459   6.398   4.925
 2638SOL    HW1 8813   0.511   6.407   5.010
 2638SOL    HW2 8814   0.521   6.408   4.847
 2639SOL     OW 8815   5.355   5.380   4.764
 2639SOL    HW1 8816   5.342   5.474   4.794
 2639SOL    HW2 8817   5.388   5.379   4.670
 2640SOL     OW 8818   1.899   0.740   2.822
 2640SOL    HW1 8819   1.832   0.750   2.895
 2640SOL    HW2 8820   1.967   0.672   2.849
 2641SOL     OW 8821   5.521   2.511   0.803
 2641SOL    HW1 8822   5.580   2.539   0.727
 2641SOL    HW2 8823   5.443   2.460   0.768
 2642SOL     OW 8824   0.086   0.743   2.843
 2642SOL    HW1 8825   0.051   0.819   2.788
 2642SOL    HW2 8826   0.136   0.780   2.921
 2643SOL     OW 8827   1.642   4.788   4.298
 2643SOL    HW1 8828   1.713   4.822   4.359
 2643SOL    HW2 8829   1.605   4.865   4.245
 2644SOL     OW 8830   5.380   5.407   3.411
 2644SOL    HW1 8831   5.400   5.431   3.506
 2644SOL    HW2 8832   5.374   5.490   3.356
 2645SOL     OW 8833   4.623   5.435   2.660
 2645SOL    HW1 8834   4.557   5.498   2.620
 2645SOL    HW2 8835   4.575   5.362   2.709
 2646SOL     OW 8836   1.182   1.467   6.404
 2646SOL    HW1 8837   1.140   1.485   6.492
 2646SOL    HW2 8838   1.145   1.530   6.335
 2647SOL     OW 8839   4.504   0.131   3.075
 2647SOL    HW1 8840   4.602   0.116   3.092
 2647SOL    HW2 8841   4.457   0.144   3.162
 2648SOL     OW 8842   2.313   0.447   5.979
 2648SOL    HW1 8843   2.266   0.456   6.067
 2648SOL    HW2 8844   2.245   0.433   5.907
 2649SOL     OW 8845   5.874   1.798   3.549
 2649SOL    HW1 8846   5.802   1.830   3.611
 2649SOL    HW2 8847   5.838   1.792   3.456
 2650SOL     OW 8848   1.729   0.041   4.412
 2650SOL    HW1 8849   1.646   0.093   4.397
 2650SOL    HW2 8850   1.750   7.004   4.330
 2651SOL     OW 8851   3.343   2.095   2.692
 2651SOL    HW1 8852   3.369   2.083   2.597
 2651SOL    HW2 8853   3.423   2.120   2.746
 2652SOL     OW 8854   4.408   3.341   5.876
 2652SOL    HW1 8855   4.358   3.427   5.864
 2652SOL    HW2 8856   4.345   3.270   5.908
 2653SOL     OW 8857   2.427   6.839   0.338
 2653SOL    HW1 8858   2.404   6.818   0.433
 2653SOL    HW2 8859   2.504   6.904   0.336
 2654SOL     OW 8860   6.656   0.293   1.138
 2654SOL    HW1 8861   6.697   0.365   1.081
 2654SOL    HW2 8862   6.679   0.204   1.100
 2655SOL     OW 8863   5.324   6.453   3.957
 2655SOL    HW1 8864   5.364   6.374   4.003
 2655SOL    HW2 8865   5.375   6.536   3.981
 2656SOL     OW 8866   5.115   0.106   4.852
 2656SOL    HW1 8867   5.018   0.127   4.851
 2656SOL    HW2 8868   5.161   0.164   4.919
 2657SOL     OW 8869   1.620   3.484   5.510
 2657SOL    HW1 8870   1.704   3.431   5.518
 2657SOL    HW2 8871   1.605   3.536   5.594
 2658SOL     OW 8872   3.453   4.154   0.652
 2658SOL    HW1 8873   3.471   4.087   0.724
 2658SOL    HW2 8874   3.407   4.233   0.691
 2659SOL     OW 8875   0.663   2.059   5.745
 2659SOL    HW1 8876   0.621   2.121   5.811
 2659SOL    HW2 8877   0.607   2.055   5.663
 2660SOL     OW 8878   1.180   1.668   0.472
 2660SOL    HW1 8879   1.184   1.752   0.526
 2660SOL    HW2 8880   1.089   1.627   0.480
 2661SOL     OW 8881   2.031   1.160   1.677
 2661SOL    HW1 8882   2.080   1.109   1.748
 2661SOL    HW2 8883   1.933   1.158   1.697
 2662SOL     OW 8884   2.710   1.348   1.462
 2662SOL    HW1 8885   2.635   1.338   1.528
 2662SOL    HW2 8886   2.787   1.291   1.492
 2663SOL     OW 8887   3.832   0.113   0.916
 2663SOL    HW1 8888   3.889   0.046   0.869
 2663SOL    HW2 8889   3.824   0.195   0.860
 2664SOL     OW 8890   4.709   3.365   5.615
 2664SOL    HW1 8891   4.673   3.290   5.671
 2664SOL    HW2 8892   4.697   3.342   5.518
 2665SOL     OW 8893   0.993   3.697   4.573
 2665SOL    HW1 8894   0.928   3.725   4.502
 2665SOL    HW2 8895   0.969   3.605   4.605
 2666SOL     OW 8896   1.879   3.707   1.678
 2666SOL    HW1 8897   1.872   3.786   1.739
 2666SOL    HW2 8898   1.930   3.634   1.724
 2667SOL     OW 8899   6.370   2.284   4.631
 2667SOL    HW1 8900   6.418   2.372   4.634
 2667SOL    HW2 8901   6.280   2.294   4.673
 2668SOL     OW 8902   6.210   0.726   3.645
 2668SOL    HW1 8903   6.243   0.821   3.647
 2668SOL    HW2 8904   6.115   0.724   3.677
 2669SOL     OW 8905   2.452   1.627   1.938
 2669SOL    HW1 8906   2.523   1.677   1.987
 2669SOL    HW2 8907   2.377   1.689   1.916
 2670SOL     OW 8908   0.396   6.955   1.459
 2670SOL    HW1 8909   0.484   6.910   1.443
 2670SOL    HW2 8910   0.411   0.028   1.501
 2671SOL     OW 8911   5.131   4.137   6.464
 2671SOL    HW1 8912   5.215   4.180   6.432
 2671SOL    HW2 8913   5.076   4.109   6.385
 2672SOL     OW 8914   1.852   1.012   2.418
 2672SOL    HW1 8915   1.855   0.984   2.514
 2672SOL    HW2 8916   1.839   0.931   2.360
 2673SOL     OW 8917   3.247   0.588   3.390
 2673SOL    HW1 8918   3.184   0.666   3.395
 2673SOL    HW2 8919   3.212   0.520   3.326
 2674SOL     OW 8920   5.486   5.656   2.939
 2674SOL    HW1 8921   5.530   5.648   2.849
 2674SOL    HW2 8922   5.415   5.586   2.947
 2675SOL     OW 8923   4.716   1.033   3.879
 2675SOL    HW1 8924   4.730   0.942   3.838
 2675SOL    HW2 8925   4.621   1.060   3.867
 2676SOL     OW 8926   3.754   3.669   5.458
 2676SOL    HW1 8927   3.704   3.644   5.540
 2676SOL    HW2 8928   3.690   3.701   5.388
 2677SOL     OW 8929   1.548   5.588   1.137
 2677SOL    HW1 8930   1.498   5.515   1.184
 2677SOL    HW2 8931   1.646   5.579   1.156
 2678SOL     OW 8932   3.515   2.044   1.845
 2678SOL    HW1 8933   3.588   2.099   1.886
 2678SOL    HW2 8934   3.433   2.050   1.903
 2679SOL     OW 8935   2.043   4.449   2.573
 2679SOL    HW1 8936   1.953   4.489   2.592
 2679SOL    HW2 8937   2.103   4.518   2.534
 2680SOL     OW 8938   6.122   1.795   6.760
 2680SOL    HW1 8939   6.153   1.794   6.664
 2680SOL    HW2 8940   6.035   1.843   6.767
 2681SOL     OW 8941   2.292   2.770   3.113
 2681SOL    HW1 8942   2.269   2.782   3.016
 2681SOL    HW2 8943   2.364   2.700   3.122
 2682SOL     OW 8944   3.438   4.161   2.150
 2682SOL    HW1 8945   3.474   4.250   2.124
 2682SOL    HW2 8946   3.456   4.095   2.077
 2683SOL     OW 8947   1.699   3.187   1.069
 2683SOL    HW1 8948   1.676   3.189   1.166
 2683SOL    HW2 8949   1.615   3.192   1.014
 2684SOL     OW 8950   5.625   0.154   3.868
 2684SOL    HW1 8951   5.639   0.065   3.913
 2684SOL    HW2 8952   5.696   0.167   3.799
 2685SOL     OW 8953   1.605   6.731   5.913
 2685SOL    HW1 8954   1.687   6.777   5.881
 2685SOL    HW2 8955   1.587   6.651   5.855
 2686SOL     OW 8956   2.643   2.058   5.670
 2686SOL    HW1 8957   2.685   2.087   5.584
 2686SOL    HW2 8958   2.641   1.958   5.673
 2687SOL     OW 8959   3.672   2.604   1.730
 2687SOL    HW1 8960   3.595   2.668   1.736
 2687SOL    HW2 8961   3.650   2.520   1.780
 2688SOL     OW 8962   4.503   2.217   0.360
 2688SOL    HW1 8963   4.512   2.314   0.340
 2688SOL    HW2 8964   4.429   2.204   0.427
 2689SOL     OW 8965   0.409   4.093   1.995
 2689SOL    HW1 8966   0.329   4.039   1.970
 2689SOL    HW2 8967   0.421   4.168   1.929
 2690SOL     OW 8968   5.557   0.982   4.416
 2690SOL    HW1 8969   5.546   1.075   4.382
 2690SOL    HW2 8970   5.498   0.920   4.364
 2691SOL     OW 8971   5.359   3.581   3.773
 2691SOL    HW1 8972   5.401   3.527   3.846
 2691SOL    HW2 8973   5.354   3.677   3.802
 2692SOL     OW 8974   1.188   5.864   0.849
 2692SOL    HW1 8975   1.215   5.947   0.899
 2692SOL    HW2 8976   1.227   5.784   0.893
 2693SOL     OW 8977   1.138   6.127   2.494
 2693SOL    HW1 8978   1.052   6.105   2.542
 2693SOL    HW2 8979   1.166   6.049   2.439
 2694SOL     OW 8980   2.607   0.754   2.954
 2694SOL    HW1 8981   2.512   0.725   2.955
 2694SOL    HW2 8982   2.631   0.794   3.043
 2695SOL     OW 8983   6.613   6.241   2.773
 2695SOL    HW1 8984   6.603   6.237   2.674
 2695SOL    HW2 8985   6.659   6.326   2.799
 2696SOL     OW 8986   3.652   4.546   6.187
 2696SOL    HW1 8987   3.683   4.605   6.262
 2696SOL    HW2 8988   3.719   4.550   6.112
 2697SOL     OW 8989   4.778   2.812   0.205
 2697SOL    HW1 8990   4.740   2.824   0.113
 2697SOL    HW2 8991   4.769   2.716   0.233
 2698SOL     OW 8992   1.931   5.665   0.316
 2698SOL    HW1 8993   1.899   5.722   0.391
 2698SOL    HW2 8994   1.924   5.568   0.341
 2699SOL     OW 8995   2.780   0.157   2.408
 2699SOL    HW1 8996   2.808   0.087   2.473
 2699SOL    HW2 8997   2.856   0.222   2.395
 2700SOL     OW 8998   5.111   2.091   0.873
 2700SOL    HW1 8999   5.046   2.096   0.797
 2700SOL    HW2 9000   5.065   2.058   0.955
 2701SOL     OW 9001   5.273   4.226   5.585
 2701SOL    HW1 9002   5.290   4.306   5.527
 2701SOL    HW2 9003   5.294   4.143   5.533
 2702SOL     OW 9004   1.469   2.198   5.195
 2702SOL    HW1 9005   1.487   2.100   5.188
 2702SOL    HW2 9006   1.375   2.212   5.227
 2703SOL     OW 9007   2.525   5.704   1.648
 2703SOL    HW1 9008   2.578   5.646   1.709
 2703SOL    HW2 9009   2.442   5.656   1.620
 2704SOL     OW 9010   4.201   0.765   3.579
 2704SOL    HW1 9011   4.196   0.865   3.576
 2704SOL    HW2 9012   4.157   0.732   3.662
 2705SOL     OW 9013   1.236   0.504   5.499
 2705SOL    HW1 9014   1.195   0.545   5.419
 2705SOL    HW2 9015   1.262   0.575   5.564
 2706SOL     OW 9016   1.030   4.641   4.732
 2706SOL    HW1 9017   1.081   4.670   4.652
 2706SOL    HW2 9018   1.009   4.543   4.725
 2707SOL     OW 9019   4.100   0.918   3.044
 2707SOL    HW1 9020   4.165   0.990   3.069
 2707SOL    HW2 9021   4.078   0.863   3.125
 2708SOL     OW 9022   5.470   3.145   5.400
 2708SOL    HW1 9023   5.405   3.126   5.327
 2708SOL    HW2 9024   5.561   3.110   5.375
 2709SOL     OW 9025   5.074   1.507   5.295
 2709SOL    HW1 9026   5.100   1.602   5.278
 2709SOL    HW2 9027   5.128   1.446   5.237
 2710SOL     OW 9028   0.958   3.026   4.044
 2710SOL    HW1 9029   0.926   2.931   4.039
 2710SOL    HW2 9030   1.057   3.028   4.033
 2711SOL     OW 9031   4.652   0.901   1.258
 2711SOL    HW1 9032   4.564   0.890   1.212
 2711SOL    HW2 9033   4.642   0.880   1.355
 2712SOL     OW 9034   4.988   6.380   1.696
 2712SOL    HW1 9035   4.973   6.375   1.597
 2712SOL    HW2 9036   4.968   6.291   1.737
 2713SOL     OW 9037   4.100   4.661   5.276
 2713SOL    HW1 9038   4.172   4.594   5.259
 2713SOL    HW2 9039   4.081   4.711   5.191
 2714SOL     OW 9040   3.167   4.081   6.194
 2714SOL    HW1 9041   3.163   4.138   6.276
 2714SOL    HW2 9042   3.095   4.110   6.130
 2715SOL     OW 9043   4.379   6.961   0.388
 2715SOL    HW1 9044   4.406   6.973   0.292
 2715SOL    HW2 9045   4.287   6.998   0.401
 2716SOL     OW 9046   4.572   0.954   1.960
 2716SOL    HW1 9047   4.604   1.048   1.944
 2716SOL    HW2 9048   4.632   0.908   2.025
 2717SOL     OW 9049   0.293   1.609   2.036
 2717SOL    HW1 9050   0.215   1.577   2.089
 2717SOL    HW2 9051   0.260   1.653   1.952
 2718SOL     OW 9052   6.352   1.123   6.181
 2718SOL    HW1 9053   6.385   1.031   6.160
 2718SOL    HW2 9054   6.261   1.118   6.220
 2719SOL     OW 9055   0.790   4.205   4.233
 2719SOL    HW1 9056   0.856   4.269   4.274
 2719SOL    HW2 9057   0.720   4.257   4.184
 2720SOL     OW 9058   2.039   4.894   6.418
 2720SOL    HW1 9059   2.064   4.961   6.348
 2720SOL    HW2 9060   2.099   4.906   6.497
 2721SOL     OW 9061   2.742   5.910   3.930
 2721SOL    HW1 9062   2.776   5.924   4.023
 2721SOL    HW2 9063   2.651   5.868   3.934
 2722SOL     OW 9064   3.384   4.165   0.053
 2722SOL    HW1 9065   3.444   4.211   0.118
 2722SOL    HW2 9066   3.390   4.066   0.067
 2723SOL     OW 9067   4.868   4.836   0.428
 2723SOL    HW1 9068   4.852   4.738   0.419
 2723SOL    HW2 9069   4.826   4.884   0.351
 2724SOL     OW 9070   0.241   5.992   1.058
 2724SOL    HW1 9071   0.149   5.966   1.086
 2724SOL    HW2 9072   0.308   5.929   1.097
 2725SOL     OW 9073   5.948   4.108   3.240
 2725SOL    HW1 9074   5.872   4.169   3.215
 2725SOL    HW2 9075   5.911   4.022   3.275
 2726SOL     OW 9076   6.283   2.230   2.326
 2726SOL    HW1 9077   6.289   2.327   2.299
 2726SOL    HW2 9078   6.297   2.173   2.245
 2727SOL     OW 9079   1.470   4.525   3.592
 2727SOL    HW1 9080   1.379   4.567   3.591
 2727SOL    HW2 9081   1.499   4.513   3.687
 2728SOL     OW 9082   4.393   4.371   6.457
 2728SOL    HW1 9083   4.318   4.311   6.429
 2728SOL    HW2 9084   4.377   4.463   6.420
 2729SOL     OW 9085   0.514   0.024   0.865
 2729SOL    HW1 9086   0.442   6.971   0.870
 2729SOL    HW2 9087   0.577   0.012   0.942
 2730SOL     OW 9088   1.050   5.381   2.921
 2730SOL    HW1 9089   1.109   5.372   3.001
 2730SOL    HW2 9090   1.103   5.412   2.843
 2731SOL     OW 9091   3.877   3.425   5.427
 2731SOL    HW1 9092   3.826   3.509   5.440
 2731SOL    HW2 9093   3.975   3.446   5.421
 2732SOL     OW 9094   4.566   0.991   2.315
 2732SOL    HW1 9095   4.499   1.064   2.302
 2732SOL    HW2 9096   4.517   0.905   2.331
 2733SOL     OW 9097   0.786   0.275   0.720
 2733SOL    HW1 9098   0.775   0.374   0.728
 2733SOL    HW2 9099   0.784   0.234   0.811
 2734SOL     OW 9100   3.652   0.288   1.842
 2734SOL    HW1 9101   3.714   0.237   1.902
 2734SOL    HW2 9102   3.625   0.373   1.886
 2735SOL     OW 9103   0.791   2.904   3.013
 2735SOL    HW1 9104   0.858   2.975   2.991
 2735SOL    HW2 9105   0.784   2.840   2.936
 2736SOL     OW 9106   5.371   4.178   2.604
 2736SOL    HW1 9107   5.354   4.091   2.650
 2736SOL    HW2 9108   5.286   4.209   2.560
 2737SOL     OW 9109   2.799   0.424   6.027
 2737SOL    HW1 9110   2.805   0.498   6.093
 2737SOL    HW2 9111   2.837   0.341   6.066
 2738SOL     OW 9112   5.207   5.771   1.354
 2738SOL    HW1 9113   5.250   5.857   1.383
 2738SOL    HW2 9114   5.242   5.696   1.409
 2739SOL     OW 9115   0.529   5.205   1.816
 2739SOL    HW1 9116   0.503   5.206   1.912
 2739SOL    HW2 9117   0.628   5.194   1.808
 2740SOL     OW 9118   6.377   5.830   5.269
 2740SOL    HW1 9119   6.434   5.873   5.339
 2740SOL    HW2 9120   6.307   5.773   5.313
 2741SOL     OW 9121   0.034   6.660   0.027
 2741SOL    HW1 9122   6.969   6.718   0.014
 2741SOL    HW2 9123   0.014   6.590   0.095
 2742SOL     OW 9124   2.908   4.942   1.629
 2742SOL    HW1 9125   2.841   4.893   1.686
 2742SOL    HW2 9126   2.940   4.881   1.556
 2743SOL     OW 9127   5.503   1.826   3.442
 2743SOL    HW1 9128   5.516   1.727   3.434
 2743SOL    HW2 9129   5.592   1.872   3.435
 2744SOL     OW 9130   3.379   3.550   2.953
 2744SOL    HW1 9131   3.426   3.599   2.879
 2744SOL    HW2 9132   3.283   3.536   2.928
 2745SOL     OW 9133   0.721   6.160   6.763
 2745SOL    HW1 9134   0.685   6.087   6.822
 2745SOL    HW2 9135   0.806   6.195   6.802
 2746SOL     OW 9136   1.515   1.083   4.331
 2746SOL    HW1 9137   1.453   1.126   4.264
 2746SOL    HW2 9138   1.484   1.105   4.423
 2747SOL     OW 9139   5.083   5.141   0.563
 2747SOL    HW1 9140   5.133   5.055   0.553
 2747SOL    HW2 9141   5.078   5.165   0.660
 2748SOL     OW 9142   4.417   0.405   0.489
 2748SOL    HW1 9143   4.325   0.437   0.466
 2748SOL    HW2 9144   4.430   0.408   0.588
 2749SOL     OW 9145   4.332   0.672   0.117
 2749SOL    HW1 9146   4.312   0.589   0.066
 2749SOL    HW2 9147   4.399   0.727   0.065
 2750SOL     OW 9148   2.186   6.146   1.509
 2750SOL    HW1 9149   2.110   6.209   1.494
 2750SOL    HW2 9150   2.235   6.132   1.423
 2751SOL     OW 9151   6.231   5.513   1.727
 2751SOL    HW1 9152   6.311   5.472   1.683
 2751SOL    HW2 9153   6.239   5.612   1.724
 2752SOL     OW 9154   4.220   5.276   6.665
 2752SOL    HW1 9155   4.179   5.187   6.641
 2752SOL    HW2 9156   4.310   5.283   6.624
 2753SOL     OW 9157   4.585   4.972   5.510
 2753SOL    HW1 9158   4.649   4.964   5.433
 2753SOL    HW2 9159   4.635   4.997   5.593
 2754SOL     OW 9160   0.895   0.946   4.316
 2754SOL    HW1 9161   0.830   0.949   4.392
 2754SOL    HW2 9162   0.983   0.984   4.346
 2755SOL     OW 9163   3.543   0.537   2.175
 2755SOL    HW1 9164   3.472   0.471   2.151
 2755SOL    HW2 9165   3.502   0.628   2.181
 2756SOL     OW 9166   4.616   5.343   6.121
 2756SOL    HW1 9167   4.561   5.423   6.094
 2756SOL    HW2 9168   4.605   5.271   6.053
 2757SOL     OW 9169   1.119   4.705   0.511
 2757SOL    HW1 9170   1.108   4.681   0.608
 2757SOL    HW2 9171   1.030   4.701   0.466
 2758SOL     OW 9172   5.235   0.128   5.869
 2758SOL    HW1 9173   5.199   0.066   5.939
 2758SOL    HW2 9174   5.314   0.085   5.824
 2759SOL     OW 9175   4.444   4.967   2.894
 2759SOL    HW1 9176   4.445   5.065   2.875
 2759SOL    HW2 9177   4.467   4.951   2.990
 2760SOL     OW 9178   0.429   6.663   3.436
 2760SOL    HW1 9179   0.381   6.640   3.521
 2760SOL    HW2 9180   0.527   6.666   3.453
 2761SOL     OW 9181   2.630   4.692   5.156
 2761SOL    HW1 9182   2.706   4.667   5.095
 2761SOL    HW2 9183   2.667   4.724   5.243
 2762SOL     OW 9184   1.587   1.975   5.741
 2762SOL    HW1 9185   1.583   2.006   5.836
 2762SOL    HW2 9186   1.504   2.004   5.693
 2763SOL     OW 9187   5.645   0.349   2.013
 2763SOL    HW1 9188   5.713   0.399   2.067
 2763SOL    HW2 9189   5.664   0.361   1.916
 2764SOL     OW 9190   6.315   0.604   1.371
 2764SOL    HW1 9191   6.314   0.689   1.318
 2764SOL    HW2 9192   6.222   0.578   1.394
 2765SOL     OW 9193   5.338   1.472   3.634
 2765SOL    HW1 9194   5.345   1.565   3.671
 2765SOL    HW2 9195   5.261   1.466   3.571
 2766SOL     OW 9196   5.059   6.286   2.647
 2766SOL    HW1 9197   5.056   6.322   2.553
 2766SOL    HW2 9198   5.153   6.258   2.668
 2767SOL     OW 9199   6.979   3.813   5.206
 2767SOL    HW1 9200   6.936   3.843   5.292
 2767SOL    HW2 9201   0.018   3.888   5.170
 2768SOL     OW 9202   5.394   0.542   6.005
 2768SOL    HW1 9203   5.384   0.638   5.976
 2768SOL    HW2 9204   5.306   0.495   5.994
 2769SOL     OW 9205   1.283   4.098   1.448
 2769SOL    HW1 9206   1.300   4.147   1.533
 2769SOL    HW2 9207   1.303   4.157   1.370
 2770SOL     OW 9208   4.512   6.611   2.465
 2770SOL    HW1 9209   4.493   6.677   2.537
 2770SOL    HW2 9210   4.543   6.525   2.507
 2771SOL     OW 9211   4.533   0.815   1.512
 2771SOL    HW1 9212   4.495   0.757   1.441
 2771SOL    HW2 9213   4.492   0.790   1.600
 2772SOL     OW 9214   3.360   1.078   0.926
 2772SOL    HW1 9215   3.325   1.011   0.991
 2772SOL    HW2 9216   3.381   1.033   0.839
 2773SOL     OW 9217   3.458   4.911   1.538
 2773SOL    HW1 9218   3.430   4.906   1.442
 2773SOL    HW2 9219   3.428   4.829   1.586
 2774SOL     OW 9220   5.028   2.999   1.999
 2774SOL    HW1 9221   5.071   3.080   2.039
 2774SOL    HW2 9222   4.934   3.020   1.974
 2775SOL     OW 9223   0.488   0.204   2.110
 2775SOL    HW1 9224   0.415   0.167   2.054
 2775SOL    HW2 9225   0.449   0.249   2.191
 2776SOL     OW 9226   2.907   5.769   0.170
 2776SOL    HW1 9227   2.867   5.689   0.127
 2776SOL    HW2 9228   3.007   5.763   0.166
 2777SOL     OW 9229   1.138   2.658   3.933
 2777SOL    HW1 9230   1.175   2.571   3.903
 2777SOL    HW2 9231   1.187   2.733   3.888
 2778SOL     OW 9232   3.344   2.238   5.344
 2778SOL    HW1 9233   3.283   2.299   5.292
 2778SOL    HW2 9234   3.301   2.148   5.354
 2779SOL     OW 9235   6.150   0.504   0.231
 2779SOL    HW1 9236   6.173   0.439   0.303
 2779SOL    HW2 9237   6.145   0.596   0.271
 2780SOL     OW 9238   3.346   6.609   6.402
 2780SOL    HW1 9239   3.363   6.550   6.481
 2780SOL    HW2 9240   3.309   6.554   6.327
 2781SOL     OW 9241   5.605   3.562   6.631
 2781SOL    HW1 9242   5.600   3.618   6.714
 2781SOL    HW2 9243   5.692   3.578   6.585
 2782SOL     OW 9244   3.513   0.578   6.143
 2782SOL    HW1 9245   3.539   0.512   6.073
 2782SOL    HW2 9246   3.457   0.532   6.212
 2783SOL     OW 9247   0.476   3.752   5.153
 2783SOL    HW1 9248   0.508   3.846   5.155
 2783SOL    HW2 9249   0.478   3.714   5.246
 2784SOL     OW 9250   2.763   1.805   1.309
 2784SOL    HW1 9251   2.685   1.786   1.249
 2784SOL    HW2 9252   2.807   1.719   1.333
 2785SOL     OW 9253   5.549   2.607   2.356
 2785SOL    HW1 9254   5.643   2.596   2.324
 2785SOL    HW2 9255   5.518   2.522   2.399
 2786SOL     OW 9256   3.672   0.314   1.251
 2786SOL    HW1 9257   3.728   0.269   1.322
 2786SOL    HW2 9258   3.729   0.377   1.199
 2787SOL     OW 9259   1.672   4.492   5.750
 2787SOL    HW1 9260   1.610   4.416   5.731
 2787SOL    HW2 9261   1.666   4.559   5.676
 2788SOL     OW 9262   1.790   2.513   0.489
 2788SOL    HW1 9263   1.728   2.580   0.530
 2788SOL    HW2 9264   1.864   2.493   0.553
 2789SOL     OW 9265   6.869   3.469   3.257
 2789SOL    HW1 9266   6.917   3.507   3.177
 2789SOL    HW2 9267   6.839   3.376   3.237
 2790SOL     OW 9268   3.050   6.160   4.966
 2790SOL    HW1 9269   3.102   6.096   5.023
 2790SOL    HW2 9270   2.981   6.111   4.914
 2791SOL     OW 9271   2.089   3.484   2.233
 2791SOL    HW1 9272   2.158   3.463   2.163
 2791SOL    HW2 9273   2.018   3.541   2.193
 2792SOL     OW 9274   0.235   2.024   6.054
 2792SOL    HW1 9275   0.229   2.079   6.137
 2792SOL    HW2 9276   0.216   1.928   6.076
 2793SOL     OW 9277   5.036   0.568   4.867
 2793SOL    HW1 9278   5.096   0.639   4.831
 2793SOL    HW2 9279   4.984   0.604   4.945
 2794SOL     OW 9280   1.013   1.318   2.222
 2794SOL    HW1 9281   0.933   1.376   2.206
 2794SOL    HW2 9282   1.082   1.369   2.274
 2795SOL     OW 9283   1.178   3.540   0.451
 2795SOL    HW1 9284   1.276   3.523   0.461
 2795SOL    HW2 9285   1.164   3.614   0.385
 2796SOL     OW 9286   4.123   5.070   2.269
 2796SOL    HW1 9287   4.145   5.134   2.196
 2796SOL    HW2 9288   4.128   4.976   2.234
 2797SOL     OW 9289   5.010   4.447   5.294
 2797SOL    HW1 9290   5.033   4.350   5.291
 2797SOL    HW2 9291   5.045   4.488   5.378
 2798SOL     OW 9292   2.172   3.834   3.143
 2798SOL    HW1 9293   2.107   3.801   3.075
 2798SOL    HW2 9294   2.230   3.904   3.103
 2799SOL     OW 9295   6.803   5.494   6.880
 2799SOL    HW1 9296   6.857   5.483   6.964
 2799SOL    HW2 9297   6.710   5.521   6.904
 2800SOL     OW 9298   2.773   0.602   6.270
 2800SOL    HW1 9299   2.833   0.561   6.339
 2800SOL    HW2 9300   2.773   0.702   6.282
 2801SOL     OW 9301   4.242   5.564   2.157
 2801SOL    HW1 9302   4.200   5.520   2.078
 2801SOL    HW2 9303   4.340   5.573   2.142
 2802SOL     OW 9304   6.408   0.116   6.493
 2802SOL    HW1 9305   6.492   0.069   6.464
 2802SOL    HW2 9306   6.394   0.101   6.591
 2803SOL     OW 9307   2.551   6.045   4.633
 2803SOL    HW1 9308   2.529   5.955   4.671
 2803SOL    HW2 9309   2.508   6.116   4.689
 2804SOL     OW 9310   0.651   5.337   2.394
 2804SOL    HW1 9311   0.566   5.365   2.350
 2804SOL    HW2 9312   0.661   5.237   2.385
 2805SOL     OW 9313   6.743   4.493   6.523
 2805SOL    HW1 9314   6.684   4.453   6.453
 2805SOL    HW2 9315   6.814   4.548   6.479
 2806SOL     OW 9316   5.523   4.372   2.704
 2806SOL    HW1 9317   5.571   4.393   2.619
 2806SOL    HW2 9318   5.453   4.303   2.688
 2807SOL     OW 9319   3.818   4.883   3.986
 2807SOL    HW1 9320   3.758   4.804   3.990
 2807SOL    HW2 9321   3.913   4.854   4.000
 2808SOL     OW 9322   4.496   6.938   4.344
 2808SOL    HW1 9323   4.560   6.868   4.377
 2808SOL    HW2 9324   4.513   0.007   4.392
 2809SOL     OW 9325   5.317   1.978   0.512
 2809SOL    HW1 9326   5.375   2.005   0.589
 2809SOL    HW2 9327   5.285   1.884   0.525
 2810SOL     OW 9328   2.470   1.389   6.075
 2810SOL    HW1 9329   2.398   1.357   6.137
 2810SOL    HW2 9330   2.515   1.310   6.033
 2811SOL     OW 9331   0.213   0.497   4.134
 2811SOL    HW1 9332   0.128   0.480   4.183
 2811SOL    HW2 9333   0.283   0.528   4.199
 2812SOL     OW 9334   5.029   4.426   2.794
 2812SOL    HW1 9335   5.110   4.368   2.797
 2812SOL    HW2 9336   4.948   4.370   2.811
 2813SOL     OW 9337   6.702   1.699   6.110
 2813SOL    HW1 9338   6.691   1.601   6.128
 2813SOL    HW2 9339   6.654   1.723   6.026
 2814SOL     OW 9340   5.757   4.461   5.796
 2814SOL    HW1 9341   5.814   4.475   5.715
 2814SOL    HW2 9342   5.716   4.547   5.824
 2815SOL     OW 9343   1.340   1.218   4.151
 2815SOL    HW1 9344   1.290   1.185   4.071
 2815SOL    HW2 9345   1.317   1.315   4.166
 2816SOL     OW 9346   4.374   6.270   3.503
 2816SOL    HW1 9347   4.350   6.207   3.429
 2816SOL    HW2 9348   4.352   6.229   3.591
 2817SOL     OW 9349   1.309   1.096   1.462
 2817SOL    HW1 9350   1.366   1.085   1.544
 2817SOL    HW2 9351   1.365   1.081   1.380
 2818SOL     OW 9352   1.446   2.051   6.671
 2818SOL    HW1 9353   1.481   1.998   6.748
 2818SOL    HW2 9354   1.507   2.127   6.651
 2819SOL     OW 9355   6.357   3.498   2.113
 2819SOL    HW1 9356   6.288   3.438   2.074
 2819SOL    HW2 9357   6.313   3.570   2.167
 2820SOL     OW 9358   5.443   3.278   4.071
 2820SOL    HW1 9359   5.511   3.342   4.035
 2820SOL    HW2 9360   5.489   3.205   4.120
 2821SOL     OW 9361   1.527   3.536   2.734
 2821SOL    HW1 9362   1.600   3.477   2.699
 2821SOL    HW2 9363   1.522   3.619   2.679
 2822SOL     OW 9364   3.674   2.575   0.491
 2822SOL    HW1 9365   3.686   2.614   0.582
 2822SOL    HW2 9366   3.609   2.630   0.439
 2823SOL     OW 9367   1.196   0.638   4.277
 2823SOL    HW1 9368   1.096   0.649   4.276
 2823SOL    HW2 9369   1.231   0.653   4.184
 2824SOL     OW 9370   3.827   2.916   5.940
 2824SOL    HW1 9371   3.851   2.834   5.888
 2824SOL    HW2 9372   3.771   2.890   6.019
 2825SOL     OW 9373   5.568   6.157   1.162
 2825SOL    HW1 9374   5.613   6.182   1.248
 2825SOL    HW2 9375   5.626   6.095   1.110
 2826SOL     OW 9376   5.504   3.950   5.045
 2826SOL    HW1 9377   5.532   3.873   5.102
 2826SOL    HW2 9378   5.433   3.919   4.981
 2827SOL     OW 9379   0.275   6.838   6.079
 2827SOL    HW1 9380   0.296   6.866   6.173
 2827SOL    HW2 9381   0.306   6.745   6.063
 2828SOL     OW 9382   3.389   2.274   6.137
 2828SOL    HW1 9383   3.348   2.185   6.120
 2828SOL    HW2 9384   3.428   2.310   6.053
 2829SOL     OW 9385   2.773   1.455   7.000
 2829SOL    HW1 9386   2.802   1.380   6.941
 2829SOL    HW2 9387   2.749   1.420   0.074
 2830SOL     OW 9388   3.400   3.933   0.219
 2830SOL    HW1 9389   3.372   3.940   0.315
 2830SOL    HW2 9390   3.331   3.883   0.167
 2831SOL     OW 9391   6.236   6.388   4.374
 2831SOL    HW1 9392   6.229   6.469   4.433
 2831SOL    HW2 9393   6.147   6.342   4.370
 2832SOL     OW 9394   0.553   0.778   2.444
 2832SOL    HW1 9395   0.515   0.753   2.534
 2832SOL    HW2 9396   0.653   0.782   2.451
 2833SOL     OW 9397   5.540   2.770   2.745
 2833SOL    HW1 9398   5.541   2.765   2.845
 2833SOL    HW2 9399   5.580   2.687   2.707
 2834SOL     OW 9400   4.531   1.182   4.853
 2834SOL    HW1 9401   4.619   1.147   4.819
 2834SOL    HW2 9402   4.474   1.210   4.775
 2835SOL     OW 9403   5.966   6.426   2.956
 2835SOL    HW1 9404   5.887   6.473   2.995
 2835SOL    HW2 9405   6.003   6.360   3.022
 2836SOL     OW 9406   6.552   6.976   1.435
 2836SOL    HW1 9407   6.605   6.937   1.360
 2836SOL    HW2 9408   6.556   6.914   1.514
 2837SOL     OW 9409   5.941   1.997   3.950
 2837SOL    HW1 9410   5.862   2.057   3.960
 2837SOL    HW2 9411   5.991   2.019   3.866
 2838SOL     OW 9412   1.823   4.973   3.975
 2838SOL    HW1 9413   1.737   4.974   4.026
 2838SOL    HW2 9414   1.896   5.011   4.032
 2839SOL     OW 9415   5.154   3.065   1.397
 2839SOL    HW1 9416   5.130   2.991   1.335
 2839SOL    HW2 9417   5.097   3.060   1.479
 2840SOL     OW 9418   0.753   2.711   5.196
 2840SOL    HW1 9419   0.721   2.707   5.291
 2840SOL    HW2 9420   0.778   2.619   5.166
 2841SOL     OW 9421   0.082   5.909   0.021
 2841SOL    HW1 9422   0.075   5.827   6.980
 2841SOL    HW2 9423   0.048   5.888   0.113
 2842SOL     OW 9424   5.172   3.212   2.612
 2842SOL    HW1 9425   5.084   3.260   2.621
 2842SOL    HW2 9426   5.163   3.138   2.545
 2843SOL     OW 9427   3.782   0.389   3.623
 2843SOL    HW1 9428   3.797   0.440   3.538
 2843SOL    HW2 9429   3.722   0.312   3.606
 2844SOL     OW 9430   1.255   4.105   5.043
 2844SOL    HW1 9431   1.315   4.170   5.090
 2844SOL    HW2 9432   1.248   4.021   5.097
 2845SOL     OW 9433   0.632   4.228   6.425
 2845SOL    HW1 9434   0.688   4.286   6.485
 2845SOL    HW2 9435   0.535   4.242   6.446
 2846SOL     OW 9436   5.372   0.889   5.785
 2846SOL    HW1 9437   5.282   0.871   5.747
 2846SOL    HW2 9438   5.374   0.861   5.881
 2847SOL     OW 9439   4.080   4.933   4.431
 2847SOL    HW1 9440   4.021   4.968   4.359
 2847SOL    HW2 9441   4.051   4.970   4.519
 2848SOL     OW 9442   1.960   0.015   5.994
 2848SOL    HW1 9443   2.029   6.960   5.982
 2848SOL    HW2 9444   1.876   6.991   6.030
 2849SOL     OW 9445   2.372   2.540   1.259
 2849SOL    HW1 9446   2.301   2.607   1.238
 2849SOL    HW2 9447   2.442   2.584   1.315
 2850SOL     OW 9448   4.298   1.553   0.448
 2850SOL    HW1 9449   4.351   1.489   0.392
 2850SOL    HW2 9450   4.319   1.538   0.544
 2851SOL     OW 9451   3.463   5.973   5.225
 2851SOL    HW1 9452   3.557   5.949   5.246
 2851SOL    HW2 9453   3.426   6.030   5.299
 2852SOL     OW 9454   0.093   2.087   6.688
 2852SOL    HW1 9455   0.127   1.993   6.682
 2852SOL    HW2 9456   0.149   2.146   6.629
 2853SOL     OW 9457   3.870   2.847   1.360
 2853SOL    HW1 9458   3.812   2.896   1.426
 2853SOL    HW2 9459   3.840   2.869   1.267
 2854SOL     OW 9460   0.438   1.376   3.817
 2854SOL    HW1 9461   0.440   1.286   3.861
 2854SOL    HW2 9462   0.473   1.369   3.724
 2855SOL     OW 9463   3.101   1.597   3.693
 2855SOL    HW1 9464   3.138   1.603   3.785
 2855SOL    HW2 9465   3.011   1.642   3.690
 2856SOL     OW 9466   3.246   1.189   5.263
 2856SOL    HW1 9467   3.325   1.225   5.314
 2856SOL    HW2 9468   3.244   1.230   5.172
 2857SOL     OW 9469   3.012   3.306   5.400
 2857SOL    HW1 9470   3.100   3.276   5.436
 2857SOL    HW2 9471   2.938   3.270   5.458
 2858SOL     OW 9472   5.255   2.721   3.138
 2858SOL    HW1 9473   5.254   2.625   3.165
 2858SOL    HW2 9474   5.219   2.777   3.214
 2859SOL     OW 9475   6.024   5.128   6.930
 2859SOL    HW1 9476   6.120   5.122   6.957
 2859SOL    HW2 9477   5.996   5.043   6.885
 2860SOL     OW 9478   4.391   2.145   0.865
 2860SOL    HW1 9479   4.439   2.206   0.929
 2860SOL    HW2 9480   4.401   2.181   0.772
 2861SOL     OW 9481   4.743   4.215   5.852
 2861SOL    HW1 9482   4.738   4.149   5.928
 2861SOL    HW2 9483   4.739   4.308   5.889
 2862SOL     OW 9484   6.805   6.478   3.519
 2862SOL    HW1 9485   6.842   6.412   3.454
 2862SOL    HW2 9486   6.865   6.558   3.523
 2863SOL     OW 9487   6.159   6.338   6.971
 2863SOL    HW1 9488   6.180   6.272   0.027
 2863SOL    HW2 9489   6.069   6.378   6.989
 2864SOL     OW 9490   4.198   2.221   0.247
 2864SOL    HW1 9491   4.228   2.184   0.335
 2864SOL    HW2 9492   4.222   2.318   0.242
 2865SOL     OW 9493   4.931   4.812   5.186
 2865SOL    HW1 9494   4.992   4.869   5.130
 2865SOL    HW2 9495   4.859   4.773   5.128
 2866SOL     OW 9496   0.808   0.322   6.448
 2866SOL    HW1 9497   0.830   0.375   6.366
 2866SOL    HW2 9498   0.853   0.232   6.443
 2867SOL     OW 9499   6.329   4.089   4.737
 2867SOL    HW1 9500   6.285   4.147   4.668
 2867SOL    HW2 9501   6.423   4.118   4.750
 2868SOL     OW 9502   2.067   5.117   4.909
 2868SOL    HW1 9503   2.056   5.111   5.008
 2868SOL    HW2 9504   2.111   5.033   4.875
 2869SOL     OW 9505   6.062   1.583   2.599
 2869SOL    HW1 9506   6.073   1.571   2.500
 2869SOL    HW2 9507   6.075   1.494   2.644
 2870SOL     OW 9508   4.485   1.921   1.552
 2870SOL    HW1 9509   4.463   1.824   1.562
 2870SOL    HW2 9510   4.552   1.932   1.479
 2871SOL     OW 9511   1.328   1.310   5.751
 2871SOL    HW1 9512   1.390   1.377   5.792
 2871SOL    HW2 9513   1.342   1.308   5.652
 2872SOL     OW 9514   1.295   0.620   3.758
 2872SOL    HW1 9515   1.372   0.605   3.697
 2872SOL    HW2 9516   1.218   0.562   3.731
 2873SOL     OW 9517   6.217   4.996   2.354
 2873SOL    HW1 9518   6.138   5.057   2.350
 2873SOL    HW2 9519   6.278   5.025   2.427
 2874SOL     OW 9520   5.446   1.781   1.739
 2874SOL    HW1 9521   5.467   1.717   1.665
 2874SOL    HW2 9522   5.437   1.731   1.825
 2875SOL     OW 9523   2.705   5.236   0.440
 2875SOL    HW1 9524   2.732   5.187   0.356
 2875SOL    HW2 9525   2.608   5.260   0.434
 2876SOL     OW 9526   5.849   1.821   1.633
 2876SOL    HW1 9527   5.798   1.736   1.621
 2876SOL    HW2 9528   5.845   1.874   1.548
 2877SOL     OW 9529   1.490   3.673   5.320
 2877SOL    HW1 9530   1.529   3.698   5.231
 2877SOL    HW2 9531   1.551   3.610   5.366
 2878SOL     OW 9532   4.855   4.964   0.669
 2878SOL    HW1 9533   4.922   4.982   0.742
 2878SOL    HW2 9534   4.901   4.916   0.594
 2879SOL     OW 9535   5.201   4.608   6.896
 2879SOL    HW1 9536   5.119   4.663   6.882
 2879SOL    HW2 9537   5.182   4.513   6.871
 2880SOL     OW 9538   1.554   6.817   3.599
 2880SOL    HW1 9539   1.537   6.719   3.586
 2880SOL    HW2 9540   1.617   6.849   3.528
 2881SOL     OW 9541   6.771   0.272   0.212
 2881SOL    HW1 9542   6.837   0.234   0.148
 2881SOL    HW2 9543   6.755   0.368   0.190
 2882SOL     OW 9544   6.632   4.266   3.385
 2882SOL    HW1 9545   6.614   4.309   3.474
 2882SOL    HW2 9546   6.610   4.331   3.312
 2883SOL     OW 9547   3.382   6.873   2.418
 2883SOL    HW1 9548   3.447   6.806   2.382
 2883SOL    HW2 9549   3.298   6.870   2.364
 2884SOL     OW 9550   2.150   5.033   3.023
 2884SOL    HW1 9551   2.138   5.112   3.083
 2884SOL    HW2 9552   2.233   4.984   3.049
 2885SOL     OW 9553   1.070   2.342   4.689
 2885SOL    HW1 9554   1.169   2.327   4.699
 2885SOL    HW2 9555   1.042   2.319   4.596
 2886SOL     OW 9556   2.634   2.732   6.354
 2886SOL    HW1 9557   2.602   2.803   6.416
 2886SOL    HW2 9558   2.695   2.772   6.285
 2887SOL     OW 9559   2.845   0.208   5.344
 2887SOL    HW1 9560   2.874   0.298   5.311
 2887SOL    HW2 9561   2.912   0.172   5.408
 2888SOL     OW 9562   0.236   5.624   6.975
 2888SOL    HW1 9563   0.297   5.565   6.921
 2888SOL    HW2 9564   0.158   5.651   6.919
 2889SOL     OW 9565   1.490   0.848   0.827
 2889SOL    HW1 9566   1.516   0.793   0.906
 2889SOL    HW2 9567   1.489   0.791   0.745
 2890SOL     OW 9568   2.418   0.485   0.333
 2890SOL    HW1 9569   2.366   0.487   0.419
 2890SOL    HW2 9570   2.379   0.551   0.269
 2891SOL     OW 9571   3.145   4.761   5.209
 2891SOL    HW1 9572   3.085   4.689   5.175
 2891SOL    HW2 9573   3.093   4.825   5.265
 2892SOL     OW 9574   4.060   3.980   5.212
 2892SOL    HW1 9575   4.137   4.045   5.218
 2892SOL    HW2 9576   4.096   3.887   5.207
 2893SOL     OW 9577   2.921   0.431   5.198
 2893SOL    HW1 9578   2.912   0.395   5.105
 2893SOL    HW2 9579   2.945   0.528   5.194
 2894SOL     OW 9580   4.031   3.218   2.375
 2894SOL    HW1 9581   4.061   3.263   2.290
 2894SOL    HW2 9582   4.078   3.259   2.453
 2895SOL     OW 9583   3.873   2.594   0.051
 2895SOL    HW1 9584   3.933   2.580   6.989
 2895SOL    HW2 9585   3.782   2.557   0.031
 2896SOL     OW 9586   0.987   4.771   6.891
 2896SOL    HW1 9587   1.070   4.777   6.946
 2896SOL    HW2 9588   1.011   4.763   6.795
 2897SOL     OW 9589   0.085   0.006   3.124
 2897SOL    HW1 9590   0.106   7.007   3.220
 2897SOL    HW2 9591   0.154   6.978   3.067
 2898SOL     OW 9592   1.965   5.327   2.633
 2898SOL    HW1 9593   1.992   5.413   2.676
 2898SOL    HW2 9594   1.931   5.263   2.703
 2899SOL     OW 9595   5.695   0.846   0.967
 2899SOL    HW1 9596   5.753   0.855   0.886
 2899SOL    HW2 9597   5.745   0.876   1.048
 2900SOL     OW 9598   2.455   5.501   6.734
 2900SOL    HW1 9599   2.399   5.426   6.697
 2900SOL    HW2 9600   2.461   5.575   6.667
 2901SOL     OW 9601   2.831   6.782   1.425
 2901SOL    HW1 9602   2.853   6.862   1.480
 2901SOL    HW2 9603   2.910   6.758   1.368
 2902SOL     OW 9604   4.568   5.320   1.559
 2902SOL    HW1 9605   4.616   5.406   1.541
 2902SOL    HW2 9606   4.629   5.243   1.539
 2903SOL     OW 9607   3.163   2.502   1.713
 2903SOL    HW1 9608   3.080   2.487   1.767
 2903SOL    HW2 9609   3.230   2.431   1.735
 2904SOL     OW 9610   2.931   2.192   4.462
 2904SOL    HW1 9611   2.966   2.143   4.382
 2904SOL    HW2 9612   2.843   2.235   4.439
 2905SOL     OW 9613   1.032   2.503   1.866
 2905SOL    HW1 9614   1.070   2.436   1.930
 2905SOL    HW2 9615   1.006   2.586   1.916
 2906SOL     OW 9616   5.005   5.350   2.711
 2906SOL    HW1 9617   5.072   5.275   2.710
 2906SOL    HW2 9618   4.926   5.323   2.766
 2907SOL     OW 9619   5.755   0.094   4.809
 2907SOL    HW1 9620   5.657   0.089   4.826
 2907SOL    HW2 9621   5.771   0.104   4.710
 2908SOL     OW 9622   4.104   6.091   4.657
 2908SOL    HW1 9623   4.104   6.152   4.578
 2908SOL    HW2 9624   4.178   6.118   4.720
 2909SOL     OW 9625   2.248   5.866   6.211
 2909SOL    HW1 9626   2.259   5.782   6.158
 2909SOL    HW2 9627   2.150   5.883   6.225
 2910SOL     OW 9628   3.929   5.258   5.169
 2910SOL    HW1 9629   3.997   5.289   5.235
 2910SOL    HW2 9630   3.887   5.173   5.201
 2911SOL     OW 9631   2.523   4.713   2.921
 2911SOL    HW1 9632   2.576   4.707   3.005
 2911SOL    HW2 9633   2.585   4.730   2.844
 2912SOL     OW 9634   2.879   5.050   1.222
 2912SOL    HW1 9635   2.848   5.085   1.310
 2912SOL    HW2 9636   2.856   5.115   1.150
 2913SOL     OW 9637   0.150   2.846   1.509
 2913SOL    HW1 9638   0.134   2.877   1.415
 2913SOL    HW2 9639   0.123   2.917   1.573
 2914SOL     OW 9640   5.308   4.499   6.418
 2914SOL    HW1 9641   5.320   4.400   6.419
 2914SOL    HW2 9642   5.210   4.520   6.416
 2915SOL     OW 9643   4.631   1.010   3.123
 2915SOL    HW1 9644   4.621   1.073   3.200
 2915SOL    HW2 9645   4.725   1.013   3.089
 2916SOL     OW 9646   5.048   0.604   4.199
 2916SOL    HW1 9647   5.118   0.601   4.128
 2916SOL    HW2 9648   4.957   0.614   4.157
 2917SOL     OW 9649   4.027   0.508   2.431
 2917SOL    HW1 9650   3.978   0.579   2.483
 2917SOL    HW2 9651   3.961   0.441   2.397
 2918SOL     OW 9652   1.374   3.229   4.792
 2918SOL    HW1 9653   1.291   3.247   4.846
 2918SOL    HW2 9654   1.449   3.285   4.827
 2919SOL     OW 9655   5.689   5.352   0.498
 2919SOL    HW1 9656   5.675   5.287   0.572
 2919SOL    HW2 9657   5.693   5.302   0.411
 2920SOL     OW 9658   4.370   1.416   2.678
 2920SOL    HW1 9659   4.299   1.460   2.734
 2920SOL    HW2 9660   4.443   1.481   2.659
 2921SOL     OW 9661   6.640   1.050   0.052
 2921SOL    HW1 9662   6.687   1.097   6.994
 2921SOL    HW2 9663   6.670   1.087   0.139
 2922SOL     OW 9664   4.904   0.483   4.401
 2922SOL    HW1 9665   4.975   0.529   4.347
 2922SOL    HW2 9666   4.820   0.476   4.348
 2923SOL     OW 9667   0.235   4.374   0.492
 2923SOL    HW1 9668   0.228   4.471   0.468
 2923SOL    HW2 9669   0.268   4.323   0.412
 2924SOL     OW 9670   6.060   6.558   6.473
 2924SOL    HW1 9671   6.088   6.649   6.443
 2924SOL    HW2 9672   6.115   6.531   6.552
 2925SOL     OW 9673   6.499   4.527   0.562
 2925SOL    HW1 9674   6.563   4.465   0.608
 2925SOL    HW2 9675   6.536   4.554   0.473
 2926SOL     OW 9676   0.219   1.552   2.815
 2926SOL    HW1 9677   0.314   1.580   2.830
 2926SOL    HW2 9678   0.184   1.597   2.733
 2927SOL     OW 9679   6.737   3.005   2.672
 2927SOL    HW1 9680   6.671   3.080   2.670
 2927SOL    HW2 9681   6.770   2.991   2.765
 2928SOL     OW 9682   5.318   6.186   0.926
 2928SOL    HW1 9683   5.327   6.111   0.861
 2928SOL    HW2 9684   5.342   6.153   1.018
 2929SOL     OW 9685   6.883   0.812   5.651
 2929SOL    HW1 9686   6.850   0.747   5.584
 2929SOL    HW2 9687   6.895   0.766   5.739
 2930SOL     OW 9688   2.329   0.008   4.158
 2930SOL    HW1 9689   2.294   6.989   4.245
 2930SOL    HW2 9690   2.350   0.106   4.168
 2931SOL     OW 9691   4.751   4.519   6.430
 2931SOL    HW1 9692   4.751   4.429   6.386
 2931SOL    HW2 9693   4.702   4.584   6.373
 2932SOL     OW 9694   0.706   4.896   1.836
 2932SOL    HW1 9695   0.716   4.829   1.910
 2932SOL    HW2 9696   0.737   4.986   1.868
 2933SOL     OW 9697   4.713   2.353   3.165
 2933SOL    HW1 9698   4.623   2.395   3.151
 2933SOL    HW2 9699   4.781   2.425   3.177
 2934SOL     OW 9700   1.771   1.134   1.779
 2934SOL    HW1 9701   1.801   1.197   1.850
 2934SOL    HW2 9702   1.690   1.172   1.734
 2935SOL     OW 9703   0.277   1.223   1.305
 2935SOL    HW1 9704   0.217   1.301   1.325
 2935SOL    HW2 9705   0.236   1.139   1.340
 2936SOL     OW 9706   4.189   4.809   1.506
 2936SOL    HW1 9707   4.122   4.751   1.552
 2936SOL    HW2 9708   4.192   4.899   1.550
 2937SOL     OW 9709   2.449   4.351   0.480
 2937SOL    HW1 9710   2.389   4.314   0.551
 2937SOL    HW2 9711   2.543   4.353   0.513
 2938SOL     OW 9712   4.433   5.606   0.025
 2938SOL    HW1 9713   4.514   5.620   6.985
 2938SOL    HW2 9714   4.352   5.634   6.991
 2939SOL     OW 9715   6.778   6.359   6.457
 2939SOL    HW1 9716   6.771   6.324   6.551
 2939SOL    HW2 9717   6.713   6.310   6.399
 2940SOL     OW 9718   3.534   0.072   5.395
 2940SOL    HW1 9719   3.624   0.057   5.356
 2940SOL    HW2 9720   3.530   0.164   5.436
 2941SOL     OW 9721   3.940   0.992   5.482
 2941SOL    HW1 9722   3.898   1.058   5.543
 2941SOL    HW2 9723   3.874   0.963   5.413
 2942SOL     OW 9724   3.118   6.709   3.781
 2942SOL    HW1 9725   3.210   6.736   3.750
 2942SOL    HW2 9726   3.121   6.618   3.820
 2943SOL     OW 9727   5.451   4.564   3.023
 2943SOL    HW1 9728   5.549   4.583   3.024
 2943SOL    HW2 9729   5.415   4.566   3.116
 2944SOL     OW 9730   5.288   5.532   0.637
 2944SOL    HW1 9731   5.280   5.465   0.564
 2944SOL    HW2 9732   5.261   5.622   0.602
 2945SOL     OW 9733   3.624   3.894   4.631
 2945SOL    HW1 9734   3.581   3.972   4.675
 2945SOL    HW2 9735   3.625   3.907   4.532
 2946SOL     OW 9736   1.338   6.092   5.180
 2946SOL    HW1 9737   1.321   6.036   5.099
 2946SOL    HW2 9738   1.265   6.160   5.190
 2947SOL     OW 9739   6.995   5.247   6.852
 2947SOL    HW1 9740   6.921   5.263   6.788
 2947SOL    HW2 9741   6.976   5.293   6.939
 2948SOL     OW 9742   6.404   3.205   5.215
 2948SOL    HW1 9743   6.478   3.225   5.150
 2948SOL    HW2 9744   6.384   3.107   5.214
 2949SOL     OW 9745   0.821   6.761   1.005
 2949SOL    HW1 9746   0.806   6.837   0.942
 2949SOL    HW2 9747   0.770   6.681   0.973
 2950SOL     OW 9748   5.152   3.709   4.933
 2950SOL    HW1 9749   5.235   3.759   4.911
 2950SOL    HW2 9750   5.077   3.743   4.875
 2951SOL     OW 9751   6.536   0.382   0.074
 2951SOL    HW1 9752   6.572   0.319   0.143
 2951SOL    HW2 9753   6.572   0.474   0.091
 2952SOL     OW 9754   0.669   3.738   2.028
 2952SOL    HW1 9755   0.689   3.800   1.953
 2952SOL    HW2 9756   0.664   3.644   1.994
 2953SOL     OW 9757   5.947   1.631   1.932
 2953SOL    HW1 9758   5.899   1.661   2.015
 2953SOL    HW2 9759   5.892   1.655   1.852
 2954SOL     OW 9760   4.765   6.326   2.005
 2954SOL    HW1 9761   4.705   6.406   2.015
 2954SOL    HW2 9762   4.849   6.342   2.056
 2955SOL     OW 9763   5.719   1.589   1.581
 2955SOL    HW1 9764   5.672   1.541   1.655
 2955SOL    HW2 9765   5.808   1.548   1.566
 2956SOL     OW 9766   5.367   5.666   3.283
 2956SOL    HW1 9767   5.460   5.701   3.283
 2956SOL    HW2 9768   5.324   5.686   3.195
 2957SOL     OW 9769   1.351   4.867   1.633
 2957SOL    HW1 9770   1.368   4.896   1.539
 2957SOL    HW2 9771   1.312   4.775   1.632
 2958SOL     OW 9772   2.450   4.967   6.453
 2958SOL    HW1 9773   2.474   5.058   6.419
 2958SOL    HW2 9774   2.369   4.973   6.512
 2959SOL     OW 9775   3.348   5.629   6.888
 2959SOL    HW1 9776   3.390   5.648   6.977
 2959SOL    HW2 9777   3.420   5.605   6.822
 2960SOL     OW 9778   3.049   1.521   6.989
 2960SOL    HW1 9779   2.959   1.525   0.016
 2960SOL    HW2 9780   3.046   1.565   6.900
 2961SOL     OW 9781   5.305   0.947   4.006
 2961SOL    HW1 9782   5.226   1.002   3.978
 2961SOL    HW2 9783   5.366   0.934   3.928
 2962SOL     OW 9784   4.274   0.193   2.294
 2962SOL    HW1 9785   4.249   0.145   2.378
 2962SOL    HW2 9786   4.244   0.288   2.300
 2963SOL     OW 9787   2.249   2.944   4.805
 2963SOL    HW1 9788   2.198   3.030   4.806
 2963SOL    HW2 9789   2.319   2.945   4.875
 2964SOL     OW 9790   2.388   5.875   0.069
 2964SOL    HW1 9791   2.468   5.925   0.101
 2964SOL    HW2 9792   2.417   5.796   0.015
 2965SOL     OW 9793   1.180   2.905   5.983
 2965SOL    HW1 9794   1.264   2.959   5.988
 2965SOL    HW2 9795   1.113   2.940   6.049
 2966SOL     OW 9796   4.352   5.109   2.610
 2966SOL    HW1 9797   4.396   5.019   2.616
 2966SOL    HW2 9798   4.379   5.164   2.689
 2967SOL     OW 9799   5.818   2.931   4.169
 2967SOL    HW1 9800   5.806   2.840   4.130
 2967SOL    HW2 9801   5.831   2.924   4.268
 2968SOL     OW 9802   6.553   4.524   4.380
 2968SOL    HW1 9803   6.459   4.543   4.353
 2968SOL    HW2 9804   6.595   4.461   4.314
 2969SOL     OW 9805   3.691   1.502   5.043
 2969SOL    HW1 9806   3.631   1.503   4.963
 2969SOL    HW2 9807   3.671   1.582   5.101
 2970SOL     OW 9808   0.992   4.186   6.166
 2970SOL    HW1 9809   0.976   4.104   6.112
 2970SOL    HW2 9810   0.959   4.172   6.260
 2971SOL     OW 9811   5.734   2.817   1.842
 2971SOL    HW1 9812   5.659   2.835   1.778
 2971SOL    HW2 9813   5.779   2.731   1.817
 2972SOL     OW 9814   0.486   4.297   4.408
 2972SOL    HW1 9815   0.563   4.324   4.466
 2972SOL    HW2 9816   0.416   4.367   4.410
 2973SOL     OW 9817   5.817   6.920   4.179
 2973SOL    HW1 9818   5.873   6.839   4.160
 2973SOL    HW2 9819   5.853   6.998   4.128
 2974SOL     OW 9820   6.167   3.891   1.238
 2974SOL    HW1 9821   6.184   3.915   1.142
 2974SOL    HW2 9822   6.077   3.926   1.266
 2975SOL     OW 9823   6.283   1.713   3.982
 2975SOL    HW1 9824   6.206   1.735   3.922
 2975SOL    HW2 9825   6.322   1.797   4.020
 2976SOL     OW 9826   2.502   5.576   0.866
 2976SOL    HW1 9827   2.559   5.642   0.916
 2976SOL    HW2 9828   2.446   5.624   0.799
 2977SOL     OW 9829   2.281   7.007   3.182
 2977SOL    HW1 9830   2.281   6.926   3.123
 2977SOL    HW2 9831   2.236   6.984   3.268
 2978SOL     OW 9832   2.106   0.290   6.506
 2978SOL    HW1 9833   2.201   0.323   6.499
 2978SOL    HW2 9834   2.076   0.257   6.416
 2979SOL     OW 9835   2.635   1.178   3.352
 2979SOL    HW1 9836   2.660   1.274   3.368
 2979SOL    HW2 9837   2.691   1.141   3.278
 2980SOL     OW 9838   5.779   0.256   3.327
 2980SOL    HW1 9839   5.828   0.296   3.250
 2980SOL    HW2 9840   5.736   0.171   3.298
 2981SOL     OW 9841   1.229   0.943   5.765
 2981SOL    HW1 9842   1.178   1.029   5.765
 2981SOL    HW2 9843   1.297   0.945   5.839
 2982SOL     OW 9844   5.027   5.740   2.089
 2982SOL    HW1 9845   5.106   5.791   2.121
 2982SOL    HW2 9846   5.044   5.706   1.997
 2983SOL     OW 9847   0.687   1.448   2.818
 2983SOL    HW1 9848   0.658   1.412   2.907
 2983SOL    HW2 9849   0.641   1.398   2.745
 2984SOL     OW 9850   6.439   4.133   1.749
 2984SOL    HW1 9851   6.524   4.167   1.710
 2984SOL    HW2 9852   6.460   4.064   1.819
 2985SOL     OW 9853   6.536   2.341   2.835
 2985SOL    HW1 9854   6.492   2.257   2.806
 2985SOL    HW2 9855   6.578   2.328   2.924
 2986SOL     OW 9856   1.944   3.343   4.461
 2986SOL    HW1 9857   1.950   3.419   4.526
 2986SOL    HW2 9858   1.875   3.364   4.391
 2987SOL     OW 9859   5.359   1.772   4.882
 2987SOL    HW1 9860   5.421   1.695   4.899
 2987SOL    HW2 9861   5.270   1.753   4.923
 2988SOL     OW 9862   0.604   1.308   2.589
 2988SOL    HW1 9863   0.547   1.383   2.555
 2988SOL    HW2 9864   0.547   1.227   2.602
 2989SOL     OW 9865   6.987   5.137   0.571
 2989SOL    HW1 9866   6.912   5.144   0.637
 2989SOL    HW2 9867   0.058   5.143   0.620
 2990SOL     OW 9868   2.662   1.388   1.194
 2990SOL    HW1 9869   2.742   1.421   1.144
 2990SOL    HW2 9870   2.685   1.375   1.290
 2991SOL     OW 9871   5.880   4.438   0.193
 2991SOL    HW1 9872   5.854   4.509   0.127
 2991SOL    HW2 9873   5.958   4.387   0.158
 2992SOL     OW 9874   4.006   4.815   6.626
 2992SOL    HW1 9875   3.948   4.888   6.590
 2992SOL    HW2 9876   3.981   4.797   6.721
 2993SOL     OW 9877   1.120   4.139   0.193
 2993SOL    HW1 9878   1.032   4.096   0.216
 2993SOL    HW2 9879   1.194   4.091   0.240
 2994SOL     OW 9880   4.213   6.708   6.482
 2994SOL    HW1 9881   4.121   6.741   6.461
 2994SOL    HW2 9882   4.273   6.785   6.501
 2995SOL     OW 9883   2.707   0.720   5.413
 2995SOL    HW1 9884   2.630   0.776   5.445
 2995SOL    HW2 9885   2.727   0.649   5.480
 2996SOL     OW 9886   4.598   6.344   6.056
 2996SOL    HW1 9887   4.530   6.418   6.050
 2996SOL    HW2 9888   4.690   6.383   6.052
 2997SOL     OW 9889   3.748   5.605   0.439
 2997SOL    HW1 9890   3.668   5.660   0.416
 2997SOL    HW2 9891   3.823   5.665   0.468
 2998SOL     OW 9892   6.458   4.018   6.217
 2998SOL    HW1 9893   6.433   4.032   6.312
 2998SOL    HW2 9894   6.552   4.047   6.202
 2999SOL     OW 9895   2.876   1.566   1.436
 2999SOL    HW1 9896   2.805   1.495   1.441
 2999SOL    HW2 9897   2.939   1.555   1.513
 3000SOL     OW 9898   1.504   1.936   5.123
 3000SOL    HW1 9899   1.488   1.944   5.024
 3000SOL    HW2 9900   1.439   1.870   5.161
 3001SOL     OW 9901   4.697   5.809   5.981
 3001SOL    HW1 9902   4.676   5.829   5.886
 3001SOL    HW2 9903   4.792   5.778   5.989
 3002SOL     OW 9904   3.454   6.834   5.447
 3002SOL    HW1 9905   3.390   6.791   5.382
 3002SOL    HW2 9906   3.489   6.919   5.407
 3003SOL     OW 9907   1.554   0.435   5.522
 3003SOL    HW1 9908   1.645   0.470   5.545
 3003SOL    HW2 9909   1.484   0.496   5.558
 3004SOL     OW 9910   0.228   3.164   6.168
 3004SOL    HW1 9911   0.248   3.155   6.266
 3004SOL    HW2 9912   0.261   3.253   6.135
 3005SOL     OW 9913   4.895   2.068   0.712
 3005SOL    HW1 9914   4.837   2.055   0.632
 3005SOL    HW2 9915   4.840   2.107   0.787
 3006SOL     OW 9916   4.299   6.354   1.948
 3006SOL    HW1 9917   4.305   6.397   2.038
 3006SOL    HW2 9918   4.260   6.262   1.957
 3007SOL     OW 9919   5.546   5.540   1.530
 3007SOL    HW1 9920   5.587   5.616   1.480
 3007SOL    HW2 9921   5.612   5.502   1.595
 3008SOL     OW 9922   4.770   5.053   5.729
 3008SOL    HW1 9923   4.806   5.135   5.774
 3008SOL    HW2 9924   4.844   4.987   5.715
 3009SOL     OW 9925   1.777   0.317   1.861
 3009SOL    HW1 9926   1.755   0.351   1.770
 3009SOL    HW2 9927   1.694   0.279   1.903
 3010SOL     OW 9928   3.243   0.466   3.691
 3010SOL    HW1 9929   3.252   0.525   3.611
 3010SOL    HW2 9930   3.321   0.403   3.694
 3011SOL     OW 9931   5.244   0.358   0.242
 3011SOL    HW1 9932   5.226   0.417   0.164
 3011SOL    HW2 9933   5.164   0.300   0.260
 3012SOL     OW 9934   0.015   4.973   1.693
 3012SOL    HW1 9935   0.088   5.030   1.730
 3012SOL    HW2 9936   6.942   5.016   1.711
 3013SOL     OW 9937   5.617   4.658   1.691
 3013SOL    HW1 9938   5.678   4.723   1.646
 3013SOL    HW2 9939   5.640   4.653   1.789
 3014SOL     OW 9940   5.691   5.542   5.223
 3014SOL    HW1 9941   5.597   5.532   5.189
 3014SOL    HW2 9942   5.743   5.602   5.162
 3015SOL     OW 9943   3.179   1.267   0.315
 3015SOL    HW1 9944   3.155   1.301   0.406
 3015SOL    HW2 9945   3.249   1.326   0.275
 3016SOL     OW 9946   4.197   6.247   4.356
 3016SOL    HW1 9947   4.208   6.324   4.418
 3016SOL    HW2 9948   4.211   6.277   4.262
 3017SOL     OW 9949   0.895   6.683   2.254
 3017SOL    HW1 9950   0.871   6.590   2.282
 3017SOL    HW2 9951   0.987   6.684   2.217
 3018SOL     OW 9952   4.458   6.864   6.142
 3018SOL    HW1 9953   4.466   6.767   6.117
 3018SOL    HW2 9954   4.372   6.879   6.189
 3019SOL     OW 9955   4.811   0.693   1.590
 3019SOL    HW1 9956   4.824   0.742   1.676
 3019SOL    HW2 9957   4.735   0.628   1.600
 3020SOL     OW 9958   1.964   0.168   1.508
 3020SOL    HW1 9959   1.866   0.151   1.508
 3020SOL    HW2 9960   1.981   0.267   1.518
 3021SOL     OW 9961   4.113   0.501   6.091
 3021SOL    HW1 9962   4.087   0.418   6.141
 3021SOL    HW2 9963   4.107   0.580   6.151
 3022SOL     OW 9964   0.011   0.381   3.153
 3022SOL    HW1 9965   0.064   0.353   3.233
 3022SOL    HW2 9966   6.951   0.316   3.140
 3023SOL     OW 9967   5.778   0.396   1.756
 3023SOL    HW1 9968   5.871   0.392   1.721
 3023SOL    HW2 9969   5.716   0.350   1.692
 3024SOL     OW 9970   2.017   6.863   6.785
 3024SOL    HW1 9971   2.028   6.940   6.722
 3024SOL    HW2 9972   1.936   6.810   6.758
 3025SOL     OW 9973   2.115   2.549   2.268
 3025SOL    HW1 9974   2.187   2.480   2.274
 3025SOL    HW2 9975   2.151   2.631   2.224
 3026SOL     OW 9976   3.104   5.880   0.589
 3026SOL    HW1 9977   3.099   5.781   0.582
 3026SOL    HW2 9978   3.149   5.917   0.507
 3027SOL     OW 9979   1.409   2.198   4.088
 3027SOL    HW1 9980   1.339   2.162   4.028
 3027SOL    HW2 9981   1.399   2.298   4.096
 3028SOL     OW 9982   1.576   0.794   4.336
 3028SOL    HW1 9983   1.553   0.891   4.332
 3028SOL    HW2 9984   1.669   0.780   4.301
 3029SOL     OW 9985   6.586   4.922   5.822
 3029SOL    HW1 9986   6.603   5.016   5.852
 3029SOL    HW2 9987   6.599   4.859   5.899
 3030SOL     OW 9988   0.636   0.898   5.798
 3030SOL    HW1 9989   0.712   0.952   5.836
 3030SOL    HW2 9990   0.633   0.912   5.699
 3031SOL     OW 9991   6.859   5.563   5.885
 3031SOL    HW1 9992   6.799   5.611   5.949
 3031SOL    HW2 9993   6.835   5.589   5.792
 3032SOL     OW 9994   4.058   6.957   5.985
 3032SOL    HW1 9995   3.991   7.006   5.930
 3032SOL    HW2 9996   4.054   6.859   5.963
 3033SOL     OW 9997   5.035   4.310   6.143
 3033SOL    HW1 9998   5.128   4.285   6.116
 3033SOL    HW2 9999   4.973   4.235   6.123
 3034SOL     OW10000   2.689   6.730   5.148
 3034SOL    HW110001   2.710   6.636   5.175
 3034SOL    HW210002   2.600   6.757   5.184
 3035SOL     OW10003   5.915   6.475   0.048
 3035SOL    HW110004   5.835   6.447   0.099
 3035SOL    HW210005   5.977   6.525   0.108
 3036SOL     OW10006   0.457   5.107   5.711
 3036SOL    HW110007   0.422   5.160   5.788
 3036SOL    HW210008   0.381   5.082   5.651
 3037SOL     OW10009   5.104   6.228   6.344
 3037SOL    HW110010   5.128   6.139   6.303
 3037SOL    HW210011   5.045   6.213   6.423
 3038SOL     OW10012   5.818   5.883   5.421
 3038SOL    HW110013   5.851   5.805   5.475
 3038SOL    HW210014   5.740   5.925   5.467
 3039SOL     OW10015   0.568   4.590   0.721
 3039SOL    HW110016   0.540   4.494   0.709
 3039SOL    HW210017   0.558   4.615   0.817
 3040SOL     OW10018   2.665   0.891   0.390
 3040SOL    HW110019   2.633   0.807   0.435
 3040SOL    HW210020   2.719   0.945   0.455
 3041SOL     OW10021   1.783   2.014   6.061
 3041SOL    HW110022   1.838   2.070   6.000
 3041SOL    HW210023   1.797   1.917   6.040
 3042SOL     OW10024   5.292   0.331   1.046
 3042SOL    HW110025   5.336   0.367   0.963
 3042SOL    HW210026   5.324   0.237   1.061
 3043SOL     OW10027   0.370   4.680   6.706
 3043SOL    HW110028   0.318   4.703   6.789
 3043SOL    HW210029   0.361   4.754   6.639
 3044SOL     OW10030   2.547   2.937   6.736
 3044SOL    HW110031   2.492   2.955   6.654
 3044SOL    HW210032   2.498   2.972   6.817
 3045SOL     OW10033   4.680   2.560   4.388
 3045SOL    HW110034   4.774   2.530   4.404
 3045SOL    HW210035   4.656   2.631   4.454
 3046SOL     OW10036   2.967   2.427   5.561
 3046SOL    HW110037   2.982   2.487   5.482
 3046SOL    HW210038   2.895   2.464   5.619
 3047SOL     OW10039   6.615   5.133   1.885
 3047SOL    HW110040   6.693   5.101   1.938
 3047SOL    HW210041   6.614   5.233   1.884
 3048SOL     OW10042   3.342   2.872   2.184
 3048SOL    HW110043   3.271   2.913   2.127
 3048SOL    HW210044   3.419   2.843   2.126
 3049SOL     OW10045   1.004   0.816   0.597
 3049SOL    HW110046   1.023   0.732   0.647
 3049SOL    HW210047   0.917   0.806   0.548
 3050SOL     OW10048   1.439   0.549   4.303
 3050SOL    HW110049   1.339   0.549   4.302
 3050SOL    HW210050   1.474   0.635   4.266
 3051SOL     OW10051   3.052   4.969   5.493
 3051SOL    HW110052   2.983   4.913   5.538
 3051SOL    HW210053   3.138   4.964   5.545
 3052SOL     OW10054   4.769   6.206   2.720
 3052SOL    HW110055   4.864   6.234   2.712
 3052SOL    HW210056   4.763   6.126   2.780
 3053SOL     OW10057   3.734   6.249   1.927
 3053SOL    HW110058   3.655   6.265   1.987
 3053SOL    HW210059   3.777   6.337   1.906
 3054SOL     OW10060   1.663   4.590   5.090
 3054SOL    HW110061   1.585   4.531   5.110
 3054SOL    HW210062   1.732   4.539   5.039
 3055SOL     OW10063   6.212   6.737   2.398
 3055SOL    HW110064   6.179   6.782   2.481
 3055SOL    HW210065   6.212   6.638   2.413
 3056SOL     OW10066   4.815   0.705   2.565
 3056SOL    HW110067   4.820   0.796   2.607
 3056SOL    HW210068   4.896   0.652   2.589
 3057SOL     OW10069   0.187   4.860   2.418
 3057SOL    HW110070   0.146   4.923   2.483
 3057SOL    HW210071   0.158   4.766   2.439
 3058SOL     OW10072   5.947   6.735   1.284
 3058SOL    HW110073   5.948   6.821   1.233
 3058SOL    HW210074   6.039   6.695   1.284
 3059SOL     OW10075   2.573   2.407   6.739
 3059SOL    HW110076   2.559   2.506   6.749
 3059SOL    HW210077   2.671   2.387   6.738
 3060SOL     OW10078   0.192   6.067   6.575
 3060SOL    HW110079   0.220   6.093   6.667
 3060SOL    HW210080   0.172   6.149   6.522
 3061SOL     OW10081   6.589   0.726   5.803
 3061SOL    HW110082   6.548   0.769   5.722
 3061SOL    HW210083   6.675   0.683   5.778
 3062SOL     OW10084   3.517   5.194   6.361
 3062SOL    HW110085   3.470   5.219   6.277
 3062SOL    HW210086   3.458   5.210   6.440
 3063SOL     OW10087   3.029   6.292   1.115
 3063SOL    HW110088   3.125   6.321   1.113
 3063SOL    HW210089   3.020   6.209   1.170
 3064SOL     OW10090   6.848   4.827   3.060
 3064SOL    HW110091   6.849   4.744   3.004
 3064SOL    HW210092   6.814   4.805   3.152
 3065SOL     OW10093   3.377   1.951   1.595
 3065SOL    HW110094   3.459   1.961   1.538
 3065SOL    HW210095   3.404   1.945   1.691
 3066SOL     OW10096   5.848   5.230   0.949
 3066SOL    HW110097   5.862   5.154   0.886
 3066SOL    HW210098   5.908   5.219   1.029
 3067SOL     OW10099   4.089   0.016   3.013
 3067SOL    HW110100   4.169   6.973   3.013
 3067SOL    HW210101   4.059   0.031   2.918
 3068SOL     OW10102   6.227   4.256   6.807
 3068SOL    HW110103   6.304   4.251   6.871
 3068SOL    HW210104   6.194   4.351   6.803
 3069SOL     OW10105   1.069   5.064   3.149
 3069SOL    HW110106   1.123   5.031   3.071
 3069SOL    HW210107   1.128   5.114   3.211
 3070SOL     OW10108   4.757   1.913   3.744
 3070SOL    HW110109   4.777   1.820   3.776
 3070SOL    HW210110   4.788   1.923   3.650
 3071SOL     OW10111   5.806   0.514   3.722
 3071SOL    HW110112   5.802   0.419   3.693
 3071SOL    HW210113   5.902   0.544   3.726
 3072SOL     OW10114   0.009   0.979   1.580
 3072SOL    HW110115   6.973   1.059   1.552
 3072SOL    HW210116   6.988   0.897   1.536
 3073SOL     OW10117   1.571   1.483   5.161
 3073SOL    HW110118   1.533   1.538   5.235
 3073SOL    HW210119   1.620   1.542   5.098
 3074SOL     OW10120   4.684   3.806   5.743
 3074SOL    HW110121   4.627   3.888   5.738
 3074SOL    HW210122   4.768   3.821   5.692
 3075SOL     OW10123   0.035   4.930   1.405
 3075SOL    HW110124   0.070   4.935   1.498
 3075SOL    HW210125   6.971   4.871   1.403
 3076SOL     OW10126   0.664   0.919   5.514
 3076SOL    HW110127   0.761   0.896   5.509
 3076SOL    HW210128   0.610   0.837   5.495
 3077SOL     OW10129   4.184   4.735   3.434
 3077SOL    HW110130   4.271   4.688   3.437
 3077SOL    HW210131   4.163   4.762   3.340
 3078SOL     OW10132   2.367   2.956   0.917
 3078SOL    HW110133   2.457   2.997   0.926
 3078SOL    HW210134   2.358   2.912   0.828
 3079SOL     OW10135   5.297   3.218   5.852
 3079SOL    HW110136   5.228   3.171   5.797
 3079SOL    HW210137   5.350   3.280   5.794
 3080SOL     OW10138   5.970   0.256   2.067
 3080SOL    HW110139   5.976   0.165   2.108
 3080SOL    HW210140   5.909   0.314   2.122
 3081SOL     OW10141   0.832   4.783   5.920
 3081SOL    HW110142   0.855   4.825   5.832
 3081SOL    HW210143   0.849   4.684   5.915
 3082SOL     OW10144   3.733   6.593   2.688
 3082SOL    HW110145   3.644   6.587   2.732
 3082SOL    HW210146   3.785   6.510   2.707
 3083SOL     OW10147   3.892   6.753   2.527
 3083SOL    HW110148   3.871   6.717   2.436
 3083SOL    HW210149   3.839   6.703   2.595
 3084SOL     OW10150   4.790   6.976   4.100
 3084SOL    HW110151   4.718   6.965   4.032
 3084SOL    HW210152   4.787   0.053   4.137
 3085SOL     OW10153   0.992   4.873   2.418
 3085SOL    HW110154   0.932   4.853   2.341
 3085SOL    HW210155   1.071   4.812   2.416
 3086SOL     OW10156   6.186   1.334   4.535
 3086SOL    HW110157   6.192   1.310   4.631
 3086SOL    HW210158   6.092   1.362   4.514
 3087SOL     OW10159   5.815   3.374   1.107
 3087SOL    HW110160   5.883   3.334   1.168
 3087SOL    HW210161   5.732   3.319   1.110
 3088SOL     OW10162   2.973   3.731   6.543
 3088SOL    HW110163   3.045   3.800   6.548
 3088SOL    HW210164   3.011   3.642   6.572
 3089SOL     OW10165   3.247   2.229   1.829
 3089SOL    HW110166   3.249   2.160   1.902
 3089SOL    HW210167   3.340   2.243   1.795
 3090SOL     OW10168   6.238   1.566   1.102
 3090SOL    HW110169   6.235   1.473   1.138
 3090SOL    HW210170   6.179   1.625   1.157
 3091SOL     OW10171   2.156   6.221   6.721
 3091SOL    HW110172   2.217   6.256   6.650
 3091SOL    HW210173   2.084   6.166   6.679
 3092SOL     OW10174   4.301   4.951   6.915
 3092SOL    HW110175   4.335   4.881   6.853
 3092SOL    HW210176   4.297   4.915   7.008
 3093SOL     OW10177   4.474   6.624   2.972
 3093SOL    HW110178   4.423   6.539   2.985
 3093SOL    HW210179   4.508   6.656   3.060
 3094SOL     OW10180   3.915   5.605   4.433
 3094SOL    HW110181   3.912   5.536   4.361
 3094SOL    HW210182   3.847   5.582   4.503
 3095SOL     OW10183   1.963   5.364   4.872
 3095SOL    HW110184   2.045   5.412   4.842
 3095SOL    HW210185   1.985   5.269   4.893
 3096SOL     OW10186   0.717   2.076   6.061
 3096SOL    HW110187   0.728   2.072   5.961
 3096SOL    HW210188   0.723   2.171   6.090
 3097SOL     OW10189   1.721   0.660   6.736
 3097SOL    HW110190   1.803   0.603   6.726
 3097SOL    HW210191   1.748   0.756   6.741
 3098SOL     OW10192   3.898   3.045   0.648
 3098SOL    HW110193   3.995   3.070   0.648
 3098SOL    HW210194   3.878   2.986   0.725
 3099SOL     OW10195   1.331   5.917   5.683
 3099SOL    HW110196   1.251   5.882   5.731
 3099SOL    HW210197   1.410   5.917   5.745
 3100SOL     OW10198   6.178   7.015   6.338
 3100SOL    HW110199   6.155   0.084   6.292
 3100SOL    HW210200   6.268   0.008   6.382
 3101SOL     OW10201   2.971   0.670   1.216
 3101SOL    HW110202   2.925   0.758   1.224
 3101SOL    HW210203   2.954   0.631   1.125
 3102SOL     OW10204   0.978   6.134   0.932
 3102SOL    HW110205   1.015   6.182   0.853
 3102SOL    HW210206   1.046   6.070   0.968
 3103SOL     OW10207   4.254   4.359   1.629
 3103SOL    HW110208   4.294   4.314   1.709
 3103SOL    HW210209   4.156   4.374   1.644
 3104SOL     OW10210   5.739   6.025   3.440
 3104SOL    HW110211   5.779   5.974   3.516
 3104SOL    HW210212   5.799   6.020   3.361
 3105SOL     OW10213   5.714   5.846   3.986
 3105SOL    HW110214   5.636   5.909   3.987
 3105SOL    HW210215   5.796   5.895   4.015
 3106SOL     OW10216   6.779   3.348   4.447
 3106SOL    HW110217   6.874   3.381   4.445
 3106SOL    HW210218   6.774   3.259   4.404
 3107SOL     OW10219   2.477   6.775   4.168
 3107SOL    HW110220   2.445   6.829   4.091
 3107SOL    HW210221   2.417   6.697   4.183
 3108SOL     OW10222   1.824   6.917   2.698
 3108SOL    HW110223   1.916   6.904   2.736
 3108SOL    HW210224   1.762   6.850   2.739
 3109SOL     OW10225   4.170   5.414   3.708
 3109SOL    HW110226   4.154   5.509   3.679
 3109SOL    HW210227   4.127   5.399   3.796
 3110SOL     OW10228   0.501   2.759   1.737
 3110SOL    HW110229   0.474   2.788   1.645
 3110SOL    HW210230   0.518   2.839   1.793
 3111SOL     OW10231   0.290   4.967   2.165
 3111SOL    HW110232   0.266   4.982   2.261
 3111SOL    HW210233   0.232   4.895   2.127
 3112SOL     OW10234   3.328   3.262   6.121
 3112SOL    HW110235   3.364   3.203   6.048
 3112SOL    HW210236   3.342   3.219   6.210
 3113SOL     OW10237   4.021   0.185   3.897
 3113SOL    HW110238   4.031   0.096   3.853
 3113SOL    HW210239   3.967   0.175   3.981
 3114SOL     OW10240   5.324   5.337   0.830
 3114SOL    HW110241   5.268   5.324   0.913
 3114SOL    HW210242   5.288   5.413   0.777
 3115SOL     OW10243   3.403   3.155   2.721
 3115SOL    HW110244   3.311   3.176   2.687
 3115SOL    HW210245   3.403   3.065   2.765
 3116SOL     OW10246   0.310   1.414   6.799
 3116SOL    HW110247   0.378   1.392   6.869
 3116SOL    HW210248   0.307   1.341   6.730
 3117SOL     OW10249   3.185   4.221   6.425
 3117SOL    HW110250   3.260   4.265   6.474
 3117SOL    HW210251   3.098   4.252   6.463
 3118SOL     OW10252   6.291   5.104   0.052
 3118SOL    HW110253   6.222   5.061   0.111
 3118SOL    HW210254   6.374   5.120   0.105
 3119SOL     OW10255   2.150   4.087   6.967
 3119SOL    HW110256   2.207   4.004   6.968
 3119SOL    HW210257   2.071   4.072   6.908
 3120SOL     OW10258   2.622   5.297   6.883
 3120SOL    HW110259   2.688   5.273   6.812
 3120SOL    HW210260   2.572   5.379   6.854
 3121SOL     OW10261   6.710   6.050   3.652
 3121SOL    HW110262   6.801   6.028   3.688
 3121SOL    HW210263   6.718   6.094   3.563
 3122SOL     OW10264   3.443   6.076   1.470
 3122SOL    HW110265   3.424   6.081   1.568
 3122SOL    HW210266   3.358   6.070   1.419
 3123SOL     OW10267   3.103   6.986   3.664
 3123SOL    HW110268   3.076   6.889   3.662
 3123SOL    HW210269   3.071   0.015   3.581
 3124SOL     OW10270   3.926   6.649   5.613
 3124SOL    HW110271   4.016   6.606   5.607
 3124SOL    HW210272   3.898   6.682   5.523
 3125SOL     OW10273   6.910   2.076   5.804
 3125SOL    HW110274   6.880   2.159   5.757
 3125SOL    HW210275   7.010   2.079   5.817
 3126SOL     OW10276   3.955   5.979   6.458
 3126SOL    HW110277   4.018   6.057   6.461
 3126SOL    HW210278   3.982   5.912   6.527
 3127SOL     OW10279   0.909   1.127   4.114
 3127SOL    HW110280   0.916   1.055   4.183
 3127SOL    HW210281   0.920   1.087   4.023
 3128SOL     OW10282   1.876   0.953   1.196
 3128SOL    HW110283   1.895   1.043   1.158
 3128SOL    HW210284   1.962   0.902   1.205
 3129SOL     OW10285   1.526   3.740   2.557
 3129SOL    HW110286   1.451   3.752   2.492
 3129SOL    HW210287   1.563   3.829   2.583
 3130SOL     OW10288   2.633   5.516   2.906
 3130SOL    HW110289   2.673   5.482   2.821
 3130SOL    HW210290   2.576   5.596   2.886
 3131SOL     OW10291   0.679   3.293   3.586
 3131SOL    HW110292   0.583   3.269   3.571
 3131SOL    HW210293   0.728   3.213   3.620
 3132SOL     OW10294   4.543   3.594   5.635
 3132SOL    HW110295   4.591   3.676   5.665
 3132SOL    HW210296   4.598   3.513   5.657
 3133SOL     OW10297   2.091   1.577   3.908
 3133SOL    HW110298   2.123   1.490   3.944
 3133SOL    HW210299   2.087   1.644   3.982
 3134SOL     OW10300   5.518   1.972   1.563
 3134SOL    HW110301   5.529   2.059   1.610
 3134SOL    HW210302   5.505   1.899   1.630
 3135SOL     OW10303   1.217   2.795   3.066
 3135SOL    HW110304   1.199   2.796   2.968
 3135SOL    HW210305   1.138   2.758   3.115
 3136SOL     OW10306   6.692   0.633   4.698
 3136SOL    HW110307   6.624   0.636   4.625
 3136SOL    HW210308   6.712   0.726   4.729
 3137SOL     OW10309   0.659   1.582   4.324
 3137SOL    HW110310   0.594   1.515   4.288
 3137SOL    HW210311   0.670   1.567   4.423
 3138SOL     OW10312   6.407   2.228   4.345
 3138SOL    HW110313   6.428   2.223   4.442
 3138SOL    HW210314   6.451   2.309   4.306
 3139SOL     OW10315   5.339   5.721   5.362
 3139SOL    HW110316   5.356   5.781   5.284
 3139SOL    HW210317   5.292   5.773   5.433
 3140SOL     OW10318   6.240   6.171   5.624
 3140SOL    HW110319   6.289   6.213   5.701
 3140SOL    HW210320   6.219   6.241   5.556
 3141SOL     OW10321   1.039   0.573   1.780
 3141SOL    HW110322   0.971   0.507   1.809
 3141SOL    HW210323   1.093   0.536   1.704
 3142SOL     OW10324   3.596   0.062   1.045
 3142SOL    HW110325   3.680   0.100   1.007
 3142SOL    HW210326   3.551   0.006   0.975
 3143SOL     OW10327   0.239   1.604   0.583
 3143SOL    HW110328   0.291   1.641   0.506
 3143SOL    HW210329   0.287   1.624   0.669
 3144SOL     OW10330   2.855   2.958   0.222
 3144SOL    HW110331   2.799   2.931   0.144
 3144SOL    HW210332   2.947   2.919   0.212
 3145SOL     OW10333   1.819   5.275   2.389
 3145SOL    HW110334   1.817   5.358   2.334
 3145SOL    HW210335   1.847   5.299   2.483
 3146SOL     OW10336   2.223   6.950   4.411
 3146SOL    HW110337   2.310   6.908   4.437
 3146SOL    HW210338   2.151   6.881   4.413
 3147SOL     OW10339   4.233   4.223   0.926
 3147SOL    HW110340   4.154   4.199   0.870
 3147SOL    HW210341   4.246   4.154   0.997
 3148SOL     OW10342   2.821   5.834   4.652
 3148SOL    HW110343   2.741   5.829   4.591
 3148SOL    HW210344   2.822   5.754   4.711
 3149SOL     OW10345   1.828   6.482   5.750
 3149SOL    HW110346   1.820   6.527   5.661
 3149SOL    HW210347   1.760   6.409   5.757
 3150SOL     OW10348   6.276   0.515   4.838
 3150SOL    HW110349   6.311   0.609   4.841
 3150SOL    HW210350   6.305   0.466   4.920
 3151SOL     OW10351   3.828   6.571   1.829
 3151SOL    HW110352   3.772   6.637   1.879
 3151SOL    HW210353   3.923   6.601   1.827
 3152SOL     OW10354   1.583   4.851   6.552
 3152SOL    HW110355   1.664   4.906   6.574
 3152SOL    HW210356   1.559   4.865   6.456
 3153SOL     OW10357   0.264   3.878   3.200
 3153SOL    HW110358   0.266   3.928   3.113
 3153SOL    HW210359   0.207   3.797   3.190
 3154SOL     OW10360   6.181   2.465   6.444
 3154SOL    HW110361   6.094   2.429   6.479
 3154SOL    HW210362   6.256   2.431   6.500
 3155SOL     OW10363   4.295   5.755   0.502
 3155SOL    HW110364   4.288   5.657   0.521
 3155SOL    HW210365   4.219   5.803   0.547
 3156SOL     OW10366   3.306   3.813   3.872
 3156SOL    HW110367   3.376   3.749   3.840
 3156SOL    HW210368   3.231   3.761   3.914
 3157SOL     OW10369   2.012   1.987   5.098
 3157SOL    HW110370   1.986   2.082   5.116
 3157SOL    HW210371   2.048   1.980   5.005
 3158SOL     OW10372   4.657   6.935   1.959
 3158SOL    HW110373   4.686   6.899   2.048
 3158SOL    HW210374   4.584   6.878   1.921
 3159SOL     OW10375   5.412   4.258   0.855
 3159SOL    HW110376   5.510   4.264   0.874
 3159SOL    HW210377   5.391   4.168   0.818
 3160SOL     OW10378   6.027   4.442   0.681
 3160SOL    HW110379   6.019   4.477   0.588
 3160SOL    HW210380   5.944   4.390   0.704
 3161SOL     OW10381   0.624   1.915   3.865
 3161SOL    HW110382   0.538   1.894   3.912
 3161SOL    HW210383   0.695   1.853   3.896
 3162SOL     OW10384   0.264   0.547   6.206
 3162SOL    HW110385   0.262   0.456   6.246
 3162SOL    HW210386   0.180   0.596   6.232
 3163SOL     OW10387   1.828   4.423   5.520
 3163SOL    HW110388   1.753   4.485   5.500
 3163SOL    HW210389   1.824   4.345   5.458
 3164SOL     OW10390   6.342   5.042   5.914
 3164SOL    HW110391   6.351   5.124   5.858
 3164SOL    HW210392   6.352   4.961   5.857
 3165SOL     OW10393   6.988   2.860   1.762
 3165SOL    HW110394   0.027   2.783   1.731
 3165SOL    HW210395   0.009   2.945   1.723
 3166SOL     OW10396   3.815   3.236   6.410
 3166SOL    HW110397   3.772   3.146   6.409
 3166SOL    HW210398   3.743   3.306   6.407
 3167SOL     OW10399   0.134   4.780   2.082
 3167SOL    HW110400   0.052   4.743   2.125
 3167SOL    HW210401   0.128   4.769   1.983
 3168SOL     OW10402   6.780   3.314   0.221
 3168SOL    HW110403   6.769   3.258   0.303
 3168SOL    HW210404   6.717   3.392   0.226
 3169SOL     OW10405   3.205   2.552   5.903
 3169SOL    HW110406   3.267   2.485   5.862
 3169SOL    HW210407   3.194   2.630   5.841
 3170SOL     OW10408   3.272   0.416   4.543
 3170SOL    HW110409   3.284   0.514   4.552
 3170SOL    HW210410   3.221   0.396   4.459
 3171SOL     OW10411   6.324   5.653   2.769
 3171SOL    HW110412   6.302   5.572   2.713
 3171SOL    HW210413   6.333   5.626   2.864
 3172SOL     OW10414   5.321   6.715   4.980
 3172SOL    HW110415   5.369   6.686   4.897
 3172SOL    HW210416   5.351   6.659   5.057
 3173SOL     OW10417   1.422   0.943   1.745
 3173SOL    HW110418   1.504   0.962   1.690
 3173SOL    HW210419   1.440   0.865   1.805
 3174SOL     OW10420   2.327   3.246   0.174
 3174SOL    HW110421   2.236   3.225   0.210
 3174SOL    HW210422   2.396   3.195   0.226
 3175SOL     OW10423   6.998   5.892   0.270
 3175SOL    HW110424   0.073   5.930   0.285
 3175SOL    HW210425   6.986   5.812   0.329
 3176SOL     OW10426   0.757   5.246   6.932
 3176SOL    HW110427   0.768   5.337   6.972
 3176SOL    HW210428   0.838   5.223   6.879
 3177SOL     OW10429   0.757   0.190   3.500
 3177SOL    HW110430   0.662   0.216   3.483
 3177SOL    HW210431   0.815   0.225   3.426
 3178SOL     OW10432   3.964   3.561   0.146
 3178SOL    HW110433   3.901   3.555   0.068
 3178SOL    HW210434   3.933   3.498   0.218
 3179SOL     OW10435   1.326   2.690   4.602
 3179SOL    HW110436   1.289   2.652   4.687
 3179SOL    HW210437   1.301   2.787   4.595
 3180SOL     OW10438   6.755   1.441   6.934
 3180SOL    HW110439   6.771   1.345   6.911
 3180SOL    HW210440   6.760   1.497   6.851
 3181SOL     OW10441   0.160   1.420   2.267
 3181SOL    HW110442   0.237   1.358   2.284
 3181SOL    HW210443   0.154   1.485   2.343
 3182SOL     OW10444   1.410   6.184   5.936
 3182SOL    HW110445   1.384   6.280   5.933
 3182SOL    HW210446   1.508   6.175   5.919
 3183SOL     OW10447   4.636   3.782   1.308
 3183SOL    HW110448   4.725   3.809   1.346
 3183SOL    HW210449   4.634   3.802   1.210
 3184SOL     OW10450   6.953   1.986   2.973
 3184SOL    HW110451   0.031   1.981   3.008
 3184SOL    HW210452   6.945   1.925   2.894
 3185SOL     OW10453   0.357   6.292   0.059
 3185SOL    HW110454   0.400   6.228   7.012
 3185SOL    HW210455   0.262   6.264   0.076
 3186SOL     OW10456   3.505   0.510   1.513
 3186SOL    HW110457   3.488   0.604   1.486
 3186SOL    HW210458   3.601   0.499   1.539
 3187SOL     OW10459   3.753   4.300   0.671
 3187SOL    HW110460   3.659   4.314   0.642
 3187SOL    HW210461   3.757   4.222   0.734
 3188SOL     OW10462   3.650   0.100   3.897
 3188SOL    HW110463   3.726   0.074   3.837
 3188SOL    HW210464   3.613   0.018   3.941
 3189SOL     OW10465   5.949   6.310   2.015
 3189SOL    HW110466   5.990   6.399   1.996
 3189SOL    HW210467   6.018   6.238   2.007
 3190SOL     OW10468   1.264   0.563   2.289
 3190SOL    HW110469   1.257   0.483   2.349
 3190SOL    HW210470   1.291   0.533   2.197
 3191SOL     OW10471   3.289   1.365   0.827
 3191SOL    HW110472   3.333   1.276   0.833
 3191SOL    HW210473   3.344   1.432   0.877
 3192SOL     OW10474   5.679   3.405   4.681
 3192SOL    HW110475   5.755   3.470   4.690
 3192SOL    HW210476   5.609   3.444   4.621
 3193SOL     OW10477   5.350   4.357   1.751
 3193SOL    HW110478   5.366   4.272   1.802
 3193SOL    HW210479   5.372   4.342   1.655
 3194SOL     OW10480   3.222   5.270   4.766
 3194SOL    HW110481   3.160   5.279   4.687
 3194SOL    HW210482   3.170   5.281   4.850
 3195SOL     OW10483   6.456   4.092   4.181
 3195SOL    HW110484   6.498   4.087   4.090
 3195SOL    HW210485   6.364   4.054   4.177
 3196SOL     OW10486   6.902   6.032   6.388
 3196SOL    HW110487   6.913   5.974   6.469
 3196SOL    HW210488   6.941   6.122   6.407
 3197SOL     OW10489   0.709   4.487   5.674
 3197SOL    HW110490   0.610   4.488   5.688
 3197SOL    HW210491   0.735   4.565   5.617
 3198SOL     OW10492   5.831   0.189   1.074
 3198SOL    HW110493   5.834   0.272   1.131
 3198SOL    HW210494   5.923   0.168   1.042
 3199SOL     OW10495   2.773   1.967   3.143
 3199SOL    HW110496   2.690   1.943   3.092
 3199SOL    HW210497   2.825   2.036   3.093
 3200SOL     OW10498   6.652   1.722   0.152
 3200SOL    HW110499   6.713   1.648   0.179
 3200SOL    HW210500   6.591   1.744   0.228
 3201SOL     OW10501   3.729   5.365   3.108
 3201SOL    HW110502   3.726   5.298   3.034
 3201SOL    HW210503   3.644   5.362   3.160
 3202SOL     OW10504   1.322   5.016   2.071
 3202SOL    HW110505   1.364   5.098   2.032
 3202SOL    HW210506   1.322   5.022   2.171
 3203SOL     OW10507   5.042   0.176   1.042
 3203SOL    HW110508   5.065   0.219   1.129
 3203SOL    HW210509   4.998   0.243   0.982
 3204SOL     OW10510   6.222   6.365   2.163
 3204SOL    HW110511   6.199   6.283   2.110
 3204SOL    HW210512   6.200   6.446   2.109
 3205SOL     OW10513   1.456   4.389   4.492
 3205SOL    HW110514   1.548   4.353   4.482
 3205SOL    HW210515   1.393   4.334   4.437
 3206SOL     OW10516   2.015   6.324   0.245
 3206SOL    HW110517   2.038   6.332   0.342
 3206SOL    HW210518   2.085   6.371   0.191
 3207SOL     OW10519   1.518   0.843   3.196
 3207SOL    HW110520   1.501   0.778   3.270
 3207SOL    HW210521   1.444   0.910   3.194
 3208SOL     OW10522   6.151   6.325   6.372
 3208SOL    HW110523   6.089   6.250   6.349
 3208SOL    HW210524   6.098   6.404   6.403
 3209SOL     OW10525   0.940   6.622   3.179
 3209SOL    HW110526   0.978   6.591   3.266
 3209SOL    HW210527   0.969   6.717   3.162
 3210SOL     OW10528   0.606   6.139   2.209
 3210SOL    HW110529   0.638   6.086   2.129
 3210SOL    HW210530   0.531   6.199   2.181
 3211SOL     OW10531   0.027   4.789   3.922
 3211SOL    HW110532   0.057   4.802   3.827
 3211SOL    HW210533   0.106   4.785   3.982
 3212SOL     OW10534   4.674   2.463   5.000
 3212SOL    HW110535   4.647   2.445   4.905
 3212SOL    HW210536   4.761   2.418   5.019
 3213SOL     OW10537   5.268   0.188   2.138
 3213SOL    HW110538   5.267   0.270   2.081
 3213SOL    HW210539   5.194   0.126   2.110
 3214SOL     OW10540   4.664   3.642   0.324
 3214SOL    HW110541   4.615   3.624   0.239
 3214SOL    HW210542   4.754   3.680   0.303
 3215SOL     OW10543   6.827   1.516   0.166
 3215SOL    HW110544   6.927   1.512   0.175
 3215SOL    HW210545   6.801   1.493   0.073
 3216SOL     OW10546   5.097   6.847   5.660
 3216SOL    HW110547   5.002   6.839   5.689
 3216SOL    HW210548   5.151   6.776   5.703
 3217SOL     OW10549   0.403   4.530   6.482
 3217SOL    HW110550   0.320   4.568   6.441
 3217SOL    HW210551   0.413   4.565   6.575
 3218SOL     OW10552   4.216   2.781   1.507
 3218SOL    HW110553   4.232   2.757   1.411
 3218SOL    HW210554   4.296   2.754   1.562
 3219SOL     OW10555   0.691   2.329   3.163
 3219SOL    HW110556   0.744   2.254   3.123
 3219SOL    HW210557   0.752   2.406   3.183
 3220SOL     OW10558   6.838   2.585   6.641
 3220SOL    HW110559   6.927   2.546   6.620
 3220SOL    HW210560   6.793   2.616   6.557
 3221SOL     OW10561   4.215   0.308   1.650
 3221SOL    HW110562   4.166   0.377   1.703
 3221SOL    HW210563   4.149   0.252   1.600
 3222SOL     OW10564   6.059   3.651   1.972
 3222SOL    HW110565   6.076   3.552   1.967
 3222SOL    HW210566   6.021   3.682   1.885
 3223SOL     OW10567   1.093   4.318   5.462
 3223SOL    HW110568   1.137   4.405   5.440
 3223SOL    HW210569   1.033   4.330   5.541
 3224SOL     OW10570   2.795   6.491   1.432
 3224SOL    HW110571   2.710   6.473   1.482
 3224SOL    HW210572   2.807   6.589   1.421
 3225SOL     OW10573   1.431   1.683   0.352
 3225SOL    HW110574   1.352   1.651   0.404
 3225SOL    HW210575   1.497   1.608   0.343
 3226SOL     OW10576   6.685   1.198   3.958
 3226SOL    HW110577   6.652   1.245   3.876
 3226SOL    HW210578   6.785   1.197   3.958
 3227SOL     OW10579   2.399   1.908   4.941
 3227SOL    HW110580   2.434   1.892   4.849
 3227SOL    HW210581   2.414   1.826   4.997
 3228SOL     OW10582   4.858   3.208   4.863
 3228SOL    HW110583   4.772   3.228   4.909
 3228SOL    HW210584   4.840   3.165   4.775
 3229SOL     OW10585   4.736   1.397   4.606
 3229SOL    HW110586   4.684   1.317   4.576
 3229SOL    HW210587   4.829   1.369   4.631
 3230SOL     OW10588   1.142   0.131   4.039
 3230SOL    HW110589   1.130   0.085   3.951
 3230SOL    HW210590   1.228   0.101   4.080
 3231SOL     OW10591   4.349   4.488   0.027
 3231SOL    HW110592   4.314   4.549   0.098
 3231SOL    HW210593   4.330   4.393   0.051
 3232SOL     OW10594   0.790   4.205   3.640
 3232SOL    HW110595   0.799   4.254   3.553
 3232SOL    HW210596   0.803   4.107   3.624
 3233SOL     OW10597   2.045   4.241   0.566
 3233SOL    HW110598   2.112   4.189   0.514
 3233SOL    HW210599   2.016   4.321   0.513
 3234SOL     OW10600   6.794   1.624   4.036
 3234SOL    HW110601   6.794   1.580   4.126
 3234SOL    HW210602   6.820   1.557   3.967
 3235SOL     OW10603   6.354   0.832   2.201
 3235SOL    HW110604   6.283   0.881   2.253
 3235SOL    HW210605   6.325   0.823   2.106
 3236SOL     OW10606   0.392   1.617   1.319
 3236SOL    HW110607   0.421   1.535   1.367
 3236SOL    HW210608   0.295   1.610   1.296
 3237SOL     OW10609   3.001   5.630   5.019
 3237SOL    HW110610   2.975   5.586   5.105
 3237SOL    HW210611   3.101   5.636   5.014
 3238SOL     OW10612   7.014   6.465   6.392
 3238SOL    HW110613   0.039   6.521   6.464
 3238SOL    HW210614   6.928   6.425   6.426
 3239SOL     OW10615   2.227   6.364   6.276
 3239SOL    HW110616   2.130   6.364   6.253
 3239SOL    HW210617   2.280   6.399   6.198
 3240SOL     OW10618   1.066   2.595   4.790
 3240SOL    HW110619   1.047   2.500   4.766
 3240SOL    HW210620   1.022   2.656   4.724
 3241SOL     OW10621   4.222   6.084   5.008
 3241SOL    HW110622   4.162   6.004   5.010
 3241SOL    HW210623   4.310   6.062   5.049
 3242SOL     OW10624   2.979   1.181   1.248
 3242SOL    HW110625   2.943   1.153   1.159
 3242SOL    HW210626   3.077   1.160   1.253
 3243SOL     OW10627   3.573   5.748   2.576
 3243SOL    HW110628   3.658   5.706   2.608
 3243SOL    HW210629   3.532   5.692   2.504
 3244SOL     OW10630   1.398   0.160   5.218
 3244SOL    HW110631   1.314   0.212   5.230
 3244SOL    HW210632   1.399   0.120   5.127
 3245SOL     OW10633   3.454   2.364   5.840
 3245SOL    HW110634   3.458   2.335   5.745
 3245SOL    HW210635   3.545   2.390   5.871
 3246SOL     OW10636   6.099   6.724   1.717
 3246SOL    HW110637   6.123   6.807   1.767
 3246SOL    HW210638   6.026   6.745   1.652
 3247SOL     OW10639   6.054   2.765   4.728
 3247SOL    HW110640   6.147   2.730   4.742
 3247SOL    HW210641   6.015   2.724   4.646
 3248SOL     OW10642   5.235   4.251   3.209
 3248SOL    HW110643   5.165   4.304   3.160
 3248SOL    HW210644   5.193   4.172   3.253
 3249SOL     OW10645   3.803   5.056   5.779
 3249SOL    HW110646   3.810   5.008   5.866
 3249SOL    HW210647   3.845   5.000   5.707
 3250SOL     OW10648   4.584   4.706   0.574
 3250SOL    HW110649   4.634   4.792   0.575
 3250SOL    HW210650   4.523   4.702   0.653
 3251SOL     OW10651   2.543   1.796   3.537
 3251SOL    HW110652   2.456   1.754   3.510
 3251SOL    HW210653   2.578   1.752   3.619
 3252SOL     OW10654   3.113   2.164   2.838
 3252SOL    HW110655   3.195   2.140   2.787
 3252SOL    HW210656   3.038   2.185   2.775
 3253SOL     OW10657   5.396   4.358   2.180
 3253SOL    HW110658   5.339   4.438   2.197
 3253SOL    HW210659   5.429   4.322   2.267
 3254SOL     OW10660   5.867   3.599   3.141
 3254SOL    HW110661   5.952   3.602   3.194
 3254SOL    HW210662   5.864   3.514   3.089
 3255SOL     OW10663   2.700   4.818   0.531
 3255SOL    HW110664   2.690   4.773   0.442
 3255SOL    HW210665   2.651   4.905   0.530
 3256SOL     OW10666   6.425   6.993   5.472
 3256SOL    HW110667   6.444   6.895   5.463
 3256SOL    HW210668   6.445   0.007   5.565
 3257SOL     OW10669   2.786   0.962   1.817
 3257SOL    HW110670   2.871   0.962   1.764
 3257SOL    HW210671   2.745   0.871   1.814
 3258SOL     OW10672   4.632   6.958   2.455
 3258SOL    HW110673   4.637   6.938   2.553
 3258SOL    HW210674   4.541   6.936   2.421
 3259SOL     OW10675   5.706   5.535   3.093
 3259SOL    HW110676   5.655   5.455   3.124
 3259SOL    HW210677   5.646   5.593   3.039
 3260SOL     OW10678   1.964   1.917   1.261
 3260SOL    HW110679   1.917   1.995   1.302
 3260SOL    HW210680   2.042   1.892   1.318
 3261SOL     OW10681   4.799   6.384   4.373
 3261SOL    HW110682   4.717   6.415   4.325
 3261SOL    HW210683   4.792   6.407   4.470
 3262SOL     OW10684   4.998   2.261   3.534
 3262SOL    HW110685   4.965   2.330   3.469
 3262SOL    HW210686   5.094   2.277   3.554
 3263SOL     OW10687   2.865   4.948   2.931
 3263SOL    HW110688   2.836   4.860   2.969
 3263SOL    HW210689   2.904   4.933   2.840
 3264SOL     OW10690   5.037   3.846   6.518
 3264SOL    HW110691   5.046   3.945   6.523
 3264SOL    HW210692   5.091   3.804   6.591
 3265SOL     OW10693   5.463   6.932   5.917
 3265SOL    HW110694   5.549   6.983   5.906
 3265SOL    HW210695   5.434   6.896   5.829
 3266SOL     OW10696   1.194   2.384   5.927
 3266SOL    HW110697   1.292   2.362   5.929
 3266SOL    HW210698   1.179   2.471   5.974
 3267SOL     OW10699   5.616   3.941   0.812
 3267SOL    HW110700   5.646   3.980   0.725
 3267SOL    HW210701   5.517   3.930   0.811
 3268SOL     OW10702   2.191   5.634   0.480
 3268SOL    HW110703   2.141   5.711   0.521
 3268SOL    HW210704   2.129   5.556   0.471
 3269SOL     OW10705   3.997   3.270   1.282
 3269SOL    HW110706   4.059   3.322   1.223
 3269SOL    HW210707   4.041   3.185   1.309
 3270SOL     OW10708   6.645   5.611   3.041
 3270SOL    HW110709   6.553   5.615   3.002
 3270SOL    HW210710   6.639   5.600   3.140
 3271SOL     OW10711   4.684   0.128   0.598
 3271SOL    HW110712   4.780   0.127   0.625
 3271SOL    HW210713   4.672   0.191   0.521
 3272SOL     OW10714   4.109   5.675   6.245
 3272SOL    HW110715   4.153   5.591   6.278
 3272SOL    HW210716   4.092   5.667   6.146
 3273SOL     OW10717   6.675   0.185   2.839
 3273SOL    HW110718   6.683   0.161   2.743
 3273SOL    HW210719   6.766   0.182   2.882
 3274SOL     OW10720   3.292   0.444   1.673
 3274SOL    HW110721   3.374   0.451   1.616
 3274SOL    HW210722   3.248   0.355   1.658
 3275SOL     OW10723   4.679   0.735   5.796
 3275SOL    HW110724   4.647   0.646   5.765
 3275SOL    HW210725   4.603   0.784   5.841
 3276SOL     OW10726   2.067   5.075   1.022
 3276SOL    HW110727   2.010   4.994   1.007
 3276SOL    HW210728   2.044   5.116   1.111
 3277SOL     OW10729   0.442   5.792   6.140
 3277SOL    HW110730   0.376   5.856   6.102
 3277SOL    HW210731   0.455   5.811   6.237
 3278SOL     OW10732   1.319   0.064   6.830
 3278SOL    HW110733   1.373   0.104   6.904
 3278SOL    HW210734   1.297   0.134   6.763
 3279SOL     OW10735   1.880   6.475   1.827
 3279SOL    HW110736   1.832   6.391   1.800
 3279SOL    HW210737   1.892   6.533   1.746
 3280SOL     OW10738   2.821   5.718   3.612
 3280SOL    HW110739   2.882   5.639   3.622
 3280SOL    HW210740   2.728   5.686   3.596
 3281SOL     OW10741   1.559   6.861   0.930
 3281SOL    HW110742   1.588   6.944   0.979
 3281SOL    HW210743   1.527   6.793   0.996
 3282SOL     OW10744   1.350   4.564   1.881
 3282SOL    HW110745   1.291   4.632   1.839
 3282SOL    HW210746   1.310   4.473   1.870
 3283SOL     OW10747   1.293   0.401   3.173
 3283SOL    HW110748   1.269   0.315   3.127
 3283SOL    HW210749   1.258   0.478   3.120
 3284SOL     OW10750   2.379   6.045   5.704
 3284SOL    HW110751   2.288   6.031   5.664
 3284SOL    HW210752   2.375   6.119   5.771
 3285SOL     OW10753   0.427   3.570   4.283
 3285SOL    HW110754   0.456   3.592   4.376
 3285SOL    HW210755   0.498   3.598   4.219
 3286SOL     OW10756   5.137   4.871   0.433
 3286SOL    HW110757   5.040   4.847   0.424
 3286SOL    HW210758   5.188   4.792   0.466
 3287SOL     OW10759   0.720   2.143   1.216
 3287SOL    HW110760   0.640   2.146   1.275
 3287SOL    HW210761   0.691   2.126   1.121
 3288SOL     OW10762   0.807   0.004   0.408
 3288SOL    HW110763   0.738   0.042   0.469
 3288SOL    HW210764   0.763   6.957   0.344
 3289SOL     OW10765   1.505   0.958   4.065
 3289SOL    HW110766   1.476   1.011   3.986
 3289SOL    HW210767   1.511   1.017   4.145
 3290SOL     OW10768   6.947   4.902   4.554
 3290SOL    HW110769   6.928   4.816   4.601
 3290SOL    HW210770   6.947   4.886   4.455
 3291SOL     OW10771   1.266   1.547   1.616
 3291SOL    HW110772   1.326   1.483   1.663
 3291SOL    HW210773   1.251   1.515   1.522
 3292SOL     OW10774   1.096   0.054   3.791
 3292SOL    HW110775   1.158   7.010   3.740
 3292SOL    HW210776   1.001   0.035   3.765
 3293SOL     OW10777   5.963   0.768   2.991
 3293SOL    HW110778   5.934   0.697   2.928
 3293SOL    HW210779   5.948   0.858   2.949
 3294SOL     OW10780   6.718   6.428   1.594
 3294SOL    HW110781   6.778   6.350   1.578
 3294SOL    HW210782   6.679   6.458   1.507
 3295SOL     OW10783   2.920   3.133   6.487
 3295SOL    HW110784   2.895   3.070   6.560
 3295SOL    HW210785   2.837   3.169   6.444
 3296SOL     OW10786   1.031   6.993   1.867
 3296SOL    HW110787   0.931   6.993   1.868
 3296SOL    HW210788   1.065   6.907   1.829
 3297SOL     OW10789   3.785   0.081   5.289
 3297SOL    HW110790   3.772   7.007   5.250
 3297SOL    HW210791   3.760   0.151   5.222
 3298SOL     OW10792   6.838   5.685   3.311
 3298SOL    HW110793   6.858   5.706   3.216
 3298SOL    HW210794   6.739   5.681   3.325
 3299SOL     OW10795   2.064   1.536   4.463
 3299SOL    HW110796   2.155   1.565   4.493
 3299SOL    HW210797   2.061   1.436   4.459
 3300SOL     OW10798   0.444   6.716   4.757
 3300SOL    HW110799   0.464   6.636   4.701
 3300SOL    HW210800   0.448   6.692   4.854
 3301SOL     OW10801   6.212   4.251   2.432
 3301SOL    HW110802   6.262   4.290   2.354
 3301SOL    HW210803   6.127   4.209   2.399
 3302SOL     OW10804   1.766   5.741   5.841
 3302SOL    HW110805   1.760   5.667   5.773
 3302SOL    HW210806   1.738   5.706   5.930
 3303SOL     OW10807   3.432   3.168   5.231
 3303SOL    HW110808   3.479   3.081   5.217
 3303SOL    HW210809   3.396   3.172   5.324
 3304SOL     OW10810   2.057   0.935   3.897
 3304SOL    HW110811   1.974   0.900   3.942
 3304SOL    HW210812   2.126   0.863   3.895
 3305SOL     OW10813   1.741   2.116   0.350
 3305SOL    HW110814   1.794   2.056   0.289
 3305SOL    HW210815   1.657   2.069   0.377
 3306SOL     OW10816   1.370   1.404   0.711
 3306SOL    HW110817   1.330   1.408   0.620
 3306SOL    HW210818   1.412   1.314   0.725
 3307SOL     OW10819   0.407   6.474   0.259
 3307SOL    HW110820   0.380   6.425   0.176
 3307SOL    HW210821   0.462   6.553   0.234
 3308SOL     OW10822   5.132   5.577   6.990
 3308SOL    HW110823   5.198   5.548   0.044
 3308SOL    HW210824   5.176   5.574   6.900
 3309SOL     OW10825   0.408   4.662   2.168
 3309SOL    HW110826   0.394   4.598   2.244
 3309SOL    HW210827   0.331   4.724   2.162
 3310SOL     OW10828   2.287   6.844   1.900
 3310SOL    HW110829   2.379   6.865   1.868
 3310SOL    HW210830   2.265   6.749   1.880
 3311SOL     OW10831   4.390   5.163   0.659
 3311SOL    HW110832   4.298   5.162   0.620
 3311SOL    HW210833   4.412   5.255   0.692
 3312SOL     OW10834   2.029   2.623   5.910
 3312SOL    HW110835   2.046   2.525   5.898
 3312SOL    HW210836   2.108   2.675   5.877
 3313SOL     OW10837   5.362   6.511   5.198
 3313SOL    HW110838   5.363   6.571   5.278
 3313SOL    HW210839   5.436   6.444   5.206
 3314SOL     OW10840   0.561   3.918   6.630
 3314SOL    HW110841   0.600   3.872   6.550
 3314SOL    HW210842   0.463   3.928   6.617
 3315SOL     OW10843   6.391   3.582   3.292
 3315SOL    HW110844   6.375   3.484   3.283
 3315SOL    HW210845   6.437   3.615   3.209
 3316SOL     OW10846   3.678   0.414   6.405
 3316SOL    HW110847   3.585   0.380   6.389
 3316SOL    HW210848   3.676   0.488   6.472
 3317SOL     OW10849   6.426   2.695   1.198
 3317SOL    HW110850   6.404   2.696   1.295
 3317SOL    HW210851   6.342   2.704   1.144
 3318SOL     OW10852   2.803   4.912   6.251
 3318SOL    HW110853   2.711   4.947   6.233
 3318SOL    HW210854   2.805   4.813   6.231
 3319SOL     OW10855   1.126   6.071   6.391
 3319SOL    HW110856   1.138   6.162   6.350
 3319SOL    HW210857   1.136   6.001   6.321
 3320SOL     OW10858   1.542   0.561   1.167
 3320SOL    HW110859   1.490   0.636   1.127
 3320SOL    HW210860   1.614   0.533   1.104
 3321SOL     OW10861   3.855   3.880   4.209
 3321SOL    HW110862   3.924   3.808   4.204
 3321SOL    HW210863   3.766   3.838   4.227
 3322SOL     OW10864   5.304   3.532   2.774
 3322SOL    HW110865   5.287   3.626   2.744
 3322SOL    HW210866   5.219   3.493   2.808
 3323SOL     OW10867   1.422   4.227   0.434
 3323SOL    HW110868   1.468   4.224   0.523
 3323SOL    HW210869   1.447   4.312   0.387
 3324SOL     OW10870   6.506   2.934   1.995
 3324SOL    HW110871   6.605   2.924   1.994
 3324SOL    HW210872   6.482   3.031   1.999
 3325SOL     OW10873   1.077   4.937   5.709
 3325SOL    HW110874   0.987   4.916   5.671
 3325SOL    HW210875   1.107   5.026   5.677
 3326SOL     OW10876   4.453   6.980   2.224
 3326SOL    HW110877   4.423   6.947   2.135
 3326SOL    HW210878   4.417   0.056   2.240
 3327SOL     OW10879   4.723   5.886   2.131
 3327SOL    HW110880   4.714   5.941   2.214
 3327SOL    HW210881   4.798   5.821   2.141
 3328SOL     OW10882   6.332   6.306   3.207
 3328SOL    HW110883   6.356   6.366   3.284
 3328SOL    HW210884   6.362   6.213   3.227
 3329SOL     OW10885   5.657   0.174   6.125
 3329SOL    HW110886   5.726   0.205   6.191
 3329SOL    HW210887   5.700   0.117   6.056
 3330SOL     OW10888   5.599   0.587   3.898
 3330SOL    HW110889   5.676   0.576   3.835
 3330SOL    HW210890   5.633   0.627   3.984
 3331SOL     OW10891   0.465   3.464   2.498
 3331SOL    HW110892   0.485   3.418   2.412
 3331SOL    HW210893   0.528   3.431   2.569
 3332SOL     OW10894   4.486   4.980   1.181
 3332SOL    HW110895   4.442   5.003   1.268
 3332SOL    HW210896   4.516   4.885   1.182
 3333SOL     OW10897   2.246   3.910   0.913
 3333SOL    HW110898   2.267   3.925   1.010
 3333SOL    HW210899   2.199   3.991   0.877
 3334SOL     OW10900   2.350   2.746   2.178
 3334SOL    HW110901   2.387   2.833   2.211
 3334SOL    HW210902   2.426   2.686   2.151
 3335SOL     OW10903   4.520   4.104   6.444
 3335SOL    HW110904   4.608   4.087   6.489
 3335SOL    HW210905   4.515   4.199   6.416
 3336SOL     OW10906   3.662   6.041   6.470
 3336SOL    HW110907   3.605   5.962   6.494
 3336SOL    HW210908   3.751   6.009   6.437
 3337SOL     OW10909   3.071   3.715   4.407
 3337SOL    HW110910   3.041   3.677   4.494
 3337SOL    HW210911   3.117   3.802   4.422
 3338SOL     OW10912   3.398   3.021   1.552
 3338SOL    HW110913   3.416   2.994   1.458
 3338SOL    HW210914   3.307   3.060   1.559
 3339SOL     OW10915   0.849   0.186   5.696
 3339SOL    HW110916   0.903   0.233   5.627
 3339SOL    HW210917   0.888   0.096   5.714
 3340SOL     OW10918   5.097   2.074   6.525
 3340SOL    HW110919   5.029   2.137   6.563
 3340SOL    HW210920   5.053   2.012   6.460
 3341SOL     OW10921   1.317   3.651   1.408
 3341SOL    HW110922   1.397   3.683   1.460
 3341SOL    HW210923   1.243   3.717   1.417
 3342SOL     OW10924   5.909   0.695   3.492
 3342SOL    HW110925   5.916   0.670   3.395
 3342SOL    HW210926   5.840   0.638   3.536
 3343SOL     OW10927   3.482   5.206   0.018
 3343SOL    HW110928   3.505   5.299   0.048
 3343SOL    HW210929   3.558   5.145   0.038
 3344SOL     OW10930   1.779   3.768   0.805
 3344SOL    HW110931   1.699   3.716   0.834
 3344SOL    HW210932   1.799   3.840   0.872
 3345SOL     OW10933   4.099   5.130   0.598
 3345SOL    HW110934   4.045   5.214   0.590
 3345SOL    HW210935   4.094   5.079   0.512
 3346SOL     OW10936   0.804   0.647   0.420
 3346SOL    HW110937   0.771   0.712   0.351
 3346SOL    HW210938   0.877   0.591   0.381
 3347SOL     OW10939   1.041   3.118   5.595
 3347SOL    HW110940   1.061   3.180   5.671
 3347SOL    HW210941   1.068   3.025   5.620
 3348SOL     OW10942   3.233   4.257   5.700
 3348SOL    HW110943   3.177   4.174   5.711
 3348SOL    HW210944   3.269   4.284   5.789
 3349SOL     OW10945   2.492   5.182   1.496
 3349SOL    HW110946   2.579   5.166   1.544
 3349SOL    HW210947   2.484   5.280   1.476
 3350SOL     OW10948   3.073   4.884   4.453
 3350SOL    HW110949   3.142   4.928   4.511
 3350SOL    HW210950   3.030   4.810   4.504
 3351SOL     OW10951   4.105   0.113   2.081
 3351SOL    HW110952   4.158   0.118   2.166
 3351SOL    HW210953   4.105   0.202   2.036
 3352SOL     OW10954   6.056   0.859   0.377
 3352SOL    HW110955   5.959   0.873   0.357
 3352SOL    HW210956   6.066   0.815   0.467
 3353SOL     OW10957   4.781   0.089   6.050
 3353SOL    HW110958   4.712   0.089   5.978
 3353SOL    HW210959   4.738   0.073   6.138
 3354SOL     OW10960   3.798   1.468   0.334
 3354SOL    HW110961   3.859   1.529   0.385
 3354SOL    HW210962   3.725   1.435   0.395
 3355SOL     OW10963   0.986   2.208   5.970
 3355SOL    HW110964   1.065   2.269   5.960
 3355SOL    HW210965   0.996   2.156   6.055
 3356SOL     OW10966   2.944   0.103   5.095
 3356SOL    HW110967   2.916   0.088   5.190
 3356SOL    HW210968   2.887   0.175   5.054
 3357SOL     OW10969   3.393   3.628   4.614
 3357SOL    HW110970   3.352   3.659   4.528
 3357SOL    HW210971   3.365   3.689   4.688
 3358SOL     OW10972   6.922   2.344   1.625
 3358SOL    HW110973   6.867   2.309   1.549
 3358SOL    HW210974   6.912   2.444   1.630
 3359SOL     OW10975   0.600   6.969   3.194
 3359SOL    HW110976   0.584   0.042   3.237
 3359SOL    HW210977   0.694   6.941   3.212
 3360SOL     OW10978   1.588   5.668   4.916
 3360SOL    HW110979   1.497   5.648   4.881
 3360SOL    HW210980   1.590   5.761   4.954
 3361SOL     OW10981   0.479   6.990   4.688
 3361SOL    HW110982   0.467   6.893   4.709
 3361SOL    HW210983   0.403   0.006   4.632
 3362SOL     OW10984   3.717   0.295   5.158
 3362SOL    HW110985   3.628   0.285   5.113
 3362SOL    HW210986   3.741   0.392   5.162
 3363SOL     OW10987   5.155   3.412   0.571
 3363SOL    HW110988   5.156   3.440   0.667
 3363SOL    HW210989   5.060   3.399   0.542
 3364SOL     OW10990   2.291   3.033   1.247
 3364SOL    HW110991   2.294   3.105   1.177
 3364SOL    HW210992   2.375   2.980   1.244
 3365SOL     OW10993   0.367   3.289   2.792
 3365SOL    HW110994   0.403   3.378   2.764
 3365SOL    HW210995   0.433   3.244   2.853
 3366SOL     OW10996   5.496   2.726   3.398
 3366SOL    HW110997   5.541   2.666   3.332
 3366SOL    HW210998   5.495   2.820   3.363
 3367SOL     OW10999   3.331   3.602   3.419
 3367SOL    HW111000   3.269   3.631   3.492
 3367SOL    HW211001   3.361   3.508   3.437
 3368SOL     OW11002   1.361   1.377   3.864
 3368SOL    HW111003   1.449   1.424   3.862
 3368SOL    HW211004   1.299   1.418   3.797
 3369SOL     OW11005   6.274   3.111   0.656
 3369SOL    HW111006   6.244   3.181   0.592
 3369SOL    HW211007   6.231   3.024   0.634
 3370SOL     OW11008   6.965   6.069   3.368
 3370SOL    HW111009   0.023   6.009   3.338
 3370SOL    HW211010   6.968   6.077   3.468
 3371SOL     OW11011   3.013   2.690   1.573
 3371SOL    HW111012   3.075   2.626   1.618
 3371SOL    HW211013   2.946   2.639   1.518
 3372SOL     OW11014   5.638   2.536   3.271
 3372SOL    HW111015   5.681   2.446   3.281
 3372SOL    HW211016   5.704   2.607   3.296
 3373SOL     OW11017   0.735   4.670   1.018
 3373SOL    HW111018   0.751   4.757   0.971
 3373SOL    HW211019   0.709   4.687   1.113
 3374SOL     OW11020   0.824   5.579   3.935
 3374SOL    HW111021   0.788   5.649   3.997
 3374SOL    HW211022   0.822   5.490   3.982
 3375SOL     OW11023   6.865   6.793   5.536
 3375SOL    HW111024   6.911   6.863   5.590
 3375SOL    HW211025   6.926   6.715   5.523
 3376SOL     OW11026   3.322   3.838   4.907
 3376SOL    HW111027   3.333   3.908   4.978
 3376SOL    HW211028   3.278   3.879   4.827
 3377SOL     OW11029   6.016   5.441   4.619
 3377SOL    HW111030   6.047   5.536   4.619
 3377SOL    HW211031   6.049   5.396   4.702
 3378SOL     OW11032   0.738   5.779   6.947
 3378SOL    HW111033   0.685   5.831   7.013
 3378SOL    HW211034   0.813   5.835   6.911
 3379SOL     OW11035   5.796   4.786   3.914
 3379SOL    HW111036   5.731   4.858   3.890
 3379SOL    HW211037   5.874   4.826   3.962
 3380SOL     OW11038   1.155   4.651   1.665
 3380SOL    HW111039   1.071   4.631   1.717
 3380SOL    HW211040   1.173   4.576   1.601
 3381SOL     OW11041   3.141   4.593   0.342
 3381SOL    HW111042   3.192   4.567   0.259
 3381SOL    HW211043   3.063   4.533   0.354
 3382SOL     OW11044   0.501   3.578   6.894
 3382SOL    HW111045   0.424   3.599   6.954
 3382SOL    HW211046   0.584   3.567   6.950
 3383SOL     OW11047   3.481   5.693   0.128
 3383SOL    HW111048   3.542   5.772   0.134
 3383SOL    HW211049   3.447   5.670   0.220
 3384SOL     OW11050   3.241   2.765   6.575
 3384SOL    HW111051   3.167   2.720   6.525
 3384SOL    HW211052   3.265   2.710   6.655
 3385SOL     OW11053   6.159   1.776   4.702
 3385SOL    HW111054   6.226   1.835   4.657
 3385SOL    HW211055   6.107   1.828   4.769
 3386SOL     OW11056   6.725   4.681   5.173
 3386SOL    HW111057   6.679   4.729   5.248
 3386SOL    HW211058   6.661   4.667   5.098
 3387SOL     OW11059   5.863   0.777   2.622
 3387SOL    HW111060   5.887   0.800   2.717
 3387SOL    HW211061   5.779   0.723   2.621
 3388SOL     OW11062   1.014   3.805   0.900
 3388SOL    HW111063   1.053   3.820   0.809
 3388SOL    HW211064   0.969   3.716   0.903
 3389SOL     OW11065   6.221   5.155   6.330
 3389SOL    HW111066   6.257   5.237   6.286
 3389SOL    HW211067   6.200   5.175   6.426
 3390SOL     OW11068   3.186   4.195   1.060
 3390SOL    HW111069   3.095   4.226   1.085
 3390SOL    HW211070   3.182   4.146   0.973
 3391SOL     OW11071   5.630   4.123   5.531
 3391SOL    HW111072   5.572   4.110   5.451
 3391SOL    HW211073   5.713   4.172   5.505
 3392SOL     OW11074   4.946   5.522   5.780
 3392SOL    HW111075   5.022   5.493   5.838
 3392SOL    HW211076   4.945   5.622   5.773
 3393SOL     OW11077   3.444   0.942   0.688
 3393SOL    HW111078   3.461   0.844   0.677
 3393SOL    HW211079   3.358   0.966   0.645
 3394SOL     OW11080   3.338   5.712   1.890
 3394SOL    HW111081   3.338   5.796   1.944
 3394SOL    HW211082   3.290   5.640   1.940
 3395SOL     OW11083   1.749   6.104   3.245
 3395SOL    HW111084   1.696   6.020   3.256
 3395SOL    HW211085   1.827   6.087   3.184
 3396SOL     OW11086   3.661   0.062   4.293
 3396SOL    HW111087   3.648   6.999   4.352
 3396SOL    HW211088   3.680   0.032   4.200
 3397SOL     OW11089   3.551   5.970   2.192
 3397SOL    HW111090   3.522   6.048   2.248
 3397SOL    HW211091   3.640   5.937   2.225
 3398SOL     OW11092   6.398   0.425   1.156
 3398SOL    HW111093   6.379   0.470   1.243
 3398SOL    HW211094   6.493   0.392   1.156
 3399SOL     OW11095   5.925   6.485   2.448
 3399SOL    HW111096   5.917   6.424   2.527
 3399SOL    HW211097   5.908   6.432   2.365
 3400SOL     OW11098   3.452   3.350   5.864
 3400SOL    HW111099   3.515   3.273   5.879
 3400SOL    HW211100   3.370   3.317   5.816
 3401SOL     OW11101   6.293   3.709   3.810
 3401SOL    HW111102   6.285   3.714   3.910
 3401SOL    HW211103   6.387   3.685   3.785
 3402SOL     OW11104   6.906   4.034   0.216
 3402SOL    HW111105   6.820   3.997   0.181
 3402SOL    HW211106   6.981   3.970   0.199
 3403SOL     OW11107   5.238   6.917   4.057
 3403SOL    HW111108   5.154   6.864   4.047
 3403SOL    HW211109   5.218   7.014   4.047
 3404SOL     OW11110   5.085   4.722   3.019
 3404SOL    HW111111   5.120   4.676   2.937
 3404SOL    HW211112   5.162   4.758   3.072
 3405SOL     OW11113   4.633   0.277   0.358
 3405SOL    HW111114   4.620   0.244   0.264
 3405SOL    HW211115   4.552   0.328   0.387
 3406SOL     OW11116   4.995   4.725   1.057
 3406SOL    HW111117   4.962   4.731   1.152
 3406SOL    HW211118   4.978   4.633   1.022
 3407SOL     OW11119   2.153   1.777   0.673
 3407SOL    HW111120   2.250   1.779   0.652
 3407SOL    HW211121   2.139   1.806   0.768
 3408SOL     OW11122   2.958   6.678   4.600
 3408SOL    HW111123   2.933   6.771   4.626
 3408SOL    HW211124   3.009   6.635   4.674
 3409SOL     OW11125   4.812   2.166   0.262
 3409SOL    HW111126   4.754   2.094   0.222
 3409SOL    HW211127   4.776   2.190   0.352
 3410SOL     OW11128   6.313   1.818   2.423
 3410SOL    HW111129   6.290   1.723   2.400
 3410SOL    HW211130   6.399   1.844   2.380
 3411SOL     OW11131   5.126   3.437   6.585
 3411SOL    HW111132   5.210   3.478   6.550
 3411SOL    HW211133   5.054   3.447   6.516
 3412SOL     OW11134   4.874   3.733   2.643
 3412SOL    HW111135   4.878   3.636   2.617
 3412SOL    HW211136   4.834   3.786   2.569
 3413SOL     OW11137   1.594   2.310   0.517
 3413SOL    HW111138   1.691   2.325   0.496
 3413SOL    HW211139   1.572   2.352   0.605
 3414SOL     OW11140   3.167   3.276   1.800
 3414SOL    HW111141   3.073   3.292   1.771
 3414SOL    HW211142   3.185   3.325   1.886
 3415SOL     OW11143   2.743   1.076   0.017
 3415SOL    HW111144   2.795   1.126   0.087
 3415SOL    HW211145   2.807   1.030   6.972
 3416SOL     OW11146   5.425   6.005   6.419
 3416SOL    HW111147   5.469   5.939   6.480
 3416SOL    HW211148   5.412   6.092   6.468
 3417SOL     OW11149   5.894   0.180   2.729
 3417SOL    HW111150   5.937   0.181   2.819
 3417SOL    HW211151   5.943   0.244   2.669
 3418SOL     OW11152   4.502   6.044   1.471
 3418SOL    HW111153   4.430   6.107   1.441
 3418SOL    HW211154   4.478   5.951   1.444
 3419SOL     OW11155   2.828   4.679   5.343
 3419SOL    HW111156   2.865   4.648   5.256
 3419SOL    HW211157   2.893   4.660   5.417
 3420SOL     OW11158   5.180   0.266   2.622
 3420SOL    HW111159   5.200   0.200   2.549
 3420SOL    HW211160   5.110   0.329   2.592
 3421SOL     OW11161   0.727   1.487   4.580
 3421SOL    HW111162   0.806   1.529   4.625
 3421SOL    HW211163   0.753   1.400   4.540
 3422SOL     OW11164   3.273   5.126   1.713
 3422SOL    HW111165   3.274   5.069   1.795
 3422SOL    HW211166   3.349   5.100   1.654
 3423SOL     OW11167   1.531   5.904   5.872
 3423SOL    HW111168   1.609   5.868   5.822
 3423SOL    HW211169   1.492   5.832   5.930
 3424SOL     OW11170   5.944   5.483   2.890
 3424SOL    HW111171   5.878   5.456   2.961
 3424SOL    HW211172   5.958   5.582   2.894
 3425SOL     OW11173   6.034   3.252   6.401
 3425SOL    HW111174   6.003   3.256   6.306
 3425SOL    HW211175   6.133   3.271   6.404
 3426SOL     OW11176   6.484   5.351   6.068
 3426SOL    HW111177   6.570   5.355   6.119
 3426SOL    HW211178   6.504   5.363   5.970
 3427SOL     OW11179   1.694   1.204   6.507
 3427SOL    HW111180   1.609   1.160   6.536
 3427SOL    HW211181   1.717   1.174   6.414
 3428SOL     OW11182   4.107   0.981   3.935
 3428SOL    HW111183   4.113   1.059   3.873
 3428SOL    HW211184   4.033   0.995   4.001
 3429SOL     OW11185   5.555   5.494   0.296
 3429SOL    HW111186   5.614   5.450   0.364
 3429SOL    HW211187   5.464   5.455   0.301
 3430SOL     OW11188   2.884   4.460   6.983
 3430SOL    HW111189   2.839   4.433   0.052
 3430SOL    HW211190   2.821   4.449   6.906
 3431SOL     OW11191   1.601   3.595   1.738
 3431SOL    HW111192   1.588   3.608   1.836
 3431SOL    HW211193   1.639   3.504   1.721
 3432SOL     OW11194   0.009   5.615   6.599
 3432SOL    HW111195   6.947   5.552   6.601
 3432SOL    HW211196   0.077   5.580   6.534
 3433SOL     OW11197   0.727   1.072   0.094
 3433SOL    HW111198   0.679   1.148   0.139
 3433SOL    HW211199   0.704   1.072   7.013
 3434SOL     OW11200   4.387   3.242   1.428
 3434SOL    HW111201   4.289   3.258   1.437
 3434SOL    HW211202   4.424   3.208   1.514
 3435SOL     OW11203   3.409   2.674   1.247
 3435SOL    HW111204   3.421   2.672   1.346
 3435SOL    HW211205   3.325   2.625   1.222
 3436SOL     OW11206   4.719   5.427   4.915
 3436SOL    HW111207   4.777   5.486   4.859
 3436SOL    HW211208   4.763   5.339   4.928
 3437SOL     OW11209   2.910   5.446   0.499
 3437SOL    HW111210   2.866   5.369   0.452
 3437SOL    HW211211   2.852   5.475   0.576
 3438SOL     OW11212   2.369   4.269   0.720
 3438SOL    HW111213   2.385   4.173   0.742
 3438SOL    HW211214   2.314   4.311   0.793
 3439SOL     OW11215   3.112   5.724   0.949
 3439SOL    HW111216   3.099   5.643   1.006
 3439SOL    HW211217   3.156   5.796   1.002
 3440SOL     OW11218   4.353   4.791   5.492
 3440SOL    HW111219   4.417   4.864   5.471
 3440SOL    HW211220   4.290   4.821   5.564
 3441SOL     OW11221   0.487   5.617   5.672
 3441SOL    HW111222   0.521   5.672   5.748
 3441SOL    HW211223   0.450   5.678   5.601
 3442SOL     OW11224   1.916   1.920   0.239
 3442SOL    HW111225   1.974   1.904   0.159
 3442SOL    HW211226   1.872   1.834   0.265
 3443SOL     OW11227   6.702   5.799   2.088
 3443SOL    HW111228   6.662   5.708   2.100
 3443SOL    HW211229   6.778   5.811   2.152
 3444SOL     OW11230   1.376   4.056   5.706
 3444SOL    HW111231   1.440   4.023   5.775
 3444SOL    HW211232   1.366   3.987   5.634
 3445SOL     OW11233   5.655   4.615   4.113
 3445SOL    HW111234   5.689   4.637   4.205
 3445SOL    HW211235   5.700   4.674   4.046
 3446SOL     OW11236   5.487   1.082   6.803
 3446SOL    HW111237   5.436   1.135   6.870
 3446SOL    HW211238   5.438   0.997   6.782
 3447SOL     OW11239   5.717   1.521   6.225
 3447SOL    HW111240   5.690   1.491   6.134
 3447SOL    HW211241   5.716   1.621   6.229
 3448SOL     OW11242   0.720   5.679   4.687
 3448SOL    HW111243   0.669   5.670   4.773
 3448SOL    HW211244   0.715   5.774   4.655
 3449SOL     OW11245   1.040   4.310   4.481
 3449SOL    HW111246   1.103   4.383   4.455
 3449SOL    HW211247   1.012   4.322   4.577
 3450SOL     OW11248   2.037   6.763   3.244
 3450SOL    HW111249   1.961   6.702   3.219
 3450SOL    HW211250   2.120   6.709   3.259
 3451SOL     OW11251   2.191   1.586   1.057
 3451SOL    HW111252   2.286   1.562   1.037
 3451SOL    HW211253   2.172   1.679   1.025
 3452SOL     OW11254   4.585   1.104   5.325
 3452SOL    HW111255   4.536   1.031   5.277
 3452SOL    HW211256   4.619   1.170   5.258
 3453SOL     OW11257   4.423   6.613   5.665
 3453SOL    HW111258   4.343   6.606   5.725
 3453SOL    HW211259   4.495   6.553   5.699
 3454SOL     OW11260   1.327   3.552   4.003
 3454SOL    HW111261   1.334   3.611   4.083
 3454SOL    HW211262   1.383   3.471   4.017
 3455SOL     OW11263   1.734   3.687   5.998
 3455SOL    HW111264   1.800   3.755   6.029
 3455SOL    HW211265   1.693   3.641   6.076
 3456SOL     OW11266   4.797   4.896   2.773
 3456SOL    HW111267   4.777   4.921   2.868
 3456SOL    HW211268   4.835   4.976   2.725
 3457SOL     OW11269   4.512   4.032   0.201
 3457SOL    HW111270   4.414   4.053   0.211
 3457SOL    HW211271   4.565   4.111   0.230
 3458SOL     OW11272   4.448   1.351   1.194
 3458SOL    HW111273   4.430   1.438   1.239
 3458SOL    HW211274   4.543   1.347   1.165
 3459SOL     OW11275   6.239   0.777   2.810
 3459SOL    HW111276   6.279   0.820   2.729
 3459SOL    HW211277   6.249   0.838   2.888
 3460SOL     OW11278   5.117   1.862   4.993
 3460SOL    HW111279   5.138   1.940   5.053
 3460SOL    HW211280   5.030   1.878   4.948
 3461SOL     OW11281   4.954   4.520   5.029
 3461SOL    HW111282   4.992   4.513   5.121
 3461SOL    HW211283   5.026   4.504   4.962
 3462SOL     OW11284   1.175   3.765   6.894
 3462SOL    HW111285   1.252   3.763   6.831
 3462SOL    HW211286   1.158   3.673   6.930
 3463SOL     OW11287   6.397   3.627   6.977
 3463SOL    HW111288   6.388   3.698   6.908
 3463SOL    HW211289   6.316   3.568   6.974
 3464SOL     OW11290   0.480   4.938   4.892
 3464SOL    HW111291   0.421   4.934   4.811
 3464SOL    HW211292   0.568   4.978   4.868
 3465SOL     OW11293   1.205   2.539   0.888
 3465SOL    HW111294   1.236   2.631   0.913
 3465SOL    HW211295   1.120   2.546   0.837
 3466SOL     OW11296   4.691   4.135   3.397
 3466SOL    HW111297   4.622   4.100   3.460
 3466SOL    HW211298   4.743   4.058   3.359
 3467SOL     OW11299   1.921   1.396   6.164
 3467SOL    HW111300   1.988   1.457   6.206
 3467SOL    HW211301   1.829   1.428   6.186
 3468SOL     OW11302   5.738   5.035   1.838
 3468SOL    HW111303   5.805   5.067   1.906
 3468SOL    HW211304   5.659   4.996   1.886
 3469SOL     OW11305   5.985   3.234   0.856
 3469SOL    HW111306   5.969   3.330   0.882
 3469SOL    HW211307   5.941   3.216   0.768
 3470SOL     OW11308   6.182   6.015   6.530
 3470SOL    HW111309   6.153   5.923   6.502
 3470SOL    HW211310   6.172   6.078   6.453
 3471SOL     OW11311   3.967   6.761   4.489
 3471SOL    HW111312   3.999   6.840   4.542
 3471SOL    HW211313   3.988   6.677   4.540
 3472SOL     OW11314   3.204   0.757   3.785
 3472SOL    HW111315   3.213   0.660   3.765
 3472SOL    HW211316   3.235   0.810   3.705
 3473SOL     OW11317   4.824   6.897   3.507
 3473SOL    HW111318   4.756   6.894   3.581
 3473SOL    HW211319   4.778   6.885   3.419
 3474SOL     OW11320   6.206   5.203   1.048
 3474SOL    HW111321   6.267   5.282   1.044
 3474SOL    HW211322   6.200   5.171   1.143
 3475SOL     OW11323   1.912   5.720   5.202
 3475SOL    HW111324   1.929   5.815   5.230
 3475SOL    HW211325   1.905   5.715   5.102
 3476SOL     OW11326   2.363   1.981   2.735
 3476SOL    HW111327   2.306   2.057   2.704
 3476SOL    HW211328   2.307   1.918   2.790
 3477SOL     OW11329   4.804   5.591   2.314
 3477SOL    HW111330   4.814   5.510   2.372
 3477SOL    HW211331   4.831   5.568   2.221
 3478SOL     OW11332   3.747   5.404   0.241
 3478SOL    HW111333   3.760   5.455   0.326
 3478SOL    HW211334   3.809   5.325   0.239
 3479SOL     OW11335   1.864   1.211   0.649
 3479SOL    HW111336   1.917   1.145   0.595
 3479SOL    HW211337   1.927   1.262   0.710
 3480SOL     OW11338   2.031   6.759   4.782
 3480SOL    HW111339   2.051   6.697   4.858
 3480SOL    HW211340   2.110   6.818   4.765
 3481SOL     OW11341   1.660   4.726   0.439
 3481SOL    HW111342   1.729   4.698   0.506
 3481SOL    HW211343   1.570   4.697   0.470
 3482SOL     OW11344   6.806   2.266   1.394
 3482SOL    HW111345   6.712   2.300   1.391
 3482SOL    HW211346   6.865   2.332   1.347
 3483SOL     OW11347   4.147   1.701   1.005
 3483SOL    HW111348   4.232   1.741   0.970
 3483SOL    HW211349   4.093   1.771   1.051
 3484SOL     OW11350   3.503   3.982   3.956
 3484SOL    HW111351   3.497   4.054   4.024
 3484SOL    HW211352   3.419   3.927   3.958
 3485SOL     OW11353   6.300   2.997   3.765
 3485SOL    HW111354   6.390   2.953   3.760
 3485SOL    HW211355   6.249   2.961   3.843
 3486SOL     OW11356   6.230   1.945   2.895
 3486SOL    HW111357   6.163   1.871   2.908
 3486SOL    HW211358   6.218   1.984   2.804
 3487SOL     OW11359   1.466   6.231   1.701
 3487SOL    HW111360   1.368   6.253   1.710
 3487SOL    HW211361   1.483   6.193   1.611
 3488SOL     OW11362   6.672   2.647   5.190
 3488SOL    HW111363   6.748   2.712   5.199
 3488SOL    HW211364   6.657   2.628   5.093
 3489SOL     OW11365   2.028   5.500   0.001
 3489SOL    HW111366   2.011   5.579   6.957
 3489SOL    HW211367   2.088   5.528   0.076
 3490SOL     OW11368   5.549   3.372   0.140
 3490SOL    HW111369   5.529   3.468   0.158
 3490SOL    HW211370   5.574   3.361   0.044
 3491SOL     OW11371   6.064   2.675   5.143
 3491SOL    HW111372   5.966   2.682   5.128
 3491SOL    HW211373   6.083   2.680   5.241
 3492SOL     OW11374   0.883   4.131   6.423
 3492SOL    HW111375   0.911   4.146   6.518
 3492SOL    HW211376   0.786   4.151   6.413
 3493SOL     OW11377   0.458   4.599   1.266
 3493SOL    HW111378   0.445   4.643   1.355
 3493SOL    HW211379   0.374   4.551   1.240
 3494SOL     OW11380   3.138   6.861   1.109
 3494SOL    HW111381   3.084   6.788   1.151
 3494SOL    HW211382   3.112   6.948   1.150
 3495SOL     OW11383   5.319   4.329   6.110
 3495SOL    HW111384   5.330   4.319   6.011
 3495SOL    HW211385   5.371   4.408   6.141
 3496SOL     OW11386   0.889   6.556   1.470
 3496SOL    HW111387   0.907   6.639   1.418
 3496SOL    HW211388   0.968   6.495   1.463
 3497SOL     OW11389   3.077   0.087   4.804
 3497SOL    HW111390   3.156   0.037   4.767
 3497SOL    HW211391   3.095   0.110   4.899
 3498SOL     OW11392   1.737   1.731   0.795
 3498SOL    HW111393   1.819   1.683   0.764
 3498SOL    HW211394   1.673   1.665   0.836
 3499SOL     OW11395   6.949   4.470   3.104
 3499SOL    HW111396   6.904   4.506   3.023
 3499SOL    HW211397   6.989   4.381   3.083
 3500SOL     OW11398   6.826   2.621   0.344
 3500SOL    HW111399   6.866   2.529   0.343
 3500SOL    HW211400   6.793   2.645   0.253
 3501SOL     OW11401   6.800   5.104   2.991
 3501SOL    HW111402   6.793   5.200   2.964
 3501SOL    HW211403   6.721   5.053   2.956
 3502SOL     OW11404   1.414   6.419   1.407
 3502SOL    HW111405   1.355   6.379   1.477
 3502SOL    HW211406   1.505   6.377   1.412
 3503SOL     OW11407   3.097   1.065   3.221
 3503SOL    HW111408   3.183   1.018   3.198
 3503SOL    HW211409   3.117   1.160   3.244
 3504SOL     OW11410   1.906   2.204   2.171
 3504SOL    HW111411   1.873   2.294   2.198
 3504SOL    HW211412   1.897   2.141   2.247
 3505SOL     OW11413   4.083   0.223   4.256
 3505SOL    HW111414   4.166   0.186   4.214
 3505SOL    HW211415   4.027   0.148   4.290
 3506SOL     OW11416   6.182   3.079   3.261
 3506SOL    HW111417   6.203   3.018   3.337
 3506SOL    HW211418   6.112   3.038   3.203
 3507SOL     OW11419   0.083   6.656   5.487
 3507SOL    HW111420   0.082   6.597   5.406
 3507SOL    HW211421   0.157   6.723   5.478
 3508SOL     OW11422   0.418   4.614   0.039
 3508SOL    HW111423   0.342   4.667   0.001
 3508SOL    HW211424   0.493   4.675   0.064
 3509SOL     OW11425   3.406   6.697   0.253
 3509SOL    HW111426   3.390   6.620   0.315
 3509SOL    HW211427   3.409   6.663   0.159
 3510SOL     OW11428   2.348   1.699   3.241
 3510SOL    HW111429   2.301   1.666   3.159
 3510SOL    HW211430   2.445   1.674   3.235
 3511SOL     OW11431   0.545   1.142   3.996
 3511SOL    HW111432   0.559   1.085   3.915
 3511SOL    HW211433   0.493   1.090   4.064
 3512SOL     OW11434   3.166   3.046   2.048
 3512SOL    HW111435   3.161   3.085   1.956
 3512SOL    HW211436   3.079   3.059   2.094
 3513SOL     OW11437   6.737   4.836   0.457
 3513SOL    HW111438   6.715   4.811   0.363
 3513SOL    HW211439   6.660   4.885   0.498
 3514SOL     OW11440   3.158   5.804   3.654
 3514SOL    HW111441   3.248   5.846   3.638
 3514SOL    HW211442   3.162   5.707   3.631
 3515SOL     OW11443   3.519   5.604   4.318
 3515SOL    HW111444   3.553   5.542   4.389
 3515SOL    HW211445   3.491   5.551   4.238
 3516SOL     OW11446   1.794   1.478   0.485
 3516SOL    HW111447   1.833   1.526   0.564
 3516SOL    HW211448   1.792   1.380   0.504
 3517SOL     OW11449   0.571   1.152   6.479
 3517SOL    HW111450   0.493   1.174   6.538
 3517SOL    HW211451   0.656   1.171   6.528
 3518SOL     OW11452   4.285   3.548   6.017
 3518SOL    HW111453   4.253   3.641   6.036
 3518SOL    HW211454   4.254   3.487   6.090
 3519SOL     OW11455   4.519   0.515   6.028
 3519SOL    HW111456   4.570   0.486   5.946
 3519SOL    HW211457   4.429   0.471   6.028
 3520SOL     OW11458   4.383   5.110   1.387
 3520SOL    HW111459   4.320   5.069   1.453
 3520SOL    HW211460   4.419   5.196   1.423
 3521SOL     OW11461   0.288   1.638   5.632
 3521SOL    HW111462   0.358   1.570   5.611
 3521SOL    HW211463   0.322   1.701   5.702
 3522SOL     OW11464   2.560   0.564   1.024
 3522SOL    HW111465   2.594   0.477   0.989
 3522SOL    HW211466   2.512   0.613   0.952
 3523SOL     OW11467   2.201   4.625   4.270
 3523SOL    HW111468   2.164   4.643   4.179
 3523SOL    HW211469   2.225   4.711   4.314
 3524SOL     OW11470   2.897   1.453   3.264
 3524SOL    HW111471   2.953   1.532   3.288
 3524SOL    HW211472   2.820   1.447   3.328
 3525SOL     OW11473   1.922   3.340   3.594
 3525SOL    HW111474   1.889   3.245   3.599
 3525SOL    HW211475   1.910   3.383   3.683
 3526SOL     OW11476   3.347   5.773   4.126
 3526SOL    HW111477   3.358   5.841   4.199
 3526SOL    HW211478   3.388   5.686   4.155
 3527SOL     OW11479   6.860   4.212   6.927
 3527SOL    HW111480   6.796   4.139   6.902
 3527SOL    HW211481   6.841   4.242   0.004
 3528SOL     OW11482   0.694   6.245   3.679
 3528SOL    HW111483   0.679   6.284   3.588
 3528SOL    HW211484   0.760   6.171   3.673
 3529SOL     OW11485   3.740   0.114   0.126
 3529SOL    HW111486   3.759   0.126   0.028
 3529SOL    HW211487   3.660   0.055   0.137
 3530SOL     OW11488   2.190   5.188   1.963
 3530SOL    HW111489   2.114   5.164   2.023
 3530SOL    HW211490   2.170   5.159   1.870
 3531SOL     OW11491   5.223   3.924   0.006
 3531SOL    HW111492   5.148   3.871   0.045
 3531SOL    HW211493   5.186   3.988   6.953
 3532SOL     OW11494   2.587   0.258   6.062
 3532SOL    HW111495   2.654   0.329   6.040
 3532SOL    HW211496   2.591   0.238   6.160
 3533SOL     OW11497   1.438   1.228   2.769
 3533SOL    HW111498   1.532   1.258   2.756
 3533SOL    HW211499   1.381   1.266   2.696
 3534SOL     OW11500   4.591   6.756   4.576
 3534SOL    HW111501   4.631   6.665   4.585
 3534SOL    HW211502   4.540   6.778   4.659
 3535SOL     OW11503   3.708   4.603   0.150
 3535SOL    HW111504   3.675   4.541   0.080
 3535SOL    HW211505   3.663   4.584   0.237
 3536SOL     OW11506   2.051   3.175   2.513
 3536SOL    HW111507   2.062   3.261   2.463
 3536SOL    HW211508   2.129   3.162   2.574
 3537SOL     OW11509   3.146   5.130   1.284
 3537SOL    HW111510   3.131   5.180   1.369
 3537SOL    HW211511   3.059   5.097   1.249
 3538SOL     OW11512   2.715   0.179   3.887
 3538SOL    HW111513   2.757   0.270   3.886
 3538SOL    HW211514   2.720   0.139   3.796
 3539SOL     OW11515   5.377   5.036   6.241
 3539SOL    HW111516   5.424   5.035   6.329
 3539SOL    HW211517   5.288   4.990   6.250
 3540SOL     OW11518   5.523   3.677   6.857
 3540SOL    HW111519   5.456   3.611   6.891
 3540SOL    HW211520   5.491   3.769   6.877
 3541SOL     OW11521   0.295   3.100   2.566
 3541SOL    HW111522   0.242   3.136   2.489
 3541SOL    HW211523   0.309   3.173   2.634
 3542SOL     OW11524   6.264   0.407   6.708
 3542SOL    HW111525   6.240   0.410   6.804
 3542SOL    HW211526   6.209   0.337   6.662
 3543SOL     OW11527   0.580   2.840   4.945
 3543SOL    HW111528   0.638   2.922   4.940
 3543SOL    HW211529   0.598   2.792   5.031
 3544SOL     OW11530   4.218   4.891   5.693
 3544SOL    HW111531   4.149   4.859   5.758
 3544SOL    HW211532   4.286   4.946   5.741
 3545SOL     OW11533   2.521   6.453   1.826
 3545SOL    HW111534   2.589   6.497   1.884
 3545SOL    HW211535   2.430   6.470   1.862
 3546SOL     OW11536   6.712   3.885   1.293
 3546SOL    HW111537   6.624   3.932   1.298
 3546SOL    HW211538   6.739   3.875   1.197
 3547SOL     OW11539   1.639   4.344   4.128
 3547SOL    HW111540   1.550   4.326   4.171
 3547SOL    HW211541   1.664   4.440   4.142
 3548SOL     OW11542   6.042   6.595   5.534
 3548SOL    HW111543   6.106   6.594   5.610
 3548SOL    HW211544   5.958   6.547   5.561
 3549SOL     OW11545   1.388   0.250   6.659
 3549SOL    HW111546   1.433   0.305   6.729
 3549SOL    HW211547   1.453   0.183   6.623
 3550SOL     OW11548   6.731   2.335   4.639
 3550SOL    HW111549   6.777   2.382   4.714
 3550SOL    HW211550   6.707   2.243   4.667
 3551SOL     OW11551   6.538   1.754   5.479
 3551SOL    HW111552   6.485   1.775   5.397
 3551SOL    HW211553   6.636   1.760   5.458
 3552SOL     OW11554   6.062   0.914   4.008
 3552SOL    HW111555   6.052   0.840   3.942
 3552SOL    HW211556   6.095   0.877   4.095
 3553SOL     OW11557   5.586   5.852   6.583
 3553SOL    HW111558   5.614   5.865   6.678
 3553SOL    HW211559   5.627   5.768   6.547
 3554SOL     OW11560   6.157   3.146   6.870
 3554SOL    HW111561   6.092   3.177   6.800
 3554SOL    HW211562   6.229   3.215   6.881
 3555SOL     OW11563   2.808   0.787   4.830
 3555SOL    HW111564   2.724   0.765   4.779
 3555SOL    HW211565   2.785   0.848   4.906
 3556SOL     OW11566   5.374   1.501   0.513
 3556SOL    HW111567   5.431   1.523   0.593
 3556SOL    HW211568   5.421   1.528   0.430
 3557SOL     OW11569   5.097   0.745   0.887
 3557SOL    HW111570   5.077   0.776   0.979
 3557SOL    HW211571   5.077   0.648   0.879
 3558SOL     OW11572   4.406   5.879   3.611
 3558SOL    HW111573   4.378   5.868   3.707
 3558SOL    HW211574   4.367   5.805   3.556
 3559SOL     OW11575   4.365   6.184   6.903
 3559SOL    HW111576   4.405   6.142   6.821
 3559SOL    HW211577   4.321   6.270   6.877
 3560SOL     OW11578   1.766   5.643   4.046
 3560SOL    HW111579   1.755   5.634   4.145
 3560SOL    HW211580   1.799   5.734   4.024
 3561SOL     OW11581   4.450   3.143   6.328
 3561SOL    HW111582   4.353   3.118   6.328
 3561SOL    HW211583   4.472   3.194   6.411
 3562SOL     OW11584   2.821   0.986   0.625
 3562SOL    HW111585   2.816   1.083   0.650
 3562SOL    HW211586   2.846   0.932   0.705
 3563SOL     OW11587   6.035   2.078   5.999
 3563SOL    HW111588   5.950   2.075   5.947
 3563SOL    HW211589   6.027   2.144   6.073
 3564SOL     OW11590   5.840   2.764   2.949
 3564SOL    HW111591   5.805   2.674   2.975
 3564SOL    HW211592   5.791   2.834   3.002
 3565SOL     OW11593   4.992   6.347   5.317
 3565SOL    HW111594   4.945   6.391   5.241
 3565SOL    HW211595   5.028   6.417   5.379
 3566SOL     OW11596   0.651   0.935   4.521
 3566SOL    HW111597   0.689   0.995   4.591
 3566SOL    HW211598   0.605   0.858   4.565
 3567SOL     OW11599   1.571   4.436   6.830
 3567SOL    HW111600   1.653   4.387   6.859
 3567SOL    HW211601   1.491   4.398   6.876
 3568SOL     OW11602   1.914   3.976   5.353
 3568SOL    HW111603   2.000   3.930   5.371
 3568SOL    HW211604   1.842   3.938   5.411
 3569SOL     OW11605   0.511   0.267   3.442
 3569SOL    HW111606   0.470   0.323   3.515
 3569SOL    HW211607   0.467   0.290   3.355
 3570SOL     OW11608   0.280   1.756   4.628
 3570SOL    HW111609   0.212   1.826   4.606
 3570SOL    HW211610   0.272   1.733   4.725
 3571SOL     OW11611   0.043   5.558   5.169
 3571SOL    HW111612   0.038   5.466   5.209
 3571SOL    HW211613   0.029   5.625   5.242
 3572SOL     OW11614   5.066   6.986   5.248
 3572SOL    HW111615   5.001   0.043   5.266
 3572SOL    HW211616   5.017   6.905   5.215
 3573SOL     OW11617   0.192   2.736   1.985
 3573SOL    HW111618   0.137   2.739   2.068
 3573SOL    HW211619   0.208   2.830   1.953
 3574SOL     OW11620   1.125   3.788   0.188
 3574SOL    HW111621   1.045   3.808   0.244
 3574SOL    HW211622   1.109   3.818   0.094
 3575SOL     OW11623   6.869   0.635   2.441
 3575SOL    HW111624   6.923   0.655   2.359
 3575SOL    HW211625   6.777   0.606   2.414
 3576SOL     OW11626   0.714   0.820   0.824
 3576SOL    HW111627   0.807   0.840   0.855
 3576SOL    HW211628   0.702   0.855   0.731
 3577SOL     OW11629   1.852   4.643   0.614
 3577SOL    HW111630   1.861   4.548   0.645
 3577SOL    HW211631   1.909   4.701   0.672
 3578SOL     OW11632   3.582   4.965   1.801
 3578SOL    HW111633   3.574   4.889   1.866
 3578SOL    HW211634   3.545   4.938   1.713
 3579SOL     OW11635   2.626   2.670   6.769
 3579SOL    HW111636   2.598   2.764   6.747
 3579SOL    HW211637   2.721   2.670   6.801
 3580SOL     OW11638   5.426   0.838   2.511
 3580SOL    HW111639   5.363   0.808   2.583
 3580SOL    HW211640   5.517   0.802   2.531
 3581SOL     OW11641   0.171   1.878   2.593
 3581SOL    HW111642   0.103   1.950   2.608
 3581SOL    HW211643   0.249   1.893   2.655
 3582SOL     OW11644   0.886   0.545   5.969
 3582SOL    HW111645   0.876   0.451   5.936
 3582SOL    HW211646   0.809   0.600   5.936
 3583SOL     OW11647   1.064   0.009   2.449
 3583SOL    HW111648   1.055   0.087   2.386
 3583SOL    HW211649   0.987   0.009   2.512
 3584SOL     OW11650   5.321   0.373   5.025
 3584SOL    HW111651   5.418   0.395   5.032
 3584SOL    HW211652   5.272   0.449   4.981
 3585SOL     OW11653   2.075   5.073   2.268
 3585SOL    HW111654   1.977   5.081   2.247
 3585SOL    HW211655   2.095   5.123   2.352
 3586SOL     OW11656   1.348   1.155   6.411
 3586SOL    HW111657   1.391   1.177   6.499
 3586SOL    HW211658   1.374   1.224   6.343
 3587SOL     OW11659   4.034   6.032   5.551
 3587SOL    HW111660   4.005   6.024   5.456
 3587SOL    HW211661   3.984   5.965   5.607
 3588SOL     OW11662   2.613   2.488   5.373
 3588SOL    HW111663   2.603   2.503   5.274
 3588SOL    HW211664   2.643   2.573   5.417
 3589SOL     OW11665   2.840   6.041   4.855
 3589SOL    HW111666   2.841   6.004   4.762
 3589SOL    HW211667   2.804   5.972   4.918
 3590SOL     OW11668   0.963   6.275   6.816
 3590SOL    HW111669   1.027   6.324   6.756
 3590SOL    HW211670   0.912   6.341   6.871
 3591SOL     OW11671   4.505   2.434   4.122
 3591SOL    HW111672   4.504   2.498   4.200
 3591SOL    HW211673   4.600   2.422   4.092
 3592SOL     OW11674   5.657   1.217   1.972
 3592SOL    HW111675   5.733   1.200   2.035
 3592SOL    HW211676   5.599   1.136   1.966
 3593SOL     OW11677   1.201   5.087   4.870
 3593SOL    HW111678   1.258   5.053   4.795
 3593SOL    HW211679   1.244   5.064   4.957
 3594SOL     OW11680   4.354   1.955   4.501
 3594SOL    HW111681   4.403   2.011   4.567
 3594SOL    HW211682   4.402   1.868   4.489
 3595SOL     OW11683   1.948   6.813   6.502
 3595SOL    HW111684   1.869   6.823   6.563
 3595SOL    HW211685   1.955   6.718   6.471
 3596SOL     OW11686   6.193   3.230   2.760
 3596SOL    HW111687   6.151   3.291   2.693
 3596SOL    HW211688   6.261   3.280   2.813
 3597SOL     OW11689   4.192   0.196   3.664
 3597SOL    HW111690   4.106   0.246   3.680
 3597SOL    HW211691   4.172   0.115   3.609
 3598SOL     OW11692   2.199   6.995   0.255
 3598SOL    HW111693   2.242   0.022   0.176
 3598SOL    HW211694   2.270   6.949   0.310
 3599SOL     OW11695   0.403   2.244   4.484
 3599SOL    HW111696   0.337   2.188   4.434
 3599SOL    HW211697   0.398   2.224   4.581
 3600SOL     OW11698   6.594   6.340   0.719
 3600SOL    HW111699   6.568   6.284   0.640
 3600SOL    HW211700   6.657   6.288   0.777
 3601SOL     OW11701   6.885   3.897   6.071
 3601SOL    HW111702   6.933   3.968   6.021
 3601SOL    HW211703   6.951   3.834   6.112
 3602SOL     OW11704   3.743   2.238   1.089
 3602SOL    HW111705   3.824   2.258   1.144
 3602SOL    HW211706   3.743   2.297   1.008
 3603SOL     OW11707   3.728   5.352   4.955
 3603SOL    HW111708   3.724   5.289   5.033
 3603SOL    HW211709   3.790   5.315   4.886
 3604SOL     OW11710   5.565   4.315   3.328
 3604SOL    HW111711   5.644   4.329   3.268
 3604SOL    HW211712   5.565   4.384   3.401
 3605SOL     OW11713   5.848   1.005   6.590
 3605SOL    HW111714   5.878   1.041   6.502
 3605SOL    HW211715   5.817   1.080   6.648
 3606SOL     OW11716   1.897   4.122   2.394
 3606SOL    HW111717   1.906   4.125   2.294
 3606SOL    HW211718   1.970   4.177   2.436
 3607SOL     OW11719   4.739   6.214   4.962
 3607SOL    HW111720   4.787   6.291   5.003
 3607SOL    HW211721   4.688   6.245   4.881
 3608SOL     OW11722   6.980   3.461   2.618
 3608SOL    HW111723   6.980   3.371   2.660
 3608SOL    HW211724   6.903   3.514   2.652
 3609SOL     OW11725   0.749   0.899   3.589
 3609SOL    HW111726   0.793   0.894   3.499
 3609SOL    HW211727   0.811   0.942   3.654
 3610SOL     OW11728   1.786   4.701   5.307
 3610SOL    HW111729   1.738   4.652   5.234
 3610SOL    HW211730   1.724   4.714   5.384
 3611SOL     OW11731   4.434   4.771   6.758
 3611SOL    HW111732   4.418   4.772   6.659
 3611SOL    HW211733   4.489   4.690   6.781
 3612SOL     OW11734   2.791   5.611   1.502
 3612SOL    HW111735   2.798   5.583   1.597
 3612SOL    HW211736   2.851   5.554   1.446
 3613SOL     OW11737   5.553   4.289   6.616
 3613SOL    HW111738   5.478   4.254   6.559
 3613SOL    HW211739   5.537   4.386   6.636
 3614SOL     OW11740   3.868   3.117   4.848
 3614SOL    HW111741   3.904   3.103   4.756
 3614SOL    HW211742   3.815   3.036   4.875
 3615SOL     OW11743   5.880   6.502   6.807
 3615SOL    HW111744   5.886   6.500   6.907
 3615SOL    HW211745   5.838   6.588   6.778
 3616SOL     OW11746   6.947   1.269   4.317
 3616SOL    HW111747   6.951   1.369   4.321
 3616SOL    HW211748   6.986   1.230   4.400
 3617SOL     OW11749   0.246   0.994   1.480
 3617SOL    HW111750   0.241   0.915   1.419
 3617SOL    HW211751   0.173   0.988   1.548
 3618SOL     OW11752   3.725   5.379   6.432
 3618SOL    HW111753   3.655   5.311   6.410
 3618SOL    HW211754   3.700   5.426   6.517
 3619SOL     OW11755   4.900   3.310   3.718
 3619SOL    HW111756   4.995   3.286   3.701
 3619SOL    HW211757   4.847   3.304   3.633
 3620SOL     OW11758   5.864   1.848   5.517
 3620SOL    HW111759   5.947   1.865   5.570
 3620SOL    HW211760   5.887   1.836   5.421
 3621SOL     OW11761   2.827   2.555   6.417
 3621SOL    HW111762   2.867   2.592   6.501
 3621SOL    HW211763   2.753   2.615   6.387
 3622SOL     OW11764   1.345   3.877   0.869
 3622SOL    HW111765   1.316   3.972   0.863
 3622SOL    HW211766   1.265   3.817   0.870
 3623SOL     OW11767   6.262   5.225   4.562
 3623SOL    HW111768   6.294   5.297   4.500
 3623SOL    HW211769   6.238   5.265   4.650
 3624SOL     OW11770   1.916   6.898   1.706
 3624SOL    HW111771   1.857   6.818   1.702
 3624SOL    HW211772   1.981   6.889   1.781
 3625SOL     OW11773   1.532   2.520   5.387
 3625SOL    HW111774   1.515   2.462   5.467
 3625SOL    HW211775   1.447   2.566   5.361
 3626SOL     OW11776   2.086   3.131   5.355
 3626SOL    HW111777   2.092   3.085   5.443
 3626SOL    HW211778   2.094   3.064   5.281
 3627SOL     OW11779   4.056   3.158   4.034
 3627SOL    HW111780   4.049   3.184   4.130
 3627SOL    HW211781   4.072   3.060   4.027
 3628SOL     OW11782   2.614   5.160   4.069
 3628SOL    HW111783   2.539   5.226   4.069
 3628SOL    HW211784   2.674   5.177   4.147
 3629SOL     OW11785   6.178   3.886   4.831
 3629SOL    HW111786   6.230   3.969   4.813
 3629SOL    HW211787   6.224   3.808   4.790
 3630SOL     OW11788   6.175   2.094   4.327
 3630SOL    HW111789   6.266   2.133   4.340
 3630SOL    HW211790   6.170   2.005   4.372
 3631SOL     OW11791   2.358   1.290   4.330
 3631SOL    HW111792   2.291   1.330   4.392
 3631SOL    HW211793   2.427   1.358   4.306
 3632SOL     OW11794   4.906   6.727   6.759
 3632SOL    HW111795   4.978   6.660   6.774
 3632SOL    HW211796   4.941   6.819   6.778
 3633SOL     OW11797   0.959   2.811   5.728
 3633SOL    HW111798   1.032   2.812   5.659
 3633SOL    HW211799   0.961   2.725   5.778
 3634SOL     OW11800   2.196   4.586   6.485
 3634SOL    HW111801   2.149   4.521   6.544
 3634SOL    HW211802   2.133   4.659   6.458
 3635SOL     OW11803   1.470   2.042   4.573
 3635SOL    HW111804   1.421   2.110   4.519
 3635SOL    HW211805   1.530   1.988   4.513
 3636SOL     OW11806   0.647   6.817   1.503
 3636SOL    HW111807   0.664   6.725   1.539
 3636SOL    HW211808   0.602   6.873   1.573
 3637SOL     OW11809   5.578   1.561   2.333
 3637SOL    HW111810   5.573   1.661   2.327
 3637SOL    HW211811   5.518   1.529   2.406
 3638SOL     OW11812   6.564   5.289   3.177
 3638SOL    HW111813   6.528   5.382   3.174
 3638SOL    HW211814   6.653   5.286   3.130
 3639SOL     OW11815   2.750   5.550   0.013
 3639SOL    HW111816   2.764   5.527   6.933
 3639SOL    HW211817   2.767   5.470   0.070
 3640SOL     OW11818   2.416   6.922   3.580
 3640SOL    HW111819   2.483   6.995   3.569
 3640SOL    HW211820   2.335   6.942   3.525
 3641SOL     OW11821   2.069   0.124   5.020
 3641SOL    HW111822   2.163   0.148   5.045
 3641SOL    HW211823   2.005   0.189   5.061
 3642SOL     OW11824   6.095   0.636   2.614
 3642SOL    HW111825   6.009   0.685   2.625
 3642SOL    HW211826   6.168   0.685   2.663
 3643SOL     OW11827   4.092   6.936   3.774
 3643SOL    HW111828   4.123   6.925   3.868
 3643SOL    HW211829   4.167   6.969   3.717
 3644SOL     OW11830   5.841   0.438   1.203
 3644SOL    HW111831   5.886   0.513   1.250
 3644SOL    HW211832   5.759   0.471   1.156
 3645SOL     OW11833   4.321   5.198   3.893
 3645SOL    HW111834   4.337   5.125   3.960
 3645SOL    HW211835   4.264   5.269   3.933
 3646SOL     OW11836   0.552   5.611   4.886
 3646SOL    HW111837   0.598   5.615   4.974
 3646SOL    HW211838   0.458   5.645   4.896
 3647SOL     OW11839   4.071   2.643   0.681
 3647SOL    HW111840   4.094   2.557   0.635
 3647SOL    HW211841   4.025   2.704   0.617
 3648SOL     OW11842   2.039   6.228   3.878
 3648SOL    HW111843   2.007   6.239   3.972
 3648SOL    HW211844   2.115   6.290   3.861
 3649SOL     OW11845   3.750   2.951   2.916
 3649SOL    HW111846   3.762   2.961   2.817
 3649SOL    HW211847   3.652   2.955   2.938
 3650SOL     OW11848   5.746   5.961   2.037
 3650SOL    HW111849   5.711   6.055   2.035
 3650SOL    HW211850   5.722   5.915   1.951
 3651SOL     OW11851   1.773   5.591   1.659
 3651SOL    HW111852   1.772   5.573   1.758
 3651SOL    HW211853   1.682   5.571   1.622
 3652SOL     OW11854   4.248   6.582   3.926
 3652SOL    HW111855   4.214   6.675   3.937
 3652SOL    HW211856   4.256   6.561   3.828
 3653SOL     OW11857   0.220   3.442   3.418
 3653SOL    HW111858   0.195   3.508   3.348
 3653SOL    HW211859   0.139   3.415   3.470
 3654SOL     OW11860   2.191   0.076   1.603
 3654SOL    HW111861   2.105   0.104   1.560
 3654SOL    HW211862   2.186   6.996   1.628
 3655SOL     OW11863   6.417   1.005   3.677
 3655SOL    HW111864   6.408   1.003   3.777
 3655SOL    HW211865   6.433   1.099   3.647
 3656SOL     OW11866   1.605   1.761   2.696
 3656SOL    HW111867   1.697   1.721   2.696
 3656SOL    HW211868   1.612   1.861   2.697
 3657SOL     OW11869   5.890   5.028   1.175
 3657SOL    HW111870   5.805   4.989   1.139
 3657SOL    HW211871   5.871   5.070   1.264
 3658SOL     OW11872   2.758   4.223   5.361
 3658SOL    HW111873   2.678   4.198   5.416
 3658SOL    HW211874   2.734   4.294   5.296
 3659SOL     OW11875   1.489   3.257   0.043
 3659SOL    HW111876   1.507   3.197   0.121
 3659SOL    HW211877   1.428   3.211   6.995
 3660SOL     OW11878   5.174   3.841   0.864
 3660SOL    HW111879   5.162   3.851   0.963
 3660SOL    HW211880   5.085   3.832   0.821
 3661SOL     OW11881   5.051   0.546   2.567
 3661SOL    HW111882   4.979   0.481   2.541
 3661SOL    HW211883   5.127   0.539   2.502
 3662SOL     OW11884   1.752   6.668   4.371
 3662SOL    HW111885   1.688   6.717   4.312
 3662SOL    HW211886   1.756   6.572   4.343
 3663SOL     OW11887   2.731   2.709   5.867
 3663SOL    HW111888   2.645   2.675   5.907
 3663SOL    HW211889   2.720   2.804   5.840
 3664SOL     OW11890   3.826   0.176   2.013
 3664SOL    HW111891   3.880   0.102   2.053
 3664SOL    HW211892   3.884   0.258   2.003
 3665SOL     OW11893   2.207   1.672   5.303
 3665SOL    HW111894   2.242   1.579   5.301
 3665SOL    HW211895   2.130   1.677   5.366
 3666SOL     OW11896   0.882   4.666   3.051
 3666SOL    HW111897   0.790   4.640   3.079
 3666SOL    HW211898   0.946   4.593   3.075
 3667SOL     OW11899   0.328   0.447   7.010
 3667SOL    HW111900   0.348   0.497   6.925
 3667SOL    HW211901   0.243   0.482   0.034
 3668SOL     OW11902   1.880   0.074   1.046
 3668SOL    HW111903   1.944   0.151   1.057
 3668SOL    HW211904   1.790   0.101   1.080
 3669SOL     OW11905   5.232   1.503   4.371
 3669SOL    HW111906   5.252   1.427   4.309
 3669SOL    HW211907   5.292   1.580   4.350
 3670SOL     OW11908   3.474   4.890   6.000
 3670SOL    HW111909   3.400   4.940   6.046
 3670SOL    HW211910   3.559   4.941   6.010
 3671SOL     OW11911   1.784   1.617   2.979
 3671SOL    HW111912   1.720   1.687   3.009
 3671SOL    HW211913   1.735   1.531   2.964
 3672SOL     OW11914   5.879   5.953   0.053
 3672SOL    HW111915   5.847   6.014   6.996
 3672SOL    HW211916   5.874   6.001   0.140
 3673SOL     OW11917   3.508   6.776   6.088
 3673SOL    HW111918   3.410   6.794   6.098
 3673SOL    HW211919   3.550   6.769   6.178
 3674SOL     OW11920   1.213   6.342   0.851
 3674SOL    HW111921   1.173   6.428   0.882
 3674SOL    HW211922   1.225   6.344   0.752
 3675SOL     OW11923   1.841   1.972   4.219
 3675SOL    HW111924   1.814   2.068   4.217
 3675SOL    HW211925   1.794   1.923   4.145
 3676SOL     OW11926   0.511   4.781   2.593
 3676SOL    HW111927   0.526   4.870   2.550
 3676SOL    HW211928   0.587   4.761   2.656
 3677SOL     OW11929   6.481   1.189   3.290
 3677SOL    HW111930   6.563   1.226   3.247
 3677SOL    HW211931   6.504   1.105   3.339
 3678SOL     OW11932   0.667   2.706   3.902
 3678SOL    HW111933   0.656   2.798   3.863
 3678SOL    HW211934   0.586   2.651   3.883
 3679SOL     OW11935   6.442   1.273   1.590
 3679SOL    HW111936   6.394   1.194   1.627
 3679SOL    HW211937   6.537   1.273   1.623
 3680SOL     OW11938   6.614   4.076   5.164
 3680SOL    HW111939   6.617   4.170   5.130
 3680SOL    HW211940   6.537   4.028   5.123
 3681SOL     OW11941   5.167   0.395   4.506
 3681SOL    HW111942   5.149   0.491   4.526
 3681SOL    HW211943   5.143   0.375   4.411
 3682SOL     OW11944   0.483   2.008   0.113
 3682SOL    HW111945   0.414   1.955   0.064
 3682SOL    HW211946   0.569   2.006   0.063
 3683SOL     OW11947   4.516   6.367   3.907
 3683SOL    HW111948   4.596   6.306   3.907
 3683SOL    HW211949   4.489   6.387   3.813
 3684SOL     OW11950   2.135   3.957   2.107
 3684SOL    HW111951   2.165   3.875   2.058
 3684SOL    HW211952   2.135   3.939   2.205
 3685SOL     OW11953   5.783   5.649   6.206
 3685SOL    HW111954   5.688   5.620   6.191
 3685SOL    HW211955   5.785   5.746   6.229
 3686SOL     OW11956   0.640   4.099   0.489
 3686SOL    HW111957   0.594   4.012   0.501
 3686SOL    HW211958   0.585   4.172   0.529
 3687SOL     OW11959   3.934   1.252   1.120
 3687SOL    HW111960   3.998   1.329   1.109
 3687SOL    HW211961   3.967   1.192   1.193
 3688SOL     OW11962   0.078   2.448   6.708
 3688SOL    HW111963   0.145   2.382   6.672
 3688SOL    HW211964   0.125   2.534   6.729
 3689SOL     OW11965   1.146   6.134   3.522
 3689SOL    HW111966   1.083   6.060   3.546
 3689SOL    HW211967   1.172   6.124   3.426
 3690SOL     OW11968   4.941   4.542   5.811
 3690SOL    HW111969   4.854   4.588   5.831
 3690SOL    HW211970   4.930   4.482   5.732
 3691SOL     OW11971   3.181   3.179   6.569
 3691SOL    HW111972   3.202   3.272   6.538
 3691SOL    HW211973   3.094   3.149   6.529
 3692SOL     OW11974   6.615   0.506   5.214
 3692SOL    HW111975   6.615   0.532   5.117
 3692SOL    HW211976   6.687   0.439   5.230
 3693SOL     OW11977   1.442   1.600   3.638
 3693SOL    HW111978   1.478   1.678   3.588
 3693SOL    HW211979   1.508   1.571   3.707
 3694SOL     OW11980   1.723   4.888   3.301
 3694SOL    HW111981   1.772   4.807   3.331
 3694SOL    HW211982   1.647   4.906   3.364
 3695SOL     OW11983   2.533   2.686   0.756
 3695SOL    HW111984   2.594   2.680   0.835
 3695SOL    HW211985   2.482   2.601   0.747
 3696SOL     OW11986   2.940   5.843   5.884
 3696SOL    HW111987   2.953   5.747   5.907
 3696SOL    HW211988   3.028   5.890   5.882
 3697SOL     OW11989   5.427   1.213   2.952
 3697SOL    HW111990   5.328   1.205   2.955
 3697SOL    HW211991   5.458   1.213   2.857
 3698SOL     OW11992   3.552   6.979   5.691
 3698SOL    HW111993   3.470   6.922   5.688
 3698SOL    HW211994   3.576   7.008   5.598
 3699SOL     OW11995   1.096   5.374   2.503
 3699SOL    HW111996   1.133   5.286   2.474
 3699SOL    HW211997   0.996   5.368   2.506
 3700SOL     OW11998   6.322   6.919   4.017
 3700SOL    HW111999   6.399   6.965   3.972
 3700SOL    HW212000   6.237   6.960   3.986
 3701SOL     OW12001   4.050   1.403   3.682
 3701SOL    HW112002   4.128   1.388   3.621
 3701SOL    HW212003   4.050   1.498   3.713
 3702SOL     OW12004   4.876   1.234   6.310
 3702SOL    HW112005   4.840   1.320   6.274
 3702SOL    HW212006   4.801   1.171   6.329
 3703SOL     OW12007   3.562   4.612   0.669
 3703SOL    HW112008   3.507   4.692   0.691
 3703SOL    HW212009   3.616   4.586   0.749
 3704SOL     OW12010   3.580   6.299   0.709
 3704SOL    HW112011   3.652   6.344   0.761
 3704SOL    HW212012   3.539   6.364   0.645
 3705SOL     OW12013   6.956   1.189   3.997
 3705SOL    HW112014   6.967   1.117   4.066
 3705SOL    HW212015   7.011   1.166   3.917
 3706SOL     OW12016   2.575   2.335   3.108
 3706SOL    HW112017   2.616   2.311   3.020
 3706SOL    HW212018   2.648   2.356   3.174
 3707SOL     OW12019   4.238   2.099   5.325
 3707SOL    HW112020   4.326   2.070   5.287
 3707SOL    HW212021   4.203   2.029   5.386
 3708SOL     OW12022   6.311   6.328   0.513
 3708SOL    HW112023   6.360   6.406   0.474
 3708SOL    HW212024   6.365   6.245   0.502
 3709SOL     OW12025   0.562   6.150   6.524
 3709SOL    HW112026   0.608   6.153   6.613
 3709SOL    HW212027   0.618   6.199   6.457
 3710SOL     OW12028   1.093   5.065   6.230
 3710SOL    HW112029   1.105   5.017   6.143
 3710SOL    HW212030   0.996   5.074   6.250
 3711SOL     OW12031   6.337   5.007   2.123
 3711SOL    HW112032   6.307   4.984   2.030
 3711SOL    HW212033   6.267   4.976   2.189
 3712SOL     OW12034   1.605   0.189   5.402
 3712SOL    HW112035   1.584   0.275   5.449
 3712SOL    HW212036   1.530   0.166   5.340
 3713SOL     OW12037   3.335   4.651   5.987
 3713SOL    HW112038   3.390   4.732   5.965
 3713SOL    HW212039   3.243   4.681   6.015
 3714SOL     OW12040   5.007   2.660   4.553
 3714SOL    HW112041   4.956   2.730   4.602
 3714SOL    HW212042   5.012   2.577   4.609
 3715SOL     OW12043   4.581   4.400   3.979
 3715SOL    HW112044   4.487   4.373   3.962
 3715SOL    HW212045   4.598   4.491   3.939
 3716SOL     OW12046   1.598   1.236   4.717
 3716SOL    HW112047   1.619   1.213   4.812
 3716SOL    HW212048   1.625   1.331   4.699
 3717SOL     OW12049   6.114   0.221   6.568
 3717SOL    HW112050   6.170   0.143   6.543
 3717SOL    HW212051   6.037   0.191   6.625
 3718SOL     OW12052   0.693   6.759   6.206
 3718SOL    HW112053   0.657   6.844   6.243
 3718SOL    HW212054   0.637   6.682   6.237
 3719SOL     OW12055   3.646   4.107   0.467
 3719SOL    HW112056   3.727   4.061   0.504
 3719SOL    HW212057   3.574   4.107   0.536
 3720SOL     OW12058   6.809   1.329   6.400
 3720SOL    HW112059   6.844   1.245   6.357
 3720SOL    HW212060   6.769   1.388   6.330
 3721SOL     OW12061   5.874   2.596   0.307
 3721SOL    HW112062   5.899   2.692   0.312
 3721SOL    HW212063   5.807   2.583   0.233
 3722SOL     OW12064   4.275   5.867   0.887
 3722SOL    HW112065   4.198   5.931   0.898
 3722SOL    HW212066   4.242   5.773   0.896
 3723SOL     OW12067   3.626   1.310   0.470
 3723SOL    HW112068   3.570   1.326   0.389
 3723SOL    HW212069   3.688   1.234   0.454
 3724SOL     OW12070   1.158   3.665   6.470
 3724SOL    HW112071   1.088   3.625   6.410
 3724SOL    HW212072   1.146   3.630   6.563
 3725SOL     OW12073   5.001   6.157   1.984
 3725SOL    HW112074   4.991   6.086   2.055
 3725SOL    HW212075   4.975   6.119   1.895
 3726SOL     OW12076   6.151   3.186   2.200
 3726SOL    HW112077   6.241   3.142   2.193
 3726SOL    HW212078   6.080   3.116   2.206
 3727SOL     OW12079   2.683   2.192   5.438
 3727SOL    HW112080   2.660   2.287   5.461
 3727SOL    HW212081   2.780   2.176   5.456
 3728SOL     OW12082   0.795   3.593   6.686
 3728SOL    HW112083   0.743   3.508   6.680
 3728SOL    HW212084   0.752   3.654   6.753
 3729SOL     OW12085   1.201   3.478   3.560
 3729SOL    HW112086   1.300   3.469   3.554
 3729SOL    HW212087   1.173   3.486   3.656
 3730SOL     OW12088   1.910   6.817   1.093
 3730SOL    HW112089   1.895   6.914   1.075
 3730SOL    HW212090   1.865   6.763   1.021
 3731SOL     OW12091   2.505   6.405   0.124
 3731SOL    HW112092   2.412   6.423   0.093
 3731SOL    HW212093   2.541   6.485   0.171
 3732SOL     OW12094   1.801   3.921   4.122
 3732SOL    HW112095   1.787   3.903   4.219
 3732SOL    HW212096   1.816   4.019   4.108
 3733SOL     OW12097   3.368   3.365   1.608
 3733SOL    HW112098   3.304   3.379   1.683
 3733SOL    HW212099   3.326   3.306   1.539
 3734SOL     OW12100   4.262   1.376   3.467
 3734SOL    HW112101   4.272   1.320   3.385
 3734SOL    HW212102   4.353   1.400   3.502
 3735SOL     OW12103   3.829   2.241   1.703
 3735SOL    HW112104   3.852   2.299   1.624
 3735SOL    HW212105   3.761   2.288   1.759
 3736SOL     OW12106   5.102   0.775   6.140
 3736SOL    HW112107   5.033   0.724   6.089
 3736SOL    HW212108   5.094   0.755   6.237
 3737SOL     OW12109   2.722   0.038   3.663
 3737SOL    HW112110   2.720   6.961   3.700
 3737SOL    HW212111   2.794   0.045   3.594
 3738SOL     OW12112   0.700   0.448   4.238
 3738SOL    HW112113   0.797   0.427   4.247
 3738SOL    HW212114   0.650   0.366   4.210
 3739SOL     OW12115   0.160   3.434   0.692
 3739SOL    HW112116   0.170   3.517   0.747
 3739SOL    HW212117   0.250   3.393   0.677
 3740SOL     OW12118   5.958   0.031   0.252
 3740SOL    HW112119   6.023   6.984   0.208
 3740SOL    HW212120   6.008   0.099   0.304
 3741SOL     OW12121   3.972   0.765   6.562
 3741SOL    HW112122   3.971   0.760   6.662
 3741SOL    HW212123   4.063   0.742   6.529
 3742SOL     OW12124   3.596   3.382   6.464
 3742SOL    HW112125   3.511   3.329   6.462
 3742SOL    HW212126   3.580   3.471   6.419
 3743SOL     OW12127   1.143   5.936   5.900
 3743SOL    HW112128   1.046   5.959   5.897
 3743SOL    HW212129   1.198   6.017   5.879
 3744SOL     OW12130   6.234   4.815   3.515
 3744SOL    HW112131   6.324   4.779   3.538
 3744SOL    HW212132   6.185   4.748   3.459
 3745SOL     OW12133   5.038   4.845   1.497
 3745SOL    HW112134   5.072   4.937   1.475
 3745SOL    HW212135   5.037   4.833   1.596
 3746SOL     OW12136   4.727   1.407   1.106
 3746SOL    HW112137   4.814   1.401   1.056
 3746SOL    HW212138   4.737   1.471   1.182
 3747SOL     OW12139   3.023   6.665   1.247
 3747SOL    HW112140   2.984   6.588   1.197
 3747SOL    HW212141   3.062   6.632   1.333
 3748SOL     OW12142   5.434   0.585   1.872
 3748SOL    HW112143   5.523   0.611   1.834
 3748SOL    HW212144   5.448   0.527   1.952
 3749SOL     OW12145   0.991   0.960   3.902
 3749SOL    HW112146   1.052   0.935   3.978
 3749SOL    HW212147   0.947   0.878   3.866
 3750SOL     OW12148   0.734   3.515   0.002
 3750SOL    HW112149   0.759   3.611   7.007
 3750SOL    HW212150   0.798   3.457   6.968
 3751SOL     OW12151   2.293   4.972   1.355
 3751SOL    HW112152   2.322   4.975   1.450
 3751SOL    HW212153   2.295   5.064   1.317
 3752SOL     OW12154   5.600   5.386   6.459
 3752SOL    HW112155   5.622   5.471   6.507
 3752SOL    HW212156   5.680   5.325   6.462
 3753SOL     OW12157   0.152   1.459   3.806
 3753SOL    HW112158   0.170   1.516   3.886
 3753SOL    HW212159   0.199   1.371   3.816
 3754SOL     OW12160   3.940   1.489   1.368
 3754SOL    HW112161   4.002   1.439   1.308
 3754SOL    HW212162   3.853   1.439   1.375
 3755SOL     OW12163   2.678   6.579   4.633
 3755SOL    HW112164   2.762   6.628   4.657
 3755SOL    HW212165   2.701   6.505   4.569
 3756SOL     OW12166   0.993   6.260   0.646
 3756SOL    HW112167   0.928   6.335   0.629
 3756SOL    HW212168   0.990   6.196   0.569
 3757SOL     OW12169   0.993   5.033   0.025
 3757SOL    HW112170   1.060   4.964   7.014
 3757SOL    HW212171   1.028   5.124   0.003
 3758SOL     OW12172   0.010   5.773   4.081
 3758SOL    HW112173   6.994   5.868   4.077
 3758SOL    HW212174   0.109   5.771   4.078
 3759SOL     OW12175   4.801   0.600   3.487
 3759SOL    HW112176   4.740   0.522   3.502
 3759SOL    HW212177   4.761   0.661   3.420
 3760SOL     OW12178   0.280   1.291   3.437
 3760SOL    HW112179   0.299   1.317   3.532
 3760SOL    HW212180   0.255   1.194   3.434
 3761SOL     OW12181   3.953   0.959   4.635
 3761SOL    HW112182   3.987   0.866   4.651
 3761SOL    HW212183   3.935   1.003   4.724
 3762SOL     OW12184   6.648   1.882   3.300
 3762SOL    HW112185   6.562   1.907   3.344
 3762SOL    HW212186   6.643   1.903   3.202
 3763SOL     OW12187   0.906   0.065   6.402
 3763SOL    HW112188   0.820   0.037   6.445
 3763SOL    HW212189   0.958   6.999   6.375
 3764SOL     OW12190   4.461   2.011   2.638
 3764SOL    HW112191   4.531   1.947   2.606
 3764SOL    HW212192   4.394   2.026   2.566
 3765SOL     OW12193   5.629   3.511   2.219
 3765SOL    HW112194   5.593   3.570   2.291
 3765SOL    HW212195   5.684   3.438   2.260
 3766SOL     OW12196   2.503   2.499   2.325
 3766SOL    HW112197   2.479   2.577   2.383
 3766SOL    HW212198   2.439   2.425   2.342
 3767SOL     OW12199   1.549   6.275   5.530
 3767SOL    HW112200   1.584   6.317   5.447
 3767SOL    HW212201   1.456   6.242   5.515
 3768SOL     OW12202   1.375   6.715   3.893
 3768SOL    HW112203   1.319   6.715   3.810
 3768SOL    HW212204   1.330   6.660   3.963
 3769SOL     OW12205   4.975   5.062   6.133
 3769SOL    HW112206   4.938   5.154   6.147
 3769SOL    HW212207   4.902   4.994   6.141
 3770SOL     OW12208   2.671   0.379   0.375
 3770SOL    HW112209   2.661   0.351   0.471
 3770SOL    HW212210   2.582   0.407   0.339
 3771SOL     OW12211   6.387   6.288   5.820
 3771SOL    HW112212   6.361   6.259   5.912
 3771SOL    HW212213   6.459   6.358   5.827
 3772SOL     OW12214   3.524   5.468   1.820
 3772SOL    HW112215   3.434   5.444   1.783
 3772SOL    HW212216   3.546   5.562   1.795
 3773SOL     OW12217   4.917   4.017   6.880
 3773SOL    HW112218   4.906   3.924   6.915
 3773SOL    HW212219   4.855   4.032   6.804
 3774SOL     OW12220   0.009   4.205   1.024
 3774SOL    HW112221   0.060   4.269   1.082
 3774SOL    HW212222   0.063   4.122   1.010
 3775SOL     OW12223   5.781   6.609   5.204
 3775SOL    HW112224   5.738   6.521   5.183
 3775SOL    HW212225   5.731   6.682   5.157
 3776SOL     OW12226   4.143   2.732   6.623
 3776SOL    HW112227   4.095   2.666   6.564
 3776SOL    HW212228   4.211   2.781   6.570
 3777SOL     OW12229   3.027   5.297   3.426
 3777SOL    HW112230   2.972   5.380   3.418
 3777SOL    HW212231   2.967   5.217   3.416
 3778SOL     OW12232   2.740   5.539   6.513
 3778SOL    HW112233   2.646   5.573   6.513
 3778SOL    HW212234   2.773   5.532   6.607
 3779SOL     OW12235   6.574   5.141   6.357
 3779SOL    HW112236   6.621   5.139   6.269
 3779SOL    HW212237   6.507   5.067   6.361
 3780SOL     OW12238   6.026   2.154   1.582
 3780SOL    HW112239   5.944   2.101   1.605
 3780SOL    HW212240   6.073   2.112   1.505
 3781SOL     OW12241   1.169   0.593   6.699
 3781SOL    HW112242   1.126   0.568   6.612
 3781SOL    HW212243   1.266   0.610   6.685
 3782SOL     OW12244   3.107   5.443   6.832
 3782SOL    HW112245   3.124   5.475   6.739
 3782SOL    HW212246   3.162   5.496   6.896
 3783SOL     OW12247   4.729   5.283   5.366
 3783SOL    HW112248   4.656   5.345   5.339
 3783SOL    HW212249   4.790   5.330   5.431
 3784SOL     OW12250   5.316   3.999   5.443
 3784SOL    HW112251   5.343   4.016   5.348
 3784SOL    HW212252   5.216   3.992   5.449
 3785SOL     OW12253   0.813   3.592   2.551
 3785SOL    HW112254   0.791   3.644   2.469
 3785SOL    HW212255   0.781   3.498   2.541
 3786SOL     OW12256   3.021   2.938   6.313
 3786SOL    HW112257   2.942   2.904   6.261
 3786SOL    HW212258   2.992   3.011   6.375
 3787SOL     OW12259   5.432   5.804   5.748
 3787SOL    HW112260   5.489   5.786   5.829
 3787SOL    HW212261   5.400   5.718   5.710
 3788SOL     OW12262   5.734   2.985   5.774
 3788SOL    HW112263   5.775   2.906   5.728
 3788SOL    HW212264   5.642   2.961   5.807
 3789SOL     OW12265   1.936   4.900   1.607
 3789SOL    HW112266   1.948   4.827   1.538
 3789SOL    HW212267   1.838   4.914   1.623
 3790SOL     OW12268   2.862   7.006   1.556
 3790SOL    HW112269   2.802   0.016   1.630
 3790SOL    HW212270   2.876   0.067   1.494
 3791SOL     OW12271   4.835   0.681   4.027
 3791SOL    HW112272   4.931   0.693   4.004
 3791SOL    HW212273   4.784   0.654   3.945
 3792SOL     OW12274   6.197   0.461   3.737
 3792SOL    HW112275   6.238   0.437   3.648
 3792SOL    HW212276   6.166   0.556   3.735
 3793SOL     OW12277   5.184   3.102   6.823
 3793SOL    HW112278   5.143   3.053   6.899
 3793SOL    HW212279   5.170   3.201   6.834
 3794SOL     OW12280   1.928   5.311   5.404
 3794SOL    HW112281   1.844   5.365   5.402
 3794SOL    HW212282   2.002   5.364   5.360
 3795SOL     OW12283   3.706   6.229   0.484
 3795SOL    HW112284   3.723   6.132   0.470
 3795SOL    HW212285   3.659   6.243   0.571
 3796SOL     OW12286   5.447   0.997   0.428
 3796SOL    HW112287   5.383   1.067   0.395
 3796SOL    HW212288   5.397   0.916   0.458
 3797SOL     OW12289   6.940   1.546   1.146
 3797SOL    HW112290   6.840   1.555   1.147
 3797SOL    HW212291   6.980   1.626   1.102
 3798SOL     OW12292   6.760   3.691   4.164
 3798SOL    HW112293   6.848   3.674   4.207
 3798SOL    HW212294   6.775   3.726   4.071
 3799SOL     OW12295   6.703   2.103   2.539
 3799SOL    HW112296   6.738   2.074   2.451
 3799SOL    HW212297   6.629   2.170   2.525
 3800SOL     OW12298   5.740   3.524   1.877
 3800SOL    HW112299   5.668   3.592   1.867
 3800SOL    HW212300   5.731   3.479   1.966
 3801SOL     OW12301   5.570   1.556   0.312
 3801SOL    HW112302   5.558   1.656   0.310
 3801SOL    HW212303   5.668   1.534   0.309
 3802SOL     OW12304   6.180   3.544   3.620
 3802SOL    HW112305   6.248   3.476   3.593
 3802SOL    HW212306   6.177   3.617   3.552
 3803SOL     OW12307   3.814   4.321   6.634
 3803SOL    HW112308   3.781   4.416   6.634
 3803SOL    HW212309   3.910   4.319   6.604
 3804SOL     OW12310   3.495   6.238   3.379
 3804SOL    HW112311   3.443   6.235   3.294
 3804SOL    HW212312   3.447   6.185   3.449
 3805SOL     OW12313   2.644   1.775   0.031
 3805SOL    HW112314   2.635   1.680   0.001
 3805SOL    HW212315   2.572   1.830   7.005
 3806SOL     OW12316   1.948   4.155   2.135
 3806SOL    HW112317   2.014   4.085   2.106
 3806SOL    HW212318   1.984   4.246   2.114
 3807SOL     OW12319   6.903   4.208   4.204
 3807SOL    HW112320   6.913   4.129   4.144
 3807SOL    HW212321   6.953   4.192   4.289
 3808SOL     OW12322   2.457   6.211   5.909
 3808SOL    HW112323   2.547   6.221   5.952
 3808SOL    HW212324   2.396   6.161   5.971
 3809SOL     OW12325   6.040   2.085   1.274
 3809SOL    HW112326   6.077   2.017   1.211
 3809SOL    HW212327   6.001   2.161   1.223
 3810SOL     OW12328   4.635   1.928   4.055
 3810SOL    HW112329   4.547   1.944   4.102
 3810SOL    HW212330   4.656   2.005   3.996
 3811SOL     OW12331   0.411   6.186   5.758
 3811SOL    HW112332   0.378   6.197   5.664
 3811SOL    HW212333   0.368   6.255   5.816
 3812SOL     OW12334   4.278   5.914   0.280
 3812SOL    HW112335   4.289   5.852   0.358
 3812SOL    HW212336   4.299   6.007   0.309
 3813SOL     OW12337   6.904   3.224   6.683
 3813SOL    HW112338   6.836   3.295   6.664
 3813SOL    HW212339   6.857   3.140   6.710
 3814SOL     OW12340   0.090   0.465   4.838
 3814SOL    HW112341   7.012   0.442   4.864
 3814SOL    HW212342   0.098   0.466   4.739
 3815SOL     OW12343   4.571   1.805   5.466
 3815SOL    HW112344   4.561   1.873   5.540
 3815SOL    HW212345   4.614   1.723   5.503
 3816SOL     OW12346   6.359   6.519   1.912
 3816SOL    HW112347   6.337   6.455   1.986
 3816SOL    HW212348   6.354   6.613   1.946
 3817SOL     OW12349   3.823   3.995   2.852
 3817SOL    HW112350   3.746   3.972   2.911
 3817SOL    HW212351   3.790   4.013   2.759
 3818SOL     OW12352   4.550   5.721   2.243
 3818SOL    HW112353   4.632   5.681   2.284
 3818SOL    HW212354   4.578   5.792   2.178
 3819SOL     OW12355   6.132   2.602   2.910
 3819SOL    HW112356   6.218   2.562   2.877
 3819SOL    HW212357   6.149   2.695   2.941
 3820SOL     OW12358   3.288   6.459   6.179
 3820SOL    HW112359   3.360   6.395   6.207
 3820SOL    HW212360   3.273   6.451   6.081
 3821SOL     OW12361   1.229   6.554   1.229
 3821SOL    HW112362   1.224   6.652   1.250
 3821SOL    HW212363   1.297   6.510   1.287
 3822SOL     OW12364   6.416   6.351   1.489
 3822SOL    HW112365   6.394   6.314   1.399
 3822SOL    HW212366   6.332   6.379   1.535
 3823SOL     OW12367   5.993   5.729   4.295
 3823SOL    HW112368   6.051   5.651   4.317
 3823SOL    HW212369   5.912   5.727   4.353
 3824SOL     OW12370   1.724   2.448   0.805
 3824SOL    HW112371   1.798   2.394   0.764
 3824SOL    HW212372   1.713   2.533   0.754
 3825SOL     OW12373   0.323   4.506   5.504
 3825SOL    HW112374   0.322   4.478   5.408
 3825SOL    HW212375   0.278   4.594   5.514
 3826SOL     OW12376   4.738   4.176   3.829
 3826SOL    HW112377   4.735   4.085   3.870
 3826SOL    HW212378   4.697   4.242   3.892
 3827SOL     OW12379   0.648   1.270   0.260
 3827SOL    HW112380   0.743   1.293   0.280
 3827SOL    HW212381   0.594   1.274   0.344
 3828SOL     OW12382   2.950   3.331   5.771
 3828SOL    HW112383   2.885   3.273   5.722
 3828SOL    HW212384   2.947   3.423   5.733
 3829SOL     OW12385   6.689   2.208   1.752
 3829SOL    HW112386   6.665   2.295   1.795
 3829SOL    HW212387   6.788   2.205   1.735
 3830SOL     OW12388   5.368   5.903   3.614
 3830SOL    HW112389   5.284   5.899   3.560
 3830SOL    HW212390   5.430   5.971   3.575
 3831SOL     OW12391   5.487   2.205   4.291
 3831SOL    HW112392   5.408   2.250   4.333
 3831SOL    HW212393   5.508   2.248   4.203
 3832SOL     OW12394   6.565   1.620   4.291
 3832SOL    HW112395   6.508   1.542   4.267
 3832SOL    HW212396   6.507   1.699   4.312
 3833SOL     OW12397   2.246   3.405   5.619
 3833SOL    HW112398   2.215   3.310   5.624
 3833SOL    HW212399   2.300   3.419   5.536
 3834SOL     OW12400   4.545   4.961   0.753
 3834SOL    HW112401   4.483   5.035   0.729
 3834SOL    HW212402   4.624   4.999   0.802
 3835SOL     OW12403   4.841   5.059   4.535
 3835SOL    HW112404   4.887   5.042   4.448
 3835SOL    HW212405   4.900   5.114   4.594
 3836SOL     OW12406   0.516   0.427   5.161
 3836SOL    HW112407   0.444   0.477   5.113
 3836SOL    HW212408   0.480   0.339   5.191
 3837SOL     OW12409   4.868   4.368   5.603
 3837SOL    HW112410   4.848   4.461   5.573
 3837SOL    HW212411   4.802   4.305   5.563
 3838SOL     OW12412   0.678   1.691   3.566
 3838SOL    HW112413   0.584   1.662   3.583
 3838SOL    HW212414   0.678   1.771   3.507
 3839SOL     OW12415   4.690   1.418   4.195
 3839SOL    HW112416   4.786   1.443   4.209
 3839SOL    HW212417   4.685   1.333   4.143
 3840SOL     OW12418   3.845   1.435   5.762
 3840SOL    HW112419   3.758   1.449   5.810
 3840SOL    HW212420   3.831   1.449   5.664
 3841SOL     OW12421   5.727   3.971   2.794
 3841SOL    HW112422   5.683   4.050   2.837
 3841SOL    HW212423   5.820   3.994   2.768
 3842SOL     OW12424   1.691   4.145   4.994
 3842SOL    HW112425   1.780   4.189   5.004
 3842SOL    HW212426   1.636   4.194   4.926
 3843SOL     OW12427   5.575   1.984   6.998
 3843SOL    HW112428   5.662   1.961   6.954
 3843SOL    HW212429   5.568   2.083   7.008
 3844SOL     OW12430   5.722   6.575   0.748
 3844SOL    HW112431   5.669   6.504   0.794
 3844SOL    HW212432   5.818   6.547   0.743
 3845SOL     OW12433   1.988   5.410   0.486
 3845SOL    HW112434   2.004   5.331   0.427
 3845SOL    HW212435   1.894   5.407   0.521
 3846SOL     OW12436   6.785   3.342   2.921
 3846SOL    HW112437   6.858   3.303   2.865
 3846SOL    HW212438   6.787   3.442   2.914
 3847SOL     OW12439   0.366   0.686   6.843
 3847SOL    HW112440   0.392   0.726   6.755
 3847SOL    HW212441   0.294   0.741   6.885
 3848SOL     OW12442   5.637   5.017   2.689
 3848SOL    HW112443   5.687   4.937   2.658
 3848SOL    HW212444   5.624   5.013   2.788
 3849SOL     OW12445   0.242   3.015   5.643
 3849SOL    HW112446   0.148   3.045   5.627
 3849SOL    HW212447   0.244   2.952   5.720
 3850SOL     OW12448   3.429   2.951   1.281
 3850SOL    HW112449   3.418   2.853   1.268
 3850SOL    HW212450   3.349   2.999   1.245
 3851SOL     OW12451   6.927   5.602   2.359
 3851SOL    HW112452   6.944   5.603   2.458
 3851SOL    HW212453   7.002   5.555   2.313
 3852SOL     OW12454   3.444   0.327   5.056
 3852SOL    HW112455   3.346   0.314   5.049
 3852SOL    HW212456   3.478   0.372   4.973
 3853SOL     OW12457   1.840   1.076   3.134
 3853SOL    HW112458   1.743   1.060   3.151
 3853SOL    HW212459   1.889   0.988   3.137
 3854SOL     OW12460   0.407   1.153   2.076
 3854SOL    HW112461   0.453   1.112   2.155
 3854SOL    HW212462   0.426   1.251   2.074
 3855SOL     OW12463   2.947   5.822   6.764
 3855SOL    HW112464   3.025   5.850   6.820
 3855SOL    HW212465   2.866   5.813   6.821
 3856SOL     OW12466   0.000   2.980   6.411
 3856SOL    HW112467   6.936   2.953   6.465
 3856SOL    HW212468   0.070   2.909   6.419
 3857SOL     OW12469   0.995   0.242   5.394
 3857SOL    HW112470   0.966   0.332   5.424
 3857SOL    HW212471   1.069   0.209   5.452
 3858SOL     OW12472   3.061   0.650   4.960
 3858SOL    HW112473   2.987   0.709   4.928
 3858SOL    HW212474   3.117   0.699   5.027
 3859SOL     OW12475   5.431   6.782   3.098
 3859SOL    HW112476   5.373   6.851   3.142
 3859SOL    HW212477   5.375   6.704   3.071
 3860SOL     OW12478   1.419   6.541   4.828
 3860SOL    HW112479   1.409   6.631   4.784
 3860SOL    HW212480   1.426   6.470   4.758
 3861SOL     OW12481   2.483   5.994   2.399
 3861SOL    HW112482   2.580   5.981   2.383
 3861SOL    HW212483   2.433   5.911   2.372
 3862SOL     OW12484   1.913   0.727   4.052
 3862SOL    HW112485   1.903   0.660   3.979
 3862SOL    HW212486   1.861   0.697   4.132
 3863SOL     OW12487   3.953   0.041   1.227
 3863SOL    HW112488   3.900   0.074   1.149
 3863SOL    HW212489   3.961   0.114   1.295
 3864SOL     OW12490   1.060   0.965   4.756
 3864SOL    HW112491   1.009   0.925   4.832
 3864SOL    HW212492   1.152   0.926   4.753
 3865SOL     OW12493   5.150   1.146   0.655
 3865SOL    HW112494   5.051   1.140   0.669
 3865SOL    HW212495   5.180   1.068   0.601
 3866SOL     OW12496   3.690   1.236   6.581
 3866SOL    HW112497   3.734   1.283   6.504
 3866SOL    HW212498   3.611   1.185   6.547
 3867SOL     OW12499   6.831   3.504   2.295
 3867SOL    HW112500   6.910   3.556   2.328
 3867SOL    HW212501   6.752   3.523   2.353
 3868SOL     OW12502   3.982   0.901   0.044
 3868SOL    HW112503   3.912   0.847   0.091
 3868SOL    HW212504   4.057   0.922   0.108
 3869SOL     OW12505   3.269   0.891   3.546
 3869SOL    HW112506   3.255   0.989   3.557
 3869SOL    HW212507   3.199   0.854   3.485
 3870SOL     OW12508   6.936   1.795   5.878
 3870SOL    HW112509   6.911   1.891   5.864
 3870SOL    HW212510   6.880   1.737   5.819
 3871SOL     OW12511   2.555   5.037   4.336
 3871SOL    HW112512   2.654   5.050   4.326
 3871SOL    HW212513   2.534   4.940   4.337
 3872SOL     OW12514   2.911   4.002   5.463
 3872SOL    HW112515   2.852   4.079   5.437
 3872SOL    HW212516   2.989   3.998   5.401
 3873SOL     OW12517   5.442   2.500   6.409
 3873SOL    HW112518   5.503   2.502   6.330
 3873SOL    HW212519   5.359   2.448   6.386
 3874SOL     OW12520   1.864   0.894   1.940
 3874SOL    HW112521   1.809   0.959   1.889
 3874SOL    HW212522   1.936   0.942   1.990
 3875SOL     OW12523   0.451   0.903   6.652
 3875SOL    HW112524   0.377   0.917   6.586
 3875SOL    HW212525   0.506   0.825   6.624
 3876SOL     OW12526   3.218   5.478   1.980
 3876SOL    HW112527   3.239   5.406   2.046
 3876SOL    HW212528   3.253   5.451   1.890
 3877SOL     OW12529   0.922   1.484   6.016
 3877SOL    HW112530   0.968   1.520   5.935
 3877SOL    HW212531   0.879   1.396   5.994
 3878SOL     OW12532   4.378   1.715   4.985
 3878SOL    HW112533   4.325   1.651   5.041
 3878SOL    HW212534   4.455   1.667   4.944
 3879SOL     OW12535   5.399   5.180   6.567
 3879SOL    HW112536   5.469   5.241   6.531
 3879SOL    HW212537   5.324   5.233   6.606
 3880SOL     OW12538   5.159   5.004   3.612
 3880SOL    HW112539   5.120   4.916   3.587
 3880SOL    HW212540   5.169   5.009   3.712
 3881SOL     OW12541   1.851   2.596   0.131
 3881SOL    HW112542   1.811   2.510   0.163
 3881SOL    HW212543   1.949   2.582   0.116
 3882SOL     OW12544   0.319   2.419   6.173
 3882SOL    HW112545   0.276   2.443   6.260
 3882SOL    HW212546   0.369   2.498   6.137
 3883SOL     OW12547   3.714   6.066   4.609
 3883SOL    HW112548   3.650   6.060   4.533
 3883SOL    HW212549   3.730   6.163   4.631
 3884SOL     OW12550   6.812   2.901   1.983
 3884SOL    HW112551   6.846   2.838   2.053
 3884SOL    HW212552   6.874   2.899   1.904
 3885SOL     OW12553   4.087   5.548   2.418
 3885SOL    HW112554   4.136   5.479   2.472
 3885SOL    HW212555   4.136   5.566   2.333
 3886SOL     OW12556   3.037   5.074   6.649
 3886SOL    HW112557   3.052   5.025   6.735
 3886SOL    HW212558   2.946   5.114   6.649
 3887SOL     OW12559   1.820   5.869   1.769
 3887SOL    HW112560   1.838   5.955   1.722
 3887SOL    HW212561   1.784   5.802   1.704
 3888SOL     OW12562   5.222   4.742   3.310
 3888SOL    HW112563   5.178   4.736   3.399
 3888SOL    HW212564   5.260   4.653   3.285
 3889SOL     OW12565   5.880   3.187   0.608
 3889SOL    HW112566   5.816   3.259   0.585
 3889SOL    HW212567   5.938   3.167   0.530
 3890SOL     OW12568   4.765   3.966   3.983
 3890SOL    HW112569   4.784   3.868   3.991
 3890SOL    HW212570   4.807   4.015   4.059
 3891SOL     OW12571   4.724   4.852   3.750
 3891SOL    HW112572   4.640   4.848   3.695
 3891SOL    HW212573   4.732   4.942   3.791
 3892SOL     OW12574   0.255   2.251   1.424
 3892SOL    HW112575   0.239   2.210   1.513
 3892SOL    HW212576   0.189   2.325   1.409
 3893SOL     OW12577   3.237   2.952   3.155
 3893SOL    HW112578   3.220   2.865   3.200
 3893SOL    HW212579   3.190   3.025   3.203
 3894SOL     OW12580   4.417   0.819   5.921
 3894SOL    HW112581   4.480   0.892   5.949
 3894SOL    HW212582   4.324   0.855   5.917
 3895SOL     OW12583   0.628   0.219   3.918
 3895SOL    HW112584   0.727   0.235   3.923
 3895SOL    HW212585   0.585   0.246   4.003
 3896SOL     OW12586   2.105   1.764   6.288
 3896SOL    HW112587   2.049   1.716   6.355
 3896SOL    HW212588   2.173   1.700   6.250
 3897SOL     OW12589   3.145   6.034   0.804
 3897SOL    HW112590   3.125   5.963   0.736
 3897SOL    HW212591   3.165   5.991   0.892
 3898SOL     OW12592   4.192   3.012   1.081
 3898SOL    HW112593   4.199   2.920   1.043
 3898SOL    HW212594   4.112   3.058   1.042
 3899SOL     OW12595   3.260   6.755   5.258
 3899SOL    HW112596   3.293   6.718   5.172
 3899SOL    HW212597   3.179   6.704   5.288
 3900SOL     OW12598   4.234   4.633   2.989
 3900SOL    HW112599   4.223   4.646   2.890
 3900SOL    HW212600   4.146   4.609   3.030
 3901SOL     OW12601   3.177   1.737   6.551
 3901SOL    HW112602   3.218   1.753   6.461
 3901SOL    HW212603   3.248   1.708   6.615
 3902SOL     OW12604   5.111   2.893   2.646
 3902SOL    HW112605   5.163   2.889   2.731
 3902SOL    HW212606   5.174   2.906   2.569
 3903SOL     OW12607   3.704   4.918   6.779
 3903SOL    HW112608   3.746   4.973   6.708
 3903SOL    HW212609   3.767   4.845   6.807
 3904SOL     OW12610   1.689   6.436   0.813
 3904SOL    HW112611   1.625   6.371   0.773
 3904SOL    HW212612   1.765   6.452   0.751
 3905SOL     OW12613   0.162   6.457   5.321
 3905SOL    HW112614   0.232   6.395   5.357
 3905SOL    HW212615   0.077   6.406   5.308
 3906SOL     OW12616   0.696   6.227   5.328
 3906SOL    HW112617   0.632   6.155   5.299
 3906SOL    HW212618   0.771   6.233   5.263
 3907SOL     OW12619   5.535   1.902   3.978
 3907SOL    HW112620   5.475   1.981   3.997
 3907SOL    HW212621   5.575   1.912   3.887
 3908SOL     OW12622   2.703   4.074   5.911
 3908SOL    HW112623   2.615   4.029   5.928
 3908SOL    HW212624   2.690   4.148   5.845
 3909SOL     OW12625   4.317   5.866   3.864
 3909SOL    HW112626   4.410   5.833   3.879
 3909SOL    HW212627   4.257   5.830   3.935
 3910SOL     OW12628   3.747   3.957   2.597
 3910SOL    HW112629   3.815   3.972   2.525
 3910SOL    HW212630   3.668   3.909   2.559
 3911SOL     OW12631   5.817   2.107   5.555
 3911SOL    HW112632   5.836   2.009   5.548
 3911SOL    HW212633   5.875   2.158   5.491
 3912SOL     OW12634   6.070   2.977   6.302
 3912SOL    HW112635   6.062   2.894   6.358
 3912SOL    HW212636   6.072   3.057   6.361
 3913SOL     OW12637   1.199   6.834   1.240
 3913SOL    HW112638   1.235   6.869   1.153
 3913SOL    HW212639   1.179   6.911   1.301
 3914SOL     OW12640   3.052   5.561   5.755
 3914SOL    HW112641   2.994   5.597   5.682
 3914SOL    HW212642   3.096   5.477   5.724
 3915SOL     OW12643   4.931   5.658   1.760
 3915SOL    HW112644   4.839   5.641   1.796
 3915SOL    HW212645   4.925   5.714   1.678
 3916SOL     OW12646   6.925   0.155   3.486
 3916SOL    HW112647   6.837   0.199   3.469
 3916SOL    HW212648   6.909   0.063   3.523
 3917SOL     OW12649   3.050   0.044   6.876
 3917SOL    HW112650   3.150   0.044   6.873
 3917SOL    HW212651   3.017   6.968   6.898
 3918SOL     OW12652   6.101   3.522   0.047
 3918SOL    HW112653   6.065   3.605   0.089
 3918SOL    HW212654   6.053   3.443   0.084
 3919SOL     OW12655   3.294   6.614   0.693
 3919SOL    HW112656   3.206   6.603   0.646
 3919SOL    HW212657   3.279   6.612   0.791
 3920SOL     OW12658   2.411   0.814   6.865
 3920SOL    HW112659   2.371   0.860   6.786
 3920SOL    HW212660   2.507   0.841   6.874
 3921SOL     OW12661   0.596   3.316   0.941
 3921SOL    HW112662   0.590   3.416   0.947
 3921SOL    HW212663   0.641   3.290   0.855
 3922SOL     OW12664   0.240   4.973   1.242
 3922SOL    HW112665   0.159   4.938   1.288
 3922SOL    HW212666   0.275   4.904   1.179
 3923SOL     OW12667   0.215   5.606   0.229
 3923SOL    HW112668   0.123   5.602   0.268
 3923SOL    HW212669   0.209   5.603   0.129
 3924SOL     OW12670   6.401   5.069   3.900
 3924SOL    HW112671   6.456   5.079   3.817
 3924SOL    HW212672   6.336   5.145   3.906
 3925SOL     OW12673   0.710   4.743   1.305
 3925SOL    HW112674   0.738   4.819   1.363
 3925SOL    HW212675   0.626   4.703   1.341
 3926SOL     OW12676   2.771   6.017   3.233
 3926SOL    HW112677   2.753   5.921   3.211
 3926SOL    HW212678   2.861   6.026   3.274
 3927SOL     OW12679   2.452   3.605   6.524
 3927SOL    HW112680   2.373   3.654   6.562
 3927SOL    HW212681   2.501   3.665   6.461
 3928SOL     OW12682   6.982   6.581   6.146
 3928SOL    HW112683   6.965   6.678   6.159
 3928SOL    HW212684   6.998   6.537   6.234
 3929SOL     OW12685   1.368   1.699   4.883
 3929SOL    HW112686   1.375   1.633   4.958
 3929SOL    HW212687   1.459   1.716   4.845
 3930SOL     OW12688   3.207   1.754   4.303
 3930SOL    HW112689   3.250   1.749   4.213
 3930SOL    HW212690   3.277   1.773   4.372
 3931SOL     OW12691   3.720   6.688   2.280
 3931SOL    HW112692   3.813   6.657   2.261
 3931SOL    HW212693   3.721   6.783   2.310
 3932SOL     OW12694   1.974   3.607   3.462
 3932SOL    HW112695   2.028   3.591   3.379
 3932SOL    HW212696   1.972   3.524   3.518
 3933SOL     OW12697   2.182   1.185   5.914
 3933SOL    HW112698   2.229   1.265   5.875
 3933SOL    HW212699   2.223   1.102   5.878
 3934SOL     OW12700   4.943   5.707   0.150
 3934SOL    HW112701   5.035   5.675   0.128
 3934SOL    HW212702   4.903   5.647   0.219
 3935SOL     OW12703   4.773   6.888   2.209
 3935SOL    HW112704   4.692   6.902   2.266
 3935SOL    HW212705   4.848   6.945   2.241
 3936SOL     OW12706   0.834   4.272   2.478
 3936SOL    HW112707   0.781   4.242   2.399
 3936SOL    HW212708   0.849   4.194   2.539
 3937SOL     OW12709   0.520   1.972   2.553
 3937SOL    HW112710   0.487   1.975   2.647
 3937SOL    HW212711   0.570   1.887   2.537
 3938SOL     OW12712   5.806   3.386   2.942
 3938SOL    HW112713   5.742   3.349   3.010
 3938SOL    HW212714   5.781   3.351   2.852
 3939SOL     OW12715   2.020   2.490   1.845
 3939SOL    HW112716   1.977   2.540   1.920
 3939SOL    HW212717   2.086   2.549   1.799
 3940SOL     OW12718   4.432   4.520   0.990
 3940SOL    HW112719   4.437   4.441   0.928
 3940SOL    HW212720   4.436   4.604   0.936
 3941SOL     OW12721   5.651   3.301   0.408
 3941SOL    HW112722   5.623   3.322   0.314
 3941SOL    HW212723   5.578   3.328   0.471
 3942SOL     OW12724   6.230   6.540   0.879
 3942SOL    HW112725   6.304   6.507   0.820
 3942SOL    HW212726   6.224   6.482   0.961
 3943SOL     OW12727   0.060   2.900   4.807
 3943SOL    HW112728   0.050   2.854   4.895
 3943SOL    HW212729   0.157   2.919   4.791
 3944SOL     OW12730   5.648   1.954   5.125
 3944SOL    HW112731   5.577   1.978   5.059
 3944SOL    HW212732   5.725   1.911   5.077
 3945SOL     OW12733   0.337   6.842   0.929
 3945SOL    HW112734   0.345   6.847   1.029
 3945SOL    HW212735   0.241   6.830   0.904
 3946SOL     OW12736   3.493   5.014   3.765
 3946SOL    HW112737   3.484   5.021   3.864
 3946SOL    HW212738   3.578   4.966   3.742
 3947SOL     OW12739   6.961   4.208   5.918
 3947SOL    HW112740   6.963   4.307   5.906
 3947SOL    HW212741   6.955   4.163   5.829
 3948SOL     OW12742   6.420   3.334   1.631
 3948SOL    HW112743   6.358   3.395   1.582
 3948SOL    HW212744   6.490   3.389   1.678
 3949SOL     OW12745   5.442   6.257   2.775
 3949SOL    HW112746   5.389   6.224   2.854
 3949SOL    HW212747   5.453   6.182   2.709
 3950SOL     OW12748   1.595   6.207   0.105
 3950SOL    HW112749   1.522   6.146   0.137
 3950SOL    HW212750   1.684   6.168   0.130
 3951SOL     OW12751   5.299   5.645   1.979
 3951SOL    HW112752   5.264   5.683   1.894
 3951SOL    HW212753   5.397   5.624   1.970
 3952SOL     OW12754   6.203   1.220   6.819
 3952SOL    HW112755   6.212   1.219   6.918
 3952SOL    HW212756   6.275   1.277   6.779
 3953SOL     OW12757   2.973   3.743   2.189
 3953SOL    HW112758   2.939   3.680   2.258
 3953SOL    HW212759   3.070   3.725   2.171
 3954SOL     OW12760   4.418   4.000   5.909
 3954SOL    HW112761   4.402   4.047   5.823
 3954SOL    HW212762   4.339   3.942   5.930
 3955SOL     OW12763   3.762   1.337   5.248
 3955SOL    HW112764   3.744   1.404   5.175
 3955SOL    HW212765   3.715   1.252   5.226
 3956SOL     OW12766   2.274   1.465   0.586
 3956SOL    HW112767   2.341   1.409   0.538
 3956SOL    HW212768   2.311   1.556   0.603
 3957SOL     OW12769   4.377   1.927   3.840
 3957SOL    HW112770   4.284   1.890   3.844
 3957SOL    HW212771   4.433   1.883   3.910
 3958SOL     OW12772   5.140   6.643   6.099
 3958SOL    HW112773   5.213   6.575   6.104
 3958SOL    HW212774   5.103   6.658   6.190
 3959SOL     OW12775   5.756   5.908   6.296
 3959SOL    HW112776   5.759   5.995   6.247
 3959SOL    HW212777   5.734   5.925   6.392
 3960SOL     OW12778   6.093   2.326   4.484
 3960SOL    HW112779   6.105   2.270   4.402
 3960SOL    HW212780   6.078   2.267   4.563
 3961SOL     OW12781   5.170   6.908   4.485
 3961SOL    HW112782   5.085   6.858   4.504
 3961SOL    HW212783   5.150   7.005   4.480
 3962SOL     OW12784   6.452   5.456   4.720
 3962SOL    HW112785   6.443   5.478   4.623
 3962SOL    HW212786   6.460   5.540   4.773
 3963SOL     OW12787   3.334   6.337   1.840
 3963SOL    HW112788   3.388   6.409   1.795
 3963SOL    HW212789   3.238   6.363   1.840
 3964SOL     OW12790   6.028   2.417   3.868
 3964SOL    HW112791   6.064   2.473   3.793
 3964SOL    HW212792   6.102   2.396   3.932
 3965SOL     OW12793   4.849   4.331   4.436
 3965SOL    HW112794   4.807   4.295   4.519
 3965SOL    HW212795   4.778   4.360   4.372
 3966SOL     OW12796   2.923   6.661   6.628
 3966SOL    HW112797   2.830   6.686   6.656
 3966SOL    HW212798   2.981   6.742   6.632
 3967SOL     OW12799   1.564   3.881   3.905
 3967SOL    HW112800   1.569   3.907   4.001
 3967SOL    HW212801   1.651   3.901   3.861
 3968SOL     OW12802   4.240   6.620   0.647
 3968SOL    HW112803   4.316   6.681   0.666
 3968SOL    HW212804   4.255   6.533   0.694
 3969SOL     OW12805   0.185   4.549   3.377
 3969SOL    HW112806   0.250   4.617   3.409
 3969SOL    HW212807   0.234   4.470   3.341
 3970SOL     OW12808   4.500   6.439   1.274
 3970SOL    HW112809   4.581   6.386   1.249
 3970SOL    HW212810   4.465   6.408   1.362
 3971SOL     OW12811   0.859   5.989   3.759
 3971SOL    HW112812   0.884   6.045   3.838
 3971SOL    HW212813   0.936   5.931   3.734
 3972SOL     OW12814   1.435   3.758   0.199
 3972SOL    HW112815   1.344   3.741   0.161
 3972SOL    HW212816   1.480   3.670   0.216
 3973SOL     OW12817   1.660   4.488   0.847
 3973SOL    HW112818   1.724   4.433   0.794
 3973SOL    HW212819   1.706   4.523   0.929
 3974SOL     OW12820   3.161   0.437   6.067
 3974SOL    HW112821   3.123   0.523   6.033
 3974SOL    HW212822   3.120   0.414   6.156
 3975SOL     OW12823   6.766   3.003   0.233
 3975SOL    HW112824   6.718   2.967   0.153
 3975SOL    HW212825   6.855   3.040   0.205
 3976SOL     OW12826   1.410   4.436   2.628
 3976SOL    HW112827   1.343   4.368   2.600
 3976SOL    HW212828   1.363   4.516   2.666
 3977SOL     OW12829   0.806   2.736   6.948
 3977SOL    HW112830   0.812   2.819   6.892
 3977SOL    HW212831   0.741   2.673   6.906
 3978SOL     OW12832   5.453   4.048   3.905
 3978SOL    HW112833   5.497   4.079   3.821
 3978SOL    HW212834   5.505   4.079   3.984
 3979SOL     OW12835   3.877   5.863   6.209
 3979SOL    HW112836   3.919   5.909   6.288
 3979SOL    HW212837   3.848   5.771   6.236
 3980SOL     OW12838   5.325   4.688   5.816
 3980SOL    HW112839   5.278   4.769   5.851
 3980SOL    HW212840   5.277   4.605   5.847
 3981SOL     OW12841   4.531   5.402   6.761
 3981SOL    HW112842   4.600   5.472   6.742
 3981SOL    HW212843   4.576   5.319   6.795
 3982SOL     OW12844   2.431   6.317   3.021
 3982SOL    HW112845   2.518   6.287   3.058
 3982SOL    HW212846   2.357   6.285   3.080
 3983SOL     OW12847   3.290   6.215   4.559
 3983SOL    HW112848   3.253   6.286   4.498
 3983SOL    HW212849   3.292   6.249   4.653
 3984SOL     OW12850   6.027   2.934   3.066
 3984SOL    HW112851   6.008   3.019   3.017
 3984SOL    HW212852   5.960   2.865   3.038
 3985SOL     OW12853   4.273   5.266   6.104
 3985SOL    HW112854   4.309   5.181   6.141
 3985SOL    HW212855   4.252   5.254   6.007
 3986SOL     OW12856   5.324   0.342   2.831
 3986SOL    HW112857   5.267   0.322   2.751
 3986SOL    HW212858   5.315   0.269   2.898
 3987SOL     OW12859   3.733   5.469   5.453
 3987SOL    HW112860   3.671   5.394   5.430
 3987SOL    HW212861   3.693   5.524   5.526
 3988SOL     OW12862   4.763   5.935   0.870
 3988SOL    HW112863   4.788   5.990   0.950
 3988SOL    HW212864   4.678   5.969   0.832
 3989SOL     OW12865   6.648   2.783   1.745
 3989SOL    HW112866   6.639   2.786   1.645
 3989SOL    HW212867   6.677   2.873   1.778
 3990SOL     OW12868   6.757   1.476   1.469
 3990SOL    HW112869   6.726   1.570   1.481
 3990SOL    HW212870   6.694   1.428   1.408
 3991SOL     OW12871   4.929   1.464   3.273
 3991SOL    HW112872   4.858   1.448   3.204
 3991SOL    HW212873   4.910   1.550   3.320
 3992SOL     OW12874   4.713   1.615   1.709
 3992SOL    HW112875   4.640   1.646   1.770
 3992SOL    HW212876   4.751   1.694   1.660
 3993SOL     OW12877   1.202   3.392   1.440
 3993SOL    HW112878   1.229   3.480   1.402
 3993SOL    HW212879   1.232   3.385   1.535
 3994SOL     OW12880   2.613   5.744   4.496
 3994SOL    HW112881   2.576   5.756   4.404
 3994SOL    HW212882   2.614   5.647   4.519
 3995SOL     OW12883   1.489   2.583   3.833
 3995SOL    HW112884   1.419   2.616   3.770
 3995SOL    HW212885   1.549   2.519   3.786
 3996SOL     OW12886   6.807   5.623   4.523
 3996SOL    HW112887   6.825   5.544   4.582
 3996SOL    HW212888   6.805   5.593   4.427
 3997SOL     OW12889   2.737   0.502   2.871
 3997SOL    HW112890   2.664   0.560   2.835
 3997SOL    HW212891   2.736   0.414   2.822
 3998SOL     OW12892   4.495   2.121   2.890
 3998SOL    HW112893   4.481   2.066   2.808
 3998SOL    HW212894   4.426   2.193   2.894
 3999SOL     OW12895   4.381   1.504   4.412
 3999SOL    HW112896   4.384   1.539   4.506
 3999SOL    HW212897   4.447   1.553   4.356
 4000SOL     OW12898   5.046   5.211   4.687
 4000SOL    HW112899   5.077   5.268   4.611
 4000SOL    HW212900   5.119   5.150   4.715
 4001SOL     OW12901   0.696   1.612   4.916
 4001SOL    HW112902   0.780   1.577   4.874
 4001SOL    HW212903   0.669   1.697   4.870
 4002SOL     OW12904   2.145   4.844   1.795
 4002SOL    HW112905   2.059   4.842   1.744
 4002SOL    HW212906   2.127   4.831   1.892
 4003SOL     OW12907   3.909   2.032   4.670
 4003SOL    HW112908   3.861   2.056   4.585
 4003SOL    HW212909   3.861   2.073   4.747
 4004SOL     OW12910   6.948   1.687   6.377
 4004SOL    HW112911   6.848   1.680   6.375
 4004SOL    HW212912   6.984   1.620   6.442
 4005SOL     OW12913   6.503   5.082   4.562
 4005SOL    HW112914   6.526   5.028   4.643
 4005SOL    HW212915   6.422   5.139   4.581
 4006SOL     OW12916   3.952   6.386   3.337
 4006SOL    HW112917   4.007   6.421   3.413
 4006SOL    HW212918   4.012   6.352   3.265
 4007SOL     OW12919   0.582   1.555   5.629
 4007SOL    HW112920   0.637   1.486   5.581
 4007SOL    HW212921   0.636   1.637   5.645
 4008SOL     OW12922   3.118   1.455   4.988
 4008SOL    HW112923   3.110   1.420   4.895
 4008SOL    HW212924   3.207   1.431   5.025
 4009SOL     OW12925   3.688   4.007   3.104
 4009SOL    HW112926   3.648   3.915   3.101
 4009SOL    HW212927   3.629   4.067   3.158
 4010SOL     OW12928   1.370   3.221   0.621
 4010SOL    HW112929   1.317   3.210   0.705
 4010SOL    HW212930   1.362   3.138   0.565
 4011SOL     OW12931   0.653   1.217   0.590
 4011SOL    HW112932   0.726   1.204   0.657
 4011SOL    HW212933   0.660   1.308   0.550
 4012SOL     OW12934   5.285   3.313   3.413
 4012SOL    HW112935   5.375   3.330   3.372
 4012SOL    HW212936   5.228   3.262   3.349
 4013SOL     OW12937   5.211   2.762   2.876
 4013SOL    HW112938   5.185   2.764   2.973
 4013SOL    HW212939   5.256   2.675   2.855
 4014SOL     OW12940   5.270   4.644   2.808
 4014SOL    HW112941   5.334   4.621   2.882
 4014SOL    HW212942   5.286   4.584   2.730
 4015SOL     OW12943   5.244   3.289   0.319
 4015SOL    HW112944   5.222   3.305   0.415
 4015SOL    HW212945   5.249   3.376   0.271
 4016SOL     OW12946   3.139   6.466   4.666
 4016SOL    HW112947   3.141   6.455   4.766
 4016SOL    HW212948   3.066   6.410   4.627
 4017SOL     OW12949   5.435   6.746   6.290
 4017SOL    HW112950   5.394   6.806   6.221
 4017SOL    HW212951   5.362   6.707   6.347
 4018SOL     OW12952   2.069   0.085   6.698
 4018SOL    HW112953   2.045   0.147   6.624
 4018SOL    HW212954   2.121   0.134   6.768
 4019SOL     OW12955   5.291   6.771   4.290
 4019SOL    HW112956   5.289   6.849   4.227
 4019SOL    HW212957   5.269   6.803   4.382
 4020SOL     OW12958   5.508   1.739   4.353
 4020SOL    HW112959   5.572   1.804   4.311
 4020SOL    HW212960   5.529   1.647   4.321
 4021SOL     OW12961   4.967   3.524   0.012
 4021SOL    HW112962   4.967   3.472   0.098
 4021SOL    HW212963   4.878   3.512   6.983
 4022SOL     OW12964   5.644   0.598   1.054
 4022SOL    HW112965   5.550   0.563   1.061
 4022SOL    HW212966   5.642   0.692   1.020
 4023SOL     OW12967   6.404   5.875   5.656
 4023SOL    HW112968   6.451   5.927   5.585
 4023SOL    HW212969   6.439   5.902   5.746
 4024SOL     OW12970   4.288   4.364   5.546
 4024SOL    HW112971   4.198   4.408   5.550
 4024SOL    HW212972   4.353   4.426   5.502
 4025SOL     OW12973   0.017   3.899   4.141
 4025SOL    HW112974   6.962   3.887   4.072
 4025SOL    HW212975   0.010   3.826   4.209
 4026SOL     OW12976   5.902   0.887   5.396
 4026SOL    HW112977   5.977   0.832   5.431
 4026SOL    HW212978   5.850   0.834   5.329
 4027SOL     OW12979   2.563   5.103   2.601
 4027SOL    HW112980   2.477   5.054   2.586
 4027SOL    HW212981   2.622   5.092   2.521
 4028SOL     OW12982   1.575   5.724   2.966
 4028SOL    HW112983   1.500   5.662   2.941
 4028SOL    HW212984   1.654   5.670   2.996
 4029SOL     OW12985   1.729   4.146   3.565
 4029SOL    HW112986   1.758   4.062   3.520
 4029SOL    HW212987   1.784   4.223   3.530
 4030SOL     OW12988   2.339   1.037   6.307
 4030SOL    HW112989   2.355   0.953   6.255
 4030SOL    HW212990   2.273   1.094   6.259
 4031SOL     OW12991   6.610   5.923   4.412
 4031SOL    HW112992   6.622   5.881   4.321
 4031SOL    HW212993   6.581   6.018   4.401
 4032SOL     OW12994   3.540   6.828   4.990
 4032SOL    HW112995   3.609   6.833   5.062
 4032SOL    HW212996   3.514   6.921   4.962
 4033SOL     OW12997   3.667   3.868   6.413
 4033SOL    HW112998   3.725   3.915   6.479
 4033SOL    HW212999   3.717   3.792   6.372
 4034SOL     OW13000   5.787   3.554   5.285
 4034SOL    HW113001   5.717   3.485   5.267
 4034SOL    HW213002   5.757   3.642   5.250
 4035SOL     OW13003   0.377   6.293   2.158
 4035SOL    HW113004   0.291   6.336   2.131
 4035SOL    HW213005   0.359   6.203   2.197
 4036SOL     OW13006   6.144   6.073   1.296
 4036SOL    HW113007   6.088   6.026   1.228
 4036SOL    HW213008   6.137   6.027   1.384
 4037SOL     OW13009   0.590   3.823   6.371
 4037SOL    HW113010   0.587   3.907   6.318
 4037SOL    HW213011   0.527   3.756   6.331
 4038SOL     OW13012   6.321   5.460   3.306
 4038SOL    HW113013   6.276   5.529   3.362
 4038SOL    HW213014   6.271   5.374   3.313
 4039SOL     OW13015   2.815   4.773   1.177
 4039SOL    HW113016   2.719   4.786   1.203
 4039SOL    HW213017   2.871   4.842   1.223
 4040SOL     OW13018   3.229   6.921   0.047
 4040SOL    HW113019   3.182   6.854   7.005
 4040SOL    HW213020   3.162   6.982   0.089
 4041SOL     OW13021   0.302   6.376   3.291
 4041SOL    HW113022   0.285   6.470   3.318
 4041SOL    HW213023   0.336   6.324   3.369
 4042SOL     OW13024   5.647   5.256   1.655
 4042SOL    HW113025   5.678   5.190   1.724
 4042SOL    HW213026   5.547   5.257   1.652
 4043SOL     OW13027   0.113   3.097   1.315
 4043SOL    HW113028   0.148   3.160   1.384
 4043SOL    HW213029   0.013   3.095   1.319
 4044SOL     OW13030   5.426   4.921   2.529
 4044SOL    HW113031   5.427   4.853   2.602
 4044SOL    HW213032   5.500   4.986   2.543
 4045SOL     OW13033   2.829   5.331   5.285
 4045SOL    HW113034   2.855   5.238   5.259
 4045SOL    HW213035   2.790   5.331   5.377
 4046SOL     OW13036   0.913   3.832   0.360
 4046SOL    HW113037   0.919   3.914   0.417
 4046SOL    HW213038   0.836   3.776   0.390
 4047SOL     OW13039   2.950   3.853   3.500
 4047SOL    HW113040   2.898   3.929   3.537
 4047SOL    HW213041   2.943   3.852   3.400
 4048SOL     OW13042   5.085   2.472   0.241
 4048SOL    HW113043   5.049   2.412   0.169
 4048SOL    HW213044   5.169   2.432   0.278
 4049SOL     OW13045   6.796   6.043   6.874
 4049SOL    HW113046   6.885   6.066   6.913
 4049SOL    HW213047   6.809   5.989   6.791
 4050SOL     OW13048   2.197   1.031   2.572
 4050SOL    HW113049   2.193   1.114   2.517
 4050SOL    HW213050   2.259   1.046   2.650
 4051SOL     OW13051   2.652   3.855   1.084
 4051SOL    HW113052   2.699   3.884   1.168
 4051SOL    HW213053   2.718   3.847   1.010
 4052SOL     OW13054   1.131   0.262   0.821
 4052SOL    HW113055   1.068   0.216   0.758
 4052SOL    HW213056   1.078   0.305   0.895
 4053SOL     OW13057   2.410   5.542   2.347
 4053SOL    HW113058   2.506   5.516   2.333
 4053SOL    HW213059   2.391   5.627   2.299
 4054SOL     OW13060   5.349   1.382   6.208
 4054SOL    HW113061   5.400   1.299   6.183
 4054SOL    HW213062   5.381   1.415   6.297
 4055SOL     OW13063   4.623   3.793   6.299
 4055SOL    HW113064   4.632   3.731   6.222
 4055SOL    HW213065   4.531   3.832   6.301
 4056SOL     OW13066   4.222   2.885   6.978
 4056SOL    HW113067   4.297   2.831   6.941
 4056SOL    HW213068   4.168   2.922   6.903
 4057SOL     OW13069   6.360   2.569   0.608
 4057SOL    HW113070   6.377   2.666   0.630
 4057SOL    HW213071   6.440   2.532   0.560
 4058SOL     OW13072   0.636   3.629   4.119
 4058SOL    HW113073   0.732   3.604   4.128
 4058SOL    HW213074   0.623   3.682   4.035
 4059SOL     OW13075   0.370   1.918   5.075
 4059SOL    HW113076   0.424   1.837   5.099
 4059SOL    HW213077   0.303   1.893   5.005
 4060SOL     OW13078   2.233   6.896   5.964
 4060SOL    HW113079   2.173   6.863   6.036
 4060SOL    HW213080   2.276   6.818   5.917
 4061SOL     OW13081   2.114   2.813   1.560
 4061SOL    HW113082   2.021   2.782   1.540
 4061SOL    HW213083   2.173   2.795   1.482
 4062SOL     OW13084   2.531   0.798   3.330
 4062SOL    HW113085   2.558   0.878   3.383
 4062SOL    HW213086   2.604   0.730   3.333
 4063SOL     OW13087   3.738   6.532   6.160
 4063SOL    HW113088   3.801   6.474   6.212
 4063SOL    HW213089   3.729   6.620   6.206
 4064SOL     OW13090   6.132   6.913   4.653
 4064SOL    HW113091   6.227   6.902   4.682
 4064SOL    HW213092   6.082   6.965   4.722
 4065SOL     OW13093   0.933   4.535   5.896
 4065SOL    HW113094   1.027   4.509   5.918
 4065SOL    HW213095   0.907   4.495   5.808
 4066SOL     OW13096   4.827   4.391   2.171
 4066SOL    HW113097   4.861   4.484   2.179
 4066SOL    HW213098   4.881   4.330   2.230
 4067SOL     OW13099   5.258   0.615   1.373
 4067SOL    HW113100   5.334   0.579   1.318
 4067SOL    HW213101   5.293   0.646   1.462
 4068SOL     OW13102   5.140   0.662   4.558
 4068SOL    HW113103   5.084   0.745   4.561
 4068SOL    HW213104   5.233   0.684   4.588
 4069SOL     OW13105   6.809   6.177   0.848
 4069SOL    HW113106   6.760   6.101   0.805
 4069SOL    HW213107   6.870   6.141   0.919
 4070SOL     OW13108   6.902   3.834   2.622
 4070SOL    HW113109   6.994   3.866   2.643
 4070SOL    HW213110   6.836   3.904   2.652
 4071SOL     OW13111   2.764   6.875   4.672
 4071SOL    HW113112   2.673   6.850   4.639
 4071SOL    HW213113   2.793   6.961   4.630
 4072SOL     OW13114   0.288   0.229   4.575
 4072SOL    HW113115   0.249   0.165   4.509
 4072SOL    HW213116   0.265   0.199   4.668
 4073SOL     OW13117   2.560   4.485   1.806
 4073SOL    HW113118   2.572   4.503   1.709
 4073SOL    HW213119   2.647   4.498   1.854
 4074SOL     OW13120   0.263   2.983   1.863
 4074SOL    HW113121   0.359   2.978   1.893
 4074SOL    HW213122   0.255   3.048   1.787
 4075SOL     OW13123   6.796   0.664   3.491
 4075SOL    HW113124   6.884   0.704   3.464
 4075SOL    HW213125   6.730   0.737   3.509
 4076SOL     OW13126   1.823   3.820   3.445
 4076SOL    HW113127   1.784   3.823   3.537
 4076SOL    HW213128   1.888   3.744   3.438
 4077SOL     OW13129   3.899   0.697   1.839
 4077SOL    HW113130   3.825   0.638   1.875
 4077SOL    HW213131   3.859   0.776   1.793
 4078SOL     OW13132   4.956   4.517   2.547
 4078SOL    HW113133   4.994   4.475   2.630
 4078SOL    HW213134   5.026   4.520   2.476
 4079SOL     OW13135   4.288   1.140   2.979
 4079SOL    HW113136   4.355   1.162   2.908
 4079SOL    HW213137   4.198   1.175   2.952
 4080SOL     OW13138   3.783   4.079   4.384
 4080SOL    HW113139   3.831   4.093   4.471
 4080SOL    HW213140   3.841   4.029   4.321
 4081SOL     OW13141   2.793   0.190   0.223
 4081SOL    HW113142   2.727   0.183   0.148
 4081SOL    HW213143   2.759   0.255   0.291
 4082SOL     OW13144   1.757   1.543   5.659
 4082SOL    HW113145   1.727   1.457   5.618
 4082SOL    HW213146   1.819   1.524   5.735
 4083SOL     OW13147   5.665   4.072   2.398
 4083SOL    HW113148   5.623   3.997   2.448
 4083SOL    HW213149   5.756   4.043   2.366
 4084SOL     OW13150   3.751   5.902   3.185
 4084SOL    HW113151   3.671   5.891   3.244
 4084SOL    HW213152   3.753   5.994   3.148
 4085SOL     OW13153   1.684   4.571   2.344
 4085SOL    HW113154   1.744   4.536   2.272
 4085SOL    HW213155   1.661   4.667   2.324
 4086SOL     OW13156   6.233   5.084   5.068
 4086SOL    HW113157   6.136   5.102   5.079
 4086SOL    HW213158   6.282   5.170   5.053
 4087SOL     OW13159   1.245   1.373   1.404
 4087SOL    HW113160   1.265   1.295   1.464
 4087SOL    HW213161   1.330   1.412   1.370
 4088SOL     OW13162   0.231   2.343   5.086
 4088SOL    HW113163   0.296   2.299   5.024
 4088SOL    HW213164   0.202   2.278   5.156
 4089SOL     OW13165   6.643   6.611   2.561
 4089SOL    HW113166   6.669   6.538   2.498
 4089SOL    HW213167   6.724   6.667   2.582
 4090SOL     OW13168   3.565   2.541   5.384
 4090SOL    HW113169   3.575   2.442   5.376
 4090SOL    HW213170   3.477   2.570   5.346
 4091SOL     OW13171   4.547   6.888   3.444
 4091SOL    HW113172   4.512   6.898   3.537
 4091SOL    HW213173   4.512   6.963   3.387
 4092SOL     OW13174   4.489   1.854   6.638
 4092SOL    HW113175   4.467   1.825   6.545
 4092SOL    HW213176   4.583   1.888   6.641
 4093SOL     OW13177   5.703   4.258   1.403
 4093SOL    HW113178   5.756   4.286   1.323
 4093SOL    HW213179   5.722   4.320   1.479
 4094SOL     OW13180   6.229   5.904   0.112
 4094SOL    HW113181   6.187   5.903   0.021
 4094SOL    HW213182   6.228   5.998   0.147
 4095SOL     OW13183   1.371   5.171   0.055
 4095SOL    HW113184   1.427   5.108   0.000
 4095SOL    HW213185   1.429   5.244   0.092
 4096SOL     OW13186   0.920   6.719   5.955
 4096SOL    HW113187   0.909   6.725   6.054
 4096SOL    HW213188   0.843   6.668   5.916
 4097SOL     OW13189   1.629   4.008   5.830
 4097SOL    HW113190   1.679   3.962   5.757
 4097SOL    HW213191   1.691   4.067   5.881
 4098SOL     OW13192   1.584   5.884   1.887
 4098SOL    HW113193   1.674   5.891   1.846
 4098SOL    HW213194   1.585   5.925   1.978
 4099SOL     OW13195   0.022   2.459   5.787
 4099SOL    HW113196   0.054   2.420   5.874
 4099SOL    HW213197   0.011   2.558   5.797
 4100SOL     OW13198   1.994   0.872   3.241
 4100SOL    HW113199   2.035   0.800   3.297
 4100SOL    HW213200   2.014   0.961   3.282
 4101SOL     OW13201   5.726   5.947   5.941
 4101SOL    HW113202   5.680   5.977   6.024
 4101SOL    HW213203   5.699   6.007   5.865
 4102SOL     OW13204   2.780   5.112   0.655
 4102SOL    HW113205   2.777   5.158   0.566
 4102SOL    HW213206   2.686   5.098   0.687
 4103SOL     OW13207   2.380   5.147   2.295
 4103SOL    HW113208   2.376   5.196   2.208
 4103SOL    HW213209   2.303   5.175   2.352
 4104SOL     OW13210   2.446   5.514   5.501
 4104SOL    HW113211   2.404   5.436   5.455
 4104SOL    HW213212   2.535   5.486   5.539
 4105SOL     OW13213   4.001   0.399   2.014
 4105SOL    HW113214   4.008   0.485   2.065
 4105SOL    HW213215   4.010   0.418   1.916
 4106SOL     OW13216   1.563   6.694   2.830
 4106SOL    HW113217   1.557   6.594   2.827
 4106SOL    HW213218   1.542   6.731   2.740
 4107SOL     OW13219   2.529   2.330   0.935
 4107SOL    HW113220   2.606   2.268   0.945
 4107SOL    HW213221   2.468   2.320   1.014
 4108SOL     OW13222   0.698   5.586   5.127
 4108SOL    HW113223   0.680   5.532   5.209
 4108SOL    HW213224   0.738   5.674   5.154
 4109SOL     OW13225   5.500   0.105   5.227
 4109SOL    HW113226   5.468   0.199   5.225
 4109SOL    HW213227   5.430   0.044   5.190
 4110SOL     OW13228   4.830   2.300   0.524
 4110SOL    HW113229   4.926   2.289   0.548
 4110SOL    HW213230   4.776   2.310   0.608
 4111SOL     OW13231   6.259   4.608   4.299
 4111SOL    HW113232   6.261   4.705   4.321
 4111SOL    HW213233   6.230   4.596   4.204
 4112SOL     OW13234   3.839   4.982   5.155
 4112SOL    HW113235   3.918   4.921   5.158
 4112SOL    HW213236   3.802   4.992   5.247
 4113SOL     OW13237   5.409   6.211   5.919
 4113SOL    HW113238   5.349   6.139   5.883
 4113SOL    HW213239   5.503   6.192   5.894
 4114SOL     OW13240   6.167   1.478   3.527
 4114SOL    HW113241   6.231   1.543   3.568
 4114SOL    HW213242   6.081   1.478   3.579
 4115SOL     OW13243   4.863   0.446   4.692
 4115SOL    HW113244   4.940   0.482   4.745
 4115SOL    HW213245   4.888   0.445   4.595
 4116SOL     OW13246   5.589   3.328   3.096
 4116SOL    HW113247   5.512   3.264   3.100
 4116SOL    HW213248   5.555   3.420   3.077
 4117SOL     OW13249   0.725   2.670   2.853
 4117SOL    HW113250   0.794   2.655   2.782
 4117SOL    HW213251   0.634   2.668   2.811
 4118SOL     OW13252   0.980   1.050   1.817
 4118SOL    HW113253   1.079   1.059   1.805
 4118SOL    HW213254   0.953   1.088   1.905
 4119SOL     OW13255   6.292   1.081   4.318
 4119SOL    HW113256   6.300   1.132   4.232
 4119SOL    HW213257   6.366   1.108   4.380
 4120SOL     OW13258   1.934   0.038   0.296
 4120SOL    HW113259   2.034   0.029   0.294
 4120SOL    HW213260   1.900   0.053   0.204
 4121SOL     OW13261   6.676   0.266   1.437
 4121SOL    HW113262   6.669   0.282   1.338
 4121SOL    HW213263   6.726   0.181   1.453
 4122SOL     OW13264   0.912   4.457   3.400
 4122SOL    HW113265   0.925   4.487   3.494
 4122SOL    HW213266   0.825   4.409   3.392
 4123SOL     OW13267   5.728   4.321   2.043
 4123SOL    HW113268   5.635   4.349   2.020
 4123SOL    HW213269   5.791   4.397   2.029
 4124SOL     OW13270   5.691   6.208   0.500
 4124SOL    HW113271   5.598   6.178   0.522
 4124SOL    HW213272   5.689   6.304   0.472
 4125SOL     OW13273   0.988   2.661   0.115
 4125SOL    HW113274   0.975   2.566   0.141
 4125SOL    HW213275   0.928   2.683   0.038
 4126SOL     OW13276   1.671   4.457   2.966
 4126SOL    HW113277   1.651   4.551   2.936
 4126SOL    HW213278   1.729   4.412   2.898
 4127SOL     OW13279   4.745   2.752   4.175
 4127SOL    HW113280   4.830   2.798   4.199
 4127SOL    HW213281   4.720   2.688   4.247
 4128SOL     OW13282   6.318   2.804   6.334
 4128SOL    HW113283   6.334   2.711   6.301
 4128SOL    HW213284   6.312   2.867   6.256
 4129SOL     OW13285   3.267   6.738   2.078
 4129SOL    HW113286   3.256   6.837   2.082
 4129SOL    HW213287   3.310   6.712   1.992
 4130SOL     OW13288   4.765   1.227   6.853
 4130SOL    HW113289   4.666   1.221   6.869
 4130SOL    HW213290   4.783   1.222   6.755
 4131SOL     OW13291   5.255   5.881   4.417
 4131SOL    HW113292   5.273   5.929   4.503
 4131SOL    HW213293   5.294   5.934   4.341
 4132SOL     OW13294   0.183   3.401   2.452
 4132SOL    HW113295   0.274   3.437   2.470
 4132SOL    HW213296   0.120   3.430   2.524
 4133SOL     OW13297   5.270   6.056   3.937
 4133SOL    HW113298   5.199   6.070   3.868
 4133SOL    HW213299   5.349   6.114   3.917
 4134SOL     OW13300   2.036   2.980   0.743
 4134SOL    HW113301   2.022   3.042   0.820
 4134SOL    HW213302   2.134   2.969   0.728
 4135SOL     OW13303   6.086   0.374   0.723
 4135SOL    HW113304   6.025   0.427   0.783
 4135SOL    HW213305   6.151   0.323   0.779
 4136SOL     OW13306   0.697   5.165   0.180
 4136SOL    HW113307   0.742   5.076   0.191
 4136SOL    HW213308   0.718   5.202   0.090
 4137SOL     OW13309   0.529   2.123   5.253
 4137SOL    HW113310   0.522   2.123   5.353
 4137SOL    HW213311   0.461   2.061   5.214
 4138SOL     OW13312   5.736   6.381   6.438
 4138SOL    HW113313   5.804   6.374   6.512
 4138SOL    HW213314   5.717   6.478   6.421
 4139SOL     OW13315   1.229   4.295   1.934
 4139SOL    HW113316   1.218   4.199   1.958
 4139SOL    HW213317   1.178   4.352   1.998
 4140SOL     OW13318   2.389   6.755   0.587
 4140SOL    HW113319   2.339   6.751   0.673
 4140SOL    HW213320   2.487   6.754   0.605
 4141SOL     OW13321   5.025   6.982   5.981
 4141SOL    HW113322   4.949   0.029   5.997
 4141SOL    HW213323   5.002   6.921   5.905
 4142SOL     OW13324   0.060   6.771   1.859
 4142SOL    HW113325   0.011   6.694   1.820
 4142SOL    HW213326   0.045   6.774   1.958
 4143SOL     OW13327   6.405   3.826   6.782
 4143SOL    HW113328   6.449   3.769   6.711
 4143SOL    HW213329   6.337   3.885   6.739
 4144SOL     OW13330   5.032   0.383   1.715
 4144SOL    HW113331   5.092   0.304   1.730
 4144SOL    HW213332   4.974   0.366   1.635
 4145SOL     OW13333   4.389   0.884   1.132
 4145SOL    HW113334   4.354   0.790   1.129
 4145SOL    HW213335   4.337   0.941   1.070
 4146SOL     OW13336   3.289   1.417   1.831
 4146SOL    HW113337   3.340   1.499   1.807
 4146SOL    HW213338   3.353   1.345   1.858
 4147SOL     OW13339   5.333   4.240   0.267
 4147SOL    HW113340   5.366   4.167   0.207
 4147SOL    HW213341   5.233   4.242   0.266
 4148SOL     OW13342   3.194   0.920   6.074
 4148SOL    HW113343   3.227   0.998   6.020
 4148SOL    HW213344   3.269   0.881   6.127
 4149SOL     OW13345   1.970   2.403   6.310
 4149SOL    HW113346   2.055   2.415   6.260
 4149SOL    HW213347   1.987   2.353   6.394
 4150SOL     OW13348   0.106   1.445   1.330
 4150SOL    HW113349   0.048   1.491   1.263
 4150SOL    HW213350   0.056   1.436   1.417
 4151SOL     OW13351   2.855   5.497   4.547
 4151SOL    HW113352   2.861   5.554   4.628
 4151SOL    HW213353   2.925   5.524   4.481
 4152SOL     OW13354   2.797   4.012   1.316
 4152SOL    HW113355   2.810   4.053   1.406
 4152SOL    HW213356   2.761   4.082   1.253
 4153SOL     OW13357   5.770   6.869   0.217
 4153SOL    HW113358   5.759   6.809   0.295
 4153SOL    HW213359   5.836   6.941   0.238
 4154SOL     OW13360   0.702   6.689   3.499
 4154SOL    HW113361   0.704   6.746   3.581
 4154SOL    HW213362   0.753   6.734   3.426
 4155SOL     OW13363   5.170   1.077   2.598
 4155SOL    HW113364   5.088   1.073   2.541
 4155SOL    HW213365   5.174   0.996   2.657
 4156SOL     OW13366   0.810   5.630   5.945
 4156SOL    HW113367   0.777   5.563   5.878
 4156SOL    HW213368   0.756   5.621   6.029
 4157SOL     OW13369   4.275   6.197   0.556
 4157SOL    HW113370   4.330   6.174   0.476
 4157SOL    HW213371   4.327   6.256   0.617
 4158SOL     OW13372   6.735   0.837   6.451
 4158SOL    HW113373   6.665   0.794   6.508
 4158SOL    HW213374   6.812   0.866   6.509
 4159SOL     OW13375   3.327   0.783   4.061
 4159SOL    HW113376   3.396   0.855   4.072
 4159SOL    HW213377   3.292   0.785   3.967
 4160SOL     OW13378   1.345   0.698   5.690
 4160SOL    HW113379   1.294   0.783   5.686
 4160SOL    HW213380   1.429   0.712   5.744
 4161SOL     OW13381   3.294   3.641   5.269
 4161SOL    HW113382   3.214   3.602   5.225
 4161SOL    HW213383   3.349   3.568   5.310
 4162SOL     OW13384   4.451   0.041   1.183
 4162SOL    HW113385   4.510   6.977   1.172
 4162SOL    HW213386   4.357   0.017   1.158
 4163SOL     OW13387   3.704   6.222   1.498
 4163SOL    HW113388   3.625   6.166   1.521
 4163SOL    HW213389   3.698   6.251   1.403
 4164SOL     OW13390   5.905   1.223   6.975
 4164SOL    HW113391   5.996   1.220   0.000
 4164SOL    HW213392   5.851   1.146   7.009
 4165SOL     OW13393   3.496   1.237   4.577
 4165SOL    HW113394   3.478   1.152   4.527
 4165SOL    HW213395   3.418   1.298   4.566
 4166SOL     OW13396   5.568   1.838   2.372
 4166SOL    HW113397   5.549   1.915   2.432
 4166SOL    HW213398   5.587   1.871   2.279
 4167SOL     OW13399   3.779   6.465   4.919
 4167SOL    HW113400   3.866   6.415   4.916
 4167SOL    HW213401   3.738   6.465   4.827
 4168SOL     OW13402   5.716   3.321   6.931
 4168SOL    HW113403   5.743   3.226   6.917
 4168SOL    HW213404   5.796   3.380   6.921
 4169SOL     OW13405   5.463   4.509   6.952
 4169SOL    HW113406   5.365   4.527   6.942
 4169SOL    HW213407   5.514   4.555   6.879
 4170SOL     OW13408   0.745   3.121   4.965
 4170SOL    HW113409   0.814   3.050   4.981
 4170SOL    HW213410   0.745   3.186   5.041
 4171SOL     OW13411   0.012   0.278   6.042
 4171SOL    HW113412   0.005   0.307   6.138
 4171SOL    HW213413   0.081   0.207   6.033
 4172SOL     OW13414   3.718   3.158   0.281
 4172SOL    HW113415   3.644   3.222   0.260
 4172SOL    HW213416   3.697   3.069   0.241
 4173SOL     OW13417   5.786   1.273   5.795
 4173SOL    HW113418   5.854   1.271   5.868
 4173SOL    HW213419   5.760   1.179   5.771
 4174SOL     OW13420   2.335   6.798   3.849
 4174SOL    HW113421   2.261   6.857   3.881
 4174SOL    HW213422   2.373   6.835   3.764
 4175SOL     OW13423   1.820   3.391   6.249
 4175SOL    HW113424   1.758   3.468   6.264
 4175SOL    HW213425   1.864   3.366   6.335
 4176SOL     OW13426   4.494   6.889   5.236
 4176SOL    HW113427   4.458   6.952   5.168
 4176SOL    HW213428   4.527   6.940   5.315
 4177SOL     OW13429   5.505   6.398   4.164
 4177SOL    HW113430   5.581   6.463   4.163
 4177SOL    HW213431   5.541   6.305   4.158
 4178SOL     OW13432   3.020   6.515   0.831
 4178SOL    HW113433   3.112   6.481   0.850
 4178SOL    HW213434   2.970   6.525   0.916
 4179SOL     OW13435   3.773   1.543   6.984
 4179SOL    HW113436   3.849   1.545   0.032
 4179SOL    HW213437   3.753   1.636   6.953
 4180SOL     OW13438   4.058   4.178   6.942
 4180SOL    HW113439   4.012   4.252   6.991
 4180SOL    HW213440   3.994   4.103   6.926
 4181SOL     OW13441   4.968   6.072   5.996
 4181SOL    HW113442   5.065   6.094   6.002
 4181SOL    HW213443   4.935   6.093   5.904
 4182SOL     OW13444   6.443   5.158   5.501
 4182SOL    HW113445   6.416   5.202   5.587
 4182SOL    HW213446   6.456   5.060   5.516
 4183SOL     OW13447   5.786   2.606   6.963
 4183SOL    HW113448   5.774   2.536   0.017
 4183SOL    HW213449   5.734   2.687   6.987
 4184SOL     OW13450   3.384   6.029   3.527
 4184SOL    HW113451   3.425   5.952   3.477
 4184SOL    HW213452   3.427   6.036   3.617
 4185SOL     OW13453   4.484   4.620   3.411
 4185SOL    HW113454   4.515   4.527   3.430
 4185SOL    HW213455   4.473   4.632   3.312
 4186SOL     OW13456   2.016   4.774   0.772
 4186SOL    HW113457   1.966   4.745   0.854
 4186SOL    HW213458   2.016   4.874   0.767
 4187SOL     OW13459   1.319   3.584   6.188
 4187SOL    HW113460   1.285   3.609   6.097
 4187SOL    HW213461   1.300   3.658   6.252
 4188SOL     OW13462   5.186   0.397   5.942
 4188SOL    HW113463   5.213   0.301   5.932
 4188SOL    HW213464   5.087   0.403   5.955
 4189SOL     OW13465   3.445   5.215   3.618
 4189SOL    HW113466   3.448   5.139   3.684
 4189SOL    HW213467   3.537   5.252   3.606
 4190SOL     OW13468   6.566   5.548   1.354
 4190SOL    HW113469   6.631   5.562   1.279
 4190SOL    HW213470   6.479   5.591   1.331
 4191SOL     OW13471   5.038   2.803   5.925
 4191SOL    HW113472   4.942   2.833   5.924
 4191SOL    HW213473   5.097   2.882   5.939
 4192SOL     OW13474   1.871   3.509   6.567
 4192SOL    HW113475   1.892   3.540   6.660
 4192SOL    HW213476   1.811   3.575   6.522
 4193SOL     OW13477   5.398   6.562   1.507
 4193SOL    HW113478   5.471   6.585   1.443
 4193SOL    HW213479   5.378   6.464   1.500
 4194SOL     OW13480   5.691   6.969   6.766
 4194SOL    HW113481   5.653   6.990   6.856
 4194SOL    HW213482   5.638   0.001   6.695
 4195SOL     OW13483   1.922   6.079   0.716
 4195SOL    HW113484   1.974   5.996   0.696
 4195SOL    HW213485   1.824   6.061   0.706
 4196SOL     OW13486   5.964   3.171   2.958
 4196SOL    HW113487   6.027   3.170   2.880
 4196SOL    HW213488   5.902   3.249   2.949
 4197SOL     OW13489   4.003   0.745   6.846
 4197SOL    HW113490   3.962   0.679   6.908
 4197SOL    HW213491   4.011   0.834   6.891
 4198SOL     OW13492   6.522   1.890   2.172
 4198SOL    HW113493   6.542   1.914   2.077
 4198SOL    HW213494   6.532   1.791   2.185
 4199SOL     OW13495   1.218   3.384   0.141
 4199SOL    HW113496   1.207   3.293   0.102
 4199SOL    HW213497   1.226   3.378   0.240
 4200SOL     OW13498   5.262   1.513   2.895
 4200SOL    HW113499   5.238   1.470   2.808
 4200SOL    HW213500   5.233   1.455   2.971
 4201SOL     OW13501   5.015   0.598   5.367
 4201SOL    HW113502   4.990   0.621   5.273
 4201SOL    HW213503   5.022   0.681   5.422
 4202SOL     OW13504   4.505   4.127   1.353
 4202SOL    HW113505   4.491   4.052   1.418
 4202SOL    HW213506   4.421   4.179   1.342
 4203SOL     OW13507   6.272   3.659   4.731
 4203SOL    HW113508   6.330   3.638   4.653
 4203SOL    HW213509   6.302   3.608   4.811
 4204SOL     OW13510   2.428   4.215   5.740
 4204SOL    HW113511   2.458   4.248   5.830
 4204SOL    HW213512   2.342   4.165   5.750
 4205SOL     OW13513   5.815   5.089   6.209
 4205SOL    HW113514   5.903   5.053   6.178
 4205SOL    HW213515   5.748   5.084   6.135
 4206SOL     OW13516   2.471   2.553   4.819
 4206SOL    HW113517   2.389   2.527   4.871
 4206SOL    HW213518   2.450   2.634   4.763
 4207SOL     OW13519   2.857   2.211   1.270
 4207SOL    HW113520   2.903   2.124   1.253
 4207SOL    HW213521   2.926   2.284   1.272
 4208SOL     OW13522   1.570   2.631   3.120
 4208SOL    HW113523   1.563   2.731   3.123
 4208SOL    HW213524   1.667   2.605   3.117
 4209SOL     OW13525   6.608   4.938   2.844
 4209SOL    HW113526   6.560   4.879   2.909
 4209SOL    HW213527   6.577   4.916   2.751
 4210SOL     OW13528   3.609   5.196   5.218
 4210SOL    HW113529   3.655   5.154   5.296
 4210SOL    HW213530   3.534   5.137   5.188
 4211SOL     OW13531   4.948   3.085   6.369
 4211SOL    HW113532   4.870   3.147   6.375
 4211SOL    HW213533   5.033   3.138   6.375
 4212SOL     OW13534   0.417   2.887   2.755
 4212SOL    HW113535   0.427   2.787   2.751
 4212SOL    HW213536   0.349   2.916   2.687
 4213SOL     OW13537   2.827   0.542   3.986
 4213SOL    HW113538   2.791   0.546   4.080
 4213SOL    HW213539   2.752   0.526   3.922
 4214SOL     OW13540   6.352   5.821   4.148
 4214SOL    HW113541   6.338   5.917   4.125
 4214SOL    HW213542   6.430   5.786   4.098
 4215SOL     OW13543   6.178   6.996   5.110
 4215SOL    HW113544   6.235   0.053   5.147
 4215SOL    HW213545   6.081   0.006   5.116
 4216SOL     OW13546   1.674   5.843   2.439
 4216SOL    HW113547   1.596   5.901   2.463
 4216SOL    HW213548   1.677   5.764   2.501
 4217SOL     OW13549   0.208   0.594   2.646
 4217SOL    HW113550   0.172   0.501   2.656
 4217SOL    HW213551   0.173   0.651   2.719
 4218SOL     OW13552   2.663   0.723   1.808
 4218SOL    HW113553   2.585   0.715   1.869
 4218SOL    HW213554   2.661   0.649   1.740
 4219SOL     OW13555   2.722   5.478   2.079
 4219SOL    HW113556   2.641   5.511   2.031
 4219SOL    HW213557   2.791   5.450   2.012
 4220SOL     OW13558   5.343   1.753   1.129
 4220SOL    HW113559   5.313   1.803   1.047
 4220SOL    HW213560   5.393   1.671   1.101
 4221SOL     OW13561   0.705   7.015   1.330
 4221SOL    HW113562   0.785   0.059   1.335
 4221SOL    HW213563   0.714   6.943   1.399
 4222SOL     OW13564   5.217   3.805   4.443
 4222SOL    HW113565   5.162   3.832   4.522
 4222SOL    HW213566   5.216   3.879   4.376
 4223SOL     OW13567   3.356   3.961   2.635
 4223SOL    HW113568   3.327   3.975   2.541
 4223SOL    HW213569   3.393   4.047   2.671
 4224SOL     OW13570   4.693   3.952   5.241
 4224SOL    HW113571   4.674   3.997   5.328
 4224SOL    HW213572   4.755   3.874   5.256
 4225SOL     OW13573   0.667   1.553   6.156
 4225SOL    HW113574   0.754   1.562   6.108
 4225SOL    HW213575   0.634   1.459   6.150
 4226SOL     OW13576   5.129   5.062   3.906
 4226SOL    HW113577   5.123   5.038   4.003
 4226SOL    HW213578   5.201   5.130   3.893
 4227SOL     OW13579   5.744   5.986   1.032
 4227SOL    HW113580   5.828   5.939   1.058
 4227SOL    HW213581   5.745   6.003   0.933
 4228SOL     OW13582   1.898   4.864   3.534
 4228SOL    HW113583   1.974   4.824   3.484
 4228SOL    HW213584   1.829   4.793   3.551
 4229SOL     OW13585   6.372   6.393   6.215
 4229SOL    HW113586   6.392   6.484   6.179
 4229SOL    HW213587   6.283   6.394   6.260
 4230SOL     OW13588   0.877   1.839   2.244
 4230SOL    HW113589   0.817   1.818   2.322
 4230SOL    HW213590   0.828   1.822   2.159
 4231SOL     OW13591   6.856   0.633   5.447
 4231SOL    HW113592   6.928   0.596   5.388
 4231SOL    HW213593   6.799   0.696   5.395
 4232SOL     OW13594   2.264   4.358   2.184
 4232SOL    HW113595   2.308   4.444   2.208
 4232SOL    HW213596   2.228   4.364   2.091
 4233SOL     OW13597   4.820   5.373   2.496
 4233SOL    HW113598   4.734   5.381   2.547
 4233SOL    HW213599   4.897   5.375   2.560
 4234SOL     OW13600   2.775   5.269   6.472
 4234SOL    HW113601   2.777   5.220   6.560
 4234SOL    HW213602   2.770   5.367   6.489
 4235SOL     OW13603   6.745   5.836   0.288
 4235SOL    HW113604   6.840   5.852   0.262
 4235SOL    HW213605   6.685   5.894   0.234
 4236SOL     OW13606   0.292   5.159   3.951
 4236SOL    HW113607   0.307   5.125   4.044
 4236SOL    HW213608   0.213   5.220   3.951
 4237SOL     OW13609   0.160   4.762   4.383
 4237SOL    HW113610   0.183   4.859   4.380
 4237SOL    HW213611   0.065   4.749   4.358
 4238SOL     OW13612   2.012   5.721   3.219
 4238SOL    HW113613   2.102   5.704   3.258
 4238SOL    HW213614   1.942   5.693   3.285
 4239SOL     OW13615   4.068   1.133   3.671
 4239SOL    HW113616   4.071   1.233   3.678
 4239SOL    HW213617   3.989   1.106   3.616
 4240SOL     OW13618   4.428   6.740   1.830
 4240SOL    HW113619   4.440   6.741   1.731
 4240SOL    HW213620   4.338   6.777   1.853
 4241SOL     OW13621   0.674   4.441   6.593
 4241SOL    HW113622   0.652   4.520   6.536
 4241SOL    HW213623   0.677   4.469   6.689
 4242SOL     OW13624   3.670   2.131   2.634
 4242SOL    HW113625   3.673   2.185   2.718
 4242SOL    HW213626   3.746   2.158   2.575
 4243SOL     OW13627   2.268   2.275   2.640
 4243SOL    HW113628   2.366   2.289   2.627
 4243SOL    HW213629   2.248   2.269   2.737
 4244SOL     OW13630   2.791   3.180   5.575
 4244SOL    HW113631   2.751   3.162   5.486
 4244SOL    HW213632   2.720   3.216   5.637
 4245SOL     OW13633   6.702   1.028   5.591
 4245SOL    HW113634   6.771   0.956   5.585
 4245SOL    HW213635   6.721   1.098   5.523
 4246SOL     OW13636   0.931   5.292   6.419
 4246SOL    HW113637   0.906   5.325   6.510
 4246SOL    HW213638   0.959   5.197   6.425
 4247SOL     OW13639   0.386   4.499   5.207
 4247SOL    HW113640   0.376   4.576   5.144
 4247SOL    HW213641   0.335   4.420   5.172
 4248SOL     OW13642   1.899   3.540   6.853
 4248SOL    HW113643   1.802   3.544   6.876
 4248SOL    HW213644   1.952   3.519   6.934
 4249SOL     OW13645   5.035   3.319   6.086
 4249SOL    HW113646   4.974   3.329   6.008
 4249SOL    HW213647   5.030   3.226   6.122
 4250SOL     OW13648   6.853   4.085   3.814
 4250SOL    HW113649   6.790   4.153   3.850
 4250SOL    HW213650   6.842   4.078   3.715
 4251SOL     OW13651   5.881   4.802   6.356
 4251SOL    HW113652   5.921   4.809   6.265
 4251SOL    HW213653   5.913   4.878   6.413
 4252SOL     OW13654   6.458   4.891   5.595
 4252SOL    HW113655   6.497   4.882   5.687
 4252SOL    HW213656   6.371   4.940   5.600
 4253SOL     OW13657   2.916   0.119   3.447
 4253SOL    HW113658   2.940   0.102   3.352
 4253SOL    HW213659   2.973   0.194   3.483
 4254SOL     OW13660   4.037   3.362   3.465
 4254SOL    HW113661   4.037   3.449   3.513
 4254SOL    HW213662   4.007   3.289   3.528
 4255SOL     OW13663   0.591   2.094   4.395
 4255SOL    HW113664   0.545   2.006   4.403
 4255SOL    HW213665   0.531   2.167   4.427
 4256SOL     OW13666   1.138   0.405   1.589
 4256SOL    HW113667   1.207   0.364   1.529
 4256SOL    HW213668   1.089   0.333   1.637
 4257SOL     OW13669   4.417   2.413   4.846
 4257SOL    HW113670   4.323   2.421   4.879
 4257SOL    HW213671   4.417   2.410   4.746
 4258SOL     OW13672   5.505   6.201   2.032
 4258SOL    HW113673   5.452   6.145   1.968
 4258SOL    HW213674   5.459   6.289   2.045
 4259SOL     OW13675   2.936   2.993   1.811
 4259SOL    HW113676   2.878   2.948   1.743
 4259SOL    HW213677   2.901   3.085   1.829
 4260SOL     OW13678   4.157   5.782   4.943
 4260SOL    HW113679   4.233   5.727   4.978
 4260SOL    HW213680   4.166   5.792   4.844
 4261SOL     OW13681   1.274   1.302   2.995
 4261SOL    HW113682   1.319   1.264   2.914
 4261SOL    HW213683   1.226   1.230   3.044
 4262SOL     OW13684   0.936   6.939   5.077
 4262SOL    HW113685   0.970   7.000   5.006
 4262SOL    HW213686   0.971   6.969   5.166
 4263SOL     OW13687   4.176   5.614   6.917
 4263SOL    HW113688   4.232   5.599   6.836
 4263SOL    HW213689   4.169   5.712   6.935
 4264SOL     OW13690   1.665   0.931   1.586
 4264SOL    HW113691   1.719   0.981   1.655
 4264SOL    HW213692   1.672   0.978   1.498
 4265SOL     OW13693   1.919   1.555   1.280
 4265SOL    HW113694   1.999   1.534   1.225
 4265SOL    HW213695   1.895   1.651   1.268
 4266SOL     OW13696   2.331   4.915   0.768
 4266SOL    HW113697   2.240   4.956   0.770
 4266SOL    HW213698   2.324   4.818   0.744
 4267SOL     OW13699   1.461   3.562   4.979
 4267SOL    HW113700   1.497   3.635   5.038
 4267SOL    HW213701   1.460   3.476   5.029
 4268SOL     OW13702   0.377   1.794   1.065
 4268SOL    HW113703   0.307   1.836   1.122
 4268SOL    HW213704   0.465   1.797   1.113
 4269SOL     OW13705   2.994   3.892   1.092
 4269SOL    HW113706   2.958   3.955   1.160
 4269SOL    HW213707   3.090   3.873   1.112
 4270SOL     OW13708   3.811   2.957   0.057
 4270SOL    HW113709   3.820   2.894   0.134
 4270SOL    HW213710   3.890   3.018   0.055
 4271SOL     OW13711   1.926   0.559   1.271
 4271SOL    HW113712   1.996   0.585   1.205
 4271SOL    HW213713   1.870   0.639   1.294
 4272SOL     OW13714   1.345   4.795   3.437
 4272SOL    HW113715   1.355   4.872   3.500
 4272SOL    HW213716   1.258   4.804   3.388
 4273SOL     OW13717   6.775   6.309   3.111
 4273SOL    HW113718   6.833   6.338   3.035
 4273SOL    HW213719   6.776   6.209   3.117
 4274SOL     OW13720   1.646   0.265   3.139
 4274SOL    HW113721   1.548   0.245   3.141
 4274SOL    HW213722   1.694   0.192   3.091
 4275SOL     OW13723   0.341   0.544   5.922
 4275SOL    HW113724   0.320   0.634   5.883
 4275SOL    HW213725   0.309   0.540   6.017
 4276SOL     OW13726   2.121   3.336   3.373
 4276SOL    HW113727   2.145   3.432   3.360
 4276SOL    HW213728   2.058   3.327   3.449
 4277SOL     OW13729   0.547   5.769   5.885
 4277SOL    HW113730   0.517   5.753   5.979
 4277SOL    HW213731   0.645   5.786   5.883
 4278SOL     OW13732   1.370   6.410   6.546
 4278SOL    HW113733   1.348   6.404   6.448
 4278SOL    HW213734   1.377   6.318   6.584
 4279SOL     OW13735   3.776   5.874   3.517
 4279SOL    HW113736   3.844   5.907   3.451
 4279SOL    HW213737   3.746   5.950   3.575
 4280SOL     OW13738   4.988   2.916   4.216
 4280SOL    HW113739   5.066   2.977   4.220
 4280SOL    HW213740   4.957   2.907   4.121
 4281SOL     OW13741   1.903   3.993   4.549
 4281SOL    HW113742   1.923   3.969   4.644
 4281SOL    HW213743   1.988   4.008   4.500
 4282SOL     OW13744   0.737   1.328   6.909
 4282SOL    HW113745   0.809   1.340   6.977
 4282SOL    HW213746   0.661   1.390   6.930
 4283SOL     OW13747   2.932   1.392   3.682
 4283SOL    HW113748   2.916   1.378   3.779
 4283SOL    HW213749   3.003   1.462   3.670
 4284SOL     OW13750   6.618   2.433   3.091
 4284SOL    HW113751   6.593   2.506   3.027
 4284SOL    HW213752   6.535   2.392   3.128
 4285SOL     OW13753   0.527   6.175   3.949
 4285SOL    HW113754   0.448   6.235   3.964
 4285SOL    HW213755   0.579   6.207   3.871
 4286SOL     OW13756   4.834   5.342   0.012
 4286SOL    HW113757   4.877   5.268   0.065
 4286SOL    HW213758   4.770   5.303   6.963
 4287SOL     OW13759   3.849   5.618   6.363
 4287SOL    HW113760   3.944   5.647   6.376
 4287SOL    HW213761   3.838   5.524   6.395
 4288SOL     OW13762   0.797   6.668   4.242
 4288SOL    HW113763   0.782   6.570   4.253
 4288SOL    HW213764   0.888   6.692   4.274
 4289SOL     OW13765   0.638   4.180   6.778
 4289SOL    HW113766   0.730   4.209   6.749
 4289SOL    HW213767   0.621   4.087   6.746
 4290SOL     OW13768   1.478   2.115   2.667
 4290SOL    HW113769   1.561   2.073   2.629
 4290SOL    HW213770   1.455   2.197   2.614
 4291SOL     OW13771   6.771   3.774   1.687
 4291SOL    HW113772   6.675   3.758   1.711
 4291SOL    HW213773   6.777   3.853   1.626
 4292SOL     OW13774   5.454   5.846   5.160
 4292SOL    HW113775   5.550   5.834   5.188
 4292SOL    HW213776   5.436   5.943   5.146
 4293SOL     OW13777   0.755   1.882   0.499
 4293SOL    HW113778   0.824   1.944   0.535
 4293SOL    HW213779   0.689   1.933   0.443
 4294SOL     OW13780   4.427   2.437   5.902
 4294SOL    HW113781   4.477   2.445   5.988
 4294SOL    HW213782   4.377   2.350   5.900
 4295SOL     OW13783   3.410   5.062   5.392
 4295SOL    HW113784   3.433   5.028   5.484
 4295SOL    HW213785   3.391   4.984   5.332
 4296SOL     OW13786   1.980   1.453   2.645
 4296SOL    HW113787   1.953   1.409   2.559
 4296SOL    HW213788   1.927   1.537   2.657
 4297SOL     OW13789   5.425   0.169   0.181
 4297SOL    HW113790   5.351   0.234   0.195
 4297SOL    HW213791   5.494   0.180   0.253
 4298SOL     OW13792   1.595   4.626   1.679
 4298SOL    HW113793   1.506   4.593   1.709
 4298SOL    HW213794   1.637   4.558   1.618
 4299SOL     OW13795   1.330   5.724   4.822
 4299SOL    HW113796   1.265   5.735   4.898
 4299SOL    HW213797   1.280   5.726   4.735
 4300SOL     OW13798   5.872   0.288   5.656
 4300SOL    HW113799   5.953   0.293   5.598
 4300SOL    HW213800   5.812   0.215   5.624
 4301SOL     OW13801   3.015   0.657   0.870
 4301SOL    HW113802   3.112   0.665   0.845
 4301SOL    HW213803   2.995   0.562   0.893
 4302SOL     OW13804   1.014   0.368   6.973
 4302SOL    HW113805   0.947   0.422   6.923
 4302SOL    HW213806   0.984   0.273   6.977
 4303SOL     OW13807   0.765   4.443   2.133
 4303SOL    HW113808   0.750   4.350   2.167
 4303SOL    HW213809   0.827   4.491   2.194
 4304SOL     OW13810   2.496   3.704   5.950
 4304SOL    HW113811   2.555   3.685   6.029
 4304SOL    HW213812   2.458   3.618   5.915
 4305SOL     OW13813   0.514   1.343   4.936
 4305SOL    HW113814   0.515   1.266   4.872
 4305SOL    HW213815   0.487   1.426   4.887
 4306SOL     OW13816   6.287   5.551   5.556
 4306SOL    HW113817   6.380   5.588   5.550
 4306SOL    HW213818   6.265   5.501   5.473
 4307SOL     OW13819   6.063   3.602   1.308
 4307SOL    HW113820   5.970   3.598   1.345
 4307SOL    HW213821   6.089   3.698   1.295
 4308SOL     OW13822   3.245   0.251   5.404
 4308SOL    HW113823   3.280   0.184   5.338
 4308SOL    HW213824   3.172   0.210   5.458
 4309SOL     OW13825   0.968   0.566   1.281
 4309SOL    HW113826   1.033   0.500   1.318
 4309SOL    HW213827   0.888   0.518   1.245
 4310SOL     OW13828   1.468   6.790   2.580
 4310SOL    HW113829   1.520   6.843   2.513
 4310SOL    HW213830   1.374   6.778   2.547
 4311SOL     OW13831   0.973   5.214   4.882
 4311SOL    HW113832   1.054   5.155   4.888
 4311SOL    HW213833   0.963   5.265   4.968
 4312SOL     OW13834   1.501   5.992   2.626
 4312SOL    HW113835   1.583   5.970   2.678
 4312SOL    HW213836   1.447   5.909   2.612
 4313SOL     OW13837   5.228   1.049   1.015
 4313SOL    HW113838   5.319   1.015   0.992
 4313SOL    HW213839   5.181   0.983   1.074
 4314SOL     OW13840   6.872   3.070   1.415
 4314SOL    HW113841   6.794   3.129   1.393
 4314SOL    HW213842   6.847   3.009   1.489
 4315SOL     OW13843   1.255   1.033   2.108
 4315SOL    HW113844   1.216   0.944   2.133
 4315SOL    HW213845   1.254   1.043   2.008
 4316SOL     OW13846   0.083   1.307   2.590
 4316SOL    HW113847   0.113   1.401   2.576
 4316SOL    HW213848   0.036   1.274   2.508
 4317SOL     OW13849   3.799   1.018   3.307
 4317SOL    HW113850   3.748   0.958   3.246
 4317SOL    HW213851   3.802   0.978   3.399
 4318SOL     OW13852   6.982   2.123   4.919
 4318SOL    HW113853   0.016   2.204   4.947
 4318SOL    HW213854   0.030   2.052   4.891
 4319SOL     OW13855   4.075   3.250   6.419
 4319SOL    HW113856   3.979   3.262   6.446
 4319SOL    HW213857   4.085   3.164   6.369
 4320SOL     OW13858   0.078   6.576   3.266
 4320SOL    HW113859   0.032   6.631   3.335
 4320SOL    HW213860   0.058   6.479   3.281
 4321SOL     OW13861   0.504   0.226   4.173
 4321SOL    HW113862   0.512   0.209   4.272
 4321SOL    HW213863   0.418   0.187   4.140
 4322SOL     OW13864   6.723   0.880   0.452
 4322SOL    HW113865   6.686   0.857   0.361
 4322SOL    HW213866   6.647   0.906   0.513
 4323SOL     OW13867   0.213   2.107   3.841
 4323SOL    HW113868   0.119   2.083   3.817
 4323SOL    HW213869   0.277   2.052   3.787
 4324SOL     OW13870   5.948   2.285   5.830
 4324SOL    HW113871   5.947   2.339   5.914
 4324SOL    HW213872   5.878   2.215   5.834
 4325SOL     OW13873   2.422   2.541   6.323
 4325SOL    HW113874   2.499   2.599   6.350
 4325SOL    HW213875   2.456   2.456   6.284
 4326SOL     OW13876   0.190   2.179   5.295
 4326SOL    HW113877   0.247   2.243   5.346
 4326SOL    HW213878   0.129   2.131   5.358
 4327SOL     OW13879   4.677   0.809   3.355
 4327SOL    HW113880   4.588   0.768   3.372
 4327SOL    HW213881   4.674   0.862   3.271
 4328SOL     OW13882   6.205   5.029   0.843
 4328SOL    HW113883   6.186   5.085   0.924
 4328SOL    HW213884   6.262   4.951   0.869
 4329SOL     OW13885   5.342   1.719   5.930
 4329SOL    HW113886   5.257   1.670   5.946
 4329SOL    HW213887   5.389   1.735   6.017
 4330SOL     OW13888   1.143   0.866   6.311
 4330SOL    HW113889   1.191   0.879   6.398
 4330SOL    HW213890   1.208   0.833   6.242
 4331SOL     OW13891   5.353   2.921   6.121
 4331SOL    HW113892   5.345   2.980   6.201
 4331SOL    HW213893   5.351   2.825   6.149
 4332SOL     OW13894   5.975   4.186   2.189
 4332SOL    HW113895   5.902   4.201   2.123
 4332SOL    HW213896   6.063   4.202   2.146
 4333SOL     OW13897   6.504   1.807   4.858
 4333SOL    HW113898   6.508   1.733   4.791
 4333SOL    HW213899   6.596   1.845   4.871
 4334SOL     OW13900   3.992   6.896   2.090
 4334SOL    HW113901   4.069   6.833   2.089
 4334SOL    HW213902   4.025   6.989   2.070
 4335SOL     OW13903   3.793   4.127   6.448
 4335SOL    HW113904   3.725   4.164   6.384
 4335SOL    HW213905   3.781   4.169   6.538
 4336SOL     OW13906   0.904   0.467   5.530
 4336SOL    HW113907   0.809   0.448   5.553
 4336SOL    HW213908   0.949   0.513   5.607
 4337SOL     OW13909   1.149   5.488   6.130
 4337SOL    HW113910   1.061   5.530   6.151
 4337SOL    HW213911   1.170   5.502   6.033
 4338SOL     OW13912   5.327   6.494   3.033
 4338SOL    HW113913   5.411   6.459   2.992
 4338SOL    HW213914   5.248   6.465   2.977
 4339SOL     OW13915   0.095   0.844   0.559
 4339SOL    HW113916   0.022   0.903   0.594
 4339SOL    HW213917   0.086   0.753   0.601
 4340SOL     OW13918   4.797   3.563   1.706
 4340SOL    HW113919   4.720   3.500   1.695
 4340SOL    HW213920   4.767   3.656   1.685
 4341SOL     OW13921   1.181   3.385   0.878
 4341SOL    HW113922   1.279   3.399   0.864
 4341SOL    HW213923   1.152   3.430   0.962
 4342SOL     OW13924   6.957   2.738   2.646
 4342SOL    HW113925   0.014   2.806   2.637
 4342SOL    HW213926   6.924   2.713   2.555
 4343SOL     OW13927   3.222   3.231   1.425
 4343SOL    HW113928   3.163   3.310   1.444
 4343SOL    HW213929   3.165   3.152   1.405
 4344SOL     OW13930   2.595   3.306   1.688
 4344SOL    HW113931   2.587   3.207   1.698
 4344SOL    HW213932   2.531   3.350   1.752
 4345SOL     OW13933   3.084   0.680   5.957
 4345SOL    HW113934   3.099   0.777   5.976
 4345SOL    HW213935   2.990   0.666   5.927
 4346SOL     OW13936   0.013   3.838   1.863
 4346SOL    HW113937   6.949   3.867   1.811
 4346SOL    HW213938   7.015   3.744   1.895
 4347SOL     OW13939   4.950   5.935   2.309
 4347SOL    HW113940   4.919   5.888   2.391
 4347SOL    HW213941   4.877   5.993   2.273
 4348SOL     OW13942   1.277   2.987   0.432
 4348SOL    HW113943   1.272   2.917   0.361
 4348SOL    HW213944   1.193   2.986   0.486
 4349SOL     OW13945   6.098   1.279   0.972
 4349SOL    HW113946   6.090   1.276   1.072
 4349SOL    HW213947   6.185   1.239   0.945
 4350SOL     OW13948   3.286   0.256   3.454
 4350SOL    HW113949   3.198   0.265   3.408
 4350SOL    HW213950   3.359   0.284   3.392
 4351SOL     OW13951   3.288   6.885   0.502
 4351SOL    HW113952   3.331   6.836   0.578
 4351SOL    HW213953   3.234   6.822   0.447
 4352SOL     OW13954   6.108   1.810   1.553
 4352SOL    HW113955   6.020   1.817   1.600
 4352SOL    HW213956   6.092   1.778   1.459
 4353SOL     OW13957   3.336   5.612   0.789
 4353SOL    HW113958   3.346   5.512   0.785
 4353SOL    HW213959   3.248   5.635   0.829
 4354SOL     OW13960   2.578   1.235   1.693
 4354SOL    HW113961   2.526   1.168   1.640
 4354SOL    HW213962   2.520   1.273   1.765
 4355SOL     OW13963   4.622   0.240   6.629
 4355SOL    HW113964   4.574   0.270   6.546
 4355SOL    HW213965   4.582   0.284   6.709
 4356SOL     OW13966   3.473   3.712   1.277
 4356SOL    HW113967   3.481   3.660   1.362
 4356SOL    HW213968   3.490   3.652   1.199
 4357SOL     OW13969   5.459   0.934   0.722
 4357SOL    HW113970   5.462   1.002   0.649
 4357SOL    HW213971   5.474   0.979   0.810
 4358SOL     OW13972   6.425   0.664   0.997
 4358SOL    HW113973   6.351   0.636   0.936
 4358SOL    HW213974   6.497   0.594   0.997
 4359SOL     OW13975   6.685   3.915   4.291
 4359SOL    HW113976   6.694   3.828   4.243
 4359SOL    HW213977   6.601   3.960   4.261
 4360SOL     OW13978   2.544   3.238   1.074
 4360SOL    HW113979   2.523   3.328   1.036
 4360SOL    HW213980   2.567   3.246   1.170
 4361SOL     OW13981   5.226   1.745   2.451
 4361SOL    HW113982   5.155   1.813   2.434
 4361SOL    HW213983   5.293   1.783   2.515
 4362SOL     OW13984   4.795   4.059   2.524
 4362SOL    HW113985   4.884   4.098   2.549
 4362SOL    HW213986   4.736   4.131   2.488
 4363SOL     OW13987   4.745   0.495   6.351
 4363SOL    HW113988   4.824   0.433   6.358
 4363SOL    HW213989   4.661   0.441   6.353
 4364SOL     OW13990   4.319   3.787   5.455
 4364SOL    HW113991   4.409   3.746   5.435
 4364SOL    HW213992   4.269   3.799   5.369
 4365SOL     OW13993   5.121   2.283   6.840
 4365SOL    HW113994   5.220   2.269   6.848
 4365SOL    HW213995   5.101   2.318   6.748
 4366SOL     OW13996   4.699   5.142   0.896
 4366SOL    HW113997   4.613   5.177   0.932
 4366SOL    HW213998   4.746   5.089   0.967
 4367SOL     OW13999   5.868   6.322   1.085
 4367SOL    HW114000   5.821   6.406   1.058
 4367SOL    HW214001   5.844   6.301   1.180
 4368SOL     OW14002   4.507   5.494   2.108
 4368SOL    HW114003   4.513   5.406   2.156
 4368SOL    HW214004   4.537   5.567   2.169
 4369SOL     OW14005   3.254   5.590   1.239
 4369SOL    HW114006   3.248   5.496   1.206
 4369SOL    HW214007   3.344   5.628   1.217
 4370SOL     OW14008   5.129   4.038   1.654
 4370SOL    HW114009   5.053   4.043   1.719
 4370SOL    HW214010   5.216   4.046   1.703
 4371SOL     OW14011   1.465   2.026   2.173
 4371SOL    HW114012   1.422   1.970   2.244
 4371SOL    HW214013   1.413   2.016   2.088
 4372SOL     OW14014   4.579   0.115   3.891
 4372SOL    HW114015   4.665   0.157   3.864
 4372SOL    HW214016   4.503   0.175   3.866
 4373SOL     OW14017   0.727   1.904   5.288
 4373SOL    HW114018   0.681   1.991   5.268
 4373SOL    HW214019   0.808   1.896   5.232
 4374SOL     OW14020   3.672   1.244   6.995
 4374SOL    HW114021   3.755   1.287   0.013
 4374SOL    HW214022   3.695   1.181   6.920
 4375SOL     OW14023   3.367   5.307   4.514
 4375SOL    HW114024   3.305   5.352   4.450
 4375SOL    HW214025   3.325   5.303   4.605
 4376SOL     OW14026   0.173   2.590   2.696
 4376SOL    HW114027   0.098   2.653   2.711
 4376SOL    HW214028   0.188   2.579   2.598
 4377SOL     OW14029   0.250   4.519   5.965
 4377SOL    HW114030   0.332   4.576   5.975
 4377SOL    HW214031   0.273   4.424   5.987
 4378SOL     OW14032   3.038   1.788   4.691
 4378SOL    HW114033   3.045   1.885   4.716
 4378SOL    HW214034   2.948   1.753   4.719
 4379SOL     OW14035   3.777   1.579   6.163
 4379SOL    HW114036   3.699   1.621   6.116
 4379SOL    HW214037   3.805   1.637   6.239
 4380SOL     OW14038   6.843   2.118   3.257
 4380SOL    HW114039   6.880   2.104   3.166
 4380SOL    HW214040   6.753   2.075   3.264
 4381SOL     OW14041   1.003   4.989   6.567
 4381SOL    HW114042   0.961   4.921   6.506
 4381SOL    HW214043   1.102   4.972   6.571
 4382SOL     OW14044   1.364   5.059   4.637
 4382SOL    HW114045   1.442   5.070   4.698
 4382SOL    HW214046   1.389   5.091   4.545
 4383SOL     OW14047   0.512   4.472   0.256
 4383SOL    HW114048   0.487   4.519   0.171
 4383SOL    HW214049   0.510   4.374   0.242
 4384SOL     OW14050   4.959   6.609   4.349
 4384SOL    HW114051   4.999   6.646   4.433
 4384SOL    HW214052   4.915   6.521   4.370
 4385SOL     OW14053   4.923   0.668   5.956
 4385SOL    HW114054   4.918   0.571   5.978
 4385SOL    HW214055   4.837   0.697   5.914
 4386SOL     OW14056   2.055   3.462   3.825
 4386SOL    HW114057   2.029   3.494   3.917
 4386SOL    HW214058   2.069   3.541   3.766
 4387SOL     OW14059   4.367   1.828   0.924
 4387SOL    HW114060   4.369   1.926   0.909
 4387SOL    HW214061   4.440   1.784   0.871
 4388SOL     OW14062   6.284   3.225   0.232
 4388SOL    HW114063   6.345   3.286   0.181
 4388SOL    HW214064   6.337   3.172   0.298
 4389SOL     OW14065   2.407   1.370   6.574
 4389SOL    HW114066   2.446   1.351   6.664
 4389SOL    HW214067   2.460   1.322   6.504
 4390SOL     OW14068   6.991   1.072   1.245
 4390SOL    HW114069   6.909   1.014   1.241
 4390SOL    HW214070   0.055   1.016   1.259
 4391SOL     OW14071   0.078   6.102   1.751
 4391SOL    HW114072   0.151   6.159   1.789
 4391SOL    HW214073   0.033   6.053   1.826
 4392SOL     OW14074   2.117   3.250   5.912
 4392SOL    HW114075   2.036   3.235   5.968
 4392SOL    HW214076   2.198   3.214   5.958
 4393SOL     OW14077   6.043   0.378   1.658
 4393SOL    HW114078   6.103   0.390   1.737
 4393SOL    HW214079   6.063   0.291   1.614
 4394SOL     OW14080   6.849   1.232   2.802
 4394SOL    HW114081   6.893   1.319   2.828
 4394SOL    HW214082   6.758   1.250   2.766
 4395SOL     OW14083   1.881   3.627   1.404
 4395SOL    HW114084   1.874   3.651   1.500
 4395SOL    HW214085   1.953   3.559   1.392
 4396SOL     OW14086   2.360   1.628   2.272
 4396SOL    HW114087   2.353   1.568   2.352
 4396SOL    HW214088   2.301   1.593   2.200
 4397SOL     OW14089   3.648   0.895   4.671
 4397SOL    HW114090   3.642   0.815   4.731
 4397SOL    HW214091   3.712   0.961   4.711
 4398SOL     OW14092   2.312   3.394   6.155
 4398SOL    HW114093   2.300   3.295   6.151
 4398SOL    HW214094   2.232   3.435   6.198
 4399SOL     OW14095   2.906   5.922   1.544
 4399SOL    HW114096   2.964   5.877   1.476
 4399SOL    HW214097   2.831   5.861   1.569
 4400SOL     OW14098   1.227   6.057   5.464
 4400SOL    HW114099   1.287   6.028   5.389
 4400SOL    HW214100   1.272   6.038   5.551
 4401SOL     OW14101   2.964   0.205   6.071
 4401SOL    HW114102   2.981   0.219   6.168
 4401SOL    HW214103   3.015   0.272   6.018
 4402SOL     OW14104   1.008   0.711   2.744
 4402SOL    HW114105   1.074   0.771   2.700
 4402SOL    HW214106   1.047   0.620   2.754
 4403SOL     OW14107   6.360   6.341   2.934
 4403SOL    HW114108   6.343   6.346   3.033
 4403SOL    HW214109   6.452   6.306   2.918
 4404SOL     OW14110   0.921   6.260   5.151
 4404SOL    HW114111   1.008   6.305   5.130
 4404SOL    HW214112   0.920   6.168   5.111
 4405SOL     OW14113   0.807   5.229   3.108
 4405SOL    HW114114   0.879   5.278   3.058
 4405SOL    HW214115   0.825   5.131   3.106
 4406SOL     OW14116   5.990   4.036   2.736
 4406SOL    HW114117   5.949   4.102   2.673
 4406SOL    HW214118   6.048   3.973   2.684
 4407SOL     OW14119   5.056   0.361   1.392
 4407SOL    HW114120   5.108   0.277   1.378
 4407SOL    HW214121   5.120   0.438   1.398
 4408SOL     OW14122   4.858   0.534   0.192
 4408SOL    HW114123   4.875   0.464   0.261
 4408SOL    HW214124   4.820   0.616   0.236
 4409SOL     OW14125   3.885   0.696   3.378
 4409SOL    HW114126   3.878   0.714   3.476
 4409SOL    HW214127   3.961   0.749   3.340
 4410SOL     OW14128   1.739   0.098   0.756
 4410SOL    HW114129   1.728   0.131   0.850
 4410SOL    HW214130   1.656   0.116   0.704
 4411SOL     OW14131   4.568   4.433   4.537
 4411SOL    HW114132   4.606   4.432   4.444
 4411SOL    HW214133   4.613   4.362   4.592
 4412SOL     OW14134   4.898   6.485   0.972
 4412SOL    HW114135   4.835   6.548   1.016
 4412SOL    HW214136   4.847   6.420   0.916
 4413SOL     OW14137   5.482   6.170   4.713
 4413SOL    HW114138   5.443   6.260   4.735
 4413SOL    HW214139   5.576   6.181   4.681
 4414SOL     OW14140   5.916   4.003   1.323
 4414SOL    HW114141   5.899   4.093   1.364
 4414SOL    HW214142   5.864   3.934   1.372
 4415SOL     OW14143   0.917   4.084   1.525
 4415SOL    HW114144   0.942   4.103   1.620
 4415SOL    HW214145   0.986   4.125   1.464
 4416SOL     OW14146   4.859   3.105   4.364
 4416SOL    HW114147   4.898   3.039   4.299
 4416SOL    HW214148   4.854   3.195   4.322
 4417SOL     OW14149   0.004   4.318   1.770
 4417SOL    HW114150   0.104   4.316   1.781
 4417SOL    HW214151   6.980   4.238   1.816
 4418SOL     OW14152   6.492   2.423   5.229
 4418SOL    HW114153   6.408   2.442   5.179
 4418SOL    HW214154   6.552   2.503   5.226
 4419SOL     OW14155   6.186   6.438   6.704
 4419SOL    HW114156   6.228   6.353   6.735
 4419SOL    HW214157   6.107   6.459   6.762
 4420SOL     OW14158   3.704   0.799   0.915
 4420SOL    HW114159   3.677   0.867   0.848
 4420SOL    HW214160   3.650   0.810   0.998
 4421SOL     OW14161   2.903   2.395   0.361
 4421SOL    HW114162   2.821   2.362   0.313
 4421SOL    HW214163   2.902   2.362   0.455
 4422SOL     OW14164   0.976   3.076   6.527
 4422SOL    HW114165   0.880   3.069   6.552
 4422SOL    HW214166   1.027   2.999   6.566
 4423SOL     OW14167   5.983   4.691   4.295
 4423SOL    HW114168   5.908   4.632   4.326
 4423SOL    HW214169   6.070   4.652   4.323
 4424SOL     OW14170   3.836   5.255   2.581
 4424SOL    HW114171   3.910   5.206   2.534
 4424SOL    HW214172   3.824   5.345   2.539
 4425SOL     OW14173   0.569   5.889   0.641
 4425SOL    HW114174   0.656   5.938   0.638
 4425SOL    HW214175   0.495   5.952   0.667
 4426SOL     OW14176   0.681   0.722   4.048
 4426SOL    HW114177   0.675   0.812   4.091
 4426SOL    HW214178   0.742   0.664   4.102
 4427SOL     OW14179   3.607   5.961   0.471
 4427SOL    HW114180   3.605   5.946   0.372
 4427SOL    HW214181   3.514   5.963   0.506
 4428SOL     OW14182   6.090   6.206   3.114
 4428SOL    HW114183   6.171   6.248   3.155
 4428SOL    HW214184   6.051   6.139   3.177
 4429SOL     OW14185   2.175   5.788   2.850
 4429SOL    HW114186   2.188   5.820   2.944
 4429SOL    HW214187   2.195   5.863   2.786
 4430SOL     OW14188   5.504   3.871   4.471
 4430SOL    HW114189   5.558   3.848   4.390
 4430SOL    HW214190   5.417   3.822   4.468
 4431SOL     OW14191   4.588   0.142   4.523
 4431SOL    HW114192   4.595   0.229   4.572
 4431SOL    HW214193   4.675   0.092   4.532
 4432SOL     OW14194   2.164   3.792   6.625
 4432SOL    HW114195   2.090   3.849   6.591
 4432SOL    HW214196   2.147   3.696   6.601
 4433SOL     OW14197   0.367   0.044   4.936
 4433SOL    HW114198   0.295   0.075   4.875
 4433SOL    HW214199   0.440   0.001   4.883
 4434SOL     OW14200   6.571   0.580   2.489
 4434SOL    HW114201   6.594   0.648   2.559
 4434SOL    HW214202   6.536   0.497   2.533
 4435SOL     OW14203   2.060   4.585   1.585
 4435SOL    HW114204   2.012   4.526   1.519
 4435SOL    HW214205   2.081   4.532   1.667
 4436SOL     OW14206   4.899   2.333   1.673
 4436SOL    HW114207   4.962   2.341   1.750
 4436SOL    HW214208   4.818   2.281   1.700
 4437SOL     OW14209   0.020   5.703   6.858
 4437SOL    HW114210   6.942   5.700   6.889
 4437SOL    HW214211   0.024   5.691   6.759
 4438SOL     OW14212   3.691   1.756   4.790
 4438SOL    HW114213   3.711   1.733   4.695
 4438SOL    HW214214   3.614   1.701   4.822
 4439SOL     OW14215   2.938   5.441   1.918
 4439SOL    HW114216   3.032   5.446   1.951
 4439SOL    HW214217   2.928   5.365   1.854
 4440SOL     OW14218   1.956   5.335   5.950
 4440SOL    HW114219   1.934   5.305   5.857
 4440SOL    HW214220   1.905   5.280   6.016
 4441SOL     OW14221   6.346   1.157   0.923
 4441SOL    HW114222   6.337   1.154   0.823
 4441SOL    HW214223   6.321   1.069   0.962
 4442SOL     OW14224   1.490   4.716   0.855
 4442SOL    HW114225   1.544   4.632   0.853
 4442SOL    HW214226   1.535   4.784   0.913
 4443SOL     OW14227   0.990   5.932   5.348
 4443SOL    HW114228   1.058   5.967   5.412
 4443SOL    HW214229   1.007   5.835   5.331
 4444SOL     OW14230   4.432   6.428   0.237
 4444SOL    HW114231   4.485   6.451   0.156
 4444SOL    HW214232   4.406   6.511   0.286
 4445SOL     OW14233   1.907   3.236   0.417
 4445SOL    HW114234   1.880   3.256   0.323
 4445SOL    HW214235   1.825   3.231   0.475
 4446SOL     OW14236   5.823   2.262   1.277
 4446SOL    HW114237   5.734   2.273   1.233
 4446SOL    HW214238   5.812   2.214   1.364
 4447SOL     OW14239   5.015   5.803   5.750
 4447SOL    HW114240   4.971   5.884   5.789
 4447SOL    HW214241   5.089   5.831   5.690
 4448SOL     OW14242   3.013   6.431   2.271
 4448SOL    HW114243   2.972   6.484   2.197
 4448SOL    HW214244   2.946   6.366   2.306
 4449SOL     OW14245   3.776   1.965   5.320
 4449SOL    HW114246   3.864   1.921   5.302
 4449SOL    HW214247   3.746   2.014   5.238
 4450SOL     OW14248   2.760   5.536   0.703
 4450SOL    HW114249   2.664   5.539   0.733
 4450SOL    HW214250   2.813   5.603   0.754
 4451SOL     OW14251   5.194   6.063   3.255
 4451SOL    HW114252   5.108   6.104   3.285
 4451SOL    HW214253   5.208   5.976   3.302
 4452SOL     OW14254   5.069   4.718   3.528
 4452SOL    HW114255   4.971   4.709   3.544
 4452SOL    HW214256   5.112   4.627   3.531
 4453SOL     OW14257   0.202   5.561   1.329
 4453SOL    HW114258   0.134   5.618   1.374
 4453SOL    HW214259   0.194   5.467   1.363
 4454SOL     OW14260   0.121   0.624   0.055
 4454SOL    HW114261   0.146   0.687   0.129
 4454SOL    HW214262   0.025   0.639   0.030
 4455SOL     OW14263   0.612   0.715   3.790
 4455SOL    HW114264   0.663   0.721   3.876
 4455SOL    HW214265   0.535   0.779   3.792
 4456SOL     OW14266   1.570   5.804   3.732
 4456SOL    HW114267   1.645   5.862   3.764
 4456SOL    HW214268   1.483   5.854   3.742
 4457SOL     OW14269   1.332   2.331   4.740
 4457SOL    HW114270   1.362   2.426   4.737
 4457SOL    HW214271   1.403   2.272   4.702
 4458SOL     OW14272   2.425   2.078   5.342
 4458SOL    HW114273   2.521   2.066   5.367
 4458SOL    HW214274   2.388   2.158   5.390
 4459SOL     OW14275   1.488   4.627   3.281
 4459SOL    HW114276   1.573   4.576   3.292
 4459SOL    HW214277   1.453   4.654   3.371
 4460SOL     OW14278   0.187   3.353   4.946
 4460SOL    HW114279   0.163   3.270   4.997
 4460SOL    HW214280   0.110   3.378   4.887
 4461SOL     OW14281   2.683   0.259   0.623
 4461SOL    HW114282   2.673   0.313   0.707
 4461SOL    HW214283   2.611   0.190   0.620
 4462SOL     OW14284   0.419   4.546   2.441
 4462SOL    HW114285   0.468   4.469   2.482
 4462SOL    HW214286   0.461   4.631   2.470
 4463SOL     OW14287   5.982   2.044   6.811
 4463SOL    HW114288   5.885   2.032   6.790
 4463SOL    HW214289   5.992   2.088   6.900
 4464SOL     OW14290   0.671   3.430   1.396
 4464SOL    HW114291   0.604   3.355   1.386
 4464SOL    HW214292   0.759   3.400   1.361
 4465SOL     OW14293   4.664   5.187   1.201
 4465SOL    HW114294   4.575   5.141   1.200
 4465SOL    HW214295   4.726   5.141   1.138
 4466SOL     OW14296   1.138   3.034   2.558
 4466SOL    HW114297   1.181   3.119   2.587
 4466SOL    HW214298   1.039   3.046   2.554
 4467SOL     OW14299   5.362   4.719   1.931
 4467SOL    HW114300   5.322   4.654   1.867
 4467SOL    HW214301   5.295   4.789   1.954
 4468SOL     OW14302   1.708   3.485   0.396
 4468SOL    HW114303   1.766   3.492   0.478
 4468SOL    HW214304   1.764   3.457   0.318
 4469SOL     OW14305   1.246   6.322   2.269
 4469SOL    HW114306   1.315   6.296   2.336
 4469SOL    HW214307   1.160   6.275   2.289
 4470SOL     OW14308   0.695   0.246   3.062
 4470SOL    HW114309   0.716   0.232   2.965
 4470SOL    HW214310   0.739   0.175   3.116
 4471SOL     OW14311   1.294   0.870   6.557
 4471SOL    HW114312   1.350   0.951   6.566
 4471SOL    HW214313   1.347   0.789   6.582
 4472SOL     OW14314   2.392   3.416   0.907
 4472SOL    HW114315   2.341   3.500   0.923
 4472SOL    HW214316   2.329   3.339   0.900
 4473SOL     OW14317   0.750   2.983   5.232
 4473SOL    HW114318   0.737   2.887   5.208
 4473SOL    HW214319   0.841   2.995   5.272
 4474SOL     OW14320   1.710   6.348   1.059
 4474SOL    HW114321   1.690   6.374   0.965
 4474SOL    HW214322   1.777   6.274   1.060
 4475SOL     OW14323   1.034   3.248   0.697
 4475SOL    HW114324   0.959   3.311   0.675
 4475SOL    HW214325   1.103   3.296   0.750
 4476SOL     OW14326   4.675   0.671   3.798
 4476SOL    HW114327   4.680   0.605   3.723
 4476SOL    HW214328   4.581   0.677   3.831
 4477SOL     OW14329   6.469   1.089   4.512
 4477SOL    HW114330   6.438   1.006   4.558
 4477SOL    HW214331   6.488   1.160   4.580
 4478SOL     OW14332   0.870   0.370   2.516
 4478SOL    HW114333   0.793   0.402   2.572
 4478SOL    HW214334   0.840   0.293   2.459
 4479SOL     OW14335   2.815   3.459   0.239
 4479SOL    HW114336   2.728   3.489   0.278
 4479SOL    HW214337   2.824   3.360   0.250
 4480SOL     OW14338   6.753   0.684   3.051
 4480SOL    HW114339   6.674   0.691   2.991
 4480SOL    HW214340   6.818   0.617   3.013
 4481SOL     OW14341   1.937   3.861   6.055
 4481SOL    HW114342   1.927   3.932   6.124
 4481SOL    HW214343   1.927   3.901   5.964
 4482SOL     OW14344   2.598   6.562   1.063
 4482SOL    HW114345   2.507   6.526   1.042
 4482SOL    HW214346   2.595   6.607   1.152
 4483SOL     OW14347   1.315   2.839   1.090
 4483SOL    HW114348   1.382   2.890   1.035
 4483SOL    HW214349   1.363   2.792   1.164
 4484SOL     OW14350   4.221   0.130   0.892
 4484SOL    HW114351   4.303   0.115   0.837
 4484SOL    HW214352   4.210   0.054   0.956
 4485SOL     OW14353   0.491   2.063   5.524
 4485SOL    HW114354   0.444   1.975   5.523
 4485SOL    HW214355   0.441   2.127   5.582
 4486SOL     OW14356   5.514   4.906   3.697
 4486SOL    HW114357   5.512   4.937   3.602
 4486SOL    HW214358   5.555   4.976   3.754
 4487SOL     OW14359   0.094   3.372   6.788
 4487SOL    HW114360   0.013   3.345   6.735
 4487SOL    HW214361   0.102   3.472   6.787
 4488SOL     OW14362   5.516   4.540   3.499
 4488SOL    HW114363   5.541   4.543   3.596
 4488SOL    HW214364   5.558   4.616   3.451
 4489SOL     OW14365   3.451   5.933   5.958
 4489SOL    HW114366   3.485   5.933   6.052
 4489SOL    HW214367   3.448   6.027   5.924
 4490SOL     OW14368   5.154   1.583   1.702
 4490SOL    HW114369   5.184   1.593   1.797
 4490SOL    HW214370   5.064   1.541   1.699
 4491SOL     OW14371   0.125   4.765   3.074
 4491SOL    HW114372   0.049   4.831   3.071
 4491SOL    HW214373   0.113   4.704   3.153
 4492SOL     OW14374   6.586   1.060   2.079
 4492SOL    HW114375   6.571   0.964   2.101
 4492SOL    HW214376   6.595   1.113   2.163
 4493SOL     OW14377   5.365   1.168   5.745
 4493SOL    HW114378   5.442   1.205   5.693
 4493SOL    HW214379   5.377   1.069   5.756
 4494SOL     OW14380   1.135   1.501   2.358
 4494SOL    HW114381   1.206   1.463   2.417
 4494SOL    HW214382   1.132   1.601   2.370
 4495SOL     OW14383   3.898   6.230   1.698
 4495SOL    HW114384   3.882   6.172   1.778
 4495SOL    HW214385   3.818   6.227   1.638
 4496SOL     OW14386   2.302   5.186   5.603
 4496SOL    HW114387   2.262   5.095   5.590
 4496SOL    HW214388   2.252   5.253   5.549
 4497SOL     OW14389   5.250   6.324   5.035
 4497SOL    HW114390   5.154   6.319   5.009
 4497SOL    HW214391   5.261   6.391   5.109
 4498SOL     OW14392   1.924   5.261   3.652
 4498SOL    HW114393   1.942   5.205   3.571
 4498SOL    HW214394   1.983   5.342   3.650
 4499SOL     OW14395   5.225   1.376   2.221
 4499SOL    HW114396   5.190   1.283   2.233
 4499SOL    HW214397   5.324   1.372   2.204
 4500SOL     OW14398   3.227   6.468   0.071
 4500SOL    HW114399   3.250   6.456   6.990
 4500SOL    HW214400   3.295   6.422   0.127
 4501SOL     OW14401   5.145   0.556   3.174
 4501SOL    HW114402   5.098   0.519   3.254
 4501SOL    HW214403   5.084   0.617   3.124
 4502SOL     OW14404   0.722   3.823   6.839
 4502SOL    HW114405   0.662   3.852   6.765
 4502SOL    HW214406   0.691   3.863   6.925
 4503SOL     OW14407   3.234   1.467   3.470
 4503SOL    HW114408   3.327   1.467   3.434
 4503SOL    HW214409   3.226   1.538   3.540
 4504SOL     OW14410   0.863   3.114   3.724
 4504SOL    HW114411   0.915   3.085   3.804
 4504SOL    HW214412   0.924   3.162   3.661
 4505SOL     OW14413   6.561   3.698   3.720
 4505SOL    HW114414   6.647   3.678   3.768
 4505SOL    HW214415   6.572   3.782   3.667
 4506SOL     OW14416   4.290   4.128   6.810
 4506SOL    HW114417   4.205   4.148   6.858
 4506SOL    HW214418   4.340   4.214   6.794
 4507SOL     OW14419   5.626   2.217   2.713
 4507SOL    HW114420   5.620   2.117   2.718
 4507SOL    HW214421   5.703   2.243   2.655
 4508SOL     OW14422   6.823   3.860   0.706
 4508SOL    HW114423   6.761   3.932   0.674
 4508SOL    HW214424   6.808   3.777   0.653
 4509SOL     OW14425   4.737   1.352   2.465
 4509SOL    HW114426   4.770   1.258   2.471
 4509SOL    HW214427   4.639   1.352   2.446
 4510SOL     OW14428   5.082   1.460   3.541
 4510SOL    HW114429   5.020   1.537   3.529
 4510SOL    HW214430   5.071   1.396   3.464
 4511SOL     OW14431   0.988   3.866   6.713
 4511SOL    HW114432   0.914   3.833   6.772
 4511SOL    HW214433   1.076   3.838   6.751
 4512SOL     OW14434   2.706   3.685   6.151
 4512SOL    HW114435   2.751   3.747   6.086
 4512SOL    HW214436   2.775   3.641   6.208
 4513SOL     OW14437   0.452   1.773   0.775
 4513SOL    HW114438   0.380   1.839   0.758
 4513SOL    HW214439   0.456   1.751   0.872
 4514SOL     OW14440   3.984   5.438   6.878
 4514SOL    HW114441   4.047   5.514   6.863
 4514SOL    HW214442   3.972   5.423   6.977
 4515SOL     OW14443   4.703   6.743   5.982
 4515SOL    HW114444   4.779   6.798   5.947
 4515SOL    HW214445   4.641   6.801   6.034
 4516SOL     OW14446   3.509   1.844   5.065
 4516SOL    HW114447   3.454   1.785   5.007
 4516SOL    HW214448   3.547   1.919   5.011
 4517SOL     OW14449   3.500   0.278   4.340
 4517SOL    HW114450   3.442   0.307   4.264
 4517SOL    HW214451   3.559   0.203   4.311
 4518SOL     OW14452   6.915   6.407   0.728
 4518SOL    HW114453   6.912   6.484   0.791
 4518SOL    HW214454   6.890   6.323   0.776
 4519SOL     OW14455   5.320   6.387   6.395
 4519SOL    HW114456   5.310   6.486   6.407
 4519SOL    HW214457   5.230   6.343   6.403
 4520SOL     OW14458   4.879   5.188   4.879
 4520SOL    HW114459   4.820   5.112   4.853
 4520SOL    HW214460   4.964   5.184   4.826
 4521SOL     OW14461   4.932   2.560   4.088
 4521SOL    HW114462   4.982   2.532   4.171
 4521SOL    HW214463   4.859   2.623   4.113
 4522SOL     OW14464   5.498   4.394   4.146
 4522SOL    HW114465   5.528   4.315   4.093
 4522SOL    HW214466   5.562   4.469   4.133
 4523SOL     OW14467   1.399   2.574   0.194
 4523SOL    HW114468   1.409   2.543   0.100
 4523SOL    HW214469   1.340   2.510   0.244
 4524SOL     OW14470   1.904   3.458   1.890
 4524SOL    HW114471   1.883   3.386   1.955
 4524SOL    HW214472   1.914   3.545   1.938
 4525SOL     OW14473   3.236   1.836   6.032
 4525SOL    HW114474   3.164   1.784   6.078
 4525SOL    HW214475   3.195   1.903   5.970
 4526SOL     OW14476   0.706   0.132   5.232
 4526SOL    HW114477   0.710   0.217   5.179
 4526SOL    HW214478   0.798   0.103   5.257
 4527SOL     OW14479   1.222   2.844   2.762
 4527SOL    HW114480   1.289   2.778   2.726
 4527SOL    HW214481   1.203   2.913   2.692
 4528SOL     OW14482   4.894   1.897   4.274
 4528SOL    HW114483   4.869   1.852   4.359
 4528SOL    HW214484   4.890   1.831   4.199
 4529SOL     OW14485   1.062   2.990   3.443
 4529SOL    HW114486   1.072   3.089   3.452
 4529SOL    HW214487   0.976   2.970   3.396
 4530SOL     OW14488   3.930   4.267   6.175
 4530SOL    HW114489   3.840   4.253   6.216
 4530SOL    HW214490   3.982   4.333   6.229
 4531SOL     OW14491   1.213   6.645   4.980
 4531SOL    HW114492   1.247   6.717   5.041
 4531SOL    HW214493   1.290   6.602   4.933
 4532SOL     OW14494   5.814   0.474   2.203
 4532SOL    HW114495   5.911   0.500   2.202
 4532SOL    HW214496   5.788   0.447   2.296
 4533SOL     OW14497   2.949   5.947   1.144
 4533SOL    HW114498   2.905   5.887   1.077
 4533SOL    HW214499   2.883   5.974   1.213
 4534SOL     OW14500   6.185   1.625   5.067
 4534SOL    HW114501   6.277   1.610   5.102
 4534SOL    HW214502   6.162   1.554   5.000
 4535SOL     OW14503   1.884   6.825   0.421
 4535SOL    HW114504   1.904   6.907   0.368
 4535SOL    HW214505   1.961   6.761   0.413
 4536SOL     OW14506   3.924   0.618   5.460
 4536SOL    HW114507   3.929   0.566   5.545
 4536SOL    HW214508   3.837   0.668   5.457
 4537SOL     OW14509   3.578   3.874   3.569
 4537SOL    HW114510   3.487   3.889   3.531
 4537SOL    HW214511   3.587   3.926   3.655
 4538SOL     OW14512   1.708   2.372   0.270
 4538SOL    HW114513   1.719   2.287   0.322
 4538SOL    HW214514   1.714   2.450   0.332
 4539SOL     OW14515   0.969   4.912   5.313
 4539SOL    HW114516   1.037   4.846   5.283
 4539SOL    HW214517   0.929   4.958   5.233
 4540SOL     OW14518   1.781   1.072   0.162
 4540SOL    HW114519   1.788   1.026   0.073
 4540SOL    HW214520   1.693   1.051   0.204
 4541SOL     OW14521   4.210   2.789   0.418
 4541SOL    HW114522   4.184   2.772   0.323
 4541SOL    HW214523   4.127   2.797   0.474
 4542SOL     OW14524   0.169   2.355   0.567
 4542SOL    HW114525   0.182   2.322   0.661
 4542SOL    HW214526   0.090   2.309   0.526
 4543SOL     OW14527   4.265   1.322   0.700
 4543SOL    HW114528   4.356   1.295   0.669
 4543SOL    HW214529   4.270   1.411   0.744
 4544SOL     OW14530   4.580   5.983   6.983
 4544SOL    HW114531   4.598   5.953   0.060
 4544SOL    HW214532   4.492   6.031   6.979
 4545SOL     OW14533   2.713   3.117   6.062
 4545SOL    HW114534   2.683   3.087   5.971
 4545SOL    HW214535   2.763   3.204   6.054
 4546SOL     OW14536   4.990   6.718   5.218
 4546SOL    HW114537   4.915   6.668   5.176
 4546SOL    HW214538   5.049   6.654   5.268
 4547SOL     OW14539   6.952   0.052   0.874
 4547SOL    HW114540   6.977   6.973   0.855
 4547SOL    HW214541   6.908   0.092   0.794
 4548SOL     OW14542   3.549   1.022   1.639
 4548SOL    HW114543   3.563   1.082   1.561
 4548SOL    HW214544   3.451   1.016   1.659
 4549SOL     OW14545   6.880   5.649   3.581
 4549SOL    HW114546   6.886   5.663   3.482
 4549SOL    HW214547   6.788   5.672   3.613
 4550SOL     OW14548   2.508   5.677   6.938
 4550SOL    HW114549   2.580   5.622   6.982
 4550SOL    HW214550   2.452   5.618   6.880
 4551SOL     OW14551   3.651   3.049   6.268
 4551SOL    HW114552   3.577   3.103   6.309
 4551SOL    HW214553   3.618   3.006   6.183
 4552SOL     OW14554   5.577   0.726   6.287
 4552SOL    HW114555   5.634   0.718   6.369
 4552SOL    HW214556   5.504   0.658   6.291
 4553SOL     OW14557   0.087   6.819   0.813
 4553SOL    HW114558   0.008   6.759   0.831
 4553SOL    HW214559   0.136   6.785   0.733
 4554SOL     OW14560   5.504   5.929   2.932
 4554SOL    HW114561   5.498   5.829   2.936
 4554SOL    HW214562   5.414   5.967   2.913
 4555SOL     OW14563   0.677   0.620   3.516
 4555SOL    HW114564   0.721   0.542   3.561
 4555SOL    HW214565   0.670   0.696   3.580
 4556SOL     OW14566   5.385   5.135   4.488
 4556SOL    HW114567   5.465   5.185   4.520
 4556SOL    HW214568   5.335   5.098   4.566
 4557SOL     OW14569   0.528   6.015   5.420
 4557SOL    HW114570   0.584   5.951   5.473
 4557SOL    HW214571   0.445   5.968   5.389
 4558SOL     OW14572   0.537   4.301   4.097
 4558SOL    HW114573   0.480   4.254   4.166
 4558SOL    HW214574   0.511   4.398   4.094
 4559SOL     OW14575   0.147   3.133   4.376
 4559SOL    HW114576   0.212   3.186   4.323
 4559SOL    HW214577   0.193   3.053   4.415
 4560SOL     OW14578   6.549   3.359   4.586
 4560SOL    HW114579   6.557   3.277   4.643
 4560SOL    HW214580   6.637   3.378   4.542
 4561SOL     OW14581   5.569   3.692   4.763
 4561SOL    HW114582   5.642   3.760   4.764
 4561SOL    HW214583   5.554   3.658   4.856
 4562SOL     OW14584   4.965   1.125   0.922
 4562SOL    HW114585   5.060   1.095   0.914
 4562SOL    HW214586   4.912   1.055   0.971
 4563SOL     OW14587   1.118   3.645   2.790
 4563SOL    HW114588   1.197   3.598   2.828
 4563SOL    HW214589   1.059   3.677   2.864
 4564SOL     OW14590   2.111   3.793   2.326
 4564SOL    HW114591   2.164   3.714   2.293
 4564SOL    HW214592   2.172   3.858   2.371
 4565SOL     OW14593   2.076   6.260   5.009
 4565SOL    HW114594   1.976   6.261   5.009
 4565SOL    HW214595   2.110   6.246   4.916
 4566SOL     OW14596   6.530   5.209   2.809
 4566SOL    HW114597   6.433   5.233   2.802
 4566SOL    HW214598   6.539   5.112   2.830
 4567SOL     OW14599   1.604   0.461   0.668
 4567SOL    HW114600   1.504   0.469   0.662
 4567SOL    HW214601   1.634   0.493   0.758
 4568SOL     OW14602   6.978   4.630   4.692
 4568SOL    HW114603   0.047   4.654   4.739
 4568SOL    HW214604   6.999   4.577   4.610
 4569SOL     OW14605   6.718   2.370   3.495
 4569SOL    HW114606   6.764   2.281   3.495
 4569SOL    HW214607   6.773   2.437   3.545
 4570SOL     OW14608   4.791   5.627   1.469
 4570SOL    HW114609   4.692   5.637   1.461
 4570SOL    HW214610   4.817   5.534   1.445
 4571SOL     OW14611   2.231   2.587   4.974
 4571SOL    HW114612   2.137   2.587   5.008
 4571SOL    HW214613   2.292   2.623   5.045
 4572SOL     OW14614   5.221   3.199   1.793
 4572SOL    HW114615   5.172   3.232   1.874
 4572SOL    HW214616   5.165   3.130   1.746
 4573SOL     OW14617   2.937   4.566   1.056
 4573SOL    HW114618   2.946   4.586   0.958
 4573SOL    HW214619   2.892   4.643   1.101
 4574SOL     OW14620   4.704   0.217   2.081
 4574SOL    HW114621   4.698   0.199   1.983
 4574SOL    HW214622   4.657   0.303   2.102
 4575SOL     OW14623   0.171   1.606   5.219
 4575SOL    HW114624   0.176   1.661   5.302
 4575SOL    HW214625   0.235   1.530   5.225
 4576SOL     OW14626   3.256   3.895   6.792
 4576SOL    HW114627   3.232   3.985   6.829
 4576SOL    HW214628   3.236   3.893   6.694
 4577SOL     OW14629   0.430   1.643   2.271
 4577SOL    HW114630   0.374   1.618   2.192
 4577SOL    HW214631   0.517   1.595   2.267
 4578SOL     OW14632   2.196   0.591   2.360
 4578SOL    HW114633   2.162   0.658   2.425
 4578SOL    HW214634   2.164   0.500   2.386
 4579SOL     OW14635   3.351   0.785   2.382
 4579SOL    HW114636   3.272   0.726   2.394
 4579SOL    HW214637   3.323   0.881   2.392
 4580SOL     OW14638   0.936   0.143   1.383
 4580SOL    HW114639   1.012   0.166   1.323
 4580SOL    HW214640   0.971   0.102   1.467
 4581SOL     OW14641   3.383   0.368   1.262
 4581SOL    HW114642   3.408   0.435   1.332
 4581SOL    HW214643   3.466   0.334   1.217
 4582SOL     OW14644   5.857   1.166   4.678
 4582SOL    HW114645   5.773   1.212   4.649
 4582SOL    HW214646   5.895   1.116   4.600
 4583SOL     OW14647   1.649   5.835   6.826
 4583SOL    HW114648   1.563   5.862   6.870
 4583SOL    HW214649   1.719   5.905   6.843
 4584SOL     OW14650   6.200   0.814   4.207
 4584SOL    HW114651   6.280   0.760   4.181
 4584SOL    HW214652   6.230   0.903   4.242
 4585SOL     OW14653   1.335   3.214   2.615
 4585SOL    HW114654   1.332   3.312   2.596
 4585SOL    HW214655   1.422   3.191   2.658
 4586SOL     OW14656   0.454   4.196   5.895
 4586SOL    HW114657   0.438   4.239   5.806
 4586SOL    HW214658   0.550   4.170   5.903
 4587SOL     OW14659   3.975   3.430   6.096
 4587SOL    HW114660   3.981   3.332   6.077
 4587SOL    HW214661   4.000   3.446   6.191
 4588SOL     OW14662   2.203   4.998   6.606
 4588SOL    HW114663   2.206   5.096   6.624
 4588SOL    HW214664   2.184   4.949   6.691
 4589SOL     OW14665   4.745   6.371   2.339
 4589SOL    HW114666   4.734   6.469   2.328
 4589SOL    HW214667   4.833   6.351   2.383
 4590SOL     OW14668   1.983   5.172   1.564
 4590SOL    HW114669   1.971   5.073   1.552
 4590SOL    HW214670   2.078   5.197   1.549
 4591SOL     OW14671   2.361   1.804   5.477
 4591SOL    HW114672   2.298   1.764   5.411
 4591SOL    HW214673   2.400   1.888   5.440
 4592SOL     OW14674   2.552   2.317   2.678
 4592SOL    HW114675   2.618   2.326   2.603
 4592SOL    HW214676   2.600   2.290   2.761
 4593SOL     OW14677   2.087   5.504   5.251
 4593SOL    HW114678   2.039   5.589   5.229
 4593SOL    HW214679   2.118   5.461   5.166
 4594SOL     OW14680   0.836   6.908   3.355
 4594SOL    HW114681   0.833   6.957   3.442
 4594SOL    HW214682   0.931   6.895   3.326
 4595SOL     OW14683   5.623   1.458   6.642
 4595SOL    HW114684   5.697   1.398   6.673
 4595SOL    HW214685   5.544   1.448   6.703
 4596SOL     OW14686   0.690   1.557   2.268
 4596SOL    HW114687   0.736   1.605   2.343
 4596SOL    HW214688   0.734   1.582   2.181
 4597SOL     OW14689   1.705   5.292   0.443
 4597SOL    HW114690   1.773   5.229   0.479
 4597SOL    HW214691   1.695   5.277   0.344
 4598SOL     OW14692   0.672   2.296   0.485
 4598SOL    HW114693   0.579   2.301   0.449
 4598SOL    HW214694   0.728   2.367   0.442
 4599SOL     OW14695   3.015   6.124   3.016
 4599SOL    HW114696   3.088   6.192   3.005
 4599SOL    HW214697   2.961   6.120   2.932
 4600SOL     OW14698   0.087   6.565   5.740
 4600SOL    HW114699   0.078   6.604   5.648
 4600SOL    HW214700   0.168   6.602   5.785
 4601SOL     OW14701   1.448   1.092   5.145
 4601SOL    HW114702   1.543   1.115   5.125
 4601SOL    HW214703   1.399   1.079   5.059
 4602SOL     OW14704   4.708   0.369   5.499
 4602SOL    HW114705   4.622   0.365   5.550
 4602SOL    HW214706   4.726   0.464   5.471
 4603SOL     OW14707   4.679   6.910   0.443
 4603SOL    HW114708   4.711   6.987   0.498
 4603SOL    HW214709   4.581   6.919   0.427
 4604SOL     OW14710   0.081   6.853   3.792
 4604SOL    HW114711   0.158   6.867   3.853
 4604SOL    HW214712   0.114   6.834   3.699
 4605SOL     OW14713   4.118   1.481   2.339
 4605SOL    HW114714   4.025   1.496   2.374
 4605SOL    HW214715   4.163   1.410   2.394
 4606SOL     OW14716   6.526   0.220   4.449
 4606SOL    HW114717   6.437   0.265   4.442
 4606SOL    HW214718   6.599   0.287   4.438
 4607SOL     OW14719   2.473   1.893   1.377
 4607SOL    HW114720   2.476   1.885   1.277
 4607SOL    HW214721   2.566   1.887   1.413
 4608SOL     OW14722   0.428   2.659   6.085
 4608SOL    HW114723   0.345   2.715   6.087
 4608SOL    HW214724   0.493   2.698   6.020
 4609SOL     OW14725   5.520   4.830   6.063
 4609SOL    HW114726   5.501   4.911   6.118
 4609SOL    HW214727   5.459   4.755   6.092
 4610SOL     OW14728   4.906   4.079   6.191
 4610SOL    HW114729   4.809   4.056   6.178
 4610SOL    HW214730   4.960   3.995   6.191
 4611SOL     OW14731   0.427   0.429   6.682
 4611SOL    HW114732   0.493   0.417   6.756
 4611SOL    HW214733   0.474   0.422   6.594
 4612SOL     OW14734   1.631   0.917   2.174
 4612SOL    HW114735   1.551   0.934   2.232
 4612SOL    HW214736   1.706   0.883   2.231
 4613SOL     OW14737   1.414   5.231   3.779
 4613SOL    HW114738   1.514   5.236   3.775
 4613SOL    HW214739   1.386   5.183   3.862
 4614SOL     OW14740   6.512   4.943   2.576
 4614SOL    HW114741   6.582   4.967   2.509
 4614SOL    HW214742   6.452   5.022   2.591
 4615SOL     OW14743   0.697   4.549   6.833
 4615SOL    HW114744   0.681   4.647   6.817
 4615SOL    HW214745   0.783   4.536   6.882
 4616SOL     OW14746   1.701   4.807   5.833
 4616SOL    HW114747   1.736   4.719   5.865
 4616SOL    HW214748   1.602   4.800   5.820
 4617SOL     OW14749   0.717   4.353   4.557
 4617SOL    HW114750   0.707   4.417   4.633
 4617SOL    HW214751   0.760   4.399   4.480
 4618SOL     OW14752   2.181   4.345   5.129
 4618SOL    HW114753   2.136   4.256   5.122
 4618SOL    HW214754   2.266   4.335   5.180
 4619SOL     OW14755   4.812   5.804   6.556
 4619SOL    HW114756   4.750   5.751   6.613
 4619SOL    HW214757   4.900   5.815   6.603
 4620SOL     OW14758   0.834   4.855   2.226
 4620SOL    HW114759   0.815   4.791   2.152
 4620SOL    HW214760   0.807   4.947   2.198
 4621SOL     OW14761   2.148   0.337   2.509
 4621SOL    HW114762   2.066   0.284   2.487
 4621SOL    HW214763   2.184   0.307   2.598
 4622SOL     OW14764   6.040   6.668   0.634
 4622SOL    HW114765   6.135   6.696   0.640
 4622SOL    HW214766   6.024   6.591   0.696
 4623SOL     OW14767   3.045   4.826   2.207
 4623SOL    HW114768   3.016   4.898   2.270
 4623SOL    HW214769   3.124   4.779   2.245
 4624SOL     OW14770   5.587   1.833   0.294
 4624SOL    HW114771   5.621   1.893   0.366
 4624SOL    HW214772   5.598   1.878   0.205
 4625SOL     OW14773   0.749   0.241   1.990
 4625SOL    HW114774   0.826   0.289   2.032
 4625SOL    HW214775   0.669   0.248   2.049
 4626SOL     OW14776   4.271   4.035   1.721
 4626SOL    HW114777   4.337   3.989   1.661
 4626SOL    HW214778   4.315   4.114   1.763
 4627SOL     OW14779   5.901   6.135   4.922
 4627SOL    HW114780   5.904   6.234   4.937
 4627SOL    HW214781   5.876   6.089   5.008
 4628SOL     OW14782   6.459   3.152   2.257
 4628SOL    HW114783   6.467   3.187   2.164
 4628SOL    HW214784   6.542   3.173   2.308
 4629SOL     OW14785   1.127   5.372   1.067
 4629SOL    HW114786   1.090   5.411   0.982
 4629SOL    HW214787   1.108   5.433   1.143
 4630SOL     OW14788   1.706   3.308   1.722
 4630SOL    HW114789   1.784   3.315   1.784
 4630SOL    HW214790   1.720   3.232   1.659
 4631SOL     OW14791   5.681   1.426   1.294
 4631SOL    HW114792   5.722   1.516   1.283
 4631SOL    HW214793   5.603   1.432   1.356
 4632SOL     OW14794   2.564   5.271   3.518
 4632SOL    HW114795   2.498   5.210   3.475
 4632SOL    HW214796   2.609   5.224   3.594
 4633SOL     OW14797   5.185   3.546   3.573
 4633SOL    HW114798   5.253   3.562   3.646
 4633SOL    HW214799   5.215   3.470   3.516
 4634SOL     OW14800   3.840   2.922   5.113
 4634SOL    HW114801   3.817   2.930   5.016
 4634SOL    HW214802   3.811   2.833   5.147
 4635SOL     OW14803   3.941   0.153   2.298
 4635SOL    HW114804   3.985   0.153   2.208
 4635SOL    HW214805   4.008   0.127   2.368
 4636SOL     OW14806   1.367   5.650   6.740
 4636SOL    HW114807   1.365   5.747   6.764
 4636SOL    HW214808   1.441   5.605   6.790
 4637SOL     OW14809   2.014   2.603   3.431
 4637SOL    HW114810   1.980   2.639   3.518
 4637SOL    HW214811   2.112   2.585   3.439
 4638SOL     OW14812   4.110   4.314   6.641
 4638SOL    HW114813   4.121   4.220   6.610
 4638SOL    HW214814   4.200   4.355   6.658
 4639SOL     OW14815   3.823   2.835   1.728
 4639SOL    HW114816   3.762   2.756   1.725
 4639SOL    HW214817   3.781   2.912   1.679
 4640SOL     OW14818   0.437   2.136   0.656
 4640SOL    HW114819   0.453   2.198   0.578
 4640SOL    HW214820   0.524   2.115   0.700
 4641SOL     OW14821   0.974   6.078   4.710
 4641SOL    HW114822   0.936   6.166   4.740
 4641SOL    HW214823   0.940   6.057   4.618
 4642SOL     OW14824   5.687   1.146   6.126
 4642SOL    HW114825   5.750   1.212   6.167
 4642SOL    HW214826   5.735   1.094   6.055
 4643SOL     OW14827   0.963   2.148   0.024
 4643SOL    HW114828   0.937   2.059   0.061
 4643SOL    HW214829   0.888   2.213   0.039
 4644SOL     OW14830   1.252   2.053   0.883
 4644SOL    HW114831   1.213   2.113   0.951
 4644SOL    HW214832   1.239   1.958   0.910
 4645SOL     OW14833   5.710   2.586   5.877
 4645SOL    HW114834   5.679   2.600   5.971
 4645SOL    HW214835   5.694   2.491   5.851
 4646SOL     OW14836   1.070   4.153   2.358
 4646SOL    HW114837   1.039   4.162   2.263
 4646SOL    HW214838   1.009   4.204   2.419
 4647SOL     OW14839   1.253   6.108   2.053
 4647SOL    HW114840   1.311   6.174   2.101
 4647SOL    HW214841   1.167   6.097   2.102
 4648SOL     OW14842   2.785   1.486   4.287
 4648SOL    HW114843   2.846   1.551   4.332
 4648SOL    HW214844   2.823   1.394   4.295
 4649SOL     OW14845   4.508   3.532   1.579
 4649SOL    HW114846   4.481   3.544   1.484
 4649SOL    HW214847   4.430   3.555   1.639
 4650SOL     OW14848   3.699   4.955   0.401
 4650SOL    HW114849   3.599   4.948   0.398
 4650SOL    HW214850   3.735   4.951   0.308
 4651SOL     OW14851   1.441   2.859   0.106
 4651SOL    HW114852   1.367   2.804   0.143
 4651SOL    HW214853   1.507   2.799   0.060
 4652SOL     OW14854   6.211   6.814   5.766
 4652SOL    HW114855   6.286   6.857   5.816
 4652SOL    HW214856   6.221   6.714   5.771
 4653SOL     OW14857   1.010   6.615   0.500
 4653SOL    HW114858   1.094   6.603   0.553
 4653SOL    HW214859   1.030   6.602   0.403
 4654SOL     OW14860   0.767   0.970   5.244
 4654SOL    HW114861   0.697   0.986   5.313
 4654SOL    HW214862   0.759   1.038   5.171
 4655SOL     OW14863   5.401   5.201   2.999
 4655SOL    HW114864   5.391   5.242   2.909
 4655SOL    HW214865   5.310   5.185   3.039
 4656SOL     OW14866   6.541   0.742   1.247
 4656SOL    HW114867   6.599   0.679   1.300
 4656SOL    HW214868   6.489   0.691   1.180
 4657SOL     OW14869   3.591   2.060   2.183
 4657SOL    HW114870   3.607   1.964   2.162
 4657SOL    HW214871   3.612   2.116   2.103
 4658SOL     OW14872   1.485   1.067   0.032
 4658SOL    HW114873   1.395   1.071   7.004
 4658SOL    HW214874   1.501   1.152   0.083
 4659SOL     OW14875   2.546   4.923   1.039
 4659SOL    HW114876   2.454   4.885   1.050
 4659SOL    HW214877   2.583   4.896   0.951
 4660SOL     OW14878   0.207   4.813   4.810
 4660SOL    HW114879   0.247   4.739   4.756
 4660SOL    HW214880   0.163   4.879   4.748
 4661SOL     OW14881   0.352   0.941   5.289
 4661SOL    HW114882   0.262   0.963   5.251
 4661SOL    HW214883   0.406   1.025   5.296
 4662SOL     OW14884   2.770   0.072   6.307
 4662SOL    HW114885   2.802   0.061   6.213
 4662SOL    HW214886   2.762   6.999   6.350
 4663SOL     OW14887   0.342   0.166   1.155
 4663SOL    HW114888   0.261   0.197   1.106
 4663SOL    HW214889   0.329   0.071   1.184
 4664SOL     OW14890   6.458   6.285   5.204
 4664SOL    HW114891   6.431   6.190   5.188
 4664SOL    HW214892   6.477   6.298   5.302
 4665SOL     OW14893   0.391   1.888   2.767
 4665SOL    HW114894   0.424   1.913   2.858
 4665SOL    HW214895   0.407   1.791   2.751
 4666SOL     OW14896   1.785   2.759   5.900
 4666SOL    HW114897   1.800   2.835   5.963
 4666SOL    HW214898   1.863   2.696   5.905
 4667SOL     OW14899   6.499   2.216   1.320
 4667SOL    HW114900   6.510   2.315   1.309
 4667SOL    HW214901   6.518   2.192   1.415
 4668SOL     OW14902   4.775   2.032   5.052
 4668SOL    HW114903   4.681   2.012   5.028
 4668SOL    HW214904   4.797   1.990   5.140
 4669SOL     OW14905   5.738   6.171   6.226
 4669SOL    HW114906   5.707   6.216   6.309
 4669SOL    HW214907   5.764   6.240   6.158
 4670SOL     OW14908   0.786   3.333   0.219
 4670SOL    HW114909   0.769   3.396   0.143
 4670SOL    HW214910   0.725   3.254   0.212
 4671SOL     OW14911   0.222   1.703   1.767
 4671SOL    HW114912   0.283   1.761   1.714
 4671SOL    HW214913   0.228   1.609   1.734
 4672SOL     OW14914   4.553   3.147   0.609
 4672SOL    HW114915   4.579   3.084   0.535
 4672SOL    HW214916   4.456   3.169   0.601
 4673SOL     OW14917   4.904   1.447   0.632
 4673SOL    HW114918   4.954   1.488   0.708
 4673SOL    HW214919   4.968   1.420   0.561
 4674SOL     OW14920   1.008   3.012   0.572
 4674SOL    HW114921   1.016   3.095   0.628
 4674SOL    HW214922   0.941   2.950   0.614
 4675SOL     OW14923   2.104   6.663   0.371
 4675SOL    HW114924   2.188   6.630   0.414
 4675SOL    HW214925   2.127   6.726   0.297
 4676SOL     OW14926   0.156   5.567   4.624
 4676SOL    HW114927   0.255   5.574   4.638
 4676SOL    HW214928   0.111   5.555   4.712
 4677SOL     OW14929   4.881   6.865   0.008
 4677SOL    HW114930   4.958   6.874   6.962
 4677SOL    HW214931   4.892   6.782   0.063
 4678SOL     OW14932   2.441   5.197   0.389
 4678SOL    HW114933   2.430   5.100   0.411
 4678SOL    HW214934   2.394   5.253   0.457
 4679SOL     OW14935   1.943   6.629   5.558
 4679SOL    HW114936   1.937   6.592   5.465
 4679SOL    HW214937   2.033   6.610   5.596
 4680SOL     OW14938   1.333   5.523   6.332
 4680SOL    HW114939   1.275   5.591   6.378
 4680SOL    HW214940   1.278   5.473   6.265
 4681SOL     OW14941   6.535   6.327   5.455
 4681SOL    HW114942   6.522   6.426   5.455
 4681SOL    HW214943   6.537   6.293   5.549
 4682SOL     OW14944   2.938   0.160   0.639
 4682SOL    HW114945   2.953   0.080   0.580
 4682SOL    HW214946   2.857   0.210   0.608
 4683SOL     OW14947   0.525   5.047   3.798
 4683SOL    HW114948   0.596   5.003   3.854
 4683SOL    HW214949   0.456   5.088   3.858
 4684SOL     OW14950   2.166   1.019   4.834
 4684SOL    HW114951   2.081   1.070   4.848
 4684SOL    HW214952   2.160   0.930   4.879
 4685SOL     OW14953   5.198   4.734   4.100
 4685SOL    HW114954   5.253   4.755   4.019
 4685SOL    HW214955   5.256   4.691   4.169
 4686SOL     OW14956   4.850   5.320   6.262
 4686SOL    HW114957   4.906   5.399   6.236
 4686SOL    HW214958   4.761   5.327   6.217
 4687SOL     OW14959   4.357   1.076   5.068
 4687SOL    HW114960   4.272   1.120   5.037
 4687SOL    HW214961   4.430   1.097   5.003
 4688SOL     OW14962   0.130   0.607   1.227
 4688SOL    HW114963   0.155   0.591   1.323
 4688SOL    HW214964   0.127   0.520   1.178
 4689SOL     OW14965   1.967   5.498   4.548
 4689SOL    HW114966   1.896   5.525   4.612
 4689SOL    HW214967   1.928   5.441   4.475
 4690SOL     OW14968   2.796   1.863   0.671
 4690SOL    HW114969   2.816   1.922   0.750
 4690SOL    HW214970   2.881   1.841   0.623
 4691SOL     OW14971   2.858   4.743   0.296
 4691SOL    HW114972   2.890   4.659   0.254
 4691SOL    HW214973   2.926   4.776   0.361
 4692SOL     OW14974   0.886   4.911   3.330
 4692SOL    HW114975   0.935   4.953   3.254
 4692SOL    HW214976   0.789   4.902   3.306
 4693SOL     OW14977   0.900   2.131   2.217
 4693SOL    HW114978   0.867   2.037   2.210
 4693SOL    HW214979   0.840   2.191   2.164
 4694SOL     OW14980   1.634   0.889   4.852
 4694SOL    HW114981   1.542   0.924   4.870
 4694SOL    HW214982   1.659   0.909   4.757
 4695SOL     OW14983   3.250   3.777   3.237
 4695SOL    HW114984   3.270   3.690   3.283
 4695SOL    HW214985   3.300   3.851   3.282
 4696SOL     OW14986   0.377   2.419   6.883
 4696SOL    HW114987   0.289   2.461   6.907
 4696SOL    HW214988   0.366   2.319   6.878
 4697SOL     OW14989   0.594   5.061   6.836
 4697SOL    HW114990   0.537   5.081   6.756
 4697SOL    HW214991   0.651   5.141   6.856
 4698SOL     OW14992   5.414   3.222   2.347
 4698SOL    HW114993   5.487   3.175   2.298
 4698SOL    HW214994   5.359   3.155   2.397
 4699SOL     OW14995   6.729   0.470   2.775
 4699SOL    HW114996   6.698   0.376   2.789
 4699SOL    HW214997   6.821   0.480   2.813
 4700SOL     OW14998   5.312   6.964   5.092
 4700SOL    HW114999   5.336   6.874   5.057
 4700SOL    HW215000   5.213   6.972   5.099
 4701SOL     OW15001   2.337   1.009   5.789
 4701SOL    HW115002   2.330   0.951   5.870
 4701SOL    HW215003   2.294   0.963   5.711
 4702SOL     OW15004   3.732   2.953   1.117
 4702SOL    HW115005   3.686   3.041   1.131
 4702SOL    HW215006   3.664   2.880   1.123
 4703SOL     OW15007   0.815   6.351   2.041
 4703SOL    HW115008   0.863   6.306   2.116
 4703SOL    HW215009   0.734   6.397   2.076
 4704SOL     OW15010   4.648   6.638   6.374
 4704SOL    HW115011   4.556   6.601   6.362
 4704SOL    HW215012   4.716   6.565   6.362
 4705SOL     OW15013   3.722   2.893   4.878
 4705SOL    HW115014   3.721   2.888   4.778
 4705SOL    HW215015   3.657   2.827   4.915
 4706SOL     OW15016   5.866   3.108   0.338
 4706SOL    HW115017   5.917   3.137   0.257
 4706SOL    HW215018   5.774   3.149   0.335
 4707SOL     OW15019   2.688   4.385   0.597
 4707SOL    HW115020   2.690   4.454   0.669
 4707SOL    HW215021   2.703   4.295   0.638
 4708SOL     OW15022   2.149   2.780   2.541
 4708SOL    HW115023   2.111   2.687   2.536
 4708SOL    HW215024   2.100   2.833   2.610
 4709SOL     OW15025   3.014   3.976   0.292
 4709SOL    HW115026   3.075   3.899   0.273
 4709SOL    HW215027   3.029   4.007   0.386
 4710SOL     OW15028   4.838   2.447   1.039
 4710SOL    HW115029   4.795   2.514   0.979
 4710SOL    HW215030   4.841   2.483   1.133
 4711SOL     OW15031   2.553   6.982   3.332
 4711SOL    HW115032   2.453   6.973   3.330
 4711SOL    HW215033   2.578   0.059   3.306
 4712SOL     OW15034   1.337   3.352   6.685
 4712SOL    HW115035   1.248   3.333   6.643
 4712SOL    HW215036   1.390   3.267   6.691
 4713SOL     OW15037   0.563   6.005   1.050
 4713SOL    HW115038   0.512   5.921   1.034
 4713SOL    HW215039   0.538   6.073   0.980
 4714SOL     OW15040   4.171   2.223   1.175
 4714SOL    HW115041   4.171   2.276   1.260
 4714SOL    HW215042   4.252   2.165   1.173
 4715SOL     OW15043   5.083   3.474   4.730
 4715SOL    HW115044   5.178   3.504   4.729
 4715SOL    HW215045   5.079   3.375   4.731
 4716SOL     OW15046   1.993   5.399   6.351
 4716SOL    HW115047   1.947   5.332   6.293
 4716SOL    HW215048   1.965   5.385   6.447
 4717SOL     OW15049   1.946   4.820   4.824
 4717SOL    HW115050   1.870   4.796   4.764
 4717SOL    HW215051   1.911   4.862   4.907
 4718SOL     OW15052   4.522   6.497   6.986
 4718SOL    HW115053   4.423   6.505   6.973
 4718SOL    HW215054   4.568   6.504   6.898
 4719SOL     OW15055   4.520   3.290   1.196
 4719SOL    HW115056   4.468   3.253   1.273
 4719SOL    HW215057   4.497   3.238   1.113
 4720SOL     OW15058   2.042   2.143   3.564
 4720SOL    HW115059   1.966   2.168   3.503
 4720SOL    HW215060   2.048   2.044   3.570
 4721SOL     OW15061   1.848   1.446   1.788
 4721SOL    HW115062   1.921   1.514   1.798
 4721SOL    HW215063   1.774   1.486   1.734
 4722SOL     OW15064   2.355   1.201   2.755
 4722SOL    HW115065   2.389   1.176   2.846
 4722SOL    HW215066   2.259   1.227   2.761
 4723SOL     OW15067   3.104   0.715   5.430
 4723SOL    HW115068   3.124   0.622   5.462
 4723SOL    HW215069   3.009   0.737   5.452
 4724SOL     OW15070   4.330   5.829   1.446
 4724SOL    HW115071   4.261   5.777   1.395
 4724SOL    HW215072   4.293   5.856   1.535
 4725SOL     OW15073   5.877   5.048   2.542
 4725SOL    HW115074   5.864   4.964   2.595
 4725SOL    HW215075   5.838   5.036   2.451
 4726SOL     OW15076   6.505   6.507   4.178
 4726SOL    HW115077   6.490   6.422   4.228
 4726SOL    HW215078   6.419   6.559   4.176
 4727SOL     OW15079   4.831   6.615   1.773
 4727SOL    HW115080   4.863   6.537   1.719
 4727SOL    HW215081   4.903   6.644   1.836
 4728SOL     OW15082   6.676   6.264   6.689
 4728SOL    HW115083   6.705   6.205   6.765
 4728SOL    HW215084   6.621   6.210   6.625
 4729SOL     OW15085   3.253   0.656   1.409
 4729SOL    HW115086   3.254   0.631   1.506
 4729SOL    HW215087   3.163   0.692   1.385
 4730SOL     OW15088   1.628   0.739   6.177
 4730SOL    HW115089   1.616   0.827   6.221
 4730SOL    HW215090   1.691   0.748   6.100
 4731SOL     OW15091   4.848   1.605   5.659
 4731SOL    HW115092   4.931   1.551   5.672
 4731SOL    HW215093   4.789   1.596   5.738
 4732SOL     OW15094   0.590   7.011   6.287
 4732SOL    HW115095   0.495   6.980   6.286
 4732SOL    HW215096   0.619   0.009   6.382
 4733SOL     OW15097   5.642   3.765   3.221
 4733SOL    HW115098   5.734   3.737   3.194
 4733SOL    HW215099   5.629   3.861   3.198
 4734SOL     OW15100   6.419   3.746   6.104
 4734SOL    HW115101   6.413   3.839   6.139
 4734SOL    HW215102   6.337   3.726   6.050
 4735SOL     OW15103   0.378   4.183   3.701
 4735SOL    HW115104   0.416   4.113   3.762
 4735SOL    HW215105   0.278   4.175   3.698
 4736SOL     OW15106   1.507   0.211   2.282
 4736SOL    HW115107   1.502   0.114   2.306
 4736SOL    HW215108   1.473   0.224   2.189
 4737SOL     OW15109   3.270   5.171   2.378
 4737SOL    HW115110   3.284   5.205   2.285
 4737SOL    HW215111   3.260   5.248   2.441
 4738SOL     OW15112   0.912   0.372   3.367
 4738SOL    HW115113   0.999   0.385   3.415
 4738SOL    HW215114   0.917   0.417   3.278
 4739SOL     OW15115   3.667   6.919   1.867
 4739SOL    HW115116   3.765   6.932   1.858
 4739SOL    HW215117   3.648   6.832   1.912
 4740SOL     OW15118   0.861   1.776   4.644
 4740SOL    HW115119   0.894   1.777   4.549
 4740SOL    HW215120   0.906   1.702   4.694
 4741SOL     OW15121   3.873   3.979   3.922
 4741SOL    HW115122   3.900   3.969   4.017
 4741SOL    HW215123   3.925   3.916   3.865
 4742SOL     OW15124   4.465   0.874   2.943
 4742SOL    HW115125   4.371   0.906   2.933
 4742SOL    HW215126   4.511   0.929   3.013
 4743SOL     OW15127   0.602   5.194   0.843
 4743SOL    HW115128   0.514   5.242   0.846
 4743SOL    HW215129   0.671   5.248   0.890
 4744SOL     OW15130   1.466   4.980   1.412
 4744SOL    HW115131   1.435   4.946   1.323
 4744SOL    HW215132   1.481   5.079   1.405
 4745SOL     OW15133   1.838   3.028   0.172
 4745SOL    HW115134   1.825   2.933   0.142
 4745SOL    HW215135   1.758   3.059   0.222
 4746SOL     OW15136   5.943   5.924   4.578
 4746SOL    HW115137   6.001   6.002   4.601
 4746SOL    HW215138   6.000   5.844   4.558
 4747SOL     OW15139   4.075   0.913   1.139
 4747SOL    HW115140   4.008   0.961   1.196
 4747SOL    HW215141   4.153   0.885   1.195
 4748SOL     OW15142   1.785   0.016   3.635
 4748SOL    HW115143   1.738   7.007   3.720
 4748SOL    HW215144   1.854   6.963   3.614
 4749SOL     OW15145   2.365   1.110   1.541
 4749SOL    HW115146   2.382   1.125   1.443
 4749SOL    HW215147   2.269   1.130   1.561
 4750SOL     OW15148   5.732   2.944   6.324
 4750SOL    HW115149   5.822   2.959   6.365
 4750SOL    HW215150   5.704   3.025   6.273
 4751SOL     OW15151   3.734   1.698   2.666
 4751SOL    HW115152   3.654   1.644   2.693
 4751SOL    HW215153   3.786   1.723   2.748
 4752SOL     OW15154   6.138   6.879   0.098
 4752SOL    HW115155   6.097   6.798   0.139
 4752SOL    HW215156   6.173   6.857   0.007
 4753SOL     OW15157   3.091   5.602   5.303
 4753SOL    HW115158   3.147   5.521   5.284
 4753SOL    HW215159   3.132   5.682   5.260
 4754SOL     OW15160   5.863   4.752   0.695
 4754SOL    HW115161   5.921   4.692   0.640
 4754SOL    HW215162   5.769   4.720   0.691
 4755SOL     OW15163   0.244   1.079   1.870
 4755SOL    HW115164   0.163   1.020   1.863
 4755SOL    HW215165   0.273   1.083   1.966
 4756SOL     OW15166   6.915   3.626   5.023
 4756SOL    HW115167   6.879   3.557   5.086
 4756SOL    HW215168   6.931   3.711   5.072
 4757SOL     OW15169   2.128   3.389   1.422
 4757SOL    HW115170   2.123   3.289   1.425
 4757SOL    HW215171   2.160   3.423   1.511
 4758SOL     OW15172   1.904   5.217   1.807
 4758SOL    HW115173   1.942   5.211   1.715
 4758SOL    HW215174   1.819   5.164   1.811
 4759SOL     OW15175   0.570   6.951   2.892
 4759SOL    HW115176   0.637   6.966   2.965
 4759SOL    HW215177   0.479   6.973   2.925
 4760SOL     OW15178   0.964   0.385   2.098
 4760SOL    HW115179   0.950   0.483   2.105
 4760SOL    HW215180   1.013   0.352   2.178
 4761SOL     OW15181   4.337   6.385   2.210
 4761SOL    HW115182   4.319   6.345   2.300
 4761SOL    HW215183   4.349   6.484   2.219
 4762SOL     OW15184   1.125   0.805   2.206
 4762SOL    HW115185   1.190   0.733   2.231
 4762SOL    HW215186   1.085   0.784   2.117
 4763SOL     OW15187   5.124   4.504   1.683
 4763SOL    HW115188   5.157   4.558   1.606
 4763SOL    HW215189   5.194   4.438   1.711
 4764SOL     OW15190   4.634   2.928   6.513
 4764SOL    HW115191   4.708   2.995   6.519
 4764SOL    HW215192   4.665   2.848   6.464
 4765SOL     OW15193   3.412   1.264   5.452
 4765SOL    HW115194   3.342   1.269   5.523
 4765SOL    HW215195   3.487   1.327   5.475
 4766SOL     OW15196   1.107   1.071   3.571
 4766SOL    HW115197   1.073   1.068   3.665
 4766SOL    HW215198   1.172   0.996   3.557
 4767SOL     OW15199   2.737   4.686   2.643
 4767SOL    HW115200   2.797   4.607   2.633
 4767SOL    HW215201   2.685   4.699   2.559
 4768SOL     OW15202   4.557   2.434   6.147
 4768SOL    HW115203   4.650   2.402   6.129
 4768SOL    HW215204   4.520   2.388   6.227
 4769SOL     OW15205   3.143   2.820   0.410
 4769SOL    HW115206   3.066   2.864   0.457
 4769SOL    HW215207   3.145   2.850   0.315
 4770SOL     OW15208   0.048   1.780   3.987
 4770SOL    HW115209   7.001   1.752   3.916
 4770SOL    HW215210   0.067   1.703   4.048
 4771SOL     OW15211   3.012   0.822   4.150
 4771SOL    HW115212   3.013   0.852   4.055
 4771SOL    HW215213   3.093   0.765   4.168
 4772SOL     OW15214   2.628   5.047   2.342
 4772SOL    HW115215   2.678   5.076   2.260
 4772SOL    HW215216   2.532   5.077   2.334
 4773SOL     OW15217   3.057   5.538   4.340
 4773SOL    HW115218   3.122   5.611   4.362
 4773SOL    HW215219   2.984   5.575   4.282
 4774SOL     OW15220   0.777   4.539   0.185
 4774SOL    HW115221   0.842   4.525   0.259
 4774SOL    HW215222   0.684   4.531   0.221
 4775SOL     OW15223   5.793   5.028   4.176
 4775SOL    HW115224   5.747   4.945   4.146
 4775SOL    HW215225   5.887   5.028   4.142
 4776SOL     OW15226   0.114   1.881   4.944
 4776SOL    HW115227   0.080   1.797   4.903
 4776SOL    HW215228   0.079   1.889   5.038
 4777SOL     OW15229   0.877   6.431   3.424
 4777SOL    HW115230   0.959   6.426   3.481
 4777SOL    HW215231   0.816   6.503   3.458
 4778SOL     OW15232   1.404   0.209   0.860
 4778SOL    HW115233   1.311   0.239   0.838
 4778SOL    HW215234   1.464   0.227   0.782
 4779SOL     OW15235   4.790   1.672   4.614
 4779SOL    HW115236   4.762   1.576   4.612
 4779SOL    HW215237   4.868   1.685   4.552
 4780SOL     OW15238   5.113   2.854   4.771
 4780SOL    HW115239   5.033   2.860   4.831
 4780SOL    HW215240   5.193   2.887   4.820
 4781SOL     OW15241   3.272   5.407   1.720
 4781SOL    HW115242   3.206   5.436   1.650
 4781SOL    HW215243   3.281   5.308   1.719
 4782SOL     OW15244   0.933   0.152   3.186
 4782SOL    HW115245   0.901   0.225   3.246
 4782SOL    HW215246   0.972   0.192   3.103
 4783SOL     OW15247   0.901   4.133   6.702
 4783SOL    HW115248   0.939   4.191   6.774
 4783SOL    HW215249   0.931   4.038   6.716
 4784SOL     OW15250   6.196   2.607   6.758
 4784SOL    HW115251   6.175   2.642   6.850
 4784SOL    HW215252   6.113   2.574   6.714
 4785SOL     OW15253   0.620   1.230   4.324
 4785SOL    HW115254   0.541   1.289   4.306
 4785SOL    HW215255   0.625   1.158   4.255
 4786SOL     OW15256   1.817   6.489   0.175
 4786SOL    HW115257   1.756   6.523   0.247
 4786SOL    HW215258   1.881   6.423   0.215
 4787SOL     OW15259   4.324   1.394   5.188
 4787SOL    HW115260   4.408   1.408   5.240
 4787SOL    HW215261   4.293   1.300   5.199
 4788SOL     OW15262   6.977   5.786   0.880
 4788SOL    HW115263   0.025   5.795   0.956
 4788SOL    HW215264   6.888   5.825   0.906
 4789SOL     OW15265   5.856   1.069   2.150
 4789SOL    HW115266   5.816   1.006   2.217
 4789SOL    HW215267   5.953   1.082   2.172
 4790SOL     OW15268   0.449   2.699   6.374
 4790SOL    HW115269   0.534   2.751   6.380
 4790SOL    HW215270   0.426   2.683   6.278
 4791SOL     OW15271   1.036   0.625   6.436
 4791SOL    HW115272   1.080   0.714   6.446
 4791SOL    HW215273   0.938   0.634   6.453
 4792SOL     OW15274   0.639   4.085   1.669
 4792SOL    HW115275   0.597   4.157   1.723
 4792SOL    HW215276   0.697   4.125   1.598
 4793SOL     OW15277   0.990   3.126   5.319
 4793SOL    HW115278   0.977   3.129   5.418
 4793SOL    HW215279   1.064   3.187   5.292
 4794SOL     OW15280   5.845   1.302   6.291
 4794SOL    HW115281   5.896   1.299   6.377
 4794SOL    HW215282   5.798   1.390   6.284
 4795SOL     OW15283   0.001   6.315   6.824
 4795SOL    HW115284   0.059   6.392   6.849
 4795SOL    HW215285   6.928   6.324   6.868
 4796SOL     OW15286   5.870   1.510   5.652
 4796SOL    HW115287   5.810   1.588   5.671
 4796SOL    HW215288   5.821   1.425   5.671
 4797SOL     OW15289   2.896   5.078   5.243
 4797SOL    HW115290   2.958   5.060   5.319
 4797SOL    HW215291   2.919   5.018   5.166
 4798SOL     OW15292   3.444   6.145   0.249
 4798SOL    HW115293   3.419   6.231   0.293
 4798SOL    HW215294   3.530   6.156   0.200
 4799SOL     OW15295   4.219   3.630   1.120
 4799SOL    HW115296   4.283   3.586   1.057
 4799SOL    HW215297   4.269   3.663   1.200
 4800SOL     OW15298   0.916   4.513   6.985
 4800SOL    HW115299   0.952   4.604   6.965
 4800SOL    HW215300   0.859   4.517   0.051
 4801SOL     OW15301   4.936   3.424   3.424
 4801SOL    HW115302   4.885   3.510   3.421
 4801SOL    HW215303   5.016   3.434   3.483
 4802SOL     OW15304   6.894   0.460   4.616
 4802SOL    HW115305   6.849   0.392   4.558
 4802SOL    HW215306   6.831   0.535   4.636
 4803SOL     OW15307   5.196   3.480   5.924
 4803SOL    HW115308   5.148   3.403   5.966
 4803SOL    HW215309   5.192   3.471   5.824
 4804SOL     OW15310   5.373   3.176   0.777
 4804SOL    HW115311   5.408   3.082   0.768
 4804SOL    HW215312   5.277   3.173   0.805
 4805SOL     OW15313   5.771   0.512   5.503
 4805SOL    HW115314   5.779   0.413   5.490
 4805SOL    HW215315   5.853   0.546   5.549
 4806SOL     OW15316   1.494   3.050   3.376
 4806SOL    HW115317   1.429   2.974   3.385
 4806SOL    HW215318   1.568   3.023   3.314
 4807SOL     OW15319   0.974   3.592   0.624
 4807SOL    HW115320   1.048   3.556   0.567
 4807SOL    HW215321   0.954   3.527   0.697
 4808SOL     OW15322   3.010   6.462   3.087
 4808SOL    HW115323   2.938   6.407   3.129
 4808SOL    HW215324   3.049   6.523   3.156
 4809SOL     OW15325   2.833   3.829   0.886
 4809SOL    HW115326   2.917   3.846   0.939
 4809SOL    HW215327   2.814   3.731   0.885
 4810SOL     OW15328   1.723   5.646   4.583
 4810SOL    HW115329   1.654   5.626   4.653
 4810SOL    HW215330   1.770   5.732   4.606
 4811SOL     OW15331   3.284   3.335   5.080
 4811SOL    HW115332   3.222   3.388   5.139
 4811SOL    HW215333   3.359   3.299   5.135
 4812SOL     OW15334   2.152   6.285   0.798
 4812SOL    HW115335   2.100   6.236   0.729
 4812SOL    HW215336   2.224   6.226   0.834
 4813SOL     OW15337   0.785   2.539   4.910
 4813SOL    HW115338   0.761   2.506   4.819
 4813SOL    HW215339   0.873   2.586   4.907
 4814SOL     OW15340   4.725   1.519   0.428
 4814SOL    HW115341   4.783   1.471   0.362
 4814SOL    HW215342   4.766   1.512   0.519
 4815SOL     OW15343   6.716   3.847   3.187
 4815SOL    HW115344   6.771   3.793   3.250
 4815SOL    HW215345   6.676   3.925   3.236
 4816SOL     OW15346   2.030   0.477   2.858
 4816SOL    HW115347   2.082   0.408   2.907
 4816SOL    HW215348   1.982   0.435   2.781
 4817SOL     OW15349   4.510   3.182   6.588
 4817SOL    HW115350   4.579   3.133   6.640
 4817SOL    HW215351   4.421   3.172   6.632
 4818SOL     OW15352   4.674   6.267   5.536
 4818SOL    HW115353   4.601   6.287   5.601
 4818SOL    HW215354   4.762   6.295   5.575
 4819SOL     OW15355   3.498   0.183   0.760
 4819SOL    HW115356   3.523   0.090   0.785
 4819SOL    HW215357   3.407   0.204   0.796
 4820SOL     OW15358   0.483   5.366   1.577
 4820SOL    HW115359   0.450   5.300   1.510
 4820SOL    HW215360   0.522   5.317   1.655
 4821SOL     OW15361   0.032   5.746   1.430
 4821SOL    HW115362   6.979   5.708   1.493
 4821SOL    HW215363   0.053   5.840   1.457
 4822SOL     OW15364   0.322   3.733   2.065
 4822SOL    HW115365   0.313   3.634   2.081
 4822SOL    HW215366   0.410   3.753   2.023
 4823SOL     OW15367   6.903   1.771   2.621
 4823SOL    HW115368   6.947   1.861   2.616
 4823SOL    HW215369   6.841   1.760   2.544
 4824SOL     OW15370   4.765   1.422   3.055
 4824SOL    HW115371   4.767   1.518   3.026
 4824SOL    HW215372   4.809   1.365   2.987
 4825SOL     OW15373   2.161   3.997   4.461
 4825SOL    HW115374   2.130   3.935   4.389
 4825SOL    HW215375   2.224   4.064   4.423
 4826SOL     OW15376   0.585   5.825   6.627
 4826SOL    HW115377   0.571   5.877   6.712
 4826SOL    HW215378   0.666   5.861   6.580
 4827SOL     OW15379   5.178   0.594   6.780
 4827SOL    HW115380   5.180   0.548   6.691
 4827SOL    HW215381   5.221   0.684   6.772
 4828SOL     OW15382   6.640   2.428   6.735
 4828SOL    HW115383   6.703   2.498   6.702
 4828SOL    HW215384   6.682   2.338   6.727
 4829SOL     OW15385   2.569   0.869   5.604
 4829SOL    HW115386   2.506   0.946   5.594
 4829SOL    HW215387   2.660   0.904   5.628
 4830SOL     OW15388   5.837   4.752   5.180
 4830SOL    HW115389   5.857   4.672   5.238
 4830SOL    HW215390   5.905   4.757   5.107
 4831SOL     OW15391   0.001   1.647   6.714
 4831SOL    HW115392   6.936   1.696   6.745
 4831SOL    HW215393   0.077   1.711   6.704
 4832SOL     OW15394   1.713   2.384   6.351
 4832SOL    HW115395   1.812   2.372   6.358
 4832SOL    HW215396   1.679   2.431   6.433
 4833SOL     OW15397   6.520   2.503   2.138
 4833SOL    HW115398   6.544   2.534   2.046
 4833SOL    HW215399   6.599   2.458   2.179
 4834SOL     OW15400   5.922   0.386   3.103
 4834SOL    HW115401   5.931   0.448   3.024
 4834SOL    HW215402   5.959   0.296   3.078
 4835SOL     OW15403   2.485   2.441   5.759
 4835SOL    HW115404   2.492   2.342   5.765
 4835SOL    HW215405   2.448   2.477   5.845
 4836SOL     OW15406   6.040   4.631   3.454
 4836SOL    HW115407   6.067   4.578   3.534
 4836SOL    HW215408   5.967   4.583   3.405
 4837SOL     OW15409   6.975   5.237   1.887
 4837SOL    HW115410   0.056   5.232   1.866
 4837SOL    HW215411   6.946   5.333   1.892
 4838SOL     OW15412   2.995   6.683   2.914
 4838SOL    HW115413   3.035   6.600   2.953
 4838SOL    HW215414   2.971   6.667   2.819
 4839SOL     OW15415   0.827   0.072   6.121
 4839SOL    HW115416   0.728   0.079   6.109
 4839SOL    HW215417   0.850   0.094   6.216
 4840SOL     OW15418   6.757   5.134   5.867
 4840SOL    HW115419   6.817   5.213   5.881
 4840SOL    HW215420   6.791   5.080   5.789
 4841SOL     OW15421   1.294   5.271   1.942
 4841SOL    HW115422   1.353   5.352   1.940
 4841SOL    HW215423   1.303   5.221   1.856
 4842SOL     OW15424   3.511   6.929   0.838
 4842SOL    HW115425   3.412   6.935   0.835
 4842SOL    HW215426   3.538   6.834   0.857
 4843SOL     OW15427   1.739   4.130   0.460
 4843SOL    HW115428   1.714   4.035   0.482
 4843SOL    HW215429   1.800   4.165   0.531
 4844SOL     OW15430   6.989   1.395   5.470
 4844SOL    HW115431   0.058   1.387   5.417
 4844SOL    HW215432   7.010   1.428   5.562
 4845SOL     OW15433   5.470   6.515   3.615
 4845SOL    HW115434   5.569   6.523   3.622
 4845SOL    HW215435   5.428   6.605   3.627
 4846SOL     OW15436   0.203   4.121   5.350
 4846SOL    HW115437   0.127   4.077   5.398
 4846SOL    HW215438   0.289   4.099   5.396
 4847SOL     OW15439   5.200   3.399   4.148
 4847SOL    HW115440   5.278   3.348   4.111
 4847SOL    HW215441   5.233   3.480   4.196
 4848SOL     OW15442   3.288   3.878   1.155
 4848SOL    HW115443   3.332   3.802   1.203
 4848SOL    HW215444   3.325   3.965   1.188
 4849SOL     OW15445   2.574   6.478   6.692
 4849SOL    HW115446   2.633   6.455   6.615
 4849SOL    HW215447   2.621   6.458   6.778
 4850SOL     OW15448   3.307   6.768   3.416
 4850SOL    HW115449   3.324   6.791   3.512
 4850SOL    HW215450   3.366   6.691   3.390
 4851SOL     OW15451   4.993   1.835   5.548
 4851SOL    HW115452   5.066   1.857   5.613
 4851SOL    HW215453   4.942   1.756   5.581
 4852SOL     OW15454   1.066   2.311   1.425
 4852SOL    HW115455   1.029   2.379   1.361
 4852SOL    HW215456   1.148   2.270   1.385
 4853SOL     OW15457   3.533   0.781   1.127
 4853SOL    HW115458   3.521   0.864   1.182
 4853SOL    HW215459   3.453   0.723   1.136
 4854SOL     OW15460   4.359   0.178   5.482
 4854SOL    HW115461   4.294   0.187   5.557
 4854SOL    HW215462   4.370   0.266   5.437
 4855SOL     OW15463   0.303   2.762   2.422
 4855SOL    HW115464   0.220   2.818   2.418
 4855SOL    HW215465   0.279   2.667   2.402
 4856SOL     OW15466   6.970   5.078   3.219
 4856SOL    HW115467   6.945   5.167   3.257
 4856SOL    HW215468   6.910   5.057   3.142
 4857SOL     OW15469   6.756   1.204   5.902
 4857SOL    HW115470   6.679   1.267   5.888
 4857SOL    HW215471   6.721   1.110   5.905
 4858SOL     OW15472   1.438   0.109   3.149
 4858SOL    HW115473   1.342   0.120   3.122
 4858SOL    HW215474   1.467   0.015   3.130
 4859SOL     OW15475   3.741   6.334   5.546
 4859SOL    HW115476   3.679   6.271   5.593
 4859SOL    HW215477   3.705   6.427   5.552
 4860SOL     OW15478   3.128   5.222   6.991
 4860SOL    HW115479   3.126   5.143   6.930
 4860SOL    HW215480   3.109   5.305   6.938
 4861SOL     OW15481   4.035   4.004   6.363
 4861SOL    HW115482   3.962   4.053   6.411
 4861SOL    HW215483   4.013   4.000   6.265
 4862SOL     OW15484   2.007   0.442   0.603
 4862SOL    HW115485   1.935   0.472   0.542
 4862SOL    HW215486   1.996   0.344   0.622
 4863SOL     OW15487   4.977   3.564   6.221
 4863SOL    HW115488   4.926   3.538   6.303
 4863SOL    HW215489   4.994   3.482   6.166
 4864SOL     OW15490   3.510   1.187   4.286
 4864SOL    HW115491   3.509   1.089   4.305
 4864SOL    HW215492   3.550   1.236   4.364
 4865SOL     OW15493   1.452   5.688   5.344
 4865SOL    HW115494   1.360   5.721   5.363
 4865SOL    HW215495   1.493   5.653   5.427
 4866SOL     OW15496   0.006   4.047   5.519
 4866SOL    HW115497   0.041   4.029   5.612
 4866SOL    HW215498   6.952   4.118   5.523
 4867SOL     OW15499   3.929   1.426   3.321
 4867SOL    HW115500   4.010   1.478   3.348
 4867SOL    HW215501   3.858   1.490   3.291
 4868SOL     OW15502   0.388   5.892   1.701
 4868SOL    HW115503   0.383   5.980   1.654
 4868SOL    HW215504   0.448   5.831   1.650
 4869SOL     OW15505   0.486   0.632   0.743
 4869SOL    HW115506   0.450   0.700   0.679
 4869SOL    HW215507   0.557   0.578   0.697
 4870SOL     OW15508   1.680   0.496   0.920
 4870SOL    HW115509   1.707   0.426   0.986
 4870SOL    HW215510   1.761   0.548   0.892
 4871SOL     OW15511   0.824   2.000   4.207
 4871SOL    HW115512   0.745   2.030   4.261
 4871SOL    HW215513   0.869   2.079   4.167
 4872SOL     OW15514   5.315   0.355   3.250
 4872SOL    HW115515   5.246   0.421   3.221
 4872SOL    HW215516   5.385   0.401   3.305
 4873SOL     OW15517   6.637   6.421   3.716
 4873SOL    HW115518   6.666   6.478   3.793
 4873SOL    HW215519   6.707   6.424   3.645
 4874SOL     OW15520   5.738   4.523   2.521
 4874SOL    HW115521   5.811   4.482   2.466
 4874SOL    HW215522   5.684   4.585   2.464
 4875SOL     OW15523   6.393   6.755   4.474
 4875SOL    HW115524   6.458   6.830   4.489
 4875SOL    HW215525   6.376   6.745   4.376
 4876SOL     OW15526   6.225   1.582   2.308
 4876SOL    HW115527   6.148   1.616   2.253
 4876SOL    HW215528   6.282   1.522   2.252
 4877SOL     OW15529   0.662   1.487   0.480
 4877SOL    HW115530   0.747   1.540   0.478
 4877SOL    HW215531   0.584   1.548   0.466
 4878SOL     OW15532   5.912   4.286   4.236
 4878SOL    HW115533   5.944   4.191   4.243
 4878SOL    HW215534   5.827   4.296   4.287
 4879SOL     OW15535   5.765   1.106   2.757
 4879SOL    HW115536   5.693   1.145   2.701
 4879SOL    HW215537   5.751   1.132   2.853
 4880SOL     OW15538   0.156   3.176   6.534
 4880SOL    HW115539   0.079   3.115   6.517
 4880SOL    HW215540   0.138   3.230   6.616
 4881SOL     OW15541   6.941   3.825   2.220
 4881SOL    HW115542   6.948   3.772   2.136
 4881SOL    HW215543   6.923   3.764   2.297
 4882SOL     OW15544   5.161   2.228   4.074
 4882SOL    HW115545   5.183   2.195   4.166
 4882SOL    HW215546   5.074   2.277   4.077
 4883SOL     OW15547   0.005   4.030   6.352
 4883SOL    HW115548   6.987   3.944   6.390
 4883SOL    HW215549   0.094   4.014   6.309
 4884SOL     OW15550   1.777   2.415   1.506
 4884SOL    HW115551   1.771   2.433   1.408
 4884SOL    HW215552   1.872   2.407   1.533
 4885SOL     OW15553   0.825   6.338   6.469
 4885SOL    HW115554   0.897   6.404   6.448
 4885SOL    HW215555   0.860   6.245   6.456
 4886SOL     OW15556   3.675   0.961   2.045
 4886SOL    HW115557   3.576   0.973   2.033
 4886SOL    HW215558   3.720   0.960   1.956
 4887SOL     OW15559   5.243   5.329   0.441
 4887SOL    HW115560   5.320   5.281   0.400
 4887SOL    HW215561   5.176   5.263   0.476
 4888SOL     OW15562   4.071   6.888   2.737
 4888SOL    HW115563   4.055   6.819   2.809
 4888SOL    HW215564   4.028   6.858   2.652
 4889SOL     OW15565   5.160   3.267   3.660
 4889SOL    HW115566   5.220   3.286   3.583
 4889SOL    HW215567   5.210   3.281   3.746
 4890SOL     OW15568   6.580   2.114   4.719
 4890SOL    HW115569   6.571   2.022   4.680
 4890SOL    HW215570   6.502   2.170   4.690
 4891SOL     OW15571   3.115   5.618   0.555
 4891SOL    HW115572   3.038   5.573   0.509
 4891SOL    HW215573   3.186   5.550   0.575
 4892SOL     OW15574   5.161   4.923   1.927
 4892SOL    HW115575   5.108   5.008   1.938
 4892SOL    HW215576   5.099   4.847   1.909
 4893SOL     OW15577   2.639   3.009   0.939
 4893SOL    HW115578   2.615   3.084   1.000
 4893SOL    HW215579   2.737   2.990   0.945
 4894SOL     OW15580   4.834   6.075   6.967
 4894SOL    HW115581   4.742   6.036   6.976
 4894SOL    HW215582   4.893   6.039   0.023
 4895SOL     OW15583   6.443   3.475   5.435
 4895SOL    HW115584   6.468   3.410   5.507
 4895SOL    HW215585   6.392   3.428   5.363
 4896SOL     OW15586   2.458   5.028   5.186
 4896SOL    HW115587   2.527   4.995   5.121
 4896SOL    HW215588   2.372   5.041   5.137
 4897SOL     OW15589   2.948   1.715   5.799
 4897SOL    HW115590   3.000   1.634   5.772
 4897SOL    HW215591   3.011   1.788   5.824
 4898SOL     OW15592   4.870   2.490   3.426
 4898SOL    HW115593   4.942   2.526   3.486
 4898SOL    HW215594   4.873   2.538   3.339
 4899SOL     OW15595   6.569   5.949   1.387
 4899SOL    HW115596   6.493   5.900   1.431
 4899SOL    HW215597   6.534   6.004   1.311
 4900SOL     OW15598   3.190   5.270   5.682
 4900SOL    HW115599   3.165   5.182   5.723
 4900SOL    HW215600   3.280   5.297   5.716
 4901SOL     OW15601   2.439   0.657   6.546
 4901SOL    HW115602   2.363   0.718   6.530
 4901SOL    HW215603   2.413   0.563   6.521
 4902SOL     OW15604   2.106   0.008   5.493
 4902SOL    HW115605   2.188   0.048   5.453
 4902SOL    HW215606   2.102   0.030   5.591
 4903SOL     OW15607   5.181   3.749   2.658
 4903SOL    HW115608   5.097   3.750   2.712
 4903SOL    HW215609   5.158   3.735   2.561
 4904SOL     OW15610   2.453   0.634   2.142
 4904SOL    HW115611   2.534   0.610   2.196
 4904SOL    HW215612   2.454   0.732   2.123
 4905SOL     OW15613   2.378   1.481   1.671
 4905SOL    HW115614   2.388   1.496   1.572
 4905SOL    HW215615   2.428   1.553   1.720
 4906SOL     OW15616   5.708   3.287   4.945
 4906SOL    HW115617   5.711   3.371   4.891
 4906SOL    HW215618   5.661   3.215   4.893
 4907SOL     OW15619   4.626   1.993   0.574
 4907SOL    HW115620   4.645   1.924   0.504
 4907SOL    HW215621   4.635   2.084   0.535
 4908SOL     OW15622   2.516   6.725   6.918
 4908SOL    HW115623   2.428   6.771   6.928
 4908SOL    HW215624   2.506   6.628   6.939
 4909SOL     OW15625   4.984   6.363   4.971
 4909SOL    HW115626   4.930   6.445   4.986
 4909SOL    HW215627   4.981   6.338   4.874
 4910SOL     OW15628   4.733   2.040   6.559
 4910SOL    HW115629   4.668   2.044   6.484
 4910SOL    HW215630   4.774   2.131   6.573
 4911SOL     OW15631   6.436   4.608   3.864
 4911SOL    HW115632   6.355   4.614   3.923
 4911SOL    HW215633   6.488   4.526   3.887
 4912SOL     OW15634   5.918   3.328   4.416
 4912SOL    HW115635   5.892   3.261   4.485
 4912SOL    HW215636   5.910   3.421   4.453
 4913SOL     OW15637   1.554   3.885   6.137
 4913SOL    HW115638   1.489   3.828   6.188
 4913SOL    HW215639   1.582   3.837   6.054
 4914SOL     OW15640   2.804   6.668   4.017
 4914SOL    HW115641   2.774   6.721   4.096
 4914SOL    HW215642   2.806   6.571   4.040
 4915SOL     OW15643   4.850   0.119   4.839
 4915SOL    HW115644   4.806   0.116   4.749
 4915SOL    HW215645   4.820   0.040   4.893
 4916SOL     OW15646   5.902   2.931   3.630
 4916SOL    HW115647   5.890   2.854   3.568
 4916SOL    HW215648   5.849   3.009   3.596
 4917SOL     OW15649   5.059   6.237   6.874
 4917SOL    HW115650   5.150   6.198   6.879
 4917SOL    HW215651   4.994   6.179   6.924
 4918SOL     OW15652   4.942   6.057   4.299
 4918SOL    HW115653   4.983   5.979   4.252
 4918SOL    HW215654   4.882   6.025   4.372
 4919SOL     OW15655   4.800   4.083   1.785
 4919SOL    HW115656   4.853   4.168   1.788
 4919SOL    HW215657   4.706   4.104   1.761
 4920SOL     OW15658   6.263   0.930   5.420
 4920SOL    HW115659   6.259   0.979   5.507
 4920SOL    HW215660   6.218   0.842   5.429
 4921SOL     OW15661   6.256   0.345   2.414
 4921SOL    HW115662   6.317   0.353   2.493
 4921SOL    HW215663   6.311   0.337   2.331
 4922SOL     OW15664   4.067   0.278   6.254
 4922SOL    HW115665   4.036   0.329   6.334
 4922SOL    HW215666   4.010   0.196   6.243
 4923SOL     OW15667   3.908   1.157   2.407
 4923SOL    HW115668   3.814   1.155   2.374
 4923SOL    HW215669   3.957   1.076   2.373
 4924SOL     OW15670   3.183   1.723   5.009
 4924SOL    HW115671   3.162   1.626   5.007
 4924SOL    HW215672   3.147   1.767   4.927
 4925SOL     OW15673   5.424   0.273   3.633
 4925SOL    HW115674   5.336   0.317   3.652
 4925SOL    HW215675   5.472   0.256   3.720
 4926SOL     OW15676   4.543   2.537   2.159
 4926SOL    HW115677   4.501   2.448   2.174
 4926SOL    HW215678   4.489   2.589   2.093
 4927SOL     OW15679   2.199   1.766   0.327
 4927SOL    HW115680   2.145   1.802   0.402
 4927SOL    HW215681   2.288   1.811   0.325
 4928SOL     OW15682   0.991   1.908   1.085
 4928SOL    HW115683   0.998   1.999   1.127
 4928SOL    HW215684   0.899   1.895   1.050
 4929SOL     OW15685   6.851   0.434   4.919
 4929SOL    HW115686   6.869   0.530   4.941
 4929SOL    HW215687   6.771   0.428   4.860
 4930SOL     OW15688   4.837   5.794   2.517
 4930SOL    HW115689   4.893   5.732   2.461
 4930SOL    HW215690   4.852   5.773   2.614
 4931SOL     OW15691   4.427   0.646   1.331
 4931SOL    HW115692   4.483   0.652   1.248
 4931SOL    HW215693   4.407   0.550   1.351
 4932SOL     OW15694   3.223   4.044   3.774
 4932SOL    HW115695   3.303   4.096   3.744
 4932SOL    HW215696   3.253   3.955   3.809
 4933SOL     OW15697   1.807   0.800   5.047
 4933SOL    HW115698   1.735   0.852   5.002
 4933SOL    HW215699   1.816   0.830   5.142
 4934SOL     OW15700   1.900   0.254   2.763
 4934SOL    HW115701   1.949   0.178   2.807
 4934SOL    HW215702   1.919   0.254   2.665
 4935SOL     OW15703   6.390   6.949   4.764
 4935SOL    HW115704   6.378   0.030   4.746
 4935SOL    HW215705   6.460   6.911   4.703
 4936SOL     OW15706   4.881   2.740   0.624
 4936SOL    HW115707   4.943   2.818   0.614
 4936SOL    HW215708   4.897   2.674   0.550
 4937SOL     OW15709   3.726   2.730   5.262
 4937SOL    HW115710   3.810   2.685   5.291
 4937SOL    HW215711   3.648   2.668   5.277
 4938SOL     OW15712   2.720   4.931   6.512
 4938SOL    HW115713   2.767   4.897   6.431
 4938SOL    HW215714   2.623   4.907   6.508
 4939SOL     OW15715   5.231   3.199   6.397
 4939SOL    HW115716   5.207   3.269   6.465
 4939SOL    HW215717   5.313   3.151   6.427
 4940SOL     OW15718   1.156   6.113   3.262
 4940SOL    HW115719   1.101   6.085   3.184
 4940SOL    HW215720   1.253   6.110   3.237
 4941SOL     OW15721   6.563   0.275   0.390
 4941SOL    HW115722   6.605   0.343   0.450
 4941SOL    HW215723   6.630   0.241   0.325
 4942SOL     OW15724   5.420   2.534   5.945
 4942SOL    HW115725   5.418   2.571   6.038
 4942SOL    HW215726   5.327   2.510   5.917
 4943SOL     OW15727   6.391   3.044   1.468
 4943SOL    HW115728   6.345   3.068   1.554
 4943SOL    HW215729   6.325   3.047   1.393
 4944SOL     OW15730   1.819   3.247   2.043
 4944SOL    HW115731   1.864   3.215   2.127
 4944SOL    HW215732   1.731   3.288   2.066
 4945SOL     OW15733   6.568   5.758   3.923
 4945SOL    HW115734   6.606   5.765   3.831
 4945SOL    HW215735   6.547   5.662   3.943
 4946SOL     OW15736   6.555   4.379   2.642
 4946SOL    HW115737   6.538   4.475   2.659
 4946SOL    HW215738   6.471   4.334   2.613
 4947SOL     OW15739   5.658   0.176   0.336
 4947SOL    HW115740   5.685   0.249   0.399
 4947SOL    HW215741   5.725   0.170   0.262
 4948SOL     OW15742   2.606   1.173   2.232
 4948SOL    HW115743   2.629   1.239   2.304
 4948SOL    HW215744   2.507   1.175   2.216
 4949SOL     OW15745   5.595   2.328   5.873
 4949SOL    HW115746   5.521   2.387   5.906
 4949SOL    HW215747   5.566   2.282   5.789
 4950SOL     OW15748   3.389   5.488   4.120
 4950SOL    HW115749   3.290   5.475   4.128
 4950SOL    HW215750   3.419   5.457   4.030
 4951SOL     OW15751   4.426   2.481   3.874
 4951SOL    HW115752   4.503   2.541   3.899
 4951SOL    HW215753   4.385   2.445   3.957
 4952SOL     OW15754   6.490   5.305   4.202
 4952SOL    HW115755   6.408   5.249   4.187
 4952SOL    HW215756   6.565   5.247   4.234
 4953SOL     OW15757   0.783   5.159   1.824
 4953SOL    HW115758   0.802   5.208   1.909
 4953SOL    HW215759   0.855   5.178   1.758
 4954SOL     OW15760   0.322   6.710   5.793
 4954SOL    HW115761   0.327   6.796   5.742
 4954SOL    HW215762   0.414   6.679   5.816
 4955SOL     OW15763   1.291   0.107   1.762
 4955SOL    HW115764   1.222   0.112   1.690
 4955SOL    HW215765   1.335   0.196   1.772
 4956SOL     OW15766   5.984   5.757   2.956
 4956SOL    HW115767   5.894   5.794   2.977
 4956SOL    HW215768   6.048   5.833   2.942
 4957SOL     OW15769   1.469   5.450   4.561
 4957SOL    HW115770   1.535   5.376   4.555
 4957SOL    HW215771   1.392   5.422   4.618
 4958SOL     OW15772   6.799   6.392   7.011
 4958SOL    HW115773   6.843   6.436   0.073
 4958SOL    HW215774   6.714   6.349   0.024
 4959SOL     OW15775   1.138   1.730   0.083
 4959SOL    HW115776   1.084   1.775   0.153
 4959SOL    HW215777   1.119   1.772   7.010
 4960SOL     OW15778   4.246   6.456   5.389
 4960SOL    HW115779   4.265   6.364   5.354
 4960SOL    HW215780   4.318   6.518   5.359
 4961SOL     OW15781   5.504   6.958   4.851
 4961SOL    HW115782   5.429   6.976   4.914
 4961SOL    HW215783   5.473   6.975   4.757
 4962SOL     OW15784   6.207   1.996   2.586
 4962SOL    HW115785   6.107   1.995   2.576
 4962SOL    HW215786   6.246   1.916   2.541
 4963SOL     OW15787   0.763   4.489   1.499
 4963SOL    HW115788   0.722   4.567   1.547
 4963SOL    HW215789   0.693   4.419   1.483
 4964SOL     OW15790   3.790   1.029   3.626
 4964SOL    HW115791   3.836   1.106   3.671
 4964SOL    HW215792   3.697   1.022   3.660
 4965SOL     OW15793   0.232   5.575   4.980
 4965SOL    HW115794   0.288   5.491   4.981
 4965SOL    HW215795   0.168   5.574   5.056
 4966SOL     OW15796   5.179   5.901   5.513
 4966SOL    HW115797   5.225   5.986   5.487
 4966SOL    HW215798   5.106   5.881   5.447
 4967SOL     OW15799   5.467   0.784   0.001
 4967SOL    HW115800   5.418   0.754   0.083
 4967SOL    HW215801   5.412   0.763   6.936
 4968SOL     OW15802   5.504   3.316   6.679
 4968SOL    HW115803   5.557   3.400   6.667
 4968SOL    HW215804   5.558   3.249   6.729
 4969SOL     OW15805   0.800   0.785   1.220
 4969SOL    HW115806   0.743   0.827   1.291
 4969SOL    HW215807   0.858   0.715   1.260
 4970SOL     OW15808   2.326   2.214   6.066
 4970SOL    HW115809   2.351   2.188   5.972
 4970SOL    HW215810   2.271   2.142   6.108
 4971SOL     OW15811   6.250   5.684   3.600
 4971SOL    HW115812   6.289   5.595   3.624
 4971SOL    HW215813   6.247   5.742   3.681
 4972SOL     OW15814   1.636   2.380   4.657
 4972SOL    HW115815   1.607   2.407   4.565
 4972SOL    HW215816   1.618   2.454   4.721
 4973SOL     OW15817   4.535   5.604   3.282
 4973SOL    HW115818   4.498   5.676   3.222
 4973SOL    HW215819   4.480   5.598   3.365
 4974SOL     OW15820   3.637   6.731   6.355
 4974SOL    HW115821   3.555   6.694   6.397
 4974SOL    HW215822   3.649   6.827   6.383
 4975SOL     OW15823   4.005   6.160   6.947
 4975SOL    HW115824   4.064   6.175   0.010
 4975SOL    HW215825   3.969   6.067   6.949
 4976SOL     OW15826   2.793   1.181   4.525
 4976SOL    HW115827   2.783   1.276   4.553
 4976SOL    HW215828   2.729   1.124   4.576
 4977SOL     OW15829   3.593   3.171   2.323
 4977SOL    HW115830   3.652   3.096   2.353
 4977SOL    HW215831   3.646   3.255   2.317
 4978SOL     OW15832   6.050   3.533   6.461
 4978SOL    HW115833   5.971   3.593   6.473
 4978SOL    HW215834   6.019   3.441   6.437
 4979SOL     OW15835   1.116   1.922   3.409
 4979SOL    HW115836   1.057   1.847   3.438
 4979SOL    HW215837   1.083   2.008   3.448
 4980SOL     OW15838   2.367   4.878   2.322
 4980SOL    HW115839   2.270   4.855   2.327
 4980SOL    HW215840   2.378   4.977   2.308
 4981SOL     OW15841   5.251   5.993   5.860
 4981SOL    HW115842   5.206   5.933   5.926
 4981SOL    HW215843   5.311   5.940   5.801
 4982SOL     OW15844   2.901   1.346   6.373
 4982SOL    HW115845   2.962   1.361   6.451
 4982SOL    HW215846   2.920   1.416   6.303
 4983SOL     OW15847   6.831   1.514   4.288
 4983SOL    HW115848   6.906   1.572   4.320
 4983SOL    HW215849   6.744   1.547   4.325
 4984SOL     OW15850   5.097   5.723   3.940
 4984SOL    HW115851   5.026   5.714   3.870
 4984SOL    HW215852   5.187   5.716   3.897
 4985SOL     OW15853   5.784   3.752   1.156
 4985SOL    HW115854   5.837   3.731   1.074
 4985SOL    HW215855   5.810   3.690   1.230
 4986SOL     OW15856   3.439   5.413   3.823
 4986SOL    HW115857   3.446   5.377   3.730
 4986SOL    HW215858   3.345   5.407   3.854
 4987SOL     OW15859   1.594   2.269   0.036
 4987SOL    HW115860   1.520   2.204   0.050
 4987SOL    HW215861   1.622   2.308   0.124
 4988SOL     OW15862   2.140   1.950   4.849
 4988SOL    HW115863   2.238   1.939   4.869
 4988SOL    HW215864   2.130   1.997   4.761
 4989SOL     OW15865   0.145   0.876   1.208
 4989SOL    HW115866   0.160   0.777   1.211
 4989SOL    HW215867   0.199   0.916   1.134
 4990SOL     OW15868   1.799   1.793   6.614
 4990SOL    HW115869   1.886   1.825   6.651
 4990SOL    HW215870   1.778   1.841   6.529
 4991SOL     OW15871   2.683   1.781   5.715
 4991SOL    HW115872   2.773   1.742   5.737
 4991SOL    HW215873   2.624   1.709   5.678
 4992SOL     OW15874   3.985   0.211   4.758
 4992SOL    HW115875   3.916   0.264   4.710
 4992SOL    HW215876   3.959   0.201   4.854
 4993SOL     OW15877   1.140   6.438   4.309
 4993SOL    HW115878   1.073   6.406   4.242
 4993SOL    HW215879   1.093   6.496   4.377
 4994SOL     OW15880   6.694   6.475   2.808
 4994SOL    HW115881   6.757   6.540   2.850
 4994SOL    HW215882   6.653   6.516   2.727
 4995SOL     OW15883   5.761   2.685   5.120
 4995SOL    HW115884   5.753   2.773   5.073
 4995SOL    HW215885   5.725   2.695   5.213
 4996SOL     OW15886   0.715   2.204   3.897
 4996SOL    HW115887   0.815   2.197   3.894
 4996SOL    HW215888   0.677   2.113   3.917
 4997SOL     OW15889   6.682   2.588   3.332
 4997SOL    HW115890   6.698   2.502   3.379
 4997SOL    HW215891   6.645   2.571   3.241
 4998SOL     OW15892   1.200   5.560   5.853
 4998SOL    HW115893   1.268   5.633   5.863
 4998SOL    HW215894   1.128   5.589   5.790
 4999SOL     OW15895   6.485   5.016   1.194
 4999SOL    HW115896   6.563   5.077   1.204
 4999SOL    HW215897   6.403   5.060   1.232
 5000SOL     OW15898   5.832   5.633   3.302
 5000SOL    HW115899   5.852   5.545   3.344
 5000SOL    HW215900   5.777   5.619   3.219
 5001SOL     OW15901   4.840   3.575   5.520
 5001SOL    HW115902   4.931   3.553   5.486
 5001SOL    HW215903   4.796   3.492   5.554
 5002SOL     OW15904   1.509   2.422   1.611
 5002SOL    HW115905   1.583   2.384   1.556
 5002SOL    HW215906   1.480   2.355   1.679
 5003SOL     OW15907   5.625   5.642   4.686
 5003SOL    HW115908   5.662   5.714   4.745
 5003SOL    HW215909   5.525   5.645   4.688
 5004SOL     OW15910   2.421   4.927   6.187
 5004SOL    HW115911   2.430   4.942   6.285
 5004SOL    HW215912   2.466   5.001   6.137
 5005SOL     OW15913   5.343   1.910   6.889
 5005SOL    HW115914   5.273   1.936   6.956
 5005SOL    HW215915   5.434   1.930   6.927
 5006SOL     OW15916   4.369   5.286   1.722
 5006SOL    HW115917   4.356   5.383   1.741
 5006SOL    HW215918   4.448   5.274   1.662
 5007SOL     OW15919   3.526   0.605   4.737
 5007SOL    HW115920   3.431   0.636   4.725
 5007SOL    HW215921   3.563   0.576   4.648
 5008SOL     OW15922   6.194   2.060   4.052
 5008SOL    HW115923   6.186   2.098   4.144
 5008SOL    HW215924   6.104   2.030   4.021
 5009SOL     OW15925   2.990   6.769   2.144
 5009SOL    HW115926   3.079   6.751   2.103
 5009SOL    HW215927   2.945   6.843   2.094
 5010SOL     OW15928   3.619   3.927   6.111
 5010SOL    HW115929   3.625   3.896   6.206
 5010SOL    HW215930   3.553   3.870   6.061
 5011SOL     OW15931   0.796   1.974   4.818
 5011SOL    HW115932   0.699   1.948   4.817
 5011SOL    HW215933   0.847   1.917   4.754
 5012SOL     OW15934   6.600   2.374   0.254
 5012SOL    HW115935   6.678   2.388   0.193
 5012SOL    HW215936   6.523   2.432   0.224
 5013SOL     OW15937   4.819   1.612   5.283
 5013SOL    HW115938   4.896   1.550   5.269
 5013SOL    HW215939   4.766   1.582   5.362
 5014SOL     OW15940   1.064   4.669   6.186
 5014SOL    HW115941   1.144   4.652   6.244
 5014SOL    HW215942   0.991   4.709   6.241
 5015SOL     OW15943   4.735   2.396   4.002
 5015SOL    HW115944   4.757   2.315   3.948
 5015SOL    HW215945   4.818   2.448   4.019
 5016SOL     OW15946   2.281   5.722   1.197
 5016SOL    HW115947   2.235   5.633   1.190
 5016SOL    HW215948   2.335   5.725   1.281
 5017SOL     OW15949   0.477   2.028   1.644
 5017SOL    HW115950   0.437   2.067   1.728
 5017SOL    HW215951   0.422   1.950   1.615
 5018SOL     OW15952   6.235   5.180   4.189
 5018SOL    HW115953   6.205   5.242   4.262
 5018SOL    HW215954   6.167   5.108   4.176
 5019SOL     OW15955   2.826   5.615   4.815
 5019SOL    HW115956   2.902   5.597   4.877
 5019SOL    HW215957   2.740   5.587   4.858
 5020SOL     OW15958   4.691   5.198   6.815
 5020SOL    HW115959   4.658   5.175   6.723
 5020SOL    HW215960   4.757   5.129   6.844
 5021SOL     OW15961   2.632   4.808   5.495
 5021SOL    HW115962   2.703   4.759   5.445
 5021SOL    HW215963   2.634   4.905   5.468
 5022SOL     OW15964   1.963   2.756   6.414
 5022SOL    HW115965   1.928   2.672   6.455
 5022SOL    HW215966   1.942   2.833   6.474
 5023SOL     OW15967   6.288   3.271   3.533
 5023SOL    HW115968   6.344   3.232   3.460
 5023SOL    HW215969   6.316   3.232   3.621
 5024SOL     OW15970   4.953   3.970   5.408
 5024SOL    HW115971   4.949   3.893   5.343
 5024SOL    HW215972   4.958   3.934   5.501
 5025SOL     OW15973   5.617   6.797   5.070
 5025SOL    HW115974   5.610   6.859   5.148
 5025SOL    HW215975   5.608   6.848   4.985
 5026SOL     OW15976   1.398   5.708   2.576
 5026SOL    HW115977   1.335   5.730   2.650
 5026SOL    HW215978   1.349   5.655   2.506
 5027SOL     OW15979   0.923   5.750   3.199
 5027SOL    HW115980   0.894   5.658   3.172
 5027SOL    HW215981   0.971   5.794   3.122
 5028SOL     OW15982   0.791   6.935   2.544
 5028SOL    HW115983   0.804   6.918   2.447
 5028SOL    HW215984   0.699   6.973   2.559
 5029SOL     OW15985   5.929   0.650   4.557
 5029SOL    HW115986   5.843   0.697   4.573
 5029SOL    HW215987   5.951   0.593   4.637
 5030SOL     OW15988   1.317   5.780   0.630
 5030SOL    HW115989   1.407   5.749   0.662
 5030SOL    HW215990   1.262   5.807   0.708
 5031SOL     OW15991   4.874   0.578   6.787
 5031SOL    HW115992   4.884   0.493   6.838
 5031SOL    HW215993   4.963   0.623   6.779
 5032SOL     OW15994   1.907   5.784   2.963
 5032SOL    HW115995   1.922   5.864   3.022
 5032SOL    HW215996   1.992   5.733   2.953
 5033SOL     OW15997   1.013   4.367   4.758
 5033SOL    HW115998   1.112   4.361   4.749
 5033SOL    HW215999   0.986   4.343   4.852
 5034SOL     OW16000   1.168   2.630   6.058
 5034SOL    HW116001   1.185   2.725   6.030
 5034SOL    HW216002   1.166   2.625   6.158
 5035SOL     OW16003   6.787   4.997   0.896
 5035SOL    HW116004   6.810   4.955   0.984
 5035SOL    HW216005   6.697   4.967   0.867
 5036SOL     OW16006   1.416   1.587   2.610
 5036SOL    HW116007   1.482   1.662   2.621
 5036SOL    HW216008   1.351   1.589   2.686
 5037SOL     OW16009   5.512   3.816   1.216
 5037SOL    HW116010   5.602   3.819   1.174
 5037SOL    HW216011   5.469   3.728   1.199
 5038SOL     OW16012   2.931   5.613   5.517
 5038SOL    HW116013   2.836   5.584   5.514
 5038SOL    HW216014   2.970   5.610   5.424
 5039SOL     OW16015   0.545   2.451   3.887
 5039SOL    HW116016   0.582   2.451   3.979
 5039SOL    HW216017   0.569   2.365   3.841
 5040SOL     OW16018   2.292   3.195   6.926
 5040SOL    HW116019   2.325   3.204   0.004
 5040SOL    HW216020   2.327   3.270   6.871
 5041SOL     OW16021   0.913   5.543   0.236
 5041SOL    HW116022   0.895   5.488   0.318
 5041SOL    HW216023   0.936   5.637   0.264
 5042SOL     OW16024   5.847   0.997   5.982
 5042SOL    HW116025   5.867   0.941   6.062
 5042SOL    HW216026   5.814   0.939   5.908
 5043SOL     OW16027   5.565   6.120   4.170
 5043SOL    HW116028   5.645   6.070   4.203
 5043SOL    HW216029   5.482   6.066   4.187
 5044SOL     OW16030   0.343   4.222   2.246
 5044SOL    HW116031   0.385   4.152   2.188
 5044SOL    HW216032   0.243   4.219   2.236
 5045SOL     OW16033   5.140   2.955   5.466
 5045SOL    HW116034   5.138   2.862   5.428
 5045SOL    HW216035   5.132   3.021   5.391
 5046SOL     OW16036   3.661   3.151   5.833
 5046SOL    HW116037   3.711   3.065   5.836
 5046SOL    HW216038   3.712   3.217   5.777
 5047SOL     OW16039   0.485   1.605   1.809
 5047SOL    HW116040   0.445   1.619   1.900
 5047SOL    HW216041   0.422   1.551   1.753
 5048SOL     OW16042   5.607   4.057   0.179
 5048SOL    HW116043   5.587   4.011   0.265
 5048SOL    HW216044   5.609   4.156   0.194
 5049SOL     OW16045   1.577   0.762   0.130
 5049SOL    HW116046   1.528   0.829   0.075
 5049SOL    HW216047   1.561   0.781   0.227
 5050SOL     OW16048   1.656   4.003   1.180
 5050SOL    HW116049   1.704   4.010   1.267
 5050SOL    HW216050   1.722   4.001   1.105
 5051SOL     OW16051   2.232   4.226   6.085
 5051SOL    HW116052   2.248   4.303   6.147
 5051SOL    HW216053   2.263   4.142   6.129
 5052SOL     OW16054   6.644   2.829   1.464
 5052SOL    HW116055   6.692   2.857   1.381
 5052SOL    HW216056   6.548   2.855   1.457
 5053SOL     OW16057   0.835   3.841   1.356
 5053SOL    HW116058   0.836   3.900   1.437
 5053SOL    HW216059   0.928   3.830   1.322
 5054SOL     OW16060   4.185   5.452   5.181
 5054SOL    HW116061   4.142   5.433   5.092
 5054SOL    HW216062   4.150   5.538   5.216
 5055SOL     OW16063   0.882   0.275   3.989
 5055SOL    HW116064   0.905   0.369   4.014
 5055SOL    HW216065   0.965   0.219   3.988
 5056SOL     OW16066   3.034   1.332   6.606
 5056SOL    HW116067   3.127   1.297   6.594
 5056SOL    HW216068   3.038   1.427   6.636
 5057SOL     OW16069   0.465   3.582   2.814
 5057SOL    HW116070   0.418   3.635   2.743
 5057SOL    HW216071   0.563   3.588   2.800
 5058SOL     OW16072   3.822   2.162   6.952
 5058SOL    HW116073   3.876   2.182   6.870
 5058SOL    HW216074   3.858   2.214   0.013
 5059SOL     OW16075   5.305   2.513   2.806
 5059SOL    HW116076   5.389   2.458   2.806
 5059SOL    HW216077   5.254   2.495   2.722
 5060SOL     OW16078   6.697   3.077   5.775
 5060SOL    HW116079   6.734   3.166   5.802
 5060SOL    HW216080   6.683   3.020   5.856
 5061SOL     OW16081   4.466   2.622   6.330
 5061SOL    HW116082   4.521   2.572   6.263
 5061SOL    HW216083   4.371   2.591   6.325
 5062SOL     OW16084   5.749   1.181   3.047
 5062SOL    HW116085   5.820   1.150   3.111
 5062SOL    HW216086   5.661   1.141   3.073
 5063SOL     OW16087   0.398   0.586   0.427
 5063SOL    HW116088   0.400   0.673   0.476
 5063SOL    HW216089   0.384   0.511   0.492
 5064SOL     OW16090   6.601   5.191   0.571
 5064SOL    HW116091   6.560   5.100   0.562
 5064SOL    HW216092   6.649   5.214   0.487
 5065SOL     OW16093   1.037   2.106   2.451
 5065SOL    HW116094   0.991   2.130   2.366
 5065SOL    HW216095   1.001   2.163   2.525
 5066SOL     OW16096   0.851   5.311   3.662
 5066SOL    HW116097   0.804   5.241   3.716
 5066SOL    HW216098   0.950   5.293   3.662
 5067SOL     OW16099   4.512   2.780   0.414
 5067SOL    HW116100   4.557   2.868   0.398
 5067SOL    HW216101   4.413   2.793   0.418
 5068SOL     OW16102   1.091   6.572   0.908
 5068SOL    HW116103   1.140   6.659   0.906
 5068SOL    HW216104   1.073   6.546   1.003
 5069SOL     OW16105   4.057   4.646   6.111
 5069SOL    HW116106   3.999   4.579   6.065
 5069SOL    HW216107   4.007   4.687   6.187
 5070SOL     OW16108   0.750   3.595   6.421
 5070SOL    HW116109   0.772   3.603   6.518
 5070SOL    HW216110   0.719   3.684   6.386
 5071SOL     OW16111   1.563   6.595   2.366
 5071SOL    HW116112   1.527   6.638   2.449
 5071SOL    HW216113   1.659   6.571   2.380
 5072SOL     OW16114   0.584   2.218   2.451
 5072SOL    HW116115   0.609   2.126   2.480
 5072SOL    HW216116   0.567   2.219   2.353
 5073SOL     OW16117   1.813   1.607   4.401
 5073SOL    HW116118   1.831   1.615   4.303
 5073SOL    HW216119   1.892   1.567   4.447
 5074SOL     OW16120   4.134   2.193   1.678
 5074SOL    HW116121   4.035   2.184   1.670
 5074SOL    HW216122   4.156   2.280   1.721
 5075SOL     OW16123   6.309   1.940   6.862
 5075SOL    HW116124   6.338   1.902   6.950
 5075SOL    HW216125   6.228   1.891   6.829
 5076SOL     OW16126   7.013   1.288   5.905
 5076SOL    HW116127   6.921   1.248   5.910
 5076SOL    HW216128   0.009   1.351   5.982
 5077SOL     OW16129   0.728   5.112   4.183
 5077SOL    HW116130   0.666   5.147   4.253
 5077SOL    HW216131   0.780   5.188   4.144
 5078SOL     OW16132   5.813   1.445   2.892
 5078SOL    HW116133   5.728   1.466   2.941
 5078SOL    HW216134   5.800   1.460   2.794
 5079SOL     OW16135   1.440   3.762   5.598
 5079SOL    HW116136   1.520   3.725   5.645
 5079SOL    HW216137   1.455   3.762   5.499
 5080SOL     OW16138   6.522   5.969   6.736
 5080SOL    HW116139   6.576   5.941   6.657
 5080SOL    HW216140   6.442   5.909   6.744
 5081SOL     OW16141   3.825   4.435   5.734
 5081SOL    HW116142   3.869   4.395   5.653
 5081SOL    HW216143   3.746   4.378   5.759
 5082SOL     OW16144   5.646   6.742   2.757
 5082SOL    HW116145   5.641   6.795   2.842
 5082SOL    HW216146   5.568   6.765   2.699
 5083SOL     OW16147   0.222   0.366   3.323
 5083SOL    HW116148   0.273   0.430   3.379
 5083SOL    HW216149   0.283   0.325   3.255
 5084SOL     OW16150   3.605   5.222   5.661
 5084SOL    HW116151   3.525   5.161   5.660
 5084SOL    HW216152   3.687   5.169   5.679
 5085SOL     OW16153   0.974   3.440   6.361
 5085SOL    HW116154   0.886   3.485   6.370
 5085SOL    HW216155   0.980   3.396   6.271
 5086SOL     OW16156   1.049   4.705   2.046
 5086SOL    HW116157   1.089   4.792   2.075
 5086SOL    HW216158   1.090   4.630   2.099
 5087SOL     OW16159   6.453   5.429   1.602
 5087SOL    HW116160   6.443   5.333   1.579
 5087SOL    HW216161   6.482   5.480   1.520
 5088SOL     OW16162   4.268   4.846   2.208
 5088SOL    HW116163   4.314   4.775   2.154
 5088SOL    HW216164   4.337   4.905   2.250
 5089SOL     OW16165   4.654   5.515   5.827
 5089SOL    HW116166   4.658   5.561   5.739
 5089SOL    HW216167   4.721   5.555   5.890
 5090SOL     OW16168   2.251   6.614   4.676
 5090SOL    HW116169   2.251   6.625   4.775
 5090SOL    HW216170   2.179   6.551   4.648
 5091SOL     OW16171   6.068   5.709   5.083
 5091SOL    HW116172   5.974   5.678   5.065
 5091SOL    HW216173   6.065   5.796   5.132
 5092SOL     OW16174   3.754   2.912   4.590
 5092SOL    HW116175   3.768   2.822   4.550
 5092SOL    HW216176   3.835   2.969   4.572
 5093SOL     OW16177   3.325   2.080   3.532
 5093SOL    HW116178   3.272   2.130   3.464
 5093SOL    HW216179   3.325   1.983   3.509
 5094SOL     OW16180   2.441   4.858   4.689
 5094SOL    HW116181   2.366   4.810   4.734
 5094SOL    HW216182   2.528   4.832   4.730
 5095SOL     OW16183   6.130   2.189   3.111
 5095SOL    HW116184   6.134   2.132   3.029
 5095SOL    HW216185   6.052   2.251   3.104
 5096SOL     OW16186   6.065   2.985   5.180
 5096SOL    HW116187   6.163   2.970   5.170
 5096SOL    HW216188   6.021   2.975   5.091
 5097SOL     OW16189   0.809   0.271   5.935
 5097SOL    HW116190   0.858   0.215   6.001
 5097SOL    HW216191   0.825   0.236   5.843
 5098SOL     OW16192   2.839   1.764   0.951
 5098SOL    HW116193   2.925   1.796   0.910
 5098SOL    HW216194   2.846   1.772   1.051
 5099SOL     OW16195   1.840   6.007   1.520
 5099SOL    HW116196   1.796   6.011   1.430
 5099SOL    HW216197   1.935   6.037   1.511
 5100SOL     OW16198   0.174   3.540   1.605
 5100SOL    HW116199   0.193   3.504   1.696
 5100SOL    HW216200   0.075   3.543   1.591
 5101SOL     OW16201   4.517   2.021   6.099
 5101SOL    HW116202   4.521   2.055   6.193
 5101SOL    HW216203   4.577   2.076   6.041
 5102SOL     OW16204   5.932   4.541   5.358
 5102SOL    HW116205   5.971   4.465   5.305
 5102SOL    HW216206   5.962   4.534   5.453
 5103SOL     OW16207   0.247   6.841   5.385
 5103SOL    HW116208   0.166   6.889   5.351
 5103SOL    HW216209   0.298   6.802   5.309
 5104SOL     OW16210   3.524   3.108   3.722
 5104SOL    HW116211   3.487   3.093   3.814
 5104SOL    HW216212   3.493   3.036   3.661
 5105SOL     OW16213   4.701   2.299   6.793
 5105SOL    HW116214   4.659   2.276   6.881
 5105SOL    HW216215   4.690   2.223   6.730
 5106SOL     OW16216   4.124   0.613   1.486
 5106SOL    HW116217   4.070   0.604   1.402
 5106SOL    HW216218   4.218   0.638   1.463
 5107SOL     OW16219   6.507   4.313   6.938
 5107SOL    HW116220   6.603   4.285   6.938
 5107SOL    HW216221   6.479   4.337   0.015
 5108SOL     OW16222   4.346   4.032   1.098
 5108SOL    HW116223   4.404   3.960   1.061
 5108SOL    HW216224   4.369   4.047   1.194
 5109SOL     OW16225   1.680   2.645   1.863
 5109SOL    HW116226   1.688   2.745   1.869
 5109SOL    HW216227   1.762   2.603   1.902
 5110SOL     OW16228   3.381   6.611   5.019
 5110SOL    HW116229   3.447   6.685   5.008
 5110SOL    HW216230   3.412   6.549   5.092
 5111SOL     OW16231   2.322   6.364   6.547
 5111SOL    HW116232   2.309   6.373   6.448
 5111SOL    HW216233   2.370   6.445   6.581
 5112SOL     OW16234   0.566   4.367   2.585
 5112SOL    HW116235   0.657   4.335   2.557
 5112SOL    HW216236   0.573   4.416   2.672
 5113SOL     OW16237   3.003   4.720   1.489
 5113SOL    HW116238   3.042   4.686   1.403
 5113SOL    HW216239   2.922   4.665   1.512
 5114SOL     OW16240   4.787   4.093   1.252
 5114SOL    HW116241   4.697   4.108   1.292
 5114SOL    HW216242   4.858   4.121   1.317
 5115SOL     OW16243   1.484   3.536   0.545
 5115SOL    HW116244   1.570   3.506   0.506
 5115SOL    HW216245   1.496   3.625   0.589
 5116SOL     OW16246   0.861   6.153   5.579
 5116SOL    HW116247   0.768   6.150   5.543
 5116SOL    HW216248   0.924   6.185   5.508
 5117SOL     OW16249   6.993   3.636   4.284
 5117SOL    HW116250   0.061   3.621   4.233
 5117SOL    HW216251   7.014   3.678   4.373
 5118SOL     OW16252   4.817   5.544   0.328
 5118SOL    HW116253   4.851   5.450   0.328
 5118SOL    HW216254   4.822   5.581   0.421
 5119SOL     OW16255   5.121   1.224   0.060
 5119SOL    HW116256   5.126   1.181   6.986
 5119SOL    HW216257   5.190   1.296   0.067
 5120SOL     OW16258   5.414   6.423   0.040
 5120SOL    HW116259   5.466   6.500   0.079
 5120SOL    HW216260   5.318   6.431   0.069
 5121SOL     OW16261   2.051   3.768   7.011
 5121SOL    HW116262   1.964   3.748   6.967
 5121SOL    HW216263   2.035   3.804   0.087
 5122SOL     OW16264   5.085   5.264   3.580
 5122SOL    HW116265   5.179   5.297   3.595
 5122SOL    HW216266   5.084   5.164   3.579
 5123SOL     OW16267   4.537   2.215   1.471
 5123SOL    HW116268   4.611   2.282   1.461
 5123SOL    HW216269   4.514   2.206   1.568
 5124SOL     OW16270   0.395   5.813   4.669
 5124SOL    HW116271   0.318   5.835   4.729
 5124SOL    HW216272   0.361   5.798   4.576
 5125SOL     OW16273   5.128   2.813   3.919
 5125SOL    HW116274   5.204   2.798   3.983
 5125SOL    HW216275   5.066   2.735   3.922
 5126SOL     OW16276   2.773   0.774   2.737
 5126SOL    HW116277   2.747   0.863   2.699
 5126SOL    HW216278   2.712   0.751   2.812
 5127SOL     OW16279   2.573   6.073   1.096
 5127SOL    HW116280   2.608   6.025   1.177
 5127SOL    HW216281   2.635   6.148   1.073
 5128SOL     OW16282   3.793   0.396   2.306
 5128SOL    HW116283   3.838   0.319   2.261
 5128SOL    HW216284   3.719   0.430   2.248
 5129SOL     OW16285   6.443   5.321   6.910
 5129SOL    HW116286   6.487   5.244   6.865
 5129SOL    HW216287   6.378   5.287   6.979
 5130SOL     OW16288   5.869   4.710   2.272
 5130SOL    HW116289   5.887   4.652   2.193
 5130SOL    HW216290   5.954   4.727   2.321
 5131SOL     OW16291   2.260   2.054   1.986
 5131SOL    HW116292   2.213   2.138   2.011
 5131SOL    HW216293   2.343   2.076   1.934
 5132SOL     OW16294   2.316   6.118   6.118
 5132SOL    HW116295   2.287   6.025   6.142
 5132SOL    HW216296   2.317   6.174   6.201
 5133SOL     OW16297   4.043   5.280   4.659
 5133SOL    HW116298   4.030   5.367   4.611
 5133SOL    HW216299   3.998   5.207   4.609
 5134SOL     OW16300   1.083   2.869   6.869
 5134SOL    HW116301   1.082   2.789   6.929
 5134SOL    HW216302   1.112   2.840   6.777
 5135SOL     OW16303   6.487   1.413   2.988
 5135SOL    HW116304   6.506   1.491   3.048
 5135SOL    HW216305   6.439   1.342   3.039
 5136SOL     OW16306   3.803   1.894   6.850
 5136SOL    HW116307   3.784   1.973   6.908
 5136SOL    HW216308   3.878   1.841   6.890
 5137SOL     OW16309   4.379   3.320   6.857
 5137SOL    HW116310   4.315   3.273   6.797
 5137SOL    HW216311   4.455   3.357   6.803
 5138SOL     OW16312   2.644   2.996   5.826
 5138SOL    HW116313   2.641   3.046   5.740
 5138SOL    HW216314   2.554   2.955   5.843
 5139SOL     OW16315   0.753   6.412   4.298
 5139SOL    HW116316   0.797   6.412   4.388
 5139SOL    HW216317   0.654   6.405   4.309
 5140SOL     OW16318   3.125   2.984   2.650
 5140SOL    HW116319   3.138   3.056   2.582
 5140SOL    HW216320   3.162   2.898   2.616
 5141SOL     OW16321   1.458   3.314   5.113
 5141SOL    HW116322   1.469   3.277   5.205
 5141SOL    HW216323   1.361   3.331   5.096
 5142SOL     OW16324   5.413   3.126   1.640
 5142SOL    HW116325   5.408   3.150   1.543
 5142SOL    HW216326   5.331   3.159   1.686
 5143SOL     OW16327   0.030   5.256   6.365
 5143SOL    HW116328   6.993   5.287   6.443
 5143SOL    HW216329   0.000   5.305   6.283
 5144SOL     OW16330   2.638   1.029   4.679
 5144SOL    HW116331   2.596   0.962   4.617
 5144SOL    HW216332   2.567   1.084   4.721
 5145SOL     OW16333   3.497   5.128   6.763
 5145SOL    HW116334   3.564   5.054   6.761
 5145SOL    HW216335   3.501   5.173   6.852
 5146SOL     OW16336   3.743   5.298   1.303
 5146SOL    HW116337   3.820   5.356   1.332
 5146SOL    HW216338   3.696   5.262   1.384
 5147SOL     OW16339   0.672   5.559   6.190
 5147SOL    HW116340   0.742   5.488   6.202
 5147SOL    HW216341   0.635   5.584   6.280
 5148SOL     OW16342   6.925   0.551   1.645
 5148SOL    HW116343   6.935   0.650   1.651
 5148SOL    HW216344   6.915   0.524   1.550
 5149SOL     OW16345   6.669   0.240   4.786
 5149SOL    HW116346   6.586   0.238   4.729
 5149SOL    HW216347   6.647   0.204   4.877
 5150SOL     OW16348   2.699   5.420   5.954
 5150SOL    HW116349   2.660   5.329   5.960
 5150SOL    HW216350   2.629   5.485   5.925
 5151SOL     OW16351   5.001   7.000   6.363
 5151SOL    HW116352   4.921   6.948   6.391
 5151SOL    HW216353   5.043   6.956   6.283
 5152SOL     OW16354   0.131   4.665   6.171
 5152SOL    HW116355   0.163   4.609   6.095
 5152SOL    HW216356   0.193   4.743   6.184
 5153SOL     OW16357   3.173   3.347   1.110
 5153SOL    HW116358   3.214   3.300   1.189
 5153SOL    HW216359   3.089   3.393   1.140
 5154SOL     OW16360   1.061   4.048   5.427
 5154SOL    HW116361   1.064   4.142   5.462
 5154SOL    HW216362   1.046   3.985   5.503
 5155SOL     OW16363   4.299   0.982   2.599
 5155SOL    HW116364   4.340   0.891   2.594
 5155SOL    HW216365   4.218   0.978   2.657
 5156SOL     OW16366   5.284   3.543   5.645
 5156SOL    HW116367   5.347   3.466   5.641
 5156SOL    HW216368   5.336   3.628   5.643
 5157SOL     OW16369   6.693   2.575   3.885
 5157SOL    HW116370   6.711   2.509   3.958
 5157SOL    HW216371   6.597   2.571   3.858
 5158SOL     OW16372   4.333   1.110   2.063
 5158SOL    HW116373   4.405   1.062   2.013
 5158SOL    HW216374   4.374   1.169   2.133
 5159SOL     OW16375   1.494   4.062   5.150
 5159SOL    HW116376   1.499   4.084   5.248
 5159SOL    HW216377   1.579   4.091   5.105
 5160SOL     OW16378   2.454   2.172   3.316
 5160SOL    HW116379   2.495   2.203   3.231
 5160SOL    HW216380   2.526   2.158   3.385
 5161SOL     OW16381   1.897   2.590   6.673
 5161SOL    HW116382   1.971   2.540   6.718
 5161SOL    HW216383   1.918   2.688   6.673
 5162SOL     OW16384   6.221   5.996   5.131
 5162SOL    HW116385   6.198   6.065   5.200
 5162SOL    HW216386   6.286   5.931   5.170
 5163SOL     OW16387   6.260   3.477   1.457
 5163SOL    HW116388   6.316   3.437   1.384
 5163SOL    HW216389   6.186   3.530   1.417
 5164SOL     OW16390   6.592   6.658   5.005
 5164SOL    HW116391   6.535   6.599   4.947
 5164SOL    HW216392   6.543   6.742   5.025
 5165SOL     OW16393   5.634   4.401   5.307
 5165SOL    HW116394   5.682   4.470   5.361
 5165SOL    HW216395   5.572   4.445   5.243
 5166SOL     OW16396   0.188   0.351   2.916
 5166SOL    HW116397   0.134   0.359   3.001
 5166SOL    HW216398   0.256   0.423   2.913
 5167SOL     OW16399   2.151   7.006   4.781
 5167SOL    HW116400   2.129   0.032   4.869
 5167SOL    HW216401   2.112   0.045   4.707
 5168SOL     OW16402   3.104   1.748   2.109
 5168SOL    HW116403   3.035   1.813   2.139
 5168SOL    HW216404   3.065   1.656   2.108
 5169SOL     OW16405   3.502   5.565   6.659
 5169SOL    HW116406   3.565   5.496   6.696
 5169SOL    HW216407   3.434   5.521   6.601
 5170SOL     OW16408   4.371   4.935   4.495
 5170SOL    HW116409   4.358   4.996   4.574
 5170SOL    HW216410   4.289   4.935   4.439
 5171SOL     OW16411   2.741   4.480   5.606
 5171SOL    HW116412   2.829   4.433   5.610
 5171SOL    HW216413   2.680   4.430   5.545
 5172SOL     OW16414   1.601   3.591   6.241
 5172SOL    HW116415   1.618   3.626   6.333
 5172SOL    HW216416   1.502   3.585   6.226
 5173SOL     OW16417   0.327   2.168   4.764
 5173SOL    HW116418   0.291   2.260   4.777
 5173SOL    HW216419   0.378   2.141   4.845
 5174SOL     OW16420   2.992   4.727   6.867
 5174SOL    HW116421   3.026   4.674   6.790
 5174SOL    HW216422   2.976   4.667   6.946
 5175SOL     OW16423   1.183   5.504   0.055
 5175SOL    HW116424   1.191   5.460   6.981
 5175SOL    HW216425   1.090   5.491   0.090
 5176SOL     OW16426   5.966   3.231   6.670
 5176SOL    HW116427   5.943   3.323   6.700
 5176SOL    HW216428   5.978   3.230   6.571
 5177SOL     OW16429   4.720   5.587   0.043
 5177SOL    HW116430   4.773   5.650   0.101
 5177SOL    HW216431   4.759   5.495   0.051
 5178SOL     OW16432   3.551   4.549   0.403
 5178SOL    HW116433   3.573   4.556   0.500
 5178SOL    HW216434   3.516   4.637   0.371
 5179SOL     OW16435   2.933   6.069   5.611
 5179SOL    HW116436   2.920   6.133   5.686
 5179SOL    HW216437   2.982   5.988   5.643
 5180SOL     OW16438   4.892   1.612   6.124
 5180SOL    HW116439   4.812   1.652   6.168
 5180SOL    HW216440   4.954   1.576   6.193
 5181SOL     OW16441   3.016   6.138   2.685
 5181SOL    HW116442   3.112   6.155   2.710
 5181SOL    HW216443   3.005   6.147   2.587
 5182SOL     OW16444   4.924   4.111   0.707
 5182SOL    HW116445   4.902   4.030   0.652
 5182SOL    HW216446   4.841   4.167   0.718
 5183SOL     OW16447   3.051   0.794   3.400
 5183SOL    HW116448   3.044   0.852   3.319
 5183SOL    HW216449   2.960   0.786   3.442
 5184SOL     OW16450   1.081   1.985   3.070
 5184SOL    HW116451   1.128   1.962   3.156
 5184SOL    HW216452   1.106   2.078   3.044
 5185SOL     OW16453   4.531   0.419   2.098
 5185SOL    HW116454   4.452   0.386   2.046
 5185SOL    HW216455   4.507   0.425   2.195
 5186SOL     OW16456   5.336   3.536   7.002
 5186SOL    HW116457   5.291   3.540   0.075
 5186SOL    HW216458   5.304   3.456   6.951
 5187SOL     OW16459   4.943   3.881   4.346
 5187SOL    HW116460   4.942   3.874   4.445
 5187SOL    HW216461   4.944   3.789   4.306
 5188SOL     OW16462   0.891   0.942   3.364
 5188SOL    HW116463   0.818   1.005   3.340
 5188SOL    HW216464   0.978   0.978   3.331
 5189SOL     OW16465   4.838   5.271   5.875
 5189SOL    HW116466   4.919   5.301   5.926
 5189SOL    HW216467   4.800   5.349   5.825
 5190SOL     OW16468   1.713   1.975   2.550
 5190SOL    HW116469   1.700   1.890   2.499
 5190SOL    HW216470   1.777   2.035   2.501
 5191SOL     OW16471   4.811   1.155   2.167
 5191SOL    HW116472   4.727   1.151   2.222
 5191SOL    HW216473   4.815   1.242   2.118
 5192SOL     OW16474   6.742   3.997   2.113
 5192SOL    HW116475   6.791   4.069   2.065
 5192SOL    HW216476   6.806   3.929   2.147
 5193SOL     OW16477   3.621   4.942   3.421
 5193SOL    HW116478   3.565   5.021   3.444
 5193SOL    HW216479   3.665   4.907   3.504
 5194SOL     OW16480   5.316   0.724   0.512
 5194SOL    HW116481   5.339   0.629   0.493
 5194SOL    HW216482   5.260   0.729   0.595
 5195SOL     OW16483   0.448   5.028   5.321
 5195SOL    HW116484   0.461   5.059   5.227
 5195SOL    HW216485   0.501   4.945   5.336
 5196SOL     OW16486   1.436   3.611   3.169
 5196SOL    HW116487   1.364   3.645   3.229
 5196SOL    HW216488   1.515   3.583   3.224
 5197SOL     OW16489   3.720   5.919   5.254
 5197SOL    HW116490   3.736   5.920   5.156
 5197SOL    HW216491   3.802   5.887   5.301
 5198SOL     OW16492   4.360   1.380   6.282
 5198SOL    HW116493   4.333   1.331   6.198
 5198SOL    HW216494   4.291   1.365   6.353
 5199SOL     OW16495   0.615   6.127   2.615
 5199SOL    HW116496   0.575   6.068   2.544
 5199SOL    HW216497   0.571   6.109   2.703
 5200SOL     OW16498   5.820   6.368   6.051
 5200SOL    HW116499   5.837   6.435   6.124
 5200SOL    HW216500   5.785   6.416   5.970
 5201SOL     OW16501   6.831   3.408   5.259
 5201SOL    HW116502   6.772   3.489   5.268
 5201SOL    HW216503   6.925   3.433   5.284
 5202SOL     OW16504   3.709   2.451   5.929
 5202SOL    HW116505   3.732   2.536   5.882
 5202SOL    HW216506   3.738   2.457   6.025
 5203SOL     OW16507   0.128   0.367   5.506
 5203SOL    HW116508   0.144   0.304   5.581
 5203SOL    HW216509   0.032   0.363   5.478
 5204SOL     OW16510   1.997   0.228   2.084
 5204SOL    HW116511   2.073   0.166   2.064
 5204SOL    HW216512   1.925   0.178   2.133
 5205SOL     OW16513   5.965   0.101   1.857
 5205SOL    HW116514   5.871   0.084   1.828
 5205SOL    HW216515   5.967   0.182   1.916
 5206SOL     OW16516   0.923   4.829   4.928
 5206SOL    HW116517   0.865   4.761   4.971
 5206SOL    HW216518   0.973   4.787   4.852
 5207SOL     OW16519   4.896   1.800   4.837
 5207SOL    HW116520   4.859   1.769   4.750
 5207SOL    HW216521   4.827   1.788   4.909
 5208SOL     OW16522   6.952   1.498   0.698
 5208SOL    HW116523   0.004   1.425   0.689
 5208SOL    HW216524   6.992   1.584   0.667
 5209SOL     OW16525   4.724   5.896   2.804
 5209SOL    HW116526   4.629   5.914   2.828
 5209SOL    HW216527   4.740   5.798   2.798
 5210SOL     OW16528   6.486   3.930   1.934
 5210SOL    HW116529   6.560   3.917   2.000
 5210SOL    HW216530   6.402   3.892   1.970
 5211SOL     OW16531   5.111   3.206   4.545
 5211SOL    HW116532   5.121   3.112   4.579
 5211SOL    HW216533   5.020   3.216   4.503
 5212SOL     OW16534   6.688   3.883   0.159
 5212SOL    HW116535   6.690   3.799   0.105
 5212SOL    HW216536   6.612   3.940   0.129
 5213SOL     OW16537   3.502   3.166   4.512
 5213SOL    HW116538   3.436   3.216   4.456
 5213SOL    HW216539   3.468   3.074   4.530
 5214SOL     OW16540   5.978   2.864   5.410
 5214SOL    HW116541   6.005   2.925   5.336
 5214SOL    HW216542   5.881   2.841   5.401
 5215SOL     OW16543   0.518   4.739   5.058
 5215SOL    HW116544   0.498   4.800   4.980
 5215SOL    HW216545   0.508   4.791   5.143
 5216SOL     OW16546   0.109   4.258   0.216
 5216SOL    HW116547   0.067   4.169   0.202
 5216SOL    HW216548   0.208   4.250   0.203
 5217SOL     OW16549   3.411   1.024   2.058
 5217SOL    HW116550   3.449   1.092   1.996
 5217SOL    HW216551   3.328   1.060   2.101
 5218SOL     OW16552   6.402   6.581   0.429
 5218SOL    HW116553   6.493   6.623   0.420
 5218SOL    HW216554   6.347   6.635   0.492
 5219SOL     OW16555   4.091   1.938   4.477
 5219SOL    HW116556   4.190   1.934   4.488
 5219SOL    HW216557   4.049   1.959   4.565
 5220SOL     OW16558   1.912   4.505   4.350
 5220SOL    HW116559   1.943   4.413   4.377
 5220SOL    HW216560   1.979   4.545   4.288
 5221SOL     OW16561   4.116   6.989   0.417
 5221SOL    HW116562   4.060   0.043   0.374
 5221SOL    HW216563   4.101   6.990   0.516
 5222SOL     OW16564   5.486   2.630   2.058
 5222SOL    HW116565   5.559   2.692   2.085
 5222SOL    HW216566   5.425   2.614   2.136
 5223SOL     OW16567   6.918   1.844   0.732
 5223SOL    HW116568   6.825   1.807   0.721
 5223SOL    HW216569   6.964   1.797   0.807
 5224SOL     OW16570   1.639   1.700   4.769
 5224SOL    HW116571   1.633   1.689   4.869
 5224SOL    HW216572   1.728   1.737   4.745
 5225SOL     OW16573   0.026   3.367   6.316
 5225SOL    HW116574   0.054   3.306   6.391
 5225SOL    HW216575   0.105   3.386   6.258
 5226SOL     OW16576   0.218   0.214   4.130
 5226SOL    HW116577   0.181   0.202   4.038
 5226SOL    HW216578   0.230   0.312   4.149
 5227SOL     OW16579   2.731   2.275   6.446
 5227SOL    HW116580   2.753   2.372   6.455
 5227SOL    HW216581   2.815   2.221   6.441
 5228SOL     OW16582   0.490   2.280   5.849
 5228SOL    HW116583   0.464   2.367   5.807
 5228SOL    HW216584   0.447   2.272   5.939
 5229SOL     OW16585   4.178   1.602   1.406
 5229SOL    HW116586   4.178   1.666   1.483
 5229SOL    HW216587   4.085   1.569   1.390
 5230SOL     OW16588   6.123   0.921   2.300
 5230SOL    HW116589   6.027   0.893   2.299
 5230SOL    HW216590   6.133   1.006   2.351
 5231SOL     OW16591   0.068   4.131   2.270
 5231SOL    HW116592   0.067   4.152   2.368
 5231SOL    HW216593   0.105   4.039   2.257
 5232SOL     OW16594   1.878   1.740   6.091
 5232SOL    HW116595   1.966   1.757   6.136
 5232SOL    HW216596   1.811   1.711   6.159
 5233SOL     OW16597   2.189   6.491   3.659
 5233SOL    HW116598   2.259   6.559   3.637
 5233SOL    HW216599   2.098   6.533   3.651
 5234SOL     OW16600   3.862   2.409   6.152
 5234SOL    HW116601   3.899   2.317   6.166
 5234SOL    HW216602   3.838   2.450   6.240
 5235SOL     OW16603   2.577   3.045   1.618
 5235SOL    HW116604   2.533   2.957   1.638
 5235SOL    HW216605   2.657   3.030   1.560
 5236SOL     OW16606   3.037   5.172   1.613
 5236SOL    HW116607   3.130   5.154   1.646
 5236SOL    HW216608   2.982   5.089   1.624
 5237SOL     OW16609   0.866   1.618   1.315
 5237SOL    HW116610   0.785   1.675   1.305
 5237SOL    HW216611   0.947   1.677   1.324
 5238SOL     OW16612   6.228   1.217   3.175
 5238SOL    HW116613   6.178   1.286   3.227
 5238SOL    HW216614   6.312   1.192   3.225
 5239SOL     OW16615   2.431   3.637   6.967
 5239SOL    HW116616   2.394   3.722   6.929
 5239SOL    HW216617   2.516   3.656   7.016
 5240SOL     OW16618   1.699   3.715   4.626
 5240SOL    HW116619   1.700   3.792   4.688
 5240SOL    HW216620   1.640   3.736   4.548
 5241SOL     OW16621   2.396   5.345   2.589
 5241SOL    HW116622   2.471   5.279   2.589
 5241SOL    HW216623   2.379   5.377   2.682
 5242SOL     OW16624   4.295   5.786   5.624
 5242SOL    HW116625   4.322   5.880   5.643
 5242SOL    HW216626   4.272   5.778   5.527
 5243SOL     OW16627   2.187   5.559   4.133
 5243SOL    HW116628   2.176   5.591   4.039
 5243SOL    HW216629   2.157   5.630   4.197
 5244SOL     OW16630   5.746   6.739   6.666
 5244SOL    HW116631   5.679   6.671   6.695
 5244SOL    HW216632   5.720   6.829   6.702
 5245SOL     OW16633   3.346   3.702   1.893
 5245SOL    HW116634   3.332   3.716   1.795
 5245SOL    HW216635   3.403   3.621   1.908
 5246SOL     OW16636   6.612   2.367   5.495
 5246SOL    HW116637   6.641   2.435   5.427
 5246SOL    HW216638   6.514   2.350   5.485
 5247SOL     OW16639   4.779   1.391   4.942
 5247SOL    HW116640   4.764   1.329   4.865
 5247SOL    HW216641   4.869   1.434   4.932
 5248SOL     OW16642   4.219   1.261   2.474
 5248SOL    HW116643   4.119   1.255   2.479
 5248SOL    HW216644   4.260   1.229   2.559
 5249SOL     OW16645   0.471   5.693   2.149
 5249SOL    HW116646   0.544   5.758   2.131
 5249SOL    HW216647   0.413   5.685   2.067
 5250SOL     OW16648   1.575   5.224   6.752
 5250SOL    HW116649   1.489   5.240   6.703
 5250SOL    HW216650   1.570   5.136   6.799
 5251SOL     OW16651   1.948   4.353   6.303
 5251SOL    HW116652   1.869   4.374   6.246
 5251SOL    HW216653   1.934   4.389   6.395
 5252SOL     OW16654   3.735   5.796   4.025
 5252SOL    HW116655   3.679   5.728   3.977
 5252SOL    HW216656   3.694   5.815   4.114
 5253SOL     OW16657   0.212   6.250   4.583
 5253SOL    HW116658   0.236   6.206   4.670
 5253SOL    HW216659   0.139   6.317   4.599
 5254SOL     OW16660   4.519   6.357   1.784
 5254SOL    HW116661   4.442   6.338   1.845
 5254SOL    HW216662   4.592   6.403   1.834
 5255SOL     OW16663   0.307   1.808   6.296
 5255SOL    HW116664   0.379   1.867   6.260
 5255SOL    HW216665   0.239   1.791   6.224
 5256SOL     OW16666   4.132   1.653   2.610
 5256SOL    HW116667   4.123   1.612   2.519
 5256SOL    HW216668   4.096   1.589   2.678
 5257SOL     OW16669   6.040   0.802   7.006
 5257SOL    HW116670   6.020   0.865   6.930
 5257SOL    HW216671   6.115   0.840   0.045
 5258SOL     OW16672   6.049   2.268   5.173
 5258SOL    HW116673   5.962   2.299   5.134
 5258SOL    HW216674   6.043   2.269   5.273
 5259SOL     OW16675   4.599   6.334   4.766
 5259SOL    HW116676   4.500   6.344   4.774
 5259SOL    HW216677   4.620   6.282   4.683
 5260SOL     OW16678   1.678   6.775   2.081
 5260SOL    HW116679   1.605   6.802   2.018
 5260SOL    HW216680   1.652   6.690   2.128
 5261SOL     OW16681   6.876   4.964   0.081
 5261SOL    HW116682   6.918   4.879   0.049
 5261SOL    HW216683   6.948   5.031   0.100
 5262SOL     OW16684   2.110   2.283   2.022
 5262SOL    HW116685   2.082   2.362   1.967
 5262SOL    HW216686   2.038   2.261   2.088
 5263SOL     OW16687   0.131   5.841   2.075
 5263SOL    HW116688   0.231   5.842   2.069
 5263SOL    HW216689   0.103   5.800   2.162
 5264SOL     OW16690   5.778   2.342   2.506
 5264SOL    HW116691   5.867   2.298   2.500
 5264SOL    HW216692   5.728   2.326   2.420
 5265SOL     OW16693   1.442   6.028   6.180
 5265SOL    HW116694   1.362   5.984   6.221
 5265SOL    HW216695   1.418   6.066   6.091
 5266SOL     OW16696   0.552   0.400   6.446
 5266SOL    HW116697   0.541   0.458   6.365
 5266SOL    HW216698   0.649   0.375   6.455
 5267SOL     OW16699   6.402   1.508   4.808
 5267SOL    HW116700   6.420   1.562   4.726
 5267SOL    HW216701   6.305   1.517   4.833
 5268SOL     OW16702   5.237   0.222   5.423
 5268SOL    HW116703   5.255   0.319   5.408
 5268SOL    HW216704   5.138   0.208   5.429
 5269SOL     OW16705   1.000   0.475   3.746
 5269SOL    HW116706   0.920   0.458   3.688
 5269SOL    HW216707   1.031   0.388   3.785
 5270SOL     OW16708   1.582   1.631   6.732
 5270SOL    HW116709   1.614   1.623   6.826
 5270SOL    HW216710   1.646   1.687   6.680
 5271SOL     OW16711   1.361   6.656   6.313
 5271SOL    HW116712   1.345   6.728   6.245
 5271SOL    HW216713   1.432   6.686   6.377
 5272SOL     OW16714   4.332   0.197   6.291
 5272SOL    HW116715   4.312   0.099   6.301
 5272SOL    HW216716   4.250   0.244   6.259
 5273SOL     OW16717   1.844   1.888   3.600
 5273SOL    HW116718   1.878   1.797   3.624
 5273SOL    HW216719   1.827   1.893   3.502
 5274SOL     OW16720   6.344   4.637   1.333
 5274SOL    HW116721   6.282   4.571   1.290
 5274SOL    HW216722   6.306   4.667   1.421
 5275SOL     OW16723   5.528   0.061   6.575
 5275SOL    HW116724   5.453   0.105   6.526
 5275SOL    HW216725   5.595   0.025   6.510
 5276SOL     OW16726   2.883   6.506   1.094
 5276SOL    HW116727   2.930   6.418   1.094
 5276SOL    HW216728   2.787   6.493   1.068
 5277SOL     OW16729   1.476   3.148   1.485
 5277SOL    HW116730   1.487   3.235   1.437
 5277SOL    HW216731   1.402   3.096   1.443
 5278SOL     OW16732   4.157   3.577   4.694
 5278SOL    HW116733   4.252   3.601   4.713
 5278SOL    HW216734   4.114   3.650   4.640
 5279SOL     OW16735   1.448   6.918   2.946
 5279SOL    HW116736   1.410   6.984   2.881
 5279SOL    HW216737   1.457   6.829   2.901
 5280SOL     OW16738   3.543   0.954   3.734
 5280SOL    HW116739   3.480   1.022   3.772
 5280SOL    HW216740   3.540   0.871   3.788
 5281SOL     OW16741   6.634   2.811   3.467
 5281SOL    HW116742   6.598   2.883   3.408
 5281SOL    HW216743   6.634   2.724   3.418
 5282SOL     OW16744   5.104   2.085   1.273
 5282SOL    HW116745   5.044   2.138   1.333
 5282SOL    HW216746   5.050   2.046   1.198
 5283SOL     OW16747   5.712   4.811   5.475
 5283SOL    HW116748   5.714   4.873   5.554
 5283SOL    HW216749   5.747   4.859   5.394
 5284SOL     OW16750   5.857   2.710   3.991
 5284SOL    HW116751   5.923   2.654   4.041
 5284SOL    HW216752   5.901   2.748   3.910
 5285SOL     OW16753   4.052   5.009   2.562
 5285SOL    HW116754   4.113   5.015   2.483
 5285SOL    HW216755   4.105   5.008   2.646
 5286SOL     OW16756   1.647   5.094   1.927
 5286SOL    HW116757   1.571   5.076   1.865
 5286SOL    HW216758   1.662   5.014   1.985
 5287SOL     OW16759   0.195   0.832   3.105
 5287SOL    HW116760   0.130   0.799   3.174
 5287SOL    HW216761   0.263   0.889   3.149
 5288SOL     OW16762   3.980   0.786   0.895
 5288SOL    HW116763   3.883   0.808   0.890
 5288SOL    HW216764   4.018   0.820   0.981
 5289SOL     OW16765   1.717   0.055   1.565
 5289SOL    HW116766   1.781   7.006   1.607
 5289SOL    HW216767   1.651   0.086   1.633
 5290SOL     OW16768   5.337   6.837   6.915
 5290SOL    HW116769   5.332   6.749   6.963
 5290SOL    HW216770   5.416   6.888   6.948
 5291SOL     OW16771   1.135   5.104   0.431
 5291SOL    HW116772   1.184   5.187   0.408
 5291SOL    HW216773   1.125   5.098   0.531
 5292SOL     OW16774   5.454   1.159   1.685
 5292SOL    HW116775   5.474   1.083   1.748
 5292SOL    HW216776   5.469   1.130   1.591
 5293SOL     OW16777   1.874   1.333   3.981
 5293SOL    HW116778   1.778   1.315   4.005
 5293SOL    HW216779   1.880   1.356   3.884
 5294SOL     OW16780   3.546   2.169   6.955
 5294SOL    HW116781   3.645   2.155   6.963
 5294SOL    HW216782   3.509   2.193   0.029
 5295SOL     OW16783   6.867   1.935   3.501
 5295SOL    HW116784   6.963   1.957   3.487
 5295SOL    HW216785   6.823   1.918   3.412
 5296SOL     OW16786   0.298   3.931   6.573
 5296SOL    HW116787   0.270   3.873   6.497
 5296SOL    HW216788   0.255   4.020   6.565
 5297SOL     OW16789   1.242   2.355   1.998
 5297SOL    HW116790   1.202   2.271   2.036
 5297SOL    HW216791   1.271   2.414   2.073
 5298SOL     OW16792   1.173   3.471   2.574
 5298SOL    HW116793   1.160   3.504   2.481
 5298SOL    HW216794   1.162   3.547   2.638
 5299SOL     OW16795   3.869   0.584   0.022
 5299SOL    HW116796   3.879   0.611   0.118
 5299SOL    HW216797   3.820   0.498   0.016
 5300SOL     OW16798   6.888   4.816   4.300
 5300SOL    HW116799   6.811   4.770   4.343
 5300SOL    HW216800   6.865   4.838   4.205
 5301SOL     OW16801   5.804   6.816   6.181
 5301SOL    HW116802   5.739   6.765   6.124
 5301SOL    HW216803   5.829   6.901   6.134
 5302SOL     OW16804   0.129   3.606   2.845
 5302SOL    HW116805   0.172   3.602   2.755
 5302SOL    HW216806   0.181   3.550   2.909
 5303SOL     OW16807   2.625   5.096   1.938
 5303SOL    HW116808   2.605   5.008   1.982
 5303SOL    HW216809   2.550   5.160   1.955
 5304SOL     OW16810   5.476   1.687   6.178
 5304SOL    HW116811   5.455   1.745   6.257
 5304SOL    HW216812   5.471   1.591   6.205
 5305SOL     OW16813   3.956   1.730   4.938
 5305SOL    HW116814   3.865   1.750   4.903
 5305SOL    HW216815   3.985   1.638   4.909
 5306SOL     OW16816   2.209   6.451   4.031
 5306SOL    HW116817   2.269   6.413   4.101
 5306SOL    HW216818   2.264   6.481   3.952
 5307SOL     OW16819   4.790   6.419   6.313
 5307SOL    HW116820   4.786   6.411   6.214
 5307SOL    HW216821   4.778   6.328   6.354
 5308SOL     OW16822   6.468   1.612   0.966
 5308SOL    HW116823   6.516   1.695   0.996
 5308SOL    HW216824   6.377   1.610   1.007
 5309SOL     OW16825   3.385   4.589   6.278
 5309SOL    HW116826   3.337   4.604   6.192
 5309SOL    HW216827   3.482   4.608   6.266
 5310SOL     OW16828   5.487   2.698   0.098
 5310SOL    HW116829   5.393   2.728   0.111
 5310SOL    HW216830   5.533   2.759   0.034
 5311SOL     OW16831   6.948   5.414   0.073
 5311SOL    HW116832   6.897   5.479   0.130
 5311SOL    HW216833   0.014   5.385   0.121
 5312SOL     OW16834   0.693   4.210   2.281
 5312SOL    HW116835   0.596   4.225   2.300
 5312SOL    HW216836   0.703   4.135   2.216
 5313SOL     OW16837   0.675   6.259   6.109
 5313SOL    HW116838   0.671   6.175   6.163
 5313SOL    HW216839   0.677   6.236   6.012
 5314SOL     OW16840   5.007   4.465   0.978
 5314SOL    HW116841   5.049   4.467   0.888
 5314SOL    HW216842   4.923   4.410   0.975
 5315SOL     OW16843   5.479   0.015   2.836
 5315SOL    HW116844   5.537   0.031   2.917
 5315SOL    HW216845   5.395   6.986   2.865
 5316SOL     OW16846   5.330   5.206   5.003
 5316SOL    HW116847   5.321   5.248   4.913
 5316SOL    HW216848   5.426   5.208   5.031
 5317SOL     OW16849   0.431   4.723   1.509
 5317SOL    HW116850   0.481   4.688   1.588
 5317SOL    HW216851   0.389   4.811   1.532
 5318SOL     OW16852   6.807   2.619   3.635
 5318SOL    HW116853   6.760   2.588   3.718
 5318SOL    HW216854   6.740   2.657   3.571
 5319SOL     OW16855   2.878   6.231   2.424
 5319SOL    HW116856   2.873   6.132   2.423
 5319SOL    HW216857   2.811   6.267   2.489
 5320SOL     OW16858   6.969   2.178   0.477
 5320SOL    HW116859   6.994   2.082   0.460
 5320SOL    HW216860   6.925   2.185   0.566
 5321SOL     OW16861   2.728   5.299   0.126
 5321SOL    HW116862   2.672   5.292   0.044
 5321SOL    HW216863   2.773   5.212   0.144
 5322SOL     OW16864   2.913   6.305   0.041
 5322SOL    HW116865   2.977   6.381   0.032
 5322SOL    HW216866   2.938   6.250   0.120
 5323SOL     OW16867   6.908   3.621   0.294
 5323SOL    HW116868   6.981   3.654   0.354
 5323SOL    HW216869   6.830   3.593   0.349
 5324SOL     OW16870   4.145   3.390   2.115
 5324SOL    HW116871   4.179   3.453   2.184
 5324SOL    HW216872   4.089   3.440   2.049
 5325SOL     OW16873   2.961   6.918   5.335
 5325SOL    HW116874   3.001   6.877   5.252
 5325SOL    HW216875   2.870   6.880   5.351
 5326SOL     OW16876   5.804   0.975   4.298
 5326SOL    HW116877   5.850   0.887   4.299
 5326SOL    HW216878   5.715   0.968   4.345
 5327SOL     OW16879   6.239   6.642   3.958
 5327SOL    HW116880   6.262   6.736   3.982
 5327SOL    HW216881   6.284   6.617   3.872
 5328SOL     OW16882   2.567   5.099   5.686
 5328SOL    HW116883   2.484   5.153   5.691
 5328SOL    HW216884   2.595   5.088   5.591
 5329SOL     OW16885   0.683   6.906   5.935
 5329SOL    HW116886   0.713   6.894   6.029
 5329SOL    HW216887   0.692   7.002   5.909
 5330SOL     OW16888   4.977   3.790   0.064
 5330SOL    HW116889   4.886   3.831   0.061
 5330SOL    HW216890   4.972   3.695   0.035
 5331SOL     OW16891   6.156   0.517   6.982
 5331SOL    HW116892   6.157   0.483   0.060
 5331SOL    HW216893   6.130   0.614   6.981
 5332SOL     OW16894   0.548   3.137   6.802
 5332SOL    HW116895   0.489   3.208   6.765
 5332SOL    HW216896   0.515   3.110   6.892
 5333SOL     OW16897   0.343   6.911   4.239
 5333SOL    HW116898   0.403   6.864   4.304
 5333SOL    HW216899   0.260   6.942   4.287
 5334SOL     OW16900   3.234   6.273   0.784
 5334SOL    HW116901   3.201   6.179   0.792
 5334SOL    HW216902   3.334   6.273   0.787
 5335SOL     OW16903   6.411   5.009   1.758
 5335SOL    HW116904   6.353   4.943   1.806
 5335SOL    HW216905   6.465   5.060   1.825
 5336SOL     OW16906   1.643   3.074   5.800
 5336SOL    HW116907   1.716   3.005   5.799
 5336SOL    HW216908   1.684   3.165   5.808
 5337SOL     OW16909   6.599   2.423   1.055
 5337SOL    HW116910   6.555   2.379   0.977
 5337SOL    HW216911   6.541   2.497   1.088
 5338SOL     OW16912   6.554   1.971   1.898
 5338SOL    HW116913   6.530   2.065   1.873
 5338SOL    HW216914   6.496   1.907   1.848
 5339SOL     OW16915   4.850   3.909   2.272
 5339SOL    HW116916   4.825   3.948   2.361
 5339SOL    HW216917   4.822   3.971   2.199
 5340SOL     OW16918   5.499   3.448   0.916
 5340SOL    HW116919   5.458   3.360   0.892
 5340SOL    HW216920   5.475   3.472   1.010
 5341SOL     OW16921   4.510   4.865   3.611
 5341SOL    HW116922   4.424   4.906   3.641
 5341SOL    HW216923   4.491   4.776   3.570
 5342SOL     OW16924   5.805   5.143   4.657
 5342SOL    HW116925   5.769   5.228   4.617
 5342SOL    HW216926   5.890   5.119   4.611
 5343SOL     OW16927   3.902   3.696   0.442
 5343SOL    HW116928   3.950   3.634   0.504
 5343SOL    HW216929   3.965   3.731   0.373
 5344SOL     OW16930   6.764   1.958   0.044
 5344SOL    HW116931   6.718   2.042   0.072
 5344SOL    HW216932   6.722   1.880   0.092
 5345SOL     OW16933   3.393   0.821   6.539
 5345SOL    HW116934   3.377   0.723   6.525
 5345SOL    HW216935   3.401   0.839   6.637
 5346SOL     OW16936   2.687   6.230   3.059
 5346SOL    HW116937   2.735   6.237   2.972
 5346SOL    HW216938   2.714   6.145   3.106
 5347SOL     OW16939   5.927   2.451   5.610
 5347SOL    HW116940   5.993   2.526   5.614
 5347SOL    HW216941   5.930   2.399   5.695
 5348SOL     OW16942   5.505   2.865   4.893
 5348SOL    HW116943   5.517   2.785   4.834
 5348SOL    HW216944   5.589   2.881   4.945
 5349SOL     OW16945   0.890   4.055   0.566
 5349SOL    HW116946   0.794   4.076   0.546
 5349SOL    HW216947   0.914   4.090   0.656
 5350SOL     OW16948   1.401   0.559   6.154
 5350SOL    HW116949   1.484   0.614   6.144
 5350SOL    HW216950   1.375   0.554   6.251
 5351SOL     OW16951   0.493   6.060   2.869
 5351SOL    HW116952   0.497   5.966   2.905
 5351SOL    HW216953   0.501   6.124   2.945
 5352SOL     OW16954   0.179   2.795   6.136
 5352SOL    HW116955   0.197   2.823   6.230
 5352SOL    HW216956   0.080   2.790   6.122
 5353SOL     OW16957   2.165   6.474   2.901
 5353SOL    HW116958   2.224   6.448   2.977
 5353SOL    HW216959   2.102   6.399   2.881
 5354SOL     OW16960   2.110   6.559   1.631
 5354SOL    HW116961   2.177   6.559   1.557
 5354SOL    HW216962   2.025   6.519   1.598
 5355SOL     OW16963   4.712   4.127   5.488
 5355SOL    HW116964   4.800   4.080   5.492
 5355SOL    HW216965   4.647   4.082   5.549
 5356SOL     OW16966   6.700   6.875   1.202
 5356SOL    HW116967   6.789   6.837   1.229
 5356SOL    HW216968   6.714   6.952   1.139
 5357SOL     OW16969   6.650   3.205   2.427
 5357SOL    HW116970   6.594   3.193   2.509
 5357SOL    HW216971   6.746   3.197   2.452
 5358SOL     OW16972   5.378   6.870   5.682
 5358SOL    HW116973   5.280   6.852   5.671
 5358SOL    HW216974   5.405   6.944   5.621
 5359SOL     OW16975   3.626   1.911   6.638
 5359SOL    HW116976   3.599   1.817   6.617
 5359SOL    HW216977   3.687   1.912   6.716
 5360SOL     OW16978   5.207   5.817   2.586
 5360SOL    HW116979   5.202   5.821   2.486
 5360SOL    HW216980   5.195   5.723   2.617
 5361SOL     OW16981   1.262   4.033   2.695
 5361SOL    HW116982   1.278   4.102   2.625
 5361SOL    HW216983   1.185   3.975   2.668
 5362SOL     OW16984   6.003   1.570   3.944
 5362SOL    HW116985   5.993   1.663   3.979
 5362SOL    HW216986   5.913   1.528   3.933
 5363SOL     OW16987   6.096   4.000   6.270
 5363SOL    HW116988   6.121   3.922   6.328
 5363SOL    HW216989   6.138   3.989   6.180
 5364SOL     OW16990   5.069   2.344   1.895
 5364SOL    HW116991   5.060   2.435   1.935
 5364SOL    HW216992   5.072   2.275   1.968
 5365SOL     OW16993   3.294   2.891   6.324
 5365SOL    HW116994   3.201   2.915   6.293
 5365SOL    HW216995   3.293   2.875   6.423
 5366SOL     OW16996   6.754   4.357   3.810
 5366SOL    HW116997   6.661   4.356   3.847
 5366SOL    HW216998   6.789   4.451   3.812
 5367SOL     OW16999   6.416   5.362   1.107
 5367SOL    HW117000   6.503   5.312   1.111
 5367SOL    HW217001   6.381   5.375   1.200
 5368SOL     OW17002   0.011   6.028   4.958
 5368SOL    HW117003   6.977   6.052   5.042
 5368SOL    HW217004   6.995   6.085   4.883
 5369SOL     OW17005   3.722   0.801   2.248
 5369SOL    HW117006   3.697   0.827   2.341
 5369SOL    HW217007   3.678   0.863   2.183
 5370SOL     OW17008   2.612   2.019   0.240
 5370SOL    HW117009   2.647   1.970   0.161
 5370SOL    HW217010   2.516   2.043   0.225
 5371SOL     OW17011   6.229   5.151   2.871
 5371SOL    HW117012   6.256   5.237   2.915
 5371SOL    HW217013   6.138   5.125   2.901
 5372SOL     OW17014   1.169   0.951   4.105
 5372SOL    HW117015   1.170   0.980   4.201
 5372SOL    HW217016   1.243   0.884   4.090
 5373SOL     OW17017   4.264   6.708   1.012
 5373SOL    HW117018   4.262   6.705   0.912
 5373SOL    HW217019   4.228   6.623   1.048
 5374SOL     OW17020   1.742   3.495   1.180
 5374SOL    HW117021   1.768   3.519   1.087
 5374SOL    HW217022   1.791   3.553   1.244
 5375SOL     OW17023   2.934   4.906   5.023
 5375SOL    HW117024   3.023   4.908   4.977
 5375SOL    HW217025   2.899   4.812   5.024
 5376SOL     OW17026   6.476   6.698   2.292
 5376SOL    HW117027   6.465   6.736   2.200
 5376SOL    HW217028   6.412   6.743   2.355
 5377SOL     OW17029   0.442   3.252   1.366
 5377SOL    HW117030   0.500   3.184   1.410
 5377SOL    HW217031   0.351   3.213   1.350
 5378SOL     OW17032   4.755   0.691   4.804
 5378SOL    HW117033   4.669   0.703   4.754
 5378SOL    HW217034   4.800   0.607   4.773
 5379SOL     OW17035   3.449   2.058   4.150
 5379SOL    HW117036   3.538   2.079   4.110
 5379SOL    HW217037   3.431   2.121   4.226
 5380SOL     OW17038   4.613   6.950   1.632
 5380SOL    HW117039   4.649   6.862   1.601
 5380SOL    HW217040   4.570   6.939   1.721
 5381SOL     OW17041   2.693   2.073   2.496
 5381SOL    HW117042   2.667   2.167   2.476
 5381SOL    HW217043   2.662   2.012   2.422
 5382SOL     OW17044   3.800   0.066   2.644
 5382SOL    HW117045   3.725   0.074   2.579
 5382SOL    HW217046   3.795   6.994   2.691
 5383SOL     OW17047   2.113   4.438   5.464
 5383SOL    HW117048   2.121   4.521   5.408
 5383SOL    HW217049   2.016   4.420   5.483
 5384SOL     OW17050   4.892   6.086   5.723
 5384SOL    HW117051   4.863   6.033   5.643
 5384SOL    HW217052   4.936   6.171   5.693
 5385SOL     OW17053   4.042   4.063   0.793
 5385SOL    HW117054   4.103   3.984   0.801
 5385SOL    HW217055   3.962   4.039   0.738
 5386SOL     OW17056   3.872   5.565   2.987
 5386SOL    HW117057   3.800   5.505   3.024
 5386SOL    HW217058   3.920   5.518   2.914
 5387SOL     OW17059   1.040   2.538   5.501
 5387SOL    HW117060   0.954   2.516   5.455
 5387SOL    HW217061   1.025   2.539   5.600
 5388SOL     OW17062   6.561   6.485   3.125
 5388SOL    HW117063   6.507   6.418   3.175
 5388SOL    HW217064   6.647   6.442   3.095
 5389SOL     OW17065   6.794   1.836   4.633
 5389SOL    HW117066   6.810   1.833   4.732
 5389SOL    HW217067   6.772   1.744   4.600
 5390SOL     OW17068   5.770   2.026   3.346
 5390SOL    HW117069   5.708   2.023   3.268
 5390SOL    HW217070   5.861   1.997   3.316
 5391SOL     OW17071   4.907   3.359   0.509
 5391SOL    HW117072   4.844   3.388   0.581
 5391SOL    HW217073   4.918   3.259   0.513
 5392SOL     OW17074   5.001   0.977   3.685
 5392SOL    HW117075   5.093   1.016   3.682
 5392SOL    HW217076   4.934   1.052   3.684
 5393SOL     OW17077   4.779   2.909   2.722
 5393SOL    HW117078   4.791   2.959   2.636
 5393SOL    HW217079   4.844   2.944   2.790
 5394SOL     OW17080   0.765   3.513   3.423
 5394SOL    HW117081   0.738   3.418   3.437
 5394SOL    HW217082   0.848   3.516   3.368
 5395SOL     OW17083   0.744   0.547   1.587
 5395SOL    HW117084   0.778   0.484   1.517
 5395SOL    HW217085   0.756   0.506   1.678
 5396SOL     OW17086   3.439   2.290   0.145
 5396SOL    HW117087   3.461   2.222   0.214
 5396SOL    HW217088   3.346   2.274   0.111
 5397SOL     OW17089   0.272   6.868   2.988
 5397SOL    HW117090   0.200   6.805   2.960
 5397SOL    HW217091   0.334   6.821   3.051
 5398SOL     OW17092   5.838   2.311   3.272
 5398SOL    HW117093   5.830   2.211   3.274
 5398SOL    HW217094   5.906   2.340   3.339
 5399SOL     OW17095   2.912   2.409   0.020
 5399SOL    HW117096   2.925   2.310   0.026
 5399SOL    HW217097   2.855   2.439   0.097
 5400SOL     OW17098   4.474   2.858   0.923
 5400SOL    HW117099   4.555   2.800   0.911
 5400SOL    HW217100   4.407   2.837   0.851
 5401SOL     OW17101   4.888   3.866   1.439
 5401SOL    HW117102   4.897   3.960   1.407
 5401SOL    HW217103   4.963   3.811   1.401
 5402SOL     OW17104   2.249   5.441   1.102
 5402SOL    HW117105   2.330   5.432   1.045
 5402SOL    HW217106   2.256   5.378   1.180
 5403SOL     OW17107   6.490   2.778   5.342
 5403SOL    HW117108   6.550   2.726   5.282
 5403SOL    HW217109   6.435   2.716   5.398
 5404SOL     OW17110   4.252   6.498   6.975
 5404SOL    HW117111   4.169   6.499   6.920
 5404SOL    HW217112   4.253   6.578   0.019
 5405SOL     OW17113   6.014   5.506   6.287
 5405SOL    HW117114   5.935   5.565   6.267
 5405SOL    HW217115   6.091   5.533   6.230
 5406SOL     OW17116   2.102   1.391   4.933
 5406SOL    HW117117   2.125   1.487   4.946
 5406SOL    HW217118   2.097   1.370   4.835
 5407SOL     OW17119   2.072   1.940   2.638
 5407SOL    HW117120   2.098   1.916   2.731
 5407SOL    HW217121   2.130   1.891   2.573
 5408SOL     OW17122   2.579   2.168   4.072
 5408SOL    HW117123   2.665   2.219   4.068
 5408SOL    HW217124   2.508   2.225   4.113
 5409SOL     OW17125   0.091   4.492   3.710
 5409SOL    HW117126   0.175   4.497   3.656
 5409SOL    HW217127   0.045   4.581   3.708
 5410SOL     OW17128   6.150   1.215   0.103
 5410SOL    HW117129   6.170   1.142   0.168
 5410SOL    HW217130   6.202   1.297   0.128
 5411SOL     OW17131   2.883   6.503   2.027
 5411SOL    HW117132   2.815   6.430   2.022
 5411SOL    HW217133   2.861   6.574   1.960
 5412SOL     OW17134   2.747   2.487   5.740
 5412SOL    HW117135   2.650   2.467   5.730
 5412SOL    HW217136   2.760   2.558   5.810
 5413SOL     OW17137   6.763   5.210   5.526
 5413SOL    HW117138   6.684   5.267   5.550
 5413SOL    HW217139   6.757   5.122   5.573
 5414SOL     OW17140   6.210   5.677   5.810
 5414SOL    HW117141   6.264   5.633   5.739
 5414SOL    HW217142   6.136   5.615   5.838
 5415SOL     OW17143   2.323   0.073   0.004
 5415SOL    HW117144   2.378   0.091   6.939
 5415SOL    HW217145   2.269   0.154   0.026
 5416SOL     OW17146   4.375   5.045   5.930
 5416SOL    HW117147   4.306   5.001   5.987
 5416SOL    HW217148   4.332   5.117   5.876
 5417SOL     OW17149   4.885   0.362   2.446
 5417SOL    HW117150   4.826   0.282   2.433
 5417SOL    HW217151   4.925   0.388   2.358
 5418SOL     OW17152   6.967   3.066   6.163
 5418SOL    HW117153   0.037   3.097   6.124
 5418SOL    HW217154   6.980   3.046   6.260
 5419SOL     OW17155   4.180   2.530   6.035
 5419SOL    HW117156   4.274   2.523   6.001
 5419SOL    HW217157   4.127   2.451   6.004
 5420SOL     OW17158   1.400   1.684   1.109
 5420SOL    HW117159   1.326   1.619   1.127
 5420SOL    HW217160   1.366   1.755   1.047
 5421SOL     OW17161   3.650   5.524   1.104
 5421SOL    HW117162   3.589   5.575   1.044
 5421SOL    HW217163   3.605   5.439   1.132
 5422SOL     OW17164   2.175   0.026   3.455
 5422SOL    HW117165   2.174   0.124   3.440
 5422SOL    HW217166   2.153   0.007   3.551
 5423SOL     OW17167   4.063   6.096   2.992
 5423SOL    HW117168   4.098   6.128   2.904
 5423SOL    HW217169   4.057   5.996   2.991
 5424SOL     OW17170   4.101   2.999   5.738
 5424SOL    HW117171   4.081   3.088   5.697
 5424SOL    HW217172   4.016   2.948   5.751
 5425SOL     OW17173   2.100   5.763   4.319
 5425SOL    HW117174   2.010   5.790   4.353
 5425SOL    HW217175   2.164   5.761   4.396
 5426SOL     OW17176   1.366   3.505   6.939
 5426SOL    HW117177   1.300   3.484   7.012
 5426SOL    HW217178   1.350   3.444   6.862
 5427SOL     OW17179   4.943   1.643   0.133
 5427SOL    HW117180   4.930   1.704   0.054
 5427SOL    HW217181   4.941   1.548   0.102
 5428SOL     OW17182   5.135   5.667   2.355
 5428SOL    HW117183   5.119   5.568   2.356
 5428SOL    HW217184   5.086   5.707   2.277
 5429SOL     OW17185   2.680   6.627   2.886
 5429SOL    HW117186   2.773   6.630   2.923
 5429SOL    HW217187   2.671   6.551   2.822
 5430SOL     OW17188   1.036   3.637   5.462
 5430SOL    HW117189   0.957   3.595   5.416
 5430SOL    HW217190   1.108   3.655   5.395
 5431SOL     OW17191   5.138   4.140   1.188
 5431SOL    HW117192   5.229   4.182   1.181
 5431SOL    HW217193   5.100   4.127   1.096
 5432SOL     OW17194   1.587   5.144   5.698
 5432SOL    HW117195   1.599   5.058   5.747
 5432SOL    HW217196   1.553   5.214   5.762
 5433SOL     OW17197   3.282   7.004   2.031
 5433SOL    HW117198   3.254   0.056   1.963
 5433SOL    HW217199   3.372   0.013   2.067
 5434SOL     OW17200   5.182   6.219   4.329
 5434SOL    HW117201   5.086   6.190   4.329
 5434SOL    HW217202   5.188   6.317   4.315
 5435SOL     OW17203   1.105   3.122   6.952
 5435SOL    HW117204   1.071   3.034   6.917
 5435SOL    HW217205   1.093   3.125   0.035
 5436SOL     OW17206   1.405   4.140   0.780
 5436SOL    HW117207   1.307   4.151   0.766
 5436SOL    HW217208   1.451   4.228   0.769
 5437SOL     OW17209   3.026   0.091   5.539
 5437SOL    HW117210   2.966   0.069   5.616
 5437SOL    HW217211   3.014   0.022   5.467
 5438SOL     OW17212   4.521   6.709   3.870
 5438SOL    HW117213   4.574   6.660   3.940
 5438SOL    HW217214   4.509   6.649   3.790
 5439SOL     OW17215   1.537   3.667   2.006
 5439SOL    HW117216   1.571   3.732   2.074
 5439SOL    HW217217   1.443   3.692   1.982
 5440SOL     OW17218   5.292   6.139   2.991
 5440SOL    HW117219   5.239   6.068   2.944
 5440SOL    HW217220   5.275   6.134   3.089
 5441SOL     OW17221   5.912   0.053   5.073
 5441SOL    HW117222   5.851   0.034   5.150
 5441SOL    HW217223   5.858   0.063   4.989
 5442SOL     OW17224   2.610   6.059   0.125
 5442SOL    HW117225   2.590   6.156   0.131
 5442SOL    HW217226   2.669   6.033   0.202
 5443SOL     OW17227   5.591   1.443   3.044
 5443SOL    HW117228   5.648   1.361   3.050
 5443SOL    HW217229   5.502   1.419   3.006
 5444SOL     OW17230   2.295   1.605   6.163
 5444SOL    HW117231   2.376   1.623   6.218
 5444SOL    HW217232   2.305   1.517   6.117
 5445SOL     OW17233   0.130   5.724   5.741
 5445SOL    HW117234   0.197   5.746   5.811
 5445SOL    HW217235   0.176   5.712   5.653
 5446SOL     OW17236   2.068   4.194   0.191
 5446SOL    HW117237   2.138   4.190   0.262
 5446SOL    HW217238   2.102   4.152   0.107
 5447SOL     OW17239   5.141   2.430   1.418
 5447SOL    HW117240   5.112   2.342   1.457
 5447SOL    HW217241   5.241   2.438   1.426
 5448SOL     OW17242   6.000   5.887   0.829
 5448SOL    HW117243   6.053   5.958   0.783
 5448SOL    HW217244   5.904   5.892   0.800
 5449SOL     OW17245   2.074   6.909   2.403
 5449SOL    HW117246   2.083   6.813   2.428
 5449SOL    HW217247   2.041   6.917   2.309
 5450SOL     OW17248   4.407   4.524   1.877
 5450SOL    HW117249   4.430   4.525   1.780
 5450SOL    HW217250   4.435   4.437   1.917
 5451SOL     OW17251   0.167   5.637   3.552
 5451SOL    HW117252   0.177   5.556   3.494
 5451SOL    HW217253   0.174   5.719   3.496
 5452SOL     OW17254   2.246   4.152   3.848
 5452SOL    HW117255   2.176   4.117   3.786
 5452SOL    HW217256   2.320   4.193   3.795
 5453SOL     OW17257   5.942   4.781   4.665
 5453SOL    HW117258   5.962   4.869   4.623
 5453SOL    HW217259   5.966   4.784   4.762
 5454SOL     OW17260   6.522   4.064   2.469
 5454SOL    HW117261   6.532   4.133   2.541
 5454SOL    HW217262   6.479   3.982   2.507
 5455SOL     OW17263   1.823   2.043   2.810
 5455SOL    HW117264   1.797   2.023   2.715
 5455SOL    HW217265   1.773   2.123   2.842
 5456SOL     OW17266   6.052   2.901   6.958
 5456SOL    HW117267   6.093   2.974   6.904
 5456SOL    HW217268   6.123   2.837   6.988
 5457SOL     OW17269   6.018   0.715   0.638
 5457SOL    HW117270   5.971   0.629   0.657
 5457SOL    HW217271   5.955   0.792   0.653
 5458SOL     OW17272   5.999   4.200   6.467
 5458SOL    HW117273   6.067   4.133   6.438
 5458SOL    HW217274   6.032   4.292   6.447
 5459SOL     OW17275   2.161   3.539   5.083
 5459SOL    HW117276   2.105   3.505   5.008
 5459SOL    HW217277   2.103   3.567   5.159
 5460SOL     OW17278   6.704   1.458   0.991
 5460SOL    HW117279   6.759   1.457   0.908
 5460SOL    HW217280   6.612   1.492   0.971
 5461SOL     OW17281   5.587   0.379   5.864
 5461SOL    HW117282   5.543   0.404   5.951
 5461SOL    HW217283   5.555   0.441   5.793
 5462SOL     OW17284   5.646   5.098   0.597
 5462SOL    HW117285   5.604   5.027   0.541
 5462SOL    HW217286   5.725   5.061   0.646
 5463SOL     OW17287   3.332   4.981   0.095
 5463SOL    HW117288   3.368   5.062   0.049
 5463SOL    HW217289   3.269   5.009   0.167
 5464SOL     OW17290   2.483   5.736   4.242
 5464SOL    HW117291   2.390   5.700   4.246
 5464SOL    HW217292   2.548   5.661   4.239
 5465SOL     OW17293   0.328   1.636   4.893
 5465SOL    HW117294   0.229   1.628   4.902
 5465SOL    HW217295   0.372   1.591   4.971
 5466SOL     OW17296   5.557   2.216   4.831
 5466SOL    HW117297   5.547   2.135   4.888
 5466SOL    HW217298   5.577   2.296   4.889
 5467SOL     OW17299   4.470   4.626   3.145
 5467SOL    HW117300   4.396   4.605   3.081
 5467SOL    HW217301   4.541   4.556   3.137
 5468SOL     OW17302   0.280   2.594   1.527
 5468SOL    HW117303   0.374   2.562   1.537
 5468SOL    HW217304   0.272   2.686   1.567
 5469SOL     OW17305   4.474   0.661   3.141
 5469SOL    HW117306   4.382   0.625   3.126
 5469SOL    HW217307   4.493   0.734   3.076
 5470SOL     OW17308   2.748   4.724   3.099
 5470SOL    HW117309   2.743   4.626   3.115
 5470SOL    HW217310   2.791   4.769   3.177
 5471SOL     OW17311   5.451   0.910   3.778
 5471SOL    HW117312   5.419   0.816   3.774
 5471SOL    HW217313   5.531   0.920   3.718
 5472SOL     OW17314   2.668   4.791   0.812
 5472SOL    HW117315   2.671   4.813   0.715
 5472SOL    HW217316   2.648   4.693   0.823
 5473SOL     OW17317   3.200   4.885   1.947
 5473SOL    HW117318   3.156   4.870   2.035
 5473SOL    HW217319   3.158   4.827   1.877
 5474SOL     OW17320   1.195   5.505   1.636
 5474SOL    HW117321   1.131   5.569   1.594
 5474SOL    HW217322   1.218   5.536   1.729
 5475SOL     OW17323   0.144   1.274   5.271
 5475SOL    HW117324   0.147   1.176   5.251
 5475SOL    HW217325   0.237   1.310   5.275
 5476SOL     OW17326   3.171   1.371   4.337
 5476SOL    HW117327   3.075   1.393   4.322
 5476SOL    HW217328   3.179   1.273   4.357
 5477SOL     OW17329   2.096   4.307   2.806
 5477SOL    HW117330   2.007   4.266   2.785
 5477SOL    HW217331   2.115   4.380   2.740
 5478SOL     OW17332   6.590   3.197   5.473
 5478SOL    HW117333   6.609   3.202   5.375
 5478SOL    HW217334   6.557   3.106   5.496
 5479SOL     OW17335   5.271   4.249   4.865
 5479SOL    HW117336   5.350   4.238   4.926
 5479SOL    HW217337   5.201   4.183   4.891
 5480SOL     OW17338   2.565   2.329   6.232
 5480SOL    HW117339   2.614   2.295   6.313
 5480SOL    HW217340   2.516   2.254   6.188
 5481SOL     OW17341   3.311   0.626   1.148
 5481SOL    HW117342   3.294   0.654   1.242
 5481SOL    HW217343   3.349   0.533   1.147
 5482SOL     OW17344   5.349   4.596   2.510
 5482SOL    HW117345   5.447   4.597   2.488
 5482SOL    HW217346   5.304   4.670   2.461
 5483SOL     OW17347   6.078   1.675   0.902
 5483SOL    HW117348   6.122   1.669   0.812
 5483SOL    HW217349   6.128   1.619   0.967
 5484SOL     OW17350   6.028   0.137   5.820
 5484SOL    HW117351   5.961   0.200   5.781
 5484SOL    HW217352   6.045   0.063   5.755
 5485SOL     OW17353   2.434   1.470   3.988
 5485SOL    HW117354   2.354   1.411   3.997
 5485SOL    HW217355   2.411   1.549   3.931
 5486SOL     OW17356   6.585   1.370   3.763
 5486SOL    HW117357   6.580   1.460   3.806
 5486SOL    HW217358   6.532   1.371   3.678
 5487SOL     OW17359   4.210   5.891   1.664
 5487SOL    HW117360   4.182   5.838   1.744
 5487SOL    HW217361   4.290   5.947   1.687
 5488SOL     OW17362   4.817   6.818   6.472
 5488SOL    HW117363   4.750   6.751   6.441
 5488SOL    HW217364   4.791   6.852   6.563
 5489SOL     OW17365   6.555   3.182   2.699
 5489SOL    HW117366   6.490   3.121   2.743
 5489SOL    HW217367   6.529   3.277   2.717
 5490SOL     OW17368   2.819   1.246   6.799
 5490SOL    HW117369   2.893   1.279   6.741
 5490SOL    HW217370   2.811   1.146   6.789
 5491SOL     OW17371   5.857   6.759   1.540
 5491SOL    HW117372   5.805   6.840   1.567
 5491SOL    HW217373   5.870   6.759   1.441
 5492SOL     OW17374   1.693   1.320   5.508
 5492SOL    HW117375   1.593   1.316   5.505
 5492SOL    HW217376   1.728   1.336   5.416
 5493SOL     OW17377   3.847   1.043   6.779
 5493SOL    HW117378   3.826   1.081   6.689
 5493SOL    HW217379   3.791   0.961   6.793
 5494SOL     OW17380   5.708   3.057   2.394
 5494SOL    HW117381   5.798   3.030   2.428
 5494SOL    HW217382   5.637   3.021   2.454
 5495SOL     OW17383   3.594   3.222   4.971
 5495SOL    HW117384   3.541   3.250   5.050
 5495SOL    HW217385   3.613   3.124   4.976
 5496SOL     OW17386   4.633   4.873   2.000
 5496SOL    HW117387   4.571   4.824   2.062
 5496SOL    HW217388   4.581   4.938   1.945
 5497SOL     OW17389   5.609   6.683   0.074
 5497SOL    HW117390   5.518   6.724   0.074
 5497SOL    HW217391   5.671   6.739   0.130
 5498SOL     OW17392   3.812   0.758   3.671
 5498SOL    HW117393   3.791   0.855   3.666
 5498SOL    HW217394   3.903   0.746   3.711
 5499SOL     OW17395   0.630   0.652   4.912
 5499SOL    HW117396   0.593   0.694   4.995
 5499SOL    HW217397   0.721   0.615   4.931
 5500SOL     OW17398   1.541   6.245   0.458
 5500SOL    HW117399   1.460   6.196   0.424
 5500SOL    HW217400   1.613   6.179   0.479
 5501SOL     OW17401   2.104   1.442   2.163
 5501SOL    HW117402   2.131   1.473   2.072
 5501SOL    HW217403   2.012   1.476   2.185
 5502SOL     OW17404   5.486   4.890   0.868
 5502SOL    HW117405   5.441   4.971   0.829
 5502SOL    HW217406   5.432   4.857   0.946
 5503SOL     OW17407   6.595   0.951   4.039
 5503SOL    HW117408   6.650   1.029   4.010
 5503SOL    HW217409   6.504   0.957   3.997
 5504SOL     OW17410   2.432   2.171   4.642
 5504SOL    HW117411   2.430   2.071   4.644
 5504SOL    HW217412   2.509   2.204   4.697
 5505SOL     OW17413   3.616   5.490   0.670
 5505SOL    HW117414   3.665   5.520   0.589
 5505SOL    HW217415   3.682   5.467   0.742
 5506SOL     OW17416   1.168   6.419   5.137
 5506SOL    HW117417   1.237   6.349   5.118
 5506SOL    HW217418   1.184   6.498   5.077
 5507SOL     OW17419   2.285   5.299   5.030
 5507SOL    HW117420   2.347   5.242   4.976
 5507SOL    HW217421   2.249   5.372   4.972
 5508SOL     OW17422   2.771   1.346   5.320
 5508SOL    HW117423   2.756   1.445   5.315
 5508SOL    HW217424   2.828   1.325   5.400
 5509SOL     OW17425   6.696   0.184   5.912
 5509SOL    HW117426   6.777   0.210   5.860
 5509SOL    HW217427   6.689   0.084   5.913
 5510SOL     OW17428   0.546   0.655   5.464
 5510SOL    HW117429   0.584   0.593   5.533
 5510SOL    HW217430   0.449   0.669   5.481
 5511SOL     OW17431   0.657   2.402   0.809
 5511SOL    HW117432   0.558   2.392   0.818
 5511SOL    HW217433   0.696   2.316   0.776
 5512SOL     OW17434   6.614   6.271   0.215
 5512SOL    HW117435   6.535   6.314   0.172
 5512SOL    HW217436   6.619   6.175   0.186
 5513SOL     OW17437   2.379   6.478   4.954
 5513SOL    HW117438   2.400   6.405   5.019
 5513SOL    HW217439   2.294   6.523   4.981
 5514SOL     OW17440   5.857   5.759   3.575
 5514SOL    HW117441   5.855   5.698   3.495
 5514SOL    HW217442   5.767   5.760   3.619
 5515SOL     OW17443   1.032   4.244   3.806
 5515SOL    HW117444   0.956   4.228   3.743
 5515SOL    HW217445   1.108   4.184   3.783
 5516SOL     OW17446   2.196   2.786   0.025
 5516SOL    HW117447   2.269   2.731   0.067
 5516SOL    HW217448   2.122   2.798   0.091
 5517SOL     OW17449   2.980   0.627   2.573
 5517SOL    HW117450   2.881   0.625   2.561
 5517SOL    HW217451   3.010   0.720   2.594
 5518SOL     OW17452   5.277   3.577   6.246
 5518SOL    HW117453   5.325   3.587   6.159
 5518SOL    HW217454   5.178   3.578   6.231
 5519SOL     OW17455   5.116   3.679   2.406
 5519SOL    HW117456   5.193   3.619   2.384
 5519SOL    HW217457   5.053   3.682   2.329
 5520SOL     OW17458   1.486   2.587   0.964
 5520SOL    HW117459   1.518   2.612   0.873
 5520SOL    HW217460   1.388   2.569   0.961
 5521SOL     OW17461   5.362   4.204   6.359
 5521SOL    HW117462   5.356   4.236   6.265
 5521SOL    HW217463   5.412   4.118   6.362
 5522SOL     OW17464   1.755   2.865   1.334
 5522SOL    HW117465   1.692   2.803   1.286
 5522SOL    HW217466   1.704   2.940   1.375
 5523SOL     OW17467   2.396   6.766   1.479
 5523SOL    HW117468   2.355   6.676   1.464
 5523SOL    HW217469   2.346   6.834   1.426
 5524SOL     OW17470   6.050   6.260   5.910
 5524SOL    HW117471   5.964   6.274   5.959
 5524SOL    HW217472   6.126   6.264   5.975
 5525SOL     OW17473   6.341   6.795   3.182
 5525SOL    HW117474   6.326   6.709   3.229
 5525SOL    HW217475   6.426   6.790   3.129
 5526SOL     OW17476   5.349   3.879   4.816
 5526SOL    HW117477   5.285   3.933   4.761
 5526SOL    HW217478   5.409   3.827   4.756
 5527SOL     OW17479   3.425   3.017   0.243
 5527SOL    HW117480   3.392   3.110   0.228
 5527SOL    HW217481   3.378   2.955   0.180
 5528SOL     OW17482   6.365   3.020   2.810
 5528SOL    HW117483   6.340   2.935   2.763
 5528SOL    HW217484   6.290   3.086   2.802
 5529SOL     OW17485   1.376   1.148   4.565
 5529SOL    HW117486   1.458   1.155   4.623
 5529SOL    HW217487   1.324   1.233   4.570
 5530SOL     OW17488   0.168   3.088   6.925
 5530SOL    HW117489   0.075   3.093   6.963
 5530SOL    HW217490   0.177   3.154   6.850
 5531SOL     OW17491   2.941   2.943   0.565
 5531SOL    HW117492   2.874   2.877   0.601
 5531SOL    HW217493   2.938   3.026   0.620
 5532SOL     OW17494   2.253   2.922   1.759
 5532SOL    HW117495   2.188   2.883   1.694
 5532SOL    HW217496   2.252   3.022   1.752
 5533SOL     OW17497   2.935   0.464   1.059
 5533SOL    HW117498   3.015   0.412   1.089
 5533SOL    HW217499   2.853   0.408   1.069
 5534SOL     OW17500   0.836   3.530   5.268
 5534SOL    HW117501   0.842   3.613   5.213
 5534SOL    HW217502   0.802   3.455   5.211
 5535SOL     OW17503   4.801   5.128   3.273
 5535SOL    HW117504   4.753   5.065   3.334
 5535SOL    HW217505   4.775   5.222   3.295
 5536SOL     OW17506   2.320   1.669   4.468
 5536SOL    HW117507   2.359   1.651   4.378
 5536SOL    HW217508   2.246   1.736   4.459
 5537SOL     OW17509   3.735   1.683   3.648
 5537SOL    HW117510   3.822   1.662   3.693
 5537SOL    HW217511   3.704   1.603   3.596
 5538SOL     OW17512   4.702   2.191   2.645
 5538SOL    HW117513   4.700   2.218   2.549
 5538SOL    HW217514   4.619   2.141   2.668
 5539SOL     OW17515   1.206   0.580   5.918
 5539SOL    HW117516   1.268   0.555   5.843
 5539SOL    HW217517   1.259   0.597   6.001
 5540SOL     OW17518   4.777   6.964   5.051
 5540SOL    HW117519   4.760   7.008   5.139
 5540SOL    HW217520   4.708   6.892   5.036
 5541SOL     OW17521   4.707   2.815   5.533
 5541SOL    HW117522   4.757   2.901   5.521
 5541SOL    HW217523   4.613   2.835   5.559
 5542SOL     OW17524   5.132   4.370   6.846
 5542SOL    HW117525   5.077   4.347   6.766
 5542SOL    HW217526   5.077   4.356   6.929
 5543SOL     OW17527   0.387   0.260   5.907
 5543SOL    HW117528   0.473   0.249   5.958
 5543SOL    HW217529   0.372   0.357   5.888
 5544SOL     OW17530   4.004   5.024   6.865
 5544SOL    HW117531   4.009   5.084   6.944
 5544SOL    HW217532   4.073   4.952   6.873
 5545SOL     OW17533   5.451   2.107   3.398
 5545SOL    HW117534   5.381   2.051   3.444
 5545SOL    HW217535   5.494   2.167   3.466
 5546SOL     OW17536   0.708   6.186   4.151
 5546SOL    HW117537   0.724   6.280   4.180
 5546SOL    HW217538   0.684   6.185   4.054
 5547SOL     OW17539   4.982   1.676   4.411
 5547SOL    HW117540   4.996   1.591   4.360
 5547SOL    HW217541   5.066   1.731   4.409
 5548SOL     OW17542   1.193   3.795   4.732
 5548SOL    HW117543   1.271   3.738   4.704
 5548SOL    HW217544   1.112   3.766   4.680
 5549SOL     OW17545   4.491   3.529   0.099
 5549SOL    HW117546   4.462   3.496   0.189
 5549SOL    HW217547   4.416   3.582   0.058
 5550SOL     OW17548   3.221   3.982   1.518
 5550SOL    HW117549   3.307   3.941   1.551
 5550SOL    HW217550   3.240   4.040   1.439
 5551SOL     OW17551   1.419   4.527   2.287
 5551SOL    HW117552   1.489   4.593   2.316
 5551SOL    HW217553   1.426   4.445   2.344
 5552SOL     OW17554   0.743   0.556   0.665
 5552SOL    HW117555   0.754   0.595   0.574
 5552SOL    HW217556   0.769   0.624   0.734
 5553SOL     OW17557   6.011   5.838   1.182
 5553SOL    HW117558   5.956   5.785   1.118
 5553SOL    HW217559   5.985   5.814   1.276
 5554SOL     OW17560   0.075   2.589   1.730
 5554SOL    HW117561   0.098   2.595   1.827
 5554SOL    HW217562   0.157   2.568   1.677
 5555SOL     OW17563   0.928   4.672   1.798
 5555SOL    HW117564   0.977   4.679   1.886
 5555SOL    HW217565   0.864   4.748   1.790
 5556SOL     OW17566   6.722   1.563   5.255
 5556SOL    HW117567   6.637   1.550   5.306
 5556SOL    HW217568   6.777   1.635   5.298
 5557SOL     OW17569   3.255   6.922   2.679
 5557SOL    HW117570   3.158   6.945   2.669
 5557SOL    HW217571   3.284   6.868   2.600
 5558SOL     OW17572   3.811   3.671   6.298
 5558SOL    HW117573   3.905   3.698   6.319
 5558SOL    HW217574   3.808   3.629   6.208
 5559SOL     OW17575   3.416   0.572   3.042
 5559SOL    HW117576   3.492   0.540   2.985
 5559SOL    HW217577   3.437   0.664   3.076
 5560SOL     OW17578   0.347   5.170   3.401
 5560SOL    HW117579   0.264   5.189   3.453
 5560SOL    HW217580   0.354   5.234   3.324
 5561SOL     OW17581   2.796   0.494   3.440
 5561SOL    HW117582   2.803   0.565   3.510
 5561SOL    HW217583   2.775   0.537   3.352
 5562SOL     OW17584   4.850   3.106   0.947
 5562SOL    HW117585   4.787   3.158   0.891
 5562SOL    HW217586   4.835   3.128   1.044
 5563SOL     OW17587   1.589   4.175   2.354
 5563SOL    HW117588   1.596   4.214   2.262
 5563SOL    HW217589   1.672   4.123   2.375
 5564SOL     OW17590   4.460   0.085   6.879
 5564SOL    HW117591   4.405   0.127   6.808
 5564SOL    HW217592   4.442   7.003   6.882
 5565SOL     OW17593   2.932   2.085   6.423
 5565SOL    HW117594   2.914   1.990   6.449
 5565SOL    HW217595   3.023   2.112   6.454
 5566SOL     OW17596   1.436   5.301   5.523
 5566SOL    HW117597   1.434   5.266   5.429
 5566SOL    HW217598   1.491   5.240   5.581
 5567SOL     OW17599   1.325   5.260   6.621
 5567SOL    HW117600   1.369   5.256   6.532
 5567SOL    HW217601   1.277   5.348   6.631
 5568SOL     OW17602   4.886   5.440   2.056
 5568SOL    HW117603   4.834   5.369   2.104
 5568SOL    HW217604   4.984   5.418   2.059
 5569SOL     OW17605   1.726   2.305   2.862
 5569SOL    HW117606   1.743   2.319   2.960
 5569SOL    HW217607   1.802   2.343   2.809
 5570SOL     OW17608   0.377   3.483   1.166
 5570SOL    HW117609   0.292   3.443   1.131
 5570SOL    HW217610   0.404   3.436   1.250
 5571SOL     OW17611   6.561   4.626   6.671
 5571SOL    HW117612   6.579   4.724   6.676
 5571SOL    HW217613   6.637   4.580   6.627
 5572SOL     OW17614   1.019   4.627   5.660
 5572SOL    HW117615   1.070   4.629   5.747
 5572SOL    HW217616   0.934   4.678   5.670
 5573SOL     OW17617   3.177   4.942   3.252
 5573SOL    HW117618   3.221   4.981   3.333
 5573SOL    HW217619   3.244   4.936   3.178
 5574SOL     OW17620   1.356   1.184   6.036
 5574SOL    HW117621   1.341   1.235   5.951
 5574SOL    HW217622   1.343   1.246   6.114
 5575SOL     OW17623   0.459   0.539   1.546
 5575SOL    HW117624   0.559   0.543   1.548
 5575SOL    HW217625   0.429   0.512   1.455
 5576SOL     OW17626   2.088   5.235   3.186
 5576SOL    HW117627   2.110   5.193   3.274
 5576SOL    HW217628   1.989   5.233   3.172
 5577SOL     OW17629   3.413   1.941   6.429
 5577SOL    HW117630   3.400   2.023   6.373
 5577SOL    HW217631   3.463   1.965   6.512
 5578SOL     OW17632   4.051   3.784   3.561
 5578SOL    HW117633   4.131   3.838   3.532
 5578SOL    HW217634   4.050   3.777   3.661
 5579SOL     OW17635   6.068   3.029   1.598
 5579SOL    HW117636   6.106   2.993   1.513
 5579SOL    HW217637   5.985   2.978   1.622
 5580SOL     OW17638   5.600   1.993   6.136
 5580SOL    HW117639   5.569   1.944   6.218
 5580SOL    HW217640   5.652   2.074   6.162
 5581SOL     OW17641   1.547   0.893   5.492
 5581SOL    HW117642   1.527   0.958   5.565
 5581SOL    HW217643   1.469   0.888   5.429
 5582SOL     OW17644   2.766   2.873   6.145
 5582SOL    HW117645   2.733   2.817   6.069
 5582SOL    HW217646   2.747   2.969   6.126
 5583SOL     OW17647   5.769   6.966   1.167
 5583SOL    HW117648   5.785   0.038   1.123
 5583SOL    HW217649   5.691   6.921   1.125
 5584SOL     OW17650   0.584   3.539   4.988
 5584SOL    HW117651   0.657   3.574   4.929
 5584SOL    HW217652   0.554   3.611   5.050
 5585SOL     OW17653   6.192   5.045   1.278
 5585SOL    HW117654   6.158   4.960   1.238
 5585SOL    HW217655   6.158   5.055   1.371
 5586SOL     OW17656   1.220   6.254   1.805
 5586SOL    HW117657   1.246   6.204   1.888
 5586SOL    HW217658   1.165   6.334   1.831
 5587SOL     OW17659   5.740   1.454   4.910
 5587SOL    HW117660   5.807   1.461   4.836
 5587SOL    HW217661   5.758   1.371   4.963
 5588SOL     OW17662   3.441   6.713   1.119
 5588SOL    HW117663   3.441   6.806   1.158
 5588SOL    HW217664   3.514   6.706   1.051
 5589SOL     OW17665   0.553   4.835   5.676
 5589SOL    HW117666   0.545   4.933   5.693
 5589SOL    HW217667   0.463   4.792   5.682
 5590SOL     OW17668   5.547   5.335   3.186
 5590SOL    HW117669   5.486   5.275   3.135
 5590SOL    HW217670   5.515   5.343   3.281
 5591SOL     OW17671   4.873   1.277   2.835
 5591SOL    HW117672   4.886   1.361   2.783
 5591SOL    HW217673   4.832   1.207   2.776
 5592SOL     OW17674   6.919   5.442   4.776
 5592SOL    HW117675   6.936   5.517   4.839
 5592SOL    HW217676   6.824   5.413   4.783
 5593SOL     OW17677   1.977   4.278   1.050
 5593SOL    HW117678   1.910   4.285   1.124
 5593SOL    HW217679   2.069   4.282   1.089
 5594SOL     OW17680   5.723   6.849   5.567
 5594SOL    HW117681   5.818   6.860   5.538
 5594SOL    HW217682   5.688   6.762   5.533
 5595SOL     OW17683   0.056   1.733   0.917
 5595SOL    HW117684   0.054   1.823   0.960
 5595SOL    HW217685   0.150   1.700   0.912
 5596SOL     OW17686   4.360   6.420   3.142
 5596SOL    HW117687   4.442   6.368   3.169
 5596SOL    HW217688   4.283   6.357   3.131
 5597SOL     OW17689   4.853   3.150   2.233
 5597SOL    HW117690   4.810   3.136   2.143
 5597SOL    HW217691   4.891   3.242   2.238
 5598SOL     OW17692   3.083   0.491   3.998
 5598SOL    HW117693   3.081   0.407   3.942
 5598SOL    HW217694   2.994   0.536   3.993
 5599SOL     OW17695   0.955   1.742   3.548
 5599SOL    HW117696   0.985   1.719   3.641
 5599SOL    HW217697   0.861   1.711   3.534
 5600SOL     OW17698   2.674   2.712   5.516
 5600SOL    HW117699   2.619   2.784   5.473
 5600SOL    HW217700   2.625   2.675   5.595
 5601SOL     OW17701   1.735   0.403   6.356
 5601SOL    HW117702   1.637   0.420   6.368
 5601SOL    HW217703   1.748   0.331   6.288
 5602SOL     OW17704   2.034   1.079   0.240
 5602SOL    HW117705   2.035   1.071   0.340
 5602SOL    HW217706   1.941   1.061   0.206
 5603SOL     OW17707   6.748   3.157   5.216
 5603SOL    HW117708   6.782   3.251   5.225
 5603SOL    HW217709   6.697   3.149   5.130
 5604SOL     OW17710   5.327   0.856   6.420
 5604SOL    HW117711   5.363   0.765   6.438
 5604SOL    HW217712   5.403   0.917   6.395
 5605SOL     OW17713   1.439   1.491   6.503
 5605SOL    HW117714   1.349   1.492   6.459
 5605SOL    HW217715   1.437   1.546   6.586
 5606SOL     OW17716   6.019   6.858   2.939
 5606SOL    HW117717   5.919   6.868   2.947
 5606SOL    HW217718   6.044   6.853   2.843
 5607SOL     OW17719   5.009   6.836   0.920
 5607SOL    HW117720   5.059   6.752   0.898
 5607SOL    HW217721   5.030   6.863   1.014
 5608SOL     OW17722   3.721   6.189   5.308
 5608SOL    HW117723   3.698   6.092   5.312
 5608SOL    HW217724   3.716   6.229   5.399
 5609SOL     OW17725   1.616   5.973   4.869
 5609SOL    HW117726   1.523   5.998   4.843
 5609SOL    HW217727   1.624   5.976   4.969
 5610SOL     OW17728   5.345   6.855   6.645
 5610SOL    HW117729   5.373   6.950   6.633
 5610SOL    HW217730   5.351   6.831   6.742
 5611SOL     OW17731   1.657   4.609   4.083
 5611SOL    HW117732   1.635   4.662   4.165
 5611SOL    HW217733   1.751   4.628   4.055
 5612SOL     OW17734   3.814   6.375   4.587
 5612SOL    HW117735   3.726   6.357   4.630
 5612SOL    HW217736   3.805   6.369   4.487
 5613SOL     OW17737   2.723   5.429   2.648
 5613SOL    HW117738   2.680   5.412   2.559
 5613SOL    HW217739   2.791   5.358   2.667
 5614SOL     OW17740   5.073   2.056   4.384
 5614SOL    HW117741   5.017   1.995   4.326
 5614SOL    HW217742   5.016   2.093   4.457
 5615SOL     OW17743   1.108   1.689   1.772
 5615SOL    HW117744   1.177   1.650   1.711
 5615SOL    HW217745   1.126   1.658   1.866
 5616SOL     OW17746   2.859   6.583   4.920
 5616SOL    HW117747   2.944   6.530   4.918
 5616SOL    HW217748   2.787   6.529   4.964
 5617SOL     OW17749   0.495   1.135   5.903
 5617SOL    HW117750   0.546   1.051   5.922
 5617SOL    HW217751   0.399   1.112   5.886
 5618SOL     OW17752   6.270   5.129   3.591
 5618SOL    HW117753   6.295   5.040   3.552
 5618SOL    HW217754   6.171   5.142   3.582
 5619SOL     OW17755   2.147   2.946   4.343
 5619SOL    HW117756   2.078   2.885   4.382
 5619SOL    HW217757   2.153   2.930   4.244
 5620SOL     OW17758   5.454   1.893   6.394
 5620SOL    HW117759   5.445   1.976   6.338
 5620SOL    HW217760   5.550   1.878   6.418
 5621SOL     OW17761   2.882   1.610   5.027
 5621SOL    HW117762   2.900   1.709   5.027
 5621SOL    HW217763   2.967   1.561   5.043
 5622SOL     OW17764   5.504   1.547   4.966
 5622SOL    HW117765   5.580   1.489   4.938
 5622SOL    HW217766   5.517   1.575   5.061
 5623SOL     OW17767   0.410   6.390   6.475
 5623SOL    HW117768   0.442   6.301   6.508
 5623SOL    HW217769   0.318   6.381   6.438
 5624SOL     OW17770   1.205   4.198   2.922
 5624SOL    HW117771   1.286   4.218   2.977
 5624SOL    HW217772   1.227   4.128   2.854
 5625SOL     OW17773   6.616   1.768   5.871
 5625SOL    HW117774   6.604   1.692   5.807
 5625SOL    HW217775   6.622   1.854   5.820
 5626SOL     OW17776   5.677   6.594   5.456
 5626SOL    HW117777   5.742   6.547   5.515
 5626SOL    HW217778   5.714   6.599   5.363
 5627SOL     OW17779   1.418   0.362   1.787
 5627SOL    HW117780   1.506   0.367   1.740
 5627SOL    HW217781   1.367   0.447   1.771
 5628SOL     OW17782   1.123   2.034   4.259
 5628SOL    HW117783   1.120   2.132   4.241
 5628SOL    HW217784   1.216   2.008   4.286
 5629SOL     OW17785   3.692   3.487   3.461
 5629SOL    HW117786   3.718   3.583   3.459
 5629SOL    HW217787   3.733   3.442   3.540
 5630SOL     OW17788   6.389   3.734   1.105
 5630SOL    HW117789   6.327   3.777   1.171
 5630SOL    HW217790   6.408   3.799   1.031
 5631SOL     OW17791   6.176   1.018   5.923
 5631SOL    HW117792   6.110   0.981   5.858
 5631SOL    HW217793   6.241   0.947   5.949
 5632SOL     OW17794   3.459   2.333   0.957
 5632SOL    HW117795   3.555   2.344   0.931
 5632SOL    HW217796   3.454   2.299   1.051
 5633SOL     OW17797   0.217   2.856   5.867
 5633SOL    HW117798   0.228   2.845   5.966
 5633SOL    HW217799   0.142   2.800   5.835
 5634SOL     OW17800   4.817   5.628   5.363
 5634SOL    HW117801   4.896   5.689   5.360
 5634SOL    HW217802   4.806   5.582   5.275
 5635SOL     OW17803   2.790   1.620   6.783
 5635SOL    HW117804   2.786   1.557   6.861
 5635SOL    HW217805   2.698   1.656   6.764
 5636SOL     OW17806   4.360   0.821   4.269
 5636SOL    HW117807   4.343   0.783   4.177
 5636SOL    HW217808   4.281   0.802   4.327
 5637SOL     OW17809   5.843   6.740   2.385
 5637SOL    HW117810   5.851   6.646   2.419
 5637SOL    HW217811   5.816   6.800   2.459
 5638SOL     OW17812   0.471   3.439   0.194
 5638SOL    HW117813   0.429   3.349   0.183
 5638SOL    HW217814   0.568   3.433   0.167
 5639SOL     OW17815   4.360   6.952   6.532
 5639SOL    HW117816   4.459   6.967   6.534
 5639SOL    HW217817   4.323   6.959   6.625
 5640SOL     OW17818   1.387   0.147   3.429
 5640SOL    HW117819   1.421   0.241   3.442
 5640SOL    HW217820   1.407   0.117   3.336
 5641SOL     OW17821   6.791   5.895   4.901
 5641SOL    HW117822   6.889   5.903   4.919
 5641SOL    HW217823   6.777   5.828   4.828
 5642SOL     OW17824   1.553   0.528   0.314
 5642SOL    HW117825   1.508   0.501   0.399
 5642SOL    HW217826   1.484   0.546   0.244
 5643SOL     OW17827   4.945   2.323   0.044
 5643SOL    HW117828   4.995   2.295   6.978
 5643SOL    HW217829   4.908   2.242   0.089
 5644SOL     OW17830   2.683   0.304   5.619
 5644SOL    HW117831   2.750   0.336   5.552
 5644SOL    HW217832   2.680   0.369   5.695
 5645SOL     OW17833   4.880   3.733   3.996
 5645SOL    HW117834   4.951   3.801   3.978
 5645SOL    HW217835   4.899   3.651   3.941
 5646SOL     OW17836   1.337   4.672   2.758
 5646SOL    HW117837   1.364   4.729   2.680
 5646SOL    HW217838   1.244   4.695   2.786
 5647SOL     OW17839   4.245   5.578   2.783
 5647SOL    HW117840   4.282   5.552   2.872
 5647SOL    HW217841   4.228   5.495   2.729
 5648SOL     OW17842   5.255   6.565   3.298
 5648SOL    HW117843   5.312   6.551   3.379
 5648SOL    HW217844   5.310   6.552   3.215
 5649SOL     OW17845   0.488   0.717   4.693
 5649SOL    HW117846   0.528   0.702   4.783
 5649SOL    HW217847   0.441   0.634   4.663
 5650SOL     OW17848   0.440   3.657   6.197
 5650SOL    HW117849   0.450   3.730   6.129
 5650SOL    HW217850   0.504   3.584   6.176
 5651SOL     OW17851   3.022   1.143   1.935
 5651SOL    HW117852   3.030   1.095   1.847
 5651SOL    HW217853   2.947   1.209   1.930
 5652SOL     OW17854   0.449   5.948   1.955
 5652SOL    HW117855   0.420   5.914   1.865
 5652SOL    HW217856   0.547   5.931   1.967
 5653SOL     OW17857   7.004   0.418   2.541
 5653SOL    HW117858   6.941   0.390   2.614
 5653SOL    HW217859   6.974   0.505   2.502
 5654SOL     OW17860   3.185   5.956   5.957
 5654SOL    HW117861   3.276   5.944   5.916
 5654SOL    HW217862   3.188   6.033   6.021
 5655SOL     OW17863   6.531   3.185   4.076
 5655SOL    HW117864   6.451   3.134   4.047
 5655SOL    HW217865   6.513   3.226   4.166
 5656SOL     OW17866   0.411   4.927   1.899
 5656SOL    HW117867   0.435   4.961   1.990
 5656SOL    HW217868   0.494   4.910   1.846
 5657SOL     OW17869   5.892   6.168   5.708
 5657SOL    HW117870   5.965   6.194   5.771
 5657SOL    HW217871   5.921   6.090   5.653
 5658SOL     OW17872   2.997   2.588   5.348
 5658SOL    HW117873   3.062   2.521   5.311
 5658SOL    HW217874   2.957   2.640   5.273
 5659SOL     OW17875   2.541   4.165   5.496
 5659SOL    HW117876   2.504   4.184   5.587
 5659SOL    HW217877   2.475   4.193   5.427
 5660SOL     OW17878   4.131   0.764   4.412
 5660SOL    HW117879   4.134   0.727   4.504
 5660SOL    HW217880   4.038   0.755   4.375
 5661SOL     OW17881   0.332   5.918   5.819
 5661SOL    HW117882   0.418   5.879   5.851
 5661SOL    HW217883   0.349   6.003   5.770
 5662SOL     OW17884   2.823   5.743   0.910
 5662SOL    HW117885   2.920   5.734   0.887
 5662SOL    HW217886   2.785   5.823   0.865
 5663SOL     OW17887   3.429   1.680   6.367
 5663SOL    HW117888   3.445   1.777   6.386
 5663SOL    HW217889   3.474   1.625   6.438
 5664SOL     OW17890   4.898   6.020   5.003
 5664SOL    HW117891   4.987   6.003   4.960
 5664SOL    HW217892   4.852   6.094   4.955
 5665SOL     OW17893   2.214   0.914   0.595
 5665SOL    HW117894   2.304   0.957   0.590
 5665SOL    HW217895   2.179   0.920   0.689
 5666SOL     OW17896   5.986   3.321   5.036
 5666SOL    HW117897   5.892   3.308   5.006
 5666SOL    HW217898   6.049   3.284   4.968
 5667SOL     OW17899   2.571   4.752   4.051
 5667SOL    HW117900   2.506   4.680   4.075
 5667SOL    HW217901   2.589   4.748   3.952
 5668SOL     OW17902   4.451   4.638   3.891
 5668SOL    HW117903   4.470   4.735   3.909
 5668SOL    HW217904   4.372   4.630   3.831
 5669SOL     OW17905   5.836   3.652   5.842
 5669SOL    HW117906   5.849   3.589   5.918
 5669SOL    HW217907   5.853   3.746   5.873
 5670SOL     OW17908   0.768   3.390   4.428
 5670SOL    HW117909   0.726   3.306   4.395
 5670SOL    HW217910   0.728   3.415   4.516
 5671SOL     OW17911   5.883   6.071   2.783
 5671SOL    HW117912   5.970   6.033   2.814
 5671SOL    HW217913   5.810   6.003   2.796
 5672SOL     OW17914   6.058   3.190   4.787
 5672SOL    HW117915   5.973   3.156   4.746
 5672SOL    HW217916   6.085   3.274   4.741
 5673SOL     OW17917   1.129   2.271   0.532
 5673SOL    HW117918   1.108   2.354   0.583
 5673SOL    HW217919   1.223   2.275   0.498
 5674SOL     OW17920   3.318   5.399   5.183
 5674SOL    HW117921   3.317   5.498   5.190
 5674SOL    HW217922   3.317   5.359   5.275
 5675SOL     OW17923   3.649   1.811   0.876
 5675SOL    HW117924   3.674   1.863   0.957
 5675SOL    HW217925   3.725   1.751   0.851
 5676SOL     OW17926   3.817   1.467   1.933
 5676SOL    HW117927   3.803   1.394   2.000
 5676SOL    HW217928   3.787   1.554   1.972
 5677SOL     OW17929   1.521   1.075   5.723
 5677SOL    HW117930   1.464   1.157   5.731
 5677SOL    HW217931   1.616   1.099   5.744
 5678SOL     OW17932   3.946   1.838   1.962
 5678SOL    HW117933   3.867   1.790   2.002
 5678SOL    HW217934   3.934   1.936   1.975
 5679SOL     OW17935   1.119   3.964   5.837
 5679SOL    HW117936   1.094   3.911   5.756
 5679SOL    HW217937   1.211   4.002   5.824
 5680SOL     OW17938   0.952   6.031   4.204
 5680SOL    HW117939   0.964   5.933   4.219
 5680SOL    HW217940   0.857   6.056   4.223
 5681SOL     OW17941   1.748   3.600   2.957
 5681SOL    HW117942   1.713   3.556   3.040
 5681SOL    HW217943   1.674   3.611   2.891
 5682SOL     OW17944   1.923   4.592   0.111
 5682SOL    HW117945   1.927   4.680   0.063
 5682SOL    HW217946   2.013   4.550   0.112
 5683SOL     OW17947   6.672   6.209   6.051
 5683SOL    HW117948   6.763   6.250   6.048
 5683SOL    HW217949   6.657   6.157   5.966
 5684SOL     OW17950   2.141   3.517   4.304
 5684SOL    HW117951   2.158   3.494   4.400
 5684SOL    HW217952   2.161   3.437   4.247
 5685SOL     OW17953   2.020   2.255   1.670
 5685SOL    HW117954   2.115   2.226   1.674
 5685SOL    HW217955   2.010   2.345   1.713
 5686SOL     OW17956   5.724   5.573   5.738
 5686SOL    HW117957   5.674   5.565   5.651
 5686SOL    HW217958   5.666   5.621   5.805
 5687SOL     OW17959   1.444   0.435   6.460
 5687SOL    HW117960   1.460   0.355   6.517
 5687SOL    HW217961   1.353   0.430   6.419
 5688SOL     OW17962   1.369   3.053   2.335
 5688SOL    HW117963   1.429   3.133   2.336
 5688SOL    HW217964   1.337   3.035   2.428
 5689SOL     OW17965   0.293   1.538   0.993
 5689SOL    HW117966   0.327   1.625   1.028
 5689SOL    HW217967   0.345   1.463   1.032
 5690SOL     OW17968   3.284   5.420   0.186
 5690SOL    HW117969   3.221   5.343   0.175
 5690SOL    HW217970   3.371   5.386   0.222
 5691SOL     OW17971   4.902   3.159   3.397
 5691SOL    HW117972   4.965   3.135   3.471
 5691SOL    HW217973   4.911   3.257   3.376
 5692SOL     OW17974   6.294   4.594   1.957
 5692SOL    HW117975   6.394   4.594   1.959
 5692SOL    HW217976   6.260   4.521   2.017
 5693SOL     OW17977   3.012   0.890   2.270
 5693SOL    HW117978   3.025   0.899   2.369
 5693SOL    HW217979   2.917   0.911   2.247
 5694SOL     OW17980   0.006   6.381   1.155
 5694SOL    HW117981   0.083   6.318   1.153
 5694SOL    HW217982   0.033   6.466   1.201
 5695SOL     OW17983   1.818   0.766   2.326
 5695SOL    HW117984   1.863   0.699   2.266
 5695SOL    HW217985   1.808   0.727   2.417
 5696SOL     OW17986   6.847   0.977   3.502
 5696SOL    HW117987   6.774   0.948   3.564
 5696SOL    HW217988   6.820   0.956   3.408
 5697SOL     OW17989   5.902   1.765   0.387
 5697SOL    HW117990   5.982   1.709   0.406
 5697SOL    HW217991   5.856   1.789   0.472
 5698SOL     OW17992   2.966   2.146   3.068
 5698SOL    HW117993   3.014   2.145   3.155
 5698SOL    HW217994   3.032   2.151   2.993
 5699SOL     OW17995   2.410   2.726   2.479
 5699SOL    HW117996   2.471   2.802   2.501
 5699SOL    HW217997   2.315   2.755   2.493
 5700SOL     OW17998   5.680   0.721   2.162
 5700SOL    HW117999   5.721   0.766   2.083
 5700SOL    HW218000   5.712   0.626   2.168
 5701SOL     OW18001   2.130   0.916   0.853
 5701SOL    HW118002   2.165   0.976   0.925
 5701SOL    HW218003   2.031   0.925   0.846
 5702SOL     OW18004   1.313   6.055   4.552
 5702SOL    HW118005   1.373   5.990   4.505
 5702SOL    HW218006   1.349   6.147   4.543
 5703SOL     OW18007   1.032   3.279   6.108
 5703SOL    HW118008   1.117   3.313   6.068
 5703SOL    HW218009   0.957   3.290   6.043
 5704SOL     OW18010   4.357   5.598   4.499
 5704SOL    HW118011   4.307   5.514   4.480
 5704SOL    HW218012   4.297   5.677   4.485
 5705SOL     OW18013   6.116   1.406   4.929
 5705SOL    HW118014   6.040   1.448   4.878
 5705SOL    HW218015   6.166   1.345   4.868
 5706SOL     OW18016   5.522   0.835   1.607
 5706SOL    HW118017   5.500   0.884   1.523
 5706SOL    HW218018   5.441   0.833   1.666
 5707SOL     OW18019   6.020   5.964   1.528
 5707SOL    HW118020   5.962   6.024   1.582
 5707SOL    HW218021   5.976   5.875   1.517
 5708SOL     OW18022   4.642   6.611   1.989
 5708SOL    HW118023   4.546   6.616   1.962
 5708SOL    HW218024   4.699   6.618   1.907
 5709SOL     OW18025   6.507   2.306   2.518
 5709SOL    HW118026   6.481   2.369   2.445
 5709SOL    HW218027   6.429   2.292   2.580
 5710SOL     OW18028   5.619   1.461   0.789
 5710SOL    HW118029   5.532   1.420   0.762
 5710SOL    HW218030   5.681   1.389   0.822
 5711SOL     OW18031   4.142   1.452   2.835
 5711SOL    HW118032   4.120   1.516   2.908
 5711SOL    HW218033   4.112   1.360   2.861
 5712SOL     OW18034   6.651   5.724   6.647
 5712SOL    HW118035   6.622   5.715   6.742
 5712SOL    HW218036   6.579   5.688   6.587
 5713SOL     OW18037   1.321   1.304   0.399
 5713SOL    HW118038   1.406   1.355   0.385
 5713SOL    HW218039   1.285   1.274   0.311
 5714SOL     OW18040   5.008   0.504   1.075
 5714SOL    HW118041   5.074   0.461   1.137
 5714SOL    HW218042   4.964   0.581   1.122
 5715SOL     OW18043   0.349   6.022   0.777
 5715SOL    HW118044   0.369   6.120   0.783
 5715SOL    HW218045   0.327   5.987   0.869
 5716SOL     OW18046   7.012   4.841   5.739
 5716SOL    HW118047   0.050   4.907   5.790
 5716SOL    HW218048   6.935   4.810   5.794
 5717SOL     OW18049   6.917   6.172   2.676
 5717SOL    HW118050   6.843   6.145   2.613
 5717SOL    HW218051   6.999   6.194   2.623
 5718SOL     OW18052   1.651   4.677   6.165
 5718SOL    HW118053   1.734   4.641   6.121
 5718SOL    HW218054   1.578   4.609   6.160
 5719SOL     OW18055   3.530   3.491   1.435
 5719SOL    HW118056   3.485   3.469   1.521
 5719SOL    HW218057   3.518   3.416   1.370
 5720SOL     OW18058   2.563   4.025   6.777
 5720SOL    HW118059   2.479   3.991   6.820
 5720SOL    HW218060   2.642   3.976   6.813
 5721SOL     OW18061   0.678   3.016   0.607
 5721SOL    HW118062   0.590   3.024   0.652
 5721SOL    HW218063   0.720   2.929   0.632
 5722SOL     OW18064   1.801   0.741   5.965
 5722SOL    HW118065   1.798   0.645   5.940
 5722SOL    HW218066   1.874   0.787   5.915
 5723SOL     OW18067   4.608   3.926   0.488
 5723SOL    HW118068   4.589   4.013   0.442
 5723SOL    HW218069   4.566   3.852   0.437
 5724SOL     OW18070   6.660   1.679   6.385
 5724SOL    HW118071   6.592   1.729   6.440
 5724SOL    HW218072   6.658   1.714   6.291
 5725SOL     OW18073   6.640   4.282   4.588
 5725SOL    HW118074   6.572   4.272   4.516
 5725SOL    HW218075   6.697   4.362   4.569
 5726SOL     OW18076   4.139   4.629   1.938
 5726SOL    HW118077   4.174   4.723   1.929
 5726SOL    HW218078   4.214   4.568   1.965
 5727SOL     OW18079   1.063   3.034   6.241
 5727SOL    HW118080   1.029   3.109   6.184
 5727SOL    HW218081   1.098   3.071   6.327
 5728SOL     OW18082   2.040   5.876   3.827
 5728SOL    HW118083   2.099   5.937   3.879
 5728SOL    HW218084   1.957   5.925   3.800
 5729SOL     OW18085   2.749   1.742   4.686
 5729SOL    HW118086   2.672   1.767   4.744
 5729SOL    HW218087   2.717   1.723   4.593
 5730SOL     OW18088   6.326   4.890   4.349
 5730SOL    HW118089   6.416   4.883   4.393
 5730SOL    HW218090   6.332   4.951   4.270
 5731SOL     OW18091   6.983   6.642   2.488
 5731SOL    HW118092   0.043   6.703   2.466
 5731SOL    HW218093   6.937   6.674   2.570
 5732SOL     OW18094   5.210   0.466   3.629
 5732SOL    HW118095   5.184   0.484   3.534
 5732SOL    HW218096   5.129   0.441   3.682
 5733SOL     OW18097   2.898   0.774   5.222
 5733SOL    HW118098   2.835   0.806   5.151
 5733SOL    HW218099   2.846   0.728   5.295
 5734SOL     OW18100   1.907   6.379   4.221
 5734SOL    HW118101   1.989   6.422   4.258
 5734SOL    HW218102   1.849   6.347   4.297
 5735SOL     OW18103   2.397   0.828   1.623
 5735SOL    HW118104   2.399   0.923   1.651
 5735SOL    HW218105   2.302   0.797   1.614
 5736SOL     OW18106   1.672   4.583   1.254
 5736SOL    HW118107   1.595   4.527   1.224
 5736SOL    HW218108   1.684   4.572   1.353
 5737SOL     OW18109   6.046   3.768   0.206
 5737SOL    HW118110   5.973   3.835   0.194
 5737SOL    HW218111   6.131   3.815   0.229
 5738SOL     OW18112   1.027   5.739   4.251
 5738SOL    HW118113   0.980   5.654   4.274
 5738SOL    HW218114   1.055   5.786   4.335
 5739SOL     OW18115   1.039   2.310   0.827
 5739SOL    HW118116   1.123   2.256   0.825
 5739SOL    HW218117   0.974   2.269   0.890
 5740SOL     OW18118   4.315   4.897   0.172
 5740SOL    HW118119   4.337   4.805   0.203
 5740SOL    HW218120   4.373   4.963   0.219
 5741SOL     OW18121   0.026   2.287   2.019
 5741SOL    HW118122   6.970   2.356   2.014
 5741SOL    HW218123   0.113   2.329   1.995
 5742SOL     OW18124   0.155   5.275   3.573
 5742SOL    HW118125   0.073   5.333   3.576
 5742SOL    HW218126   0.139   5.192   3.626
 5743SOL     OW18127   0.898   0.880   4.928
 5743SOL    HW118128   0.909   0.842   5.020
 5743SOL    HW218129   0.802   0.872   4.900
 5744SOL     OW18130   6.081   0.550   2.343
 5744SOL    HW118131   6.136   0.468   2.361
 5744SOL    HW218132   6.082   0.610   2.422
 5745SOL     OW18133   6.599   3.664   2.402
 5745SOL    HW118134   6.507   3.683   2.369
 5745SOL    HW218135   6.640   3.748   2.438
 5746SOL     OW18136   0.546   3.419   6.122
 5746SOL    HW118137   0.589   3.350   6.180
 5746SOL    HW218138   0.533   3.381   6.030
 5747SOL     OW18139   6.560   6.192   3.858
 5747SOL    HW118140   6.611   6.128   3.801
 5747SOL    HW218141   6.540   6.275   3.806
 5748SOL     OW18142   1.287   1.489   4.211
 5748SOL    HW118143   1.243   1.569   4.170
 5748SOL    HW218144   1.384   1.507   4.224
 5749SOL     OW18145   0.470   1.603   2.866
 5749SOL    HW118146   0.478   1.625   2.963
 5749SOL    HW218147   0.529   1.524   2.845
 5750SOL     OW18148   4.143   6.192   2.736
 5750SOL    HW118149   4.191   6.186   2.648
 5750SOL    HW218150   4.148   6.285   2.771
 5751SOL     OW18151   1.185   1.916   6.829
 5751SOL    HW118152   1.260   1.849   6.824
 5751SOL    HW218153   1.136   1.917   6.742
 5752SOL     OW18154   2.028   0.839   6.797
 5752SOL    HW118155   2.107   0.900   6.802
 5752SOL    HW218156   1.976   0.845   6.882
 5753SOL     OW18157   4.193   1.643   6.307
 5753SOL    HW118158   4.107   1.664   6.352
 5753SOL    HW218159   4.193   1.548   6.275
 5754SOL     OW18160   6.090   5.924   0.470
 5754SOL    HW118161   6.182   5.886   0.461
 5754SOL    HW218162   6.024   5.849   0.478
 5755SOL     OW18163   3.256   3.747   2.143
 5755SOL    HW118164   3.317   3.797   2.203
 5755SOL    HW218165   3.307   3.713   2.064
 5756SOL     OW18166   6.066   7.012   3.921
 5756SOL    HW118167   6.007   7.003   3.840
 5756SOL    HW218168   6.026   0.062   3.984
 5757SOL     OW18169   6.595   6.923   1.881
 5757SOL    HW118170   6.650   6.840   1.888
 5757SOL    HW218171   6.639   6.988   1.820
 5758SOL     OW18172   2.821   0.727   5.819
 5758SOL    HW118173   2.821   0.817   5.775
 5758SOL    HW218174   2.727   0.695   5.828
 5759SOL     OW18175   0.510   1.160   5.575
 5759SOL    HW118176   0.563   1.078   5.552
 5759SOL    HW218177   0.569   1.226   5.622
 5760SOL     OW18178   6.473   5.561   2.035
 5760SOL    HW118179   6.457   5.532   2.129
 5760SOL    HW218180   6.428   5.649   2.019
 5761SOL     OW18181   3.607   0.616   4.486
 5761SOL    HW118182   3.657   0.537   4.449
 5761SOL    HW218183   3.528   0.635   4.429
 5762SOL     OW18184   4.788   0.413   1.384
 5762SOL    HW118185   4.779   0.501   1.339
 5762SOL    HW218186   4.884   0.389   1.392
 5763SOL     OW18187   3.778   0.985   1.220
 5763SOL    HW118188   3.762   1.053   1.292
 5763SOL    HW218189   3.797   1.031   1.134
 5764SOL     OW18190   3.535   2.898   6.606
 5764SOL    HW118191   3.589   2.859   6.680
 5764SOL    HW218192   3.455   2.945   6.644
 5765SOL     OW18193   6.856   4.835   6.262
 5765SOL    HW118194   6.797   4.909   6.231
 5765SOL    HW218195   6.940   4.873   6.300
 5766SOL     OW18196   2.252   1.650   3.506
 5766SOL    HW118197   2.154   1.661   3.521
 5766SOL    HW218198   2.271   1.655   3.407
 5767SOL     OW18199   4.699   6.187   0.211
 5767SOL    HW118200   4.728   6.260   0.150
 5767SOL    HW218201   4.779   6.137   0.244
 5768SOL     OW18202   5.719   6.998   2.266
 5768SOL    HW118203   5.653   0.045   2.225
 5768SOL    HW218204   5.728   0.001   2.364
 5769SOL     OW18205   6.806   5.038   3.665
 5769SOL    HW118206   6.889   5.063   3.715
 5769SOL    HW218207   6.830   5.013   3.571
 5770SOL     OW18208   5.145   2.730   0.899
 5770SOL    HW118209   5.188   2.710   0.811
 5770SOL    HW218210   5.050   2.759   0.883
 5771SOL     OW18211   0.780   0.358   1.310
 5771SOL    HW118212   0.841   0.291   1.352
 5771SOL    HW218213   0.692   0.316   1.290
 5772SOL     OW18214   6.045   5.176   5.697
 5772SOL    HW118215   6.008   5.256   5.649
 5772SOL    HW218216   6.003   5.168   5.787
 5773SOL     OW18217   5.196   6.238   5.478
 5773SOL    HW118218   5.188   6.260   5.575
 5773SOL    HW218219   5.125   6.286   5.426
 5774SOL     OW18220   1.704   4.434   1.520
 5774SOL    HW118221   1.648   4.358   1.487
 5774SOL    HW218222   1.784   4.398   1.569
 5775SOL     OW18223   1.442   1.122   0.662
 5775SOL    HW118224   1.344   1.136   0.666
 5775SOL    HW218225   1.462   1.024   0.672
 5776SOL     OW18226   5.073   0.831   5.784
 5776SOL    HW118227   5.013   0.910   5.786
 5776SOL    HW218228   5.026   0.751   5.821
 5777SOL     OW18229   4.886   6.635   4.825
 5777SOL    HW118230   4.961   6.695   4.854
 5777SOL    HW218231   4.809   6.643   4.889
 5778SOL     OW18232   2.428   6.638   3.528
 5778SOL    HW118233   2.397   6.733   3.539
 5778SOL    HW218234   2.509   6.623   3.584
 5779SOL     OW18235   3.417   6.500   2.238
 5779SOL    HW118236   3.352   6.562   2.195
 5779SOL    HW218237   3.405   6.501   2.337
 5780SOL     OW18238   6.948   4.704   7.009
 5780SOL    HW118239   6.865   4.665   6.969
 5780SOL    HW218240   6.978   4.646   0.069
 5781SOL     OW18241   4.860   4.869   5.439
 5781SOL    HW118242   4.884   4.839   5.347
 5781SOL    HW218243   4.898   4.960   5.456
 5782SOL     OW18244   4.715   1.843   2.615
 5782SOL    HW118245   4.703   1.764   2.554
 5782SOL    HW218246   4.807   1.839   2.654
 5783SOL     OW18247   3.164   6.413   3.708
 5783SOL    HW118248   3.109   6.445   3.630
 5783SOL    HW218249   3.145   6.316   3.724
 5784SOL     OW18250   0.074   6.633   2.128
 5784SOL    HW118251   0.159   6.589   2.156
 5784SOL    HW218252   0.069   6.724   2.168
 5785SOL     OW18253   2.822   0.980   5.730
 5785SOL    HW118254   2.812   1.014   5.636
 5785SOL    HW218255   2.910   1.010   5.767
 5786SOL     OW18256   2.253   1.286   6.197
 5786SOL    HW118257   2.187   1.261   6.125
 5786SOL    HW218258   2.204   1.313   6.279
 5787SOL     OW18259   0.556   2.296   6.135
 5787SOL    HW118260   0.460   2.314   6.157
 5787SOL    HW218261   0.608   2.381   6.144
 5788SOL     OW18262   0.485   2.497   1.869
 5788SOL    HW118263   0.584   2.487   1.856
 5788SOL    HW218264   0.455   2.585   1.835
 5789SOL     OW18265   3.338   1.608   6.724
 5789SOL    HW118266   3.350   1.644   6.817
 5789SOL    HW218267   3.302   1.515   6.729
 5790SOL     OW18268   6.022   6.014   2.535
 5790SOL    HW118269   6.071   6.092   2.496
 5790SOL    HW218270   5.951   6.047   2.596
 5791SOL     OW18271   3.765   0.927   1.780
 5791SOL    HW118272   3.688   0.965   1.728
 5791SOL    HW218273   3.842   0.991   1.777
 5792SOL     OW18274   4.814   1.903   2.302
 5792SOL    HW118275   4.900   1.909   2.354
 5792SOL    HW218276   4.799   1.988   2.252
 5793SOL     OW18277   4.202   1.819   0.459
 5793SOL    HW118278   4.243   1.867   0.537
 5793SOL    HW218279   4.242   1.727   0.452
 5794SOL     OW18280   3.326   6.349   6.861
 5794SOL    HW118281   3.423   6.362   6.839
 5794SOL    HW218282   3.301   6.254   6.847
 5795SOL     OW18283   0.538   6.974   1.723
 5795SOL    HW118284   0.453   6.948   1.770
 5795SOL    HW218285   0.522   0.041   1.670
 5796SOL     OW18286   4.577   1.024   6.002
 5796SOL    HW118287   4.664   0.990   6.037
 5796SOL    HW218288   4.559   1.114   6.041
 5797SOL     OW18289   6.011   1.517   6.425
 5797SOL    HW118290   6.040   1.423   6.446
 5797SOL    HW218291   5.919   1.532   6.460
 5798SOL     OW18292   2.288   2.758   4.620
 5798SOL    HW118293   2.292   2.810   4.706
 5798SOL    HW218294   2.215   2.795   4.563
 5799SOL     OW18295   2.805   0.766   3.524
 5799SOL    HW118296   2.730   0.830   3.508
 5799SOL    HW218297   2.838   0.776   3.618
 5800SOL     OW18298   1.966   6.282   1.386
 5800SOL    HW118299   1.994   6.226   1.308
 5800SOL    HW218300   1.938   6.372   1.355
 5801SOL     OW18301   1.572   2.266   3.267
 5801SOL    HW118302   1.521   2.343   3.229
 5801SOL    HW218303   1.529   2.235   3.351
 5802SOL     OW18304   0.463   6.657   2.410
 5802SOL    HW118305   0.536   6.616   2.464
 5802SOL    HW218306   0.459   6.614   2.320
 5803SOL     OW18307   6.964   6.881   4.357
 5803SOL    HW118308   6.928   6.835   4.438
 5803SOL    HW218309   6.895   6.878   4.284
 5804SOL     OW18310   6.100   2.531   3.184
 5804SOL    HW118311   6.144   2.620   3.200
 5804SOL    HW218312   6.112   2.505   3.088
 5805SOL     OW18313   0.851   1.746   1.679
 5805SOL    HW118314   0.802   1.664   1.651
 5805SOL    HW218315   0.936   1.720   1.725
 5806SOL     OW18316   6.505   3.796   1.692
 5806SOL    HW118317   6.500   3.862   1.767
 5806SOL    HW218318   6.481   3.842   1.606
 5807SOL     OW18319   0.942   0.844   3.042
 5807SOL    HW118320   0.982   0.911   2.979
 5807SOL    HW218321   0.878   0.785   2.992
 5808SOL     OW18322   6.034   5.509   5.912
 5808SOL    HW118323   5.938   5.482   5.924
 5808SOL    HW218324   6.092   5.429   5.917
 5809SOL     OW18325   6.665   3.606   5.319
 5809SOL    HW118326   6.721   3.661   5.381
 5809SOL    HW218327   6.591   3.563   5.371
 5810SOL     OW18328   0.709   6.181   4.856
 5810SOL    HW118329   0.640   6.126   4.809
 5810SOL    HW218330   0.704   6.275   4.825
 5811SOL     OW18331   3.106   5.075   0.200
 5811SOL    HW118332   3.125   5.126   0.284
 5811SOL    HW218333   3.127   5.131   0.121
 5812SOL     OW18334   6.301   2.203   6.069
 5812SOL    HW118335   6.234   2.128   6.070
 5812SOL    HW218336   6.332   2.221   6.162
 5813SOL     OW18337   6.675   5.749   0.782
 5813SOL    HW118338   6.625   5.737   0.697
 5813SOL    HW218339   6.690   5.659   0.825
 5814SOL     OW18340   4.950   1.739   2.693
 5814SOL    HW118341   5.014   1.805   2.654
 5814SOL    HW218342   4.976   1.718   2.788
 5815SOL     OW18343   0.258   4.597   4.670
 5815SOL    HW118344   0.224   4.574   4.578
 5815SOL    HW218345   0.245   4.518   4.730
 5816SOL     OW18346   6.817   3.651   1.337
 5816SOL    HW118347   6.779   3.743   1.339
 5816SOL    HW218348   6.747   3.585   1.365
 5817SOL     OW18349   7.012   2.288   3.439
 5817SOL    HW118350   6.939   2.257   3.377
 5817SOL    HW218351   0.060   2.213   3.455
 5818SOL     OW18352   2.660   1.702   3.772
 5818SOL    HW118353   2.659   1.770   3.844
 5818SOL    HW218354   2.669   1.611   3.812
 5819SOL     OW18355   4.381   4.576   1.520
 5819SOL    HW118356   4.338   4.494   1.556
 5819SOL    HW218357   4.326   4.656   1.542
 5820SOL     OW18358   0.993   6.208   2.263
 5820SOL    HW118359   0.940   6.266   2.325
 5820SOL    HW218360   0.975   6.112   2.284
 5821SOL     OW18361   4.932   6.096   1.714
 5821SOL    HW118362   4.837   6.123   1.728
 5821SOL    HW218363   4.935   6.019   1.650
 5822SOL     OW18364   1.188   4.180   3.365
 5822SOL    HW118365   1.209   4.103   3.304
 5822SOL    HW218366   1.249   4.256   3.343
 5823SOL     OW18367   1.902   6.678   5.110
 5823SOL    HW118368   1.822   6.689   5.052
 5823SOL    HW218369   1.956   6.762   5.109
 5824SOL     OW18370   1.793   5.740   2.204
 5824SOL    HW118371   1.746   5.805   2.264
 5824SOL    HW218372   1.844   5.790   2.134
 5825SOL     OW18373   3.359   2.137   4.415
 5825SOL    HW118374   3.289   2.137   4.487
 5825SOL    HW218375   3.412   2.052   4.420
 5826SOL     OW18376   1.211   6.257   5.721
 5826SOL    HW118377   1.126   6.247   5.773
 5826SOL    HW218378   1.281   6.197   5.759
 5827SOL     OW18379   1.278   5.064   3.991
 5827SOL    HW118380   1.324   4.996   4.048
 5827SOL    HW218381   1.195   5.024   3.952
 5828SOL     OW18382   4.853   0.312   5.084
 5828SOL    HW118383   4.838   0.289   4.988
 5828SOL    HW218384   4.951   0.306   5.105
 5829SOL     OW18385   1.723   1.226   2.684
 5829SOL    HW118386   1.744   1.277   2.601
 5829SOL    HW218387   1.756   1.132   2.674
 5830SOL     OW18388   4.842   5.095   3.864
 5830SOL    HW118389   4.938   5.066   3.867
 5830SOL    HW218390   4.835   5.183   3.817
 5831SOL     OW18391   2.325   1.619   3.773
 5831SOL    HW118392   2.232   1.615   3.810
 5831SOL    HW218393   2.321   1.623   3.673
 5832SOL     OW18394   3.173   5.550   3.575
 5832SOL    HW118395   3.119   5.481   3.622
 5832SOL    HW218396   3.160   5.540   3.476
 5833SOL     OW18397   2.309   4.587   1.463
 5833SOL    HW118398   2.380   4.621   1.525
 5833SOL    HW218399   2.222   4.632   1.485
 5834SOL     OW18400   6.411   1.011   6.741
 5834SOL    HW118401   6.506   0.979   6.745
 5834SOL    HW218402   6.371   0.987   6.653
 5835SOL     OW18403   3.555   0.847   3.441
 5835SOL    HW118404   3.492   0.879   3.512
 5835SOL    HW218405   3.556   0.747   3.440
 5836SOL     OW18406   5.838   4.659   1.330
 5836SOL    HW118407   5.758   4.606   1.302
 5836SOL    HW218408   5.904   4.662   1.255
 5837SOL     OW18409   1.794   3.844   6.971
 5837SOL    HW118410   1.774   3.873   0.049
 5837SOL    HW218411   1.714   3.797   6.933
 5838SOL     OW18412   3.382   3.316   0.243
 5838SOL    HW118413   3.314   3.334   0.313
 5838SOL    HW218414   3.412   3.403   0.203
 5839SOL     OW18415   2.530   1.918   0.901
 5839SOL    HW118416   2.543   1.860   0.821
 5839SOL    HW218417   2.581   2.003   0.891
 5840SOL     OW18418   6.272   3.394   2.458
 5840SOL    HW118419   6.314   3.375   2.370
 5840SOL    HW218420   6.175   3.411   2.446
 5841SOL     OW18421   4.926   1.396   7.009
 5841SOL    HW118422   4.857   1.355   6.950
 5841SOL    HW218423   4.999   1.330   0.011
 5842SOL     OW18424   3.586   1.784   2.257
 5842SOL    HW118425   3.487   1.778   2.256
 5842SOL    HW218426   3.616   1.828   2.341
 5843SOL     OW18427   3.354   2.643   1.531
 5843SOL    HW118428   3.347   2.742   1.546
 5843SOL    HW218429   3.287   2.596   1.589
 5844SOL     OW18430   6.303   5.591   5.035
 5844SOL    HW118431   6.223   5.644   5.062
 5844SOL    HW218432   6.349   5.637   4.959
 5845SOL     OW18433   2.102   6.233   3.116
 5845SOL    HW118434   2.044   6.278   3.185
 5845SOL    HW218435   2.055   6.235   3.028
 5846SOL     OW18436   0.524   4.110   5.415
 5846SOL    HW118437   0.584   4.095   5.493
 5846SOL    HW218438   0.562   4.064   5.335
 5847SOL     OW18439   1.919   3.753   5.606
 5847SOL    HW118440   2.012   3.772   5.638
 5847SOL    HW218441   1.923   3.698   5.523
 5848SOL     OW18442   3.111   6.492   1.870
 5848SOL    HW118443   3.166   6.575   1.878
 5848SOL    HW218444   3.048   6.486   1.947
 5849SOL     OW18445   3.015   6.404   6.573
 5849SOL    HW118446   2.987   6.497   6.598
 5849SOL    HW218447   2.971   6.338   6.634
 5850SOL     OW18448   5.718   2.817   0.985
 5850SOL    HW118449   5.692   2.908   0.955
 5850SOL    HW218450   5.731   2.758   0.904
 5851SOL     OW18451   1.408   2.964   6.291
 5851SOL    HW118452   1.338   3.014   6.342
 5851SOL    HW218453   1.497   2.978   6.334
 5852SOL     OW18454   4.007   4.855   3.608
 5852SOL    HW118455   4.075   4.833   3.538
 5852SOL    HW218456   4.001   4.954   3.618
 5853SOL     OW18457   4.528   4.535   6.874
 5853SOL    HW118458   4.457   4.519   6.943
 5853SOL    HW218459   4.613   4.560   6.920
 5854SOL     OW18460   2.361   4.229   5.301
 5854SOL    HW118461   2.381   4.146   5.249
 5854SOL    HW218462   2.272   4.220   5.345
 5855SOL     OW18463   1.000   2.221   4.418
 5855SOL    HW118464   0.923   2.213   4.482
 5855SOL    HW218465   1.044   2.131   4.409
 5856SOL     OW18466   0.492   1.040   2.314
 5856SOL    HW118467   0.578   1.057   2.362
 5856SOL    HW218468   0.453   0.953   2.345
 5857SOL     OW18469   6.322   5.794   6.778
 5857SOL    HW118470   6.258   5.733   6.731
 5857SOL    HW218471   6.273   5.875   6.809
 5858SOL     OW18472   3.111   1.833   0.974
 5858SOL    HW118473   3.109   1.751   1.030
 5858SOL    HW218474   3.206   1.865   0.965
 5859SOL     OW18475   6.335   4.755   1.632
 5859SOL    HW118476   6.405   4.825   1.644
 5859SOL    HW218477   6.256   4.778   1.688
 5860SOL     OW18478   1.871   2.917   1.729
 5860SOL    HW118479   1.866   2.832   1.676
 5860SOL    HW218480   1.824   2.903   1.817
 5861SOL     OW18481   5.009   6.267   4.722
 5861SOL    HW118482   4.927   6.236   4.674
 5861SOL    HW218483   5.090   6.223   4.682
 5862SOL     OW18484   0.218   5.120   1.818
 5862SOL    HW118485   0.268   5.038   1.844
 5862SOL    HW218486   0.275   5.201   1.833
 5863SOL     OW18487   3.911   0.003   5.765
 5863SOL    HW118488   3.891   0.101   5.768
 5863SOL    HW218489   3.827   6.968   5.781
 5864SOL     OW18490   3.807   3.744   3.452
 5864SOL    HW118491   3.886   3.771   3.508
 5864SOL    HW218492   3.723   3.782   3.492
 5865SOL     OW18493   6.893   6.217   1.523
 5865SOL    HW118494   6.974   6.228   1.581
 5865SOL    HW218495   6.851   6.128   1.540
 5866SOL     OW18496   2.864   3.609   3.712
 5866SOL    HW118497   2.820   3.551   3.644
 5866SOL    HW218498   2.946   3.651   3.673
 5867SOL     OW18499   4.871   0.932   0.156
 5867SOL    HW118500   4.889   0.995   0.232
 5867SOL    HW218501   4.938   0.948   0.083
 5868SOL     OW18502   1.575   1.013   0.308
 5868SOL    HW118503   1.589   1.104   0.348
 5868SOL    HW218504   1.480   1.004   0.278
 5869SOL     OW18505   2.236   5.360   3.418
 5869SOL    HW118506   2.215   5.315   3.505
 5869SOL    HW218507   2.296   5.301   3.364
 5870SOL     OW18508   4.036   6.223   3.883
 5870SOL    HW118509   3.977   6.297   3.849
 5870SOL    HW218510   3.980   6.145   3.908
 5871SOL     OW18511   4.117   3.517   3.249
 5871SOL    HW118512   4.090   3.455   3.323
 5871SOL    HW218513   4.118   3.467   3.162
 5872SOL     OW18514   3.992   5.129   1.411
 5872SOL    HW118515   3.998   5.125   1.311
 5872SOL    HW218516   3.896   5.130   1.439
 5873SOL     OW18517   3.729   6.968   2.320
 5873SOL    HW118518   3.671   0.008   2.379
 5873SOL    HW218519   3.805   0.006   2.286
 5874SOL     OW18520   0.363   3.289   4.282
 5874SOL    HW118521   0.388   3.375   4.328
 5874SOL    HW218522   0.347   3.307   4.185
 5875SOL     OW18523   3.933   2.364   1.475
 5875SOL    HW118524   4.027   2.397   1.470
 5875SOL    HW218525   3.871   2.442   1.479
 5876SOL     OW18526   4.018   3.809   2.822
 5876SOL    HW118527   3.940   3.872   2.831
 5876SOL    HW218528   4.054   3.815   2.729
 5877SOL     OW18529   4.514   5.075   1.850
 5877SOL    HW118530   4.436   5.076   1.789
 5877SOL    HW218531   4.590   5.126   1.809
 5878SOL     OW18532   0.668   3.937   2.452
 5878SOL    HW118533   0.580   3.984   2.462
 5878SOL    HW218534   0.737   3.983   2.508
 5879SOL     OW18535   1.884   4.297   5.098
 5879SOL    HW118536   1.913   4.385   5.059
 5879SOL    HW218537   1.961   4.233   5.095
 5880SOL     OW18538   2.511   5.438   0.227
 5880SOL    HW118539   2.586   5.387   0.184
 5880SOL    HW218540   2.468   5.381   0.297
 5881SOL     OW18541   1.597   6.173   4.566
 5881SOL    HW118542   1.686   6.161   4.610
 5881SOL    HW218543   1.579   6.095   4.505
 5882SOL     OW18544   4.999   0.171   3.459
 5882SOL    HW118545   5.014   0.097   3.393
 5882SOL    HW218546   5.034   0.142   3.548
 5883SOL     OW18547   0.857   3.361   5.511
 5883SOL    HW118548   0.849   3.418   5.430
 5883SOL    HW218549   0.946   3.377   5.555
 5884SOL     OW18550   0.105   1.156   3.780
 5884SOL    HW118551   0.044   1.195   3.711
 5884SOL    HW218552   0.099   1.056   3.776
 5885SOL     OW18553   6.368   5.349   0.430
 5885SOL    HW118554   6.310   5.296   0.492
 5885SOL    HW218555   6.420   5.286   0.372
 5886SOL     OW18556   6.090   1.826   5.918
 5886SOL    HW118557   6.083   1.831   5.818
 5886SOL    HW218558   6.087   1.919   5.956
 5887SOL     OW18559   3.558   0.074   2.483
 5887SOL    HW118560   3.495   7.013   2.475
 5887SOL    HW218561   3.507   0.158   2.498
 5888SOL     OW18562   0.021   6.116   2.111
 5888SOL    HW118563   0.067   6.029   2.098
 5888SOL    HW218564   6.939   6.104   2.099
 5889SOL     OW18565   2.962   0.080   1.148
 5889SOL    HW118566   3.041   0.140   1.136
 5889SOL    HW218567   2.938   0.039   1.060
 5890SOL     OW18568   4.210   5.244   5.854
 5890SOL    HW118569   4.255   5.323   5.812
 5890SOL    HW218570   4.111   5.249   5.837
 5891SOL     OW18571   2.247   2.983   6.563
 5891SOL    HW118572   2.212   3.057   6.620
 5891SOL    HW218573   2.234   2.895   6.610
 5892SOL     OW18574   3.306   5.318   1.148
 5892SOL    HW118575   3.392   5.271   1.126
 5892SOL    HW218576   3.239   5.251   1.181
 5893SOL     OW18577   0.523   3.324   2.214
 5893SOL    HW118578   0.614   3.352   2.241
 5893SOL    HW218579   0.498   3.241   2.263
 5894SOL     OW18580   2.144   4.499   3.710
 5894SOL    HW118581   2.130   4.486   3.612
 5894SOL    HW218582   2.055   4.505   3.756
 5895SOL     OW18583   4.709   5.245   2.918
 5895SOL    HW118584   4.661   5.303   2.984
 5895SOL    HW218585   4.768   5.180   2.967
 5896SOL     OW18586   5.821   2.041   5.821
 5896SOL    HW118587   5.767   1.959   5.840
 5896SOL    HW218588   5.808   2.067   5.725
 5897SOL     OW18589   4.558   4.298   0.271
 5897SOL    HW118590   4.604   4.346   0.346
 5897SOL    HW218591   4.459   4.310   0.279
 5898SOL     OW18592   1.696   5.602   2.607
 5898SOL    HW118593   1.784   5.609   2.654
 5898SOL    HW218594   1.623   5.584   2.674
 5899SOL     OW18595   4.957   0.701   3.690
 5899SOL    HW118596   4.913   0.664   3.609
 5899SOL    HW218597   4.962   0.801   3.683
 5900SOL     OW18598   3.838   5.108   2.266
 5900SOL    HW118599   3.928   5.067   2.284
 5900SOL    HW218600   3.835   5.200   2.305
 5901SOL     OW18601   2.785   6.406   3.219
 5901SOL    HW118602   2.758   6.328   3.162
 5901SOL    HW218603   2.711   6.426   3.284
 5902SOL     OW18604   0.076   1.923   0.519
 5902SOL    HW118605   0.080   1.864   0.438
 5902SOL    HW218606   0.013   1.885   0.586
 5903SOL     OW18607   0.912   1.828   6.308
 5903SOL    HW118608   0.926   1.925   6.285
 5903SOL    HW218609   0.815   1.810   6.320
 5904SOL     OW18610   0.126   3.135   2.343
 5904SOL    HW118611   0.115   3.233   2.360
 5904SOL    HW218612   0.050   3.085   2.386
 5905SOL     OW18613   7.002   3.659   2.431
 5905SOL    HW118614   7.005   3.734   2.498
 5905SOL    HW218615   0.010   3.573   2.477
 5906SOL     OW18616   6.122   1.449   3.267
 5906SOL    HW118617   6.135   1.518   3.197
 5906SOL    HW218618   6.156   1.483   3.355
 5907SOL     OW18619   1.571   0.749   1.955
 5907SOL    HW118620   1.573   0.814   2.031
 5907SOL    HW218621   1.488   0.694   1.960
 5908SOL     OW18622   0.277   2.810   5.198
 5908SOL    HW118623   0.319   2.795   5.287
 5908SOL    HW218624   0.288   2.905   5.171
 5909SOL     OW18625   0.046   4.324   6.167
 5909SOL    HW118626   0.143   4.317   6.144
 5909SOL    HW218627   7.012   4.254   6.118
 5910SOL     OW18628   1.551   1.799   3.488
 5910SOL    HW118629   1.494   1.802   3.406
 5910SOL    HW218630   1.647   1.802   3.462
 5911SOL     OW18631   5.662   4.707   6.530
 5911SOL    HW118632   5.751   4.661   6.536
 5911SOL    HW218633   5.663   4.773   6.455
 5912SOL     OW18634   1.108   1.775   2.354
 5912SOL    HW118635   1.019   1.805   2.319
 5912SOL    HW218636   1.139   1.838   2.425
 5913SOL     OW18637   6.874   3.329   1.223
 5913SOL    HW118638   6.898   3.318   1.319
 5913SOL    HW218639   6.775   3.322   1.212
 5914SOL     OW18640   1.332   6.359   0.602
 5914SOL    HW118641   1.424   6.322   0.608
 5914SOL    HW218642   1.274   6.296   0.550
 5915SOL     OW18643   5.015   0.763   5.149
 5915SOL    HW118644   4.983   0.853   5.179
 5915SOL    HW218645   5.115   0.763   5.143
 5916SOL     OW18646   0.665   1.015   3.017
 5916SOL    HW118647   0.752   0.967   3.021
 5916SOL    HW218648   0.633   1.020   2.922
 5917SOL     OW18649   3.968   3.753   0.806
 5917SOL    HW118650   3.968   3.710   0.896
 5917SOL    HW218651   4.062   3.759   0.772
 5918SOL     OW18652   3.416   6.437   5.359
 5918SOL    HW118653   3.442   6.514   5.418
 5918SOL    HW218654   3.486   6.424   5.289
 5919SOL     OW18655   2.913   3.394   4.641
 5919SOL    HW118656   2.829   3.422   4.688
 5919SOL    HW218657   2.992   3.435   4.686
 5920SOL     OW18658   1.871   0.301   5.127
 5920SOL    HW118659   1.784   0.258   5.153
 5920SOL    HW218660   1.855   0.366   5.053
 5921SOL     OW18661   3.097   4.599   1.255
 5921SOL    HW118662   3.194   4.616   1.239
 5921SOL    HW218663   3.055   4.562   1.172
 5922SOL     OW18664   5.264   2.400   2.258
 5922SOL    HW118665   5.259   2.496   2.230
 5922SOL    HW218666   5.358   2.378   2.286
 5923SOL     OW18667   5.813   0.921   2.387
 5923SOL    HW118668   5.857   0.905   2.475
 5923SOL    HW218669   5.737   0.856   2.375
 5924SOL     OW18670   0.358   5.792   3.009
 5924SOL    HW118671   0.267   5.770   3.045
 5924SOL    HW218672   0.388   5.719   2.948
 5925SOL     OW18673   4.197   0.654   1.000
 5925SOL    HW118674   4.210   0.559   0.972
 5925SOL    HW218675   4.132   0.699   0.939
 5926SOL     OW18676   4.960   3.450   3.103
 5926SOL    HW118677   5.011   3.473   3.186
 5926SOL    HW218678   4.925   3.356   3.111
 5927SOL     OW18679   1.256   0.268   1.342
 5927SOL    HW118680   1.339   0.213   1.356
 5927SOL    HW218681   1.215   0.245   1.254
 5928SOL     OW18682   3.079   0.344   6.338
 5928SOL    HW118683   3.141   0.269   6.363
 5928SOL    HW218684   3.045   0.388   6.421
 5929SOL     OW18685   1.688   0.832   1.021
 5929SOL    HW118686   1.713   0.899   0.951
 5929SOL    HW218687   1.753   0.837   1.097
 5930SOL     OW18688   6.821   5.053   2.034
 5930SOL    HW118689   6.874   5.106   1.968
 5930SOL    HW218690   6.865   5.058   2.124
 5931SOL     OW18691   4.821   0.916   4.921
 5931SOL    HW118692   4.812   0.913   5.020
 5931SOL    HW218693   4.786   0.831   4.881
 5932SOL     OW18694   2.891   5.295   0.844
 5932SOL    HW118695   2.854   5.206   0.819
 5932SOL    HW218696   2.852   5.365   0.784
 5933SOL     OW18697   6.400   5.432   4.429
 5933SOL    HW118698   6.420   5.385   4.343
 5933SOL    HW218699   6.385   5.529   4.412
 5934SOL     OW18700   2.746   4.376   0.175
 5934SOL    HW118701   2.788   4.366   0.265
 5934SOL    HW218702   2.682   4.300   0.160
 5935SOL     OW18703   1.522   0.436   5.238
 5935SOL    HW118704   1.556   0.434   5.332
 5935SOL    HW218705   1.480   0.348   5.216
 5936SOL     OW18706   3.807   2.934   2.075
 5936SOL    HW118707   3.845   2.844   2.056
 5936SOL    HW218708   3.765   2.970   1.992
 5937SOL     OW18709   0.817   2.800   0.688
 5937SOL    HW118710   0.804   2.784   0.786
 5937SOL    HW218711   0.777   2.725   0.636
 5938SOL     OW18712   0.442   3.172   4.009
 5938SOL    HW118713   0.413   3.080   3.982
 5938SOL    HW218714   0.542   3.179   3.999
 5939SOL     OW18715   5.084   2.041   6.018
 5939SOL    HW118716   5.173   2.032   5.973
 5939SOL    HW218717   5.014   1.994   5.963
 5940SOL     OW18718   4.310   5.138   1.041
 5940SOL    HW118719   4.370   5.067   1.079
 5940SOL    HW218720   4.360   5.224   1.035
 5941SOL     OW18721   1.654   2.132   3.676
 5941SOL    HW118722   1.599   2.065   3.725
 5941SOL    HW218723   1.727   2.085   3.626
 5942SOL     OW18724   4.820   2.292   6.478
 5942SOL    HW118725   4.775   2.365   6.427
 5942SOL    HW218726   4.908   2.324   6.513
 5943SOL     OW18727   2.103   4.865   2.083
 5943SOL    HW118728   2.109   4.936   2.153
 5943SOL    HW218729   2.091   4.776   2.127
 5944SOL     OW18730   6.728   3.346   5.894
 5944SOL    HW118731   6.732   3.363   5.795
 5944SOL    HW218732   6.692   3.428   5.940
 5945SOL     OW18733   0.530   6.188   4.411
 5945SOL    HW118734   0.519   6.156   4.317
 5945SOL    HW218735   0.481   6.126   4.473
 5946SOL     OW18736   3.307   2.625   6.795
 5946SOL    HW118737   3.248   2.666   6.864
 5946SOL    HW218738   3.300   2.526   6.801
 5947SOL     OW18739   3.361   3.841   6.023
 5947SOL    HW118740   3.346   3.745   6.001
 5947SOL    HW218741   3.290   3.897   5.980
 5948SOL     OW18742   4.808   3.192   1.199
 5948SOL    HW118743   4.718   3.235   1.205
 5948SOL    HW218744   4.856   3.205   1.286
 5949SOL     OW18745   1.324   4.885   4.225
 5949SOL    HW118746   1.366   4.952   4.287
 5949SOL    HW218747   1.391   4.815   4.202
 5950SOL     OW18748   1.808   6.297   5.008
 5950SOL    HW118749   1.774   6.391   5.007
 5950SOL    HW218750   1.732   6.234   5.021
 5951SOL     OW18751   6.759   3.420   6.576
 5951SOL    HW118752   6.744   3.516   6.601
 5951SOL    HW218753   6.756   3.410   6.477
 5952SOL     OW18754   3.883   4.188   1.727
 5952SOL    HW118755   3.801   4.146   1.766
 5952SOL    HW218756   3.926   4.125   1.662
 5953SOL     OW18757   0.326   2.905   6.711
 5953SOL    HW118758   0.331   2.980   6.644
 5953SOL    HW218759   0.281   2.938   6.794
 5954SOL     OW18760   2.750   5.410   3.744
 5954SOL    HW118761   2.666   5.463   3.729
 5954SOL    HW218762   2.731   5.313   3.730
 5955SOL     OW18763   4.820   2.553   0.038
 5955SOL    HW118764   4.884   2.624   0.008
 5955SOL    HW218765   4.864   2.463   0.029
 5956SOL     OW18766   4.061   1.947   6.670
 5956SOL    HW118767   3.995   1.879   6.638
 5956SOL    HW218768   4.016   2.035   6.681
 5957SOL     OW18769   6.877   2.952   3.652
 5957SOL    HW118770   6.864   3.027   3.588
 5957SOL    HW218771   6.858   2.865   3.607
 5958SOL     OW18772   2.240   6.584   1.884
 5958SOL    HW118773   2.198   6.581   1.793
 5958SOL    HW218774   2.184   6.532   1.948
 5959SOL     OW18775   4.793   4.497   3.326
 5959SOL    HW118776   4.861   4.424   3.324
 5959SOL    HW218777   4.789   4.536   3.418
 5960SOL     OW18778   6.742   6.638   6.446
 5960SOL    HW118779   6.763   6.549   6.407
 5960SOL    HW218780   6.799   6.653   6.527
 5961SOL     OW18781   1.437   2.149   3.497
 5961SOL    HW118782   1.510   2.141   3.566
 5961SOL    HW218783   1.389   2.061   3.489
 5962SOL     OW18784   5.563   5.574   0.640
 5962SOL    HW118785   5.468   5.544   0.639
 5962SOL    HW218786   5.621   5.504   0.597
 5963SOL     OW18787   2.195   3.769   1.354
 5963SOL    HW118788   2.192   3.683   1.305
 5963SOL    HW218789   2.242   3.838   1.298
 5964SOL     OW18790   1.677   6.374   4.383
 5964SOL    HW118791   1.613   6.298   4.373
 5964SOL    HW218792   1.684   6.399   4.480
 5965SOL     OW18793   2.026   0.452   1.514
 5965SOL    HW118794   1.973   0.487   1.436
 5965SOL    HW218795   2.122   0.443   1.489
 5966SOL     OW18796   2.742   1.407   4.904
 5966SOL    HW118797   2.805   1.334   4.929
 5966SOL    HW218798   2.775   1.493   4.942
 5967SOL     OW18799   4.942   2.227   5.666
 5967SOL    HW118800   4.933   2.326   5.665
 5967SOL    HW218801   4.923   2.191   5.574
 5968SOL     OW18802   6.210   1.683   3.095
 5968SOL    HW118803   6.207   1.651   3.000
 5968SOL    HW218804   6.302   1.667   3.132
 5969SOL     OW18805   5.470   6.282   1.585
 5969SOL    HW118806   5.508   6.190   1.575
 5969SOL    HW218807   5.527   6.335   1.648
 5970SOL     OW18808   6.610   1.329   0.328
 5970SOL    HW118809   6.570   1.364   0.243
 5970SOL    HW218810   6.551   1.257   0.365
 5971SOL     OW18811   6.919   5.378   3.609
 5971SOL    HW118812   6.903   5.476   3.615
 5971SOL    HW218813   6.864   5.330   3.677
 5972SOL     OW18814   6.765   5.264   0.291
 5972SOL    HW118815   6.802   5.240   0.201
 5972SOL    HW218816   6.834   5.315   0.342
 5973SOL     OW18817   3.653   0.580   1.923
 5973SOL    HW118818   3.674   0.583   2.020
 5973SOL    HW218819   3.555   0.596   1.909
 5974SOL     OW18820   5.704   0.884   4.723
 5974SOL    HW118821   5.627   0.947   4.735
 5974SOL    HW218822   5.696   0.840   4.633
 5975SOL     OW18823   3.840   4.268   0.310
 5975SOL    HW118824   3.762   4.209   0.332
 5975SOL    HW218825   3.841   4.346   0.373
 5976SOL     OW18826   0.644   2.162   6.370
 5976SOL    HW118827   0.607   2.211   6.291
 5976SOL    HW218828   0.586   2.084   6.392
 5977SOL     OW18829   0.644   5.635   1.806
 5977SOL    HW118830   0.646   5.545   1.764
 5977SOL    HW218831   0.679   5.703   1.741
 5978SOL     OW18832   2.911   3.592   6.296
 5978SOL    HW118833   2.990   3.534   6.279
 5978SOL    HW218834   2.940   3.677   6.340
 5979SOL     OW18835   6.014   1.303   1.794
 5979SOL    HW118836   5.944   1.264   1.734
 5979SOL    HW218837   5.974   1.327   1.882
 5980SOL     OW18838   3.797   2.766   0.252
 5980SOL    HW118839   3.816   2.698   0.180
 5980SOL    HW218840   3.715   2.740   0.302
 5981SOL     OW18841   4.301   1.985   0.641
 5981SOL    HW118842   4.391   1.952   0.671
 5981SOL    HW218843   4.236   1.976   0.717
 5982SOL     OW18844   5.952   2.720   1.266
 5982SOL    HW118845   6.017   2.707   1.191
 5982SOL    HW218846   5.939   2.633   1.314
 5983SOL     OW18847   0.401   1.652   3.655
 5983SOL    HW118848   0.335   1.578   3.642
 5983SOL    HW218849   0.424   1.660   3.752
 5984SOL     OW18850   6.598   5.873   1.791
 5984SOL    HW118851   6.588   5.895   1.888
 5984SOL    HW218852   6.531   5.805   1.764
 5985SOL     OW18853   0.118   4.545   2.404
 5985SOL    HW118854   0.212   4.546   2.371
 5985SOL    HW218855   0.057   4.522   2.328
 5986SOL     OW18856   3.966   3.076   3.603
 5986SOL    HW118857   3.903   3.085   3.526
 5986SOL    HW218858   4.056   3.046   3.568
 5987SOL     OW18859   6.979   6.053   3.676
 5987SOL    HW118860   7.005   5.970   3.726
 5987SOL    HW218861   0.006   6.133   3.719
 5988SOL     OW18862   2.094   2.088   0.378
 5988SOL    HW118863   2.182   2.054   0.412
 5988SOL    HW218864   2.041   2.013   0.340
 5989SOL     OW18865   2.705   6.296   6.035
 5989SOL    HW118866   2.737   6.201   6.038
 5989SOL    HW218867   2.778   6.355   6.002
 5990SOL     OW18868   2.436   3.978   1.672
 5990SOL    HW118869   2.527   3.941   1.654
 5990SOL    HW218870   2.444   4.054   1.737
 5991SOL     OW18871   5.187   1.096   0.323
 5991SOL    HW118872   5.107   1.057   0.368
 5991SOL    HW218873   5.166   1.119   0.228
 5992SOL     OW18874   2.410   4.569   2.275
 5992SOL    HW118875   2.479   4.634   2.307
 5992SOL    HW218876   2.411   4.566   2.175
 5993SOL     OW18877   5.850   0.810   0.190
 5993SOL    HW118878   5.933   0.812   0.134
 5993SOL    HW218879   5.794   0.732   0.162
 5994SOL     OW18880   0.540   5.076   1.134
 5994SOL    HW118881   0.524   5.071   1.036
 5994SOL    HW218882   0.578   4.990   1.166
 5995SOL     OW18883   5.474   4.728   1.407
 5995SOL    HW118884   5.533   4.724   1.487
 5995SOL    HW218885   5.508   4.664   1.338
 5996SOL     OW18886   2.437   0.907   2.064
 5996SOL    HW118887   2.508   0.974   2.043
 5996SOL    HW218888   2.348   0.943   2.035
 5997SOL     OW18889   6.683   0.884   4.790
 5997SOL    HW118890   6.713   0.959   4.849
 5997SOL    HW218891   6.588   0.900   4.762
 5998SOL     OW18892   5.730   6.427   0.282
 5998SOL    HW118893   5.778   6.486   0.347
 5998SOL    HW218894   5.632   6.441   0.290
 5999SOL     OW18895   5.999   2.938   0.960
 5999SOL    HW118896   5.912   2.890   0.958
 5999SOL    HW218897   5.995   3.017   0.898
 6000SOL     OW18898   0.407   5.201   2.069
 6000SOL    HW118899   0.345   5.266   2.024
 6000SOL    HW218900   0.354   5.130   2.115
 6001SOL     OW18901   6.944   6.304   6.031
 6001SOL    HW118902   6.936   6.388   6.085
 6001SOL    HW218903   6.967   6.328   5.936
 6002SOL     OW18904   5.684   4.701   4.597
 6002SOL    HW118905   5.776   4.736   4.614
 6002SOL    HW218906   5.623   4.730   4.671
 6003SOL     OW18907   2.333   0.633   4.603
 6003SOL    HW118908   2.292   0.714   4.560
 6003SOL    HW218909   2.269   0.594   4.669
 6004SOL     OW18910   5.312   3.040   4.958
 6004SOL    HW118911   5.232   2.995   4.998
 6004SOL    HW218912   5.388   2.976   4.954
 6005SOL     OW18913   3.858   3.965   0.575
 6005SOL    HW118914   3.818   3.893   0.517
 6005SOL    HW218915   3.951   3.984   0.543
 6006SOL     OW18916   2.980   6.234   5.867
 6006SOL    HW118917   2.964   6.327   5.900
 6006SOL    HW218918   2.947   6.168   5.934
 6007SOL     OW18919   3.049   6.786   4.130
 6007SOL    HW118920   3.002   6.859   4.181
 6007SOL    HW218921   2.982   6.720   4.098
 6008SOL     OW18922   2.273   3.829   6.876
 6008SOL    HW118923   2.245   3.834   6.780
 6008SOL    HW218924   2.194   3.808   6.933
 6009SOL     OW18925   2.185   5.465   1.950
 6009SOL    HW118926   2.143   5.492   2.036
 6009SOL    HW218927   2.186   5.365   1.943
 6010SOL     OW18928   0.211   5.279   6.126
 6010SOL    HW118929   0.205   5.378   6.111
 6010SOL    HW218930   0.144   5.252   6.195
 6011SOL     OW18931   5.621   1.560   3.421
 6011SOL    HW118932   5.660   1.468   3.419
 6011SOL    HW218933   5.687   1.626   3.386
 6012SOL     OW18934   6.382   1.336   5.560
 6012SOL    HW118935   6.390   1.334   5.460
 6012SOL    HW218936   6.286   1.349   5.585
 6013SOL     OW18937   5.825   1.941   2.969
 6013SOL    HW118938   5.869   1.862   3.013
 6013SOL    HW218939   5.744   1.967   3.020
 6014SOL     OW18940   4.128   3.690   4.049
 6014SOL    HW118941   4.076   3.605   4.054
 6014SOL    HW218942   4.152   3.720   4.141
 6015SOL     OW18943   6.876   0.174   3.081
 6015SOL    HW118944   6.958   0.118   3.085
 6015SOL    HW218945   6.806   0.135   3.142
 6016SOL     OW18946   4.394   1.995   4.193
 6016SOL    HW118947   4.370   1.983   4.289
 6016SOL    HW218948   4.340   2.070   4.155
 6017SOL     OW18949   1.074   2.638   5.209
 6017SOL    HW118950   1.167   2.600   5.206
 6017SOL    HW218951   1.055   2.671   5.301
 6018SOL     OW18952   2.285   1.116   3.838
 6018SOL    HW118953   2.285   1.097   3.740
 6018SOL    HW218954   2.229   1.047   3.885
 6019SOL     OW18955   6.745   3.312   6.306
 6019SOL    HW118956   6.681   3.326   6.231
 6019SOL    HW218957   6.835   3.286   6.270
 6020SOL     OW18958   0.424   5.539   4.622
 6020SOL    HW118959   0.431   5.465   4.689
 6020SOL    HW218960   0.470   5.621   4.657
 6021SOL     OW18961   5.163   0.175   3.944
 6021SOL    HW118962   5.096   0.230   3.895
 6021SOL    HW218963   5.237   0.234   3.976
 6022SOL     OW18964   6.573   3.544   1.688
 6022SOL    HW118965   6.659   3.530   1.738
 6022SOL    HW218966   6.538   3.636   1.706
 6023SOL     OW18967   3.887   0.667   3.087
 6023SOL    HW118968   3.955   0.604   3.049
 6023SOL    HW218969   3.896   0.670   3.186
 6024SOL     OW18970   0.198   6.520   6.881
 6024SOL    HW118971   0.165   6.575   6.957
 6024SOL    HW218972   0.294   6.543   6.862
 6025SOL     OW18973   3.477   0.513   5.267
 6025SOL    HW118974   3.469   0.473   5.175
 6025SOL    HW218975   3.506   0.442   5.331
 6026SOL     OW18976   5.218   6.421   3.686
 6026SOL    HW118977   5.295   6.409   3.623
 6026SOL    HW218978   5.250   6.416   3.780
 6027SOL     OW18979   6.010   4.183   5.863
 6027SOL    HW118980   6.042   4.236   5.942
 6027SOL    HW218981   5.941   4.117   5.893
 6028SOL     OW18982   6.250   5.420   6.569
 6028SOL    HW118983   6.233   5.322   6.572
 6028SOL    HW218984   6.349   5.437   6.567
 6029SOL     OW18985   2.520   1.845   2.425
 6029SOL    HW118986   2.527   1.859   2.524
 6029SOL    HW218987   2.517   1.747   2.406
 6030SOL     OW18988   6.027   2.948   4.915
 6030SOL    HW118989   6.066   3.026   4.866
 6030SOL    HW218990   6.020   2.870   4.852
 6031SOL     OW18991   0.041   0.290   3.666
 6031SOL    HW118992   7.002   0.373   3.668
 6031SOL    HW218993   0.000   0.224   3.602
 6032SOL     OW18994   2.885   0.295   3.087
 6032SOL    HW118995   2.951   0.226   3.115
 6032SOL    HW218996   2.899   0.318   2.991
 6033SOL     OW18997   0.958   1.881   2.608
 6033SOL    HW118998   1.029   1.892   2.678
 6033SOL    HW218999   0.969   1.952   2.538
 6034SOL     OW19000   0.783   0.620   0.995
 6034SOL    HW119001   0.795   0.688   1.067
 6034SOL    HW219002   0.736   0.662   0.917
 6035SOL     OW19003   2.105   1.263   2.820
 6035SOL    HW119004   2.035   1.327   2.786
 6035SOL    HW219005   2.101   1.259   2.919
 6036SOL     OW19006   0.232   3.336   0.400
 6036SOL    HW119007   0.318   3.343   0.451
 6036SOL    HW219008   0.251   3.314   0.305
 6037SOL     OW19009   4.297   0.215   6.689
 6037SOL    HW119010   4.206   0.252   6.711
 6037SOL    HW219011   4.345   0.278   6.630
 6038SOL     OW19012   2.402   1.583   0.150
 6038SOL    HW119013   2.443   1.595   0.059
 6038SOL    HW219014   2.411   1.488   0.178
 6039SOL     OW19015   3.118   2.986   4.005
 6039SOL    HW119016   3.101   3.022   4.097
 6039SOL    HW219017   3.128   3.062   3.941
 6040SOL     OW19018   6.998   0.754   0.875
 6040SOL    HW119019   6.979   0.846   0.910
 6040SOL    HW219020   0.081   0.743   0.861
 6041SOL     OW19021   0.612   3.161   4.324
 6041SOL    HW119022   0.526   3.212   4.319
 6041SOL    HW219023   0.634   3.125   4.233
 6042SOL     OW19024   3.017   5.831   2.836
 6042SOL    HW119025   2.973   5.875   2.914
 6042SOL    HW219026   3.057   5.744   2.864
 6043SOL     OW19027   1.839   4.582   1.042
 6043SOL    HW119028   1.934   4.565   1.070
 6043SOL    HW219029   1.780   4.576   1.122
 6044SOL     OW19030   6.463   3.984   7.012
 6044SOL    HW119031   6.391   4.023   0.053
 6044SOL    HW219032   6.423   3.917   6.949
 6045SOL     OW19033   4.365   1.134   4.035
 6045SOL    HW119034   4.393   1.230   4.028
 6045SOL    HW219035   4.271   1.129   4.069
 6046SOL     OW19036   3.546   3.788   2.449
 6046SOL    HW119037   3.477   3.856   2.476
 6046SOL    HW219038   3.568   3.800   2.352
 6047SOL     OW19039   0.129   1.325   0.898
 6047SOL    HW119040   0.044   1.311   0.949
 6047SOL    HW219041   0.179   1.403   0.936
 6048SOL     OW19042   6.182   6.033   3.443
 6048SOL    HW119043   6.228   6.119   3.461
 6048SOL    HW219044   6.150   5.994   3.529
 6049SOL     OW19045   5.640   4.713   0.196
 6049SOL    HW119046   5.721   4.669   0.159
 6049SOL    HW219047   5.559   4.660   0.171
 6050SOL     OW19048   2.415   5.870   3.252
 6050SOL    HW119049   2.350   5.921   3.194
 6050SOL    HW219050   2.379   5.778   3.269
 6051SOL     OW19051   0.405   2.276   2.888
 6051SOL    HW119052   0.456   2.272   2.975
 6051SOL    HW219053   0.308   2.261   2.906
 6052SOL     OW19054   5.138   5.937   6.936
 6052SOL    HW119055   5.235   5.955   6.921
 6052SOL    HW219056   5.100   5.891   6.856
 6053SOL     OW19057   3.508   2.010   6.026
 6053SOL    HW119058   3.540   2.014   5.932
 6053SOL    HW219059   3.455   1.927   6.041
 6054SOL     OW19060   4.054   3.750   6.502
 6054SOL    HW119061   4.110   3.738   6.584
 6054SOL    HW219062   4.083   3.832   6.453
 6055SOL     OW19063   3.083   4.678   1.789
 6055SOL    HW119064   3.033   4.592   1.805
 6055SOL    HW219065   3.055   4.715   1.700
 6056SOL     OW19066   5.007   6.569   3.180
 6056SOL    HW119067   4.940   6.547   3.251
 6056SOL    HW219068   5.098   6.574   3.220
 6057SOL     OW19069   5.553   1.139   3.944
 6057SOL    HW119070   5.555   1.222   3.887
 6057SOL    HW219071   5.543   1.059   3.885
 6058SOL     OW19072   6.711   3.776   6.330
 6058SOL    HW119073   6.794   3.769   6.386
 6058SOL    HW219074   6.735   3.767   6.233
 6059SOL     OW19075   4.478   2.340   6.381
 6059SOL    HW119076   4.386   2.325   6.343
 6059SOL    HW219077   4.484   2.433   6.418
 6060SOL     OW19078   2.181   1.863   1.402
 6060SOL    HW119079   2.140   1.856   1.493
 6060SOL    HW219080   2.275   1.895   1.410
 6061SOL     OW19081   2.450   4.670   6.389
 6061SOL    HW119082   2.362   4.638   6.424
 6061SOL    HW219083   2.463   4.766   6.414
 6062SOL     OW19084   1.922   2.252   5.167
 6062SOL    HW119085   1.940   2.307   5.086
 6062SOL    HW219086   1.831   2.273   5.202
 6063SOL     OW19087   4.276   3.476   5.674
 6063SOL    HW119088   4.252   3.565   5.712
 6063SOL    HW219089   4.373   3.475   5.648
 6064SOL     OW19090   5.694   5.512   0.075
 6064SOL    HW119091   5.640   5.511   0.159
 6064SOL    HW219092   5.720   5.418   0.051
 6065SOL     OW19093   1.414   5.390   1.331
 6065SOL    HW119094   1.429   5.319   1.262
 6065SOL    HW219095   1.325   5.376   1.374
 6066SOL     OW19096   5.232   5.760   3.083
 6066SOL    HW119097   5.202   5.851   3.054
 6066SOL    HW219098   5.215   5.694   3.009
 6067SOL     OW19099   6.624   4.887   5.362
 6067SOL    HW119100   6.559   4.891   5.437
 6067SOL    HW219101   6.696   4.821   5.384
 6068SOL     OW19102   4.839   2.009   3.492
 6068SOL    HW119103   4.794   2.023   3.404
 6068SOL    HW219104   4.878   2.096   3.524
 6069SOL     OW19105   1.141   5.196   5.613
 6069SOL    HW119106   1.078   5.251   5.666
 6069SOL    HW219107   1.235   5.226   5.630
 6070SOL     OW19108   2.743   0.916   1.545
 6070SOL    HW119109   2.726   0.986   1.614
 6070SOL    HW219110   2.658   0.894   1.498
 6071SOL     OW19111   6.520   6.772   6.548
 6071SOL    HW119112   6.594   6.716   6.510
 6071SOL    HW219113   6.469   6.719   6.615
 6072SOL     OW19114   0.523   2.704   6.754
 6072SOL    HW119115   0.503   2.626   6.695
 6072SOL    HW219116   0.456   2.776   6.736
 6073SOL     OW19117   4.388   4.359   6.722
 6073SOL    HW119118   4.444   4.426   6.770
 6073SOL    HW219119   4.411   4.359   6.625
 6074SOL     OW19120   1.686   6.019   2.096
 6074SOL    HW119121   1.774   5.970   2.091
 6074SOL    HW219122   1.696   6.099   2.156
 6075SOL     OW19123   6.771   6.668   6.942
 6075SOL    HW119124   6.792   6.682   0.022
 6075SOL    HW219125   6.710   6.741   6.910
 6076SOL     OW19126   6.978   6.336   2.885
 6076SOL    HW119127   6.941   6.290   2.804
 6076SOL    HW219128   0.060   6.319   2.891
 6077SOL     OW19129   4.939   6.009   2.930
 6077SOL    HW119130   4.941   6.098   2.974
 6077SOL    HW219131   4.865   6.006   2.863
 6078SOL     OW19132   5.568   3.975   0.468
 6078SOL    HW119133   5.501   3.909   0.499
 6078SOL    HW219134   5.542   4.066   0.499
 6079SOL     OW19135   3.412   1.723   6.957
 6079SOL    HW119136   3.410   1.809   7.008
 6079SOL    HW219137   3.473   1.658   7.004
 6080SOL     OW19138   5.920   3.356   5.526
 6080SOL    HW119139   5.930   3.280   5.461
 6080SOL    HW219140   5.979   3.431   5.498
 6081SOL     OW19141   1.893   4.693   3.972
 6081SOL    HW119142   1.887   4.790   3.948
 6081SOL    HW219143   1.986   4.671   4.002
 6082SOL     OW19144   4.125   1.458   1.139
 6082SOL    HW119145   4.112   1.556   1.126
 6082SOL    HW219146   4.206   1.428   1.090
 6083SOL     OW19147   5.104   1.040   5.439
 6083SOL    HW119148   5.197   1.007   5.423
 6083SOL    HW219149   5.107   1.139   5.454
 6084SOL     OW19150   6.194   5.002   3.292
 6084SOL    HW119151   6.279   5.017   3.240
 6084SOL    HW219152   6.215   4.953   3.376
 6085SOL     OW19153   0.764   6.435   1.242
 6085SOL    HW119154   0.797   6.488   1.321
 6085SOL    HW219155   0.839   6.420   1.178
 6086SOL     OW19156   4.875   3.075   0.528
 6086SOL    HW119157   4.779   3.059   0.505
 6086SOL    HW219158   4.934   3.025   0.464
 6087SOL     OW19159   4.056   1.115   6.576
 6087SOL    HW119160   4.008   1.060   6.644
 6087SOL    HW219161   4.058   1.067   6.488
 6088SOL     OW19162   3.893   6.385   2.726
 6088SOL    HW119163   3.977   6.397   2.779
 6088SOL    HW219164   3.860   6.291   2.737
 6089SOL     OW19165   5.980   5.296   2.653
 6089SOL    HW119166   5.948   5.201   2.645
 6089SOL    HW219167   5.931   5.341   2.728
 6090SOL     OW19168   3.841   5.844   4.699
 6090SOL    HW119169   3.831   5.927   4.644
 6090SOL    HW219170   3.937   5.832   4.724
 6091SOL     OW19171   0.518   3.043   2.417
 6091SOL    HW119172   0.535   2.959   2.366
 6091SOL    HW219173   0.429   3.037   2.462
 6092SOL     OW19174   1.844   6.664   0.879
 6092SOL    HW119175   1.849   6.734   0.807
 6092SOL    HW219176   1.759   6.612   0.868
 6093SOL     OW19177   3.787   3.368   2.404
 6093SOL    HW119178   3.862   3.302   2.412
 6093SOL    HW219179   3.724   3.355   2.480
 6094SOL     OW19180   0.339   6.974   5.583
 6094SOL    HW119181   0.437   6.954   5.591
 6094SOL    HW219182   0.301   6.923   5.506
 6095SOL     OW19183   5.496   4.975   2.268
 6095SOL    HW119184   5.447   4.928   2.340
 6095SOL    HW219185   5.449   5.060   2.244
 6096SOL     OW19186   4.939   6.240   3.049
 6096SOL    HW119187   4.953   6.253   3.147
 6096SOL    HW219188   4.872   6.307   3.016
 6097SOL     OW19189   1.765   4.999   0.803
 6097SOL    HW119190   1.801   4.983   0.895
 6097SOL    HW219191   1.697   5.073   0.806
 6098SOL     OW19192   5.996   1.446   5.238
 6098SOL    HW119193   6.042   1.446   5.327
 6098SOL    HW219194   6.054   1.489   5.170
 6099SOL     OW19195   3.311   6.834   5.682
 6099SOL    HW119196   3.212   6.827   5.670
 6099SOL    HW219197   3.357   6.796   5.602
 6100SOL     OW19198   6.494   5.462   5.818
 6100SOL    HW119199   6.465   5.541   5.872
 6100SOL    HW219200   6.512   5.491   5.724
 6101SOL     OW19201   1.122   2.795   0.819
 6101SOL    HW119202   1.114   2.778   0.720
 6101SOL    HW219203   1.162   2.885   0.834
 6102SOL     OW19204   2.431   0.363   2.635
 6102SOL    HW119205   2.501   0.415   2.587
 6102SOL    HW219206   2.441   0.266   2.615
 6103SOL     OW19207   5.600   0.393   3.011
 6103SOL    HW119208   5.592   0.294   3.001
 6103SOL    HW219209   5.528   0.426   3.072
 6104SOL     OW19210   0.127   0.230   5.242
 6104SOL    HW119211   0.142   0.297   5.314
 6104SOL    HW219212   0.215   0.188   5.217
 6105SOL     OW19213   3.846   5.013   6.553
 6105SOL    HW119214   3.797   5.021   6.466
 6105SOL    HW219215   3.855   5.104   6.594
 6106SOL     OW19216   6.380   3.764   5.570
 6106SOL    HW119217   6.294   3.745   5.618
 6106SOL    HW219218   6.419   3.678   5.536
 6107SOL     OW19219   6.573   4.656   4.947
 6107SOL    HW119220   6.533   4.579   4.897
 6107SOL    HW219221   6.565   4.739   4.892
 6108SOL     OW19222   3.409   0.332   5.970
 6108SOL    HW119223   3.324   0.375   6.001
 6108SOL    HW219224   3.432   0.256   6.031
 6109SOL     OW19225   6.318   6.524   3.716
 6109SOL    HW119226   6.268   6.473   3.646
 6109SOL    HW219227   6.412   6.491   3.720
 6110SOL     OW19228   0.747   1.749   4.068
 6110SOL    HW119229   0.690   1.699   4.132
 6110SOL    HW219230   0.769   1.839   4.106
 6111SOL     OW19231   2.952   3.109   1.161
 6111SOL    HW119232   2.936   3.204   1.188
 6111SOL    HW219233   3.047   3.098   1.132
 6112SOL     OW19234   4.807   5.832   4.037
 6112SOL    HW119235   4.890   5.787   4.005
 6112SOL    HW219236   4.783   5.797   4.127
 6113SOL     OW19237   3.351   4.914   1.270
 6113SOL    HW119238   3.270   4.968   1.245
 6113SOL    HW219239   3.396   4.883   1.186
 6114SOL     OW19240   5.221   3.824   1.521
 6114SOL    HW119241   5.162   3.746   1.544
 6114SOL    HW219242   5.175   3.909   1.546
 6115SOL     OW19243   6.046   1.059   4.457
 6115SOL    HW119244   6.135   1.099   4.436
 6115SOL    HW219245   6.007   1.019   4.375
 6116SOL     OW19246   5.935   2.591   0.594
 6116SOL    HW119247   6.012   2.527   0.587
 6116SOL    HW219248   5.886   2.594   0.507
 6117SOL     OW19249   3.225   2.095   1.134
 6117SOL    HW119250   3.155   2.056   1.194
 6117SOL    HW219251   3.286   2.153   1.189
 6118SOL     OW19252   6.032   0.211   1.320
 6118SOL    HW119253   6.025   0.157   1.404
 6118SOL    HW219254   6.009   0.307   1.340
 6119SOL     OW19255   0.635   1.258   6.184
 6119SOL    HW119256   0.637   1.232   6.281
 6119SOL    HW219257   0.547   1.232   6.145
 6120SOL     OW19258   3.281   1.139   3.608
 6120SOL    HW119259   3.245   1.224   3.568
 6120SOL    HW219260   3.273   1.144   3.708
 6121SOL     OW19261   4.191   1.004   5.606
 6121SOL    HW119262   4.267   0.941   5.596
 6121SOL    HW219263   4.124   0.989   5.533
 6122SOL     OW19264   4.673   4.361   4.936
 6122SOL    HW119265   4.734   4.388   5.010
 6122SOL    HW219266   4.592   4.420   4.937
 6123SOL     OW19267   6.439   1.890   5.247
 6123SOL    HW119268   6.446   1.869   5.150
 6123SOL    HW219269   6.348   1.928   5.266
 6124SOL     OW19270   1.905   6.066   3.673
 6124SOL    HW119271   1.950   6.116   3.747
 6124SOL    HW219272   1.953   6.085   3.587
 6125SOL     OW19273   3.062   1.046   5.759
 6125SOL    HW119274   3.134   0.984   5.727
 6125SOL    HW219275   3.082   1.073   5.854
 6126SOL     OW19276   6.203   2.962   6.558
 6126SOL    HW119277   6.236   2.907   6.481
 6126SOL    HW219278   6.107   2.941   6.575
 6127SOL     OW19279   5.168   2.097   3.003
 6127SOL    HW119280   5.134   2.016   3.050
 6127SOL    HW219281   5.091   2.154   2.975
 6128SOL     OW19282   5.863   5.280   4.928
 6128SOL    HW119283   5.825   5.373   4.931
 6128SOL    HW219284   5.828   5.233   4.847
 6129SOL     OW19285   2.197   5.972   3.085
 6129SOL    HW119286   2.151   6.040   3.142
 6129SOL    HW219287   2.208   6.009   2.992
 6130SOL     OW19288   6.792   2.387   0.034
 6130SOL    HW119289   6.873   2.370   6.994
 6130SOL    HW219290   6.784   2.485   0.051
 6131SOL     OW19291   6.231   3.033   2.469
 6131SOL    HW119292   6.285   3.112   2.439
 6131SOL    HW219293   6.283   2.949   2.455
 6132SOL     OW19294   4.571   5.828   6.758
 6132SOL    HW119295   4.586   5.894   6.832
 6132SOL    HW219296   4.498   5.863   6.698
 6133SOL     OW19297   0.073   2.666   3.637
 6133SOL    HW119298   0.089   2.567   3.629
 6133SOL    HW219299   6.990   2.683   3.636
 6134SOL     OW19300   0.851   6.929   4.656
 6134SOL    HW119301   0.793   6.971   4.726
 6134SOL    HW219302   0.811   6.942   4.566
 6135SOL     OW19303   6.092   6.192   0.196
 6135SOL    HW119304   6.125   6.262   0.259
 6135SOL    HW219305   6.043   6.121   0.247
 6136SOL     OW19306   0.929   2.681   2.684
 6136SOL    HW119307   0.911   2.648   2.591
 6136SOL    HW219308   1.015   2.731   2.686
 6137SOL     OW19309   6.992   4.722   1.037
 6137SOL    HW119310   6.905   4.698   0.994
 6137SOL    HW219311   6.976   4.778   1.118
 6138SOL     OW19312   4.804   0.801   2.884
 6138SOL    HW119313   4.769   0.735   2.950
 6138SOL    HW219314   4.903   0.811   2.896
 6139SOL     OW19315   1.811   1.909   5.595
 6139SOL    HW119316   1.747   1.938   5.666
 6139SOL    HW219317   1.798   1.964   5.513
 6140SOL     OW19318   2.251   0.545   3.854
 6140SOL    HW119319   2.185   0.520   3.925
 6140SOL    HW219320   2.237   0.487   3.774
 6141SOL     OW19321   1.031   0.556   0.681
 6141SOL    HW119322   1.016   0.483   0.614
 6141SOL    HW219323   1.021   0.519   0.773
 6142SOL     OW19324   0.443   0.180   1.562
 6142SOL    HW119325   0.427   0.209   1.656
 6142SOL    HW219326   0.406   0.249   1.499
 6143SOL     OW19327   1.580   2.999   5.441
 6143SOL    HW119328   1.648   2.976   5.371
 6143SOL    HW219329   1.550   3.094   5.428
 6144SOL     OW19330   3.293   6.148   2.747
 6144SOL    HW119331   3.338   6.162   2.835
 6144SOL    HW219332   3.349   6.087   2.691
 6145SOL     OW19333   5.690   3.419   4.263
 6145SOL    HW119334   5.660   3.414   4.167
 6145SOL    HW219335   5.781   3.379   4.271
 6146SOL     OW19336   6.292   1.487   5.843
 6146SOL    HW119337   6.345   1.404   5.858
 6146SOL    HW219338   6.194   1.466   5.846
 6147SOL     OW19339   1.300   1.774   5.226
 6147SOL    HW119340   1.224   1.832   5.255
 6147SOL    HW219341   1.265   1.691   5.182
 6148SOL     OW19342   3.929   5.227   6.715
 6148SOL    HW119343   3.993   5.290   6.758
 6148SOL    HW219344   3.943   5.135   6.752
 6149SOL     OW19345   3.900   1.747   1.720
 6149SOL    HW119346   3.940   1.789   1.801
 6149SOL    HW219347   3.927   1.651   1.715
 6150SOL     OW19348   0.599   4.684   3.842
 6150SOL    HW119349   0.680   4.718   3.794
 6150SOL    HW219350   0.521   4.686   3.780
 6151SOL     OW19351   3.815   5.511   2.408
 6151SOL    HW119352   3.842   5.468   2.322
 6151SOL    HW219353   3.894   5.557   2.449
 6152SOL     OW19354   0.533   3.953   3.313
 6152SOL    HW119355   0.600   3.884   3.342
 6152SOL    HW219356   0.455   3.907   3.270
 6153SOL     OW19357   5.930   6.488   1.516
 6153SOL    HW119358   6.013   6.455   1.561
 6153SOL    HW219359   5.929   6.588   1.517
 6154SOL     OW19360   3.500   5.197   2.770
 6154SOL    HW119361   3.457   5.110   2.791
 6154SOL    HW219362   3.584   5.207   2.824
 6155SOL     OW19363   1.645   1.878   4.386
 6155SOL    HW119364   1.660   1.796   4.441
 6155SOL    HW219365   1.733   1.906   4.346
 6156SOL     OW19366   4.515   4.488   2.713
 6156SOL    HW119367   4.466   4.457   2.794
 6156SOL    HW219368   4.584   4.555   2.740
 6157SOL     OW19369   0.556   2.527   1.544
 6157SOL    HW119370   0.543   2.582   1.626
 6157SOL    HW219371   0.600   2.440   1.567
 6158SOL     OW19372   3.348   0.560   6.496
 6158SOL    HW119373   3.346   0.467   6.457
 6158SOL    HW219374   3.291   0.562   6.578
 6159SOL     OW19375   6.706   1.486   0.610
 6159SOL    HW119376   6.688   1.441   0.523
 6159SOL    HW219377   6.805   1.495   0.623
 6160SOL     OW19378   1.128   6.843   0.787
 6160SOL    HW119379   1.063   6.915   0.763
 6160SOL    HW219380   1.193   6.830   0.712
 6161SOL     OW19381   6.261   4.107   0.136
 6161SOL    HW119382   6.185   4.112   0.072
 6161SOL    HW219383   6.243   4.036   0.204
 6162SOL     OW19384   6.504   6.051   1.009
 6162SOL    HW119385   6.456   5.981   1.062
 6162SOL    HW219386   6.440   6.094   0.946
 6163SOL     OW19387   5.159   5.570   2.674
 6163SOL    HW119388   5.211   5.562   2.759
 6163SOL    HW219389   5.089   5.499   2.671
 6164SOL     OW19390   3.509   4.159   4.494
 6164SOL    HW119391   3.462   4.210   4.422
 6164SOL    HW219392   3.602   4.136   4.464
 6165SOL     OW19393   3.527   0.555   6.956
 6165SOL    HW119394   3.466   0.503   7.016
 6165SOL    HW219395   3.547   0.501   6.874
 6166SOL     OW19396   3.100   1.453   5.812
 6166SOL    HW119397   3.159   1.417   5.884
 6166SOL    HW219398   3.007   1.420   5.826
 6167SOL     OW19399   1.408   3.707   2.311
 6167SOL    HW119400   1.496   3.704   2.263
 6167SOL    HW219401   1.339   3.658   2.257
 6168SOL     OW19402   0.753   3.849   3.911
 6168SOL    HW119403   0.729   3.858   3.814
 6168SOL    HW219404   0.725   3.931   3.960
 6169SOL     OW19405   2.802   1.121   1.015
 6169SOL    HW119406   2.795   1.169   0.928
 6169SOL    HW219407   2.714   1.122   1.061
 6170SOL     OW19408   2.708   4.513   0.822
 6170SOL    HW119409   2.677   4.459   0.899
 6170SOL    HW219410   2.808   4.523   0.826
 6171SOL     OW19411   2.174   4.163   1.904
 6171SOL    HW119412   2.270   4.169   1.877
 6171SOL    HW219413   2.163   4.090   1.972
 6172SOL     OW19414   2.347   4.974   1.647
 6172SOL    HW119415   2.408   5.035   1.697
 6172SOL    HW219416   2.283   4.930   1.711
 6173SOL     OW19417   0.799   5.487   2.848
 6173SOL    HW119418   0.881   5.433   2.834
 6173SOL    HW219419   0.786   5.506   2.945
 6174SOL     OW19420   5.970   4.424   1.795
 6174SOL    HW119421   6.012   4.336   1.815
 6174SOL    HW219422   6.033   4.480   1.740
 6175SOL     OW19423   5.356   0.140   4.168
 6175SOL    HW119424   5.400   0.139   4.258
 6175SOL    HW219425   5.420   0.106   4.099
 6176SOL     OW19426   0.001   3.182   0.454
 6176SOL    HW119427   0.087   3.233   0.465
 6176SOL    HW219428   6.999   3.169   0.357
 6177SOL     OW19429   6.021   2.217   2.464
 6177SOL    HW119430   6.012   2.191   2.561
 6177SOL    HW219431   6.113   2.195   2.433
 6178SOL     OW19432   6.985   3.501   1.042
 6178SOL    HW119433   6.995   3.584   1.097
 6178SOL    HW219434   6.925   3.437   1.090
 6179SOL     OW19435   0.430   1.396   5.811
 6179SOL    HW119436   0.451   1.305   5.847
 6179SOL    HW219437   0.500   1.423   5.744
 6180SOL     OW19438   3.180   0.991   6.513
 6180SOL    HW119439   3.171   1.049   6.432
 6180SOL    HW219440   3.221   0.903   6.488
 6181SOL     OW19441   4.393   6.538   6.363
 6181SOL    HW119442   4.354   6.447   6.354
 6181SOL    HW219443   4.320   6.604   6.382
 6182SOL     OW19444   4.542   6.993   5.497
 6182SOL    HW119445   4.622   0.029   5.466
 6182SOL    HW219446   4.460   0.034   5.488
 6183SOL     OW19447   2.492   6.921   2.368
 6183SOL    HW119448   2.525   6.985   2.298
 6183SOL    HW219449   2.419   6.865   2.329
 6184SOL     OW19450   6.793   0.310   5.239
 6184SOL    HW119451   6.862   0.275   5.175
 6184SOL    HW219452   6.828   0.303   5.333
 6185SOL     OW19453   2.581   2.396   0.044
 6185SOL    HW119454   2.595   2.338   6.981
 6185SOL    HW219455   2.626   2.356   0.124
 6186SOL     OW19456   4.150   1.201   4.190
 6186SOL    HW119457   4.130   1.151   4.274
 6186SOL    HW219458   4.083   1.275   4.179
 6187SOL     OW19459   3.240   4.955   4.650
 6187SOL    HW119460   3.326   4.953   4.600
 6187SOL    HW219461   3.250   4.906   4.737
 6188SOL     OW19462   2.531   0.136   2.550
 6188SOL    HW119463   2.505   0.039   2.560
 6188SOL    HW219464   2.607   0.144   2.486
 6189SOL     OW19465   5.355   4.904   3.135
 6189SOL    HW119466   5.373   4.987   3.188
 6189SOL    HW219467   5.327   4.831   3.197
 6190SOL     OW19468   5.356   2.974   5.624
 6190SOL    HW119469   5.264   2.971   5.584
 6190SOL    HW219470   5.421   3.006   5.555
 6191SOL     OW19471   0.283   1.625   6.502
 6191SOL    HW119472   0.278   1.691   6.427
 6191SOL    HW219473   0.210   1.558   6.492
 6192SOL     OW19474   3.390   1.777   0.328
 6192SOL    HW119475   3.317   1.831   0.371
 6192SOL    HW219476   3.444   1.732   0.399
 6193SOL     OW19477   0.082   6.985   1.688
 6193SOL    HW119478   0.053   6.936   1.771
 6193SOL    HW219479   0.180   6.973   1.675
 6194SOL     OW19480   2.981   0.488   1.430
 6194SOL    HW119481   2.994   0.540   1.345
 6194SOL    HW219482   2.976   0.551   1.507
 6195SOL     OW19483   2.413   0.673   5.700
 6195SOL    HW119484   2.476   0.737   5.658
 6195SOL    HW219485   2.457   0.629   5.778
 6196SOL     OW19486   1.333   2.016   5.498
 6196SOL    HW119487   1.301   2.100   5.541
 6196SOL    HW219488   1.281   2.000   5.414
 6197SOL     OW19489   2.554   2.639   1.463
 6197SOL    HW119490   2.514   2.700   1.532
 6197SOL    HW219491   2.638   2.599   1.498
 6198SOL     OW19492   2.869   5.810   2.190
 6198SOL    HW119493   2.941   5.868   2.153
 6198SOL    HW219494   2.856   5.731   2.130
 6199SOL     OW19495   0.135   0.393   6.699
 6199SOL    HW119496   0.120   0.383   6.600
 6199SOL    HW219497   0.231   0.413   6.716
 6200SOL     OW19498   4.007   0.478   5.687
 6200SOL    HW119499   3.961   0.392   5.709
 6200SOL    HW219500   4.100   0.477   5.724
 6201SOL     OW19501   2.445   5.425   4.742
 6201SOL    HW119502   2.508   5.448   4.668
 6201SOL    HW219503   2.467   5.334   4.778
 6202SOL     OW19504   2.078   2.503   1.208
 6202SOL    HW119505   2.103   2.412   1.241
 6202SOL    HW219506   2.120   2.519   1.119
 6203SOL     OW19507   5.798   2.388   4.313
 6203SOL    HW119508   5.825   2.309   4.366
 6203SOL    HW219509   5.705   2.416   4.338
 6204SOL     OW19510   1.020   6.995   5.321
 6204SOL    HW119511   1.060   6.938   5.393
 6204SOL    HW219512   1.024   0.075   5.348
 6205SOL     OW19513   4.311   6.858   6.826
 6205SOL    HW119514   4.294   6.821   6.917
 6205SOL    HW219515   4.371   6.797   6.775
 6206SOL     OW19516   4.718   6.902   3.820
 6206SOL    HW119517   4.678   6.993   3.818
 6206SOL    HW219518   4.651   6.836   3.855
 6207SOL     OW19519   2.355   4.312   4.506
 6207SOL    HW119520   2.278   4.374   4.523
 6207SOL    HW219521   2.420   4.319   4.582
 6208SOL     OW19522   5.079   4.548   5.544
 6208SOL    HW119523   5.176   4.575   5.546
 6208SOL    HW219524   5.072   4.449   5.552
 6209SOL     OW19525   1.557   5.688   0.723
 6209SOL    HW119526   1.584   5.705   0.818
 6209SOL    HW219527   1.633   5.643   0.675
 6210SOL     OW19528   0.039   4.357   2.808
 6210SOL    HW119529   0.075   4.430   2.750
 6210SOL    HW219530   0.081   4.270   2.781
 6211SOL     OW19531   2.642   0.290   4.799
 6211SOL    HW119532   2.654   0.272   4.701
 6211SOL    HW219533   2.545   0.302   4.819
 6212SOL     OW19534   6.504   0.786   4.236
 6212SOL    HW119535   6.521   0.860   4.170
 6212SOL    HW219536   6.527   0.818   4.328
 6213SOL     OW19537   6.836   6.777   0.172
 6213SOL    HW119538   6.796   6.869   0.169
 6213SOL    HW219539   6.896   6.770   0.252
 6214SOL     OW19540   4.898   4.351   1.713
 6214SOL    HW119541   4.840   4.374   1.791
 6214SOL    HW219542   4.980   4.409   1.714
 6215SOL     OW19543   3.608   4.668   1.347
 6215SOL    HW119544   3.632   4.584   1.396
 6215SOL    HW219545   3.625   4.747   1.406
 6216SOL     OW19546   6.174   1.642   2.842
 6216SOL    HW119547   6.211   1.549   2.843
 6216SOL    HW219548   6.122   1.657   2.758
 6217SOL     OW19549   4.355   1.669   1.693
 6217SOL    HW119550   4.342   1.571   1.677
 6217SOL    HW219551   4.396   1.683   1.783
 6218SOL     OW19552   4.535   6.217   4.428
 6218SOL    HW119553   4.517   6.162   4.347
 6218SOL    HW219554   4.465   6.288   4.437
 6219SOL     OW19555   0.282   0.926   4.611
 6219SOL    HW119556   0.373   0.886   4.602
 6219SOL    HW219557   0.216   0.855   4.637
 6220SOL     OW19558   1.069   3.486   4.820
 6220SOL    HW119559   1.157   3.534   4.820
 6220SOL    HW219560   1.047   3.458   4.727
 6221SOL     OW19561   4.605   4.401   4.264
 6221SOL    HW119562   4.627   4.372   4.171
 6221SOL    HW219563   4.506   4.417   4.271
 6222SOL     OW19564   6.846   1.999   1.272
 6222SOL    HW119565   6.818   2.076   1.329
 6222SOL    HW219566   6.901   1.936   1.327
 6223SOL     OW19567   5.112   4.455   3.605
 6223SOL    HW119568   5.083   4.372   3.557
 6223SOL    HW219569   5.129   4.434   3.701
 6224SOL     OW19570   2.777   0.210   4.156
 6224SOL    HW119571   2.751   0.191   4.062
 6224SOL    HW219572   2.703   0.182   4.218
 6225SOL     OW19573   4.010   1.563   6.623
 6225SOL    HW119574   4.073   1.596   6.694
 6225SOL    HW219575   3.932   1.518   6.666
 6226SOL     OW19576   7.000   5.845   4.575
 6226SOL    HW119577   0.046   5.767   4.577
 6226SOL    HW219578   6.906   5.813   4.565
 6227SOL     OW19579   2.776   4.169   6.642
 6227SOL    HW119580   2.758   4.071   6.634
 6227SOL    HW219581   2.697   4.215   6.682
 6228SOL     OW19582   0.112   2.421   3.218
 6228SOL    HW119583   0.058   2.400   3.137
 6228SOL    HW219584   0.056   2.407   3.300
 6229SOL     OW19585   1.470   2.649   2.375
 6229SOL    HW119586   1.567   2.667   2.361
 6229SOL    HW219587   1.436   2.591   2.301
 6230SOL     OW19588   2.151   2.625   4.043
 6230SOL    HW119589   2.055   2.612   4.016
 6230SOL    HW219590   2.197   2.680   3.973
 6231SOL     OW19591   6.403   4.406   2.178
 6231SOL    HW119592   6.387   4.336   2.109
 6231SOL    HW219593   6.499   4.403   2.207
 6232SOL     OW19594   1.009   0.836   7.011
 6232SOL    HW119595   1.002   0.895   0.075
 6232SOL    HW219596   0.932   0.772   7.010
 6233SOL     OW19597   4.062   0.988   6.334
 6233SOL    HW119598   4.147   0.974   6.281
 6233SOL    HW219599   3.990   1.020   6.272
 6234SOL     OW19600   2.769   2.360   3.323
 6234SOL    HW119601   2.848   2.306   3.351
 6234SOL    HW219602   2.719   2.392   3.404
 6235SOL     OW19603   1.891   5.430   1.425
 6235SOL    HW119604   1.957   5.367   1.466
 6235SOL    HW219605   1.856   5.493   1.495
 6236SOL     OW19606   0.431   3.896   0.083
 6236SOL    HW119607   0.391   3.834   0.151
 6236SOL    HW219608   0.389   3.879   7.011
 6237SOL     OW19609   3.547   5.925   6.211
 6237SOL    HW119610   3.615   5.997   6.196
 6237SOL    HW219611   3.514   5.929   6.306
 6238SOL     OW19612   4.947   3.473   1.166
 6238SOL    HW119613   4.963   3.420   1.250
 6238SOL    HW219614   5.025   3.461   1.104
 6239SOL     OW19615   3.384   6.097   4.196
 6239SOL    HW119616   3.383   6.091   4.097
 6239SOL    HW219617   3.291   6.089   4.231
 6240SOL     OW19618   2.236   4.147   0.404
 6240SOL    HW119619   2.307   4.218   0.409
 6240SOL    HW219620   2.279   4.059   0.386
 6241SOL     OW19621   4.300   7.010   2.694
 6241SOL    HW119622   4.227   6.957   2.738
 6241SOL    HW219623   4.334   0.063   2.757
 6242SOL     OW19624   3.430   2.016   2.420
 6242SOL    HW119625   3.446   2.060   2.331
 6242SOL    HW219626   3.517   1.985   2.458
 6243SOL     OW19627   6.141   5.998   2.895
 6243SOL    HW119628   6.141   6.054   2.978
 6243SOL    HW219629   6.223   6.016   2.842
 6244SOL     OW19630   1.395   1.925   1.573
 6244SOL    HW119631   1.301   1.890   1.574
 6244SOL    HW219632   1.418   1.961   1.664
 6245SOL     OW19633   2.279   3.515   0.117
 6245SOL    HW119634   2.335   3.568   0.053
 6245SOL    HW219635   2.319   3.424   0.129
 6246SOL     OW19636   4.265   6.750   0.060
 6246SOL    HW119637   4.353   6.791   0.085
 6246SOL    HW219638   4.205   6.750   0.139
 6247SOL     OW19639   6.340   6.968   2.720
 6247SOL    HW119640   6.248   6.969   2.682
 6247SOL    HW219641   6.383   6.879   2.703
 6248SOL     OW19642   0.960   5.499   0.879
 6248SOL    HW119643   0.927   5.578   0.931
 6248SOL    HW219644   0.967   5.522   0.782
 6249SOL     OW19645   6.551   2.911   6.071
 6249SOL    HW119646   6.456   2.938   6.087
 6249SOL    HW219647   6.610   2.992   6.075
 6250SOL     OW19648   6.842   4.236   6.394
 6250SOL    HW119649   6.917   4.174   6.370
 6250SOL    HW219650   6.868   4.330   6.372
 6251SOL     OW19651   4.714   1.215   0.490
 6251SOL    HW119652   4.707   1.282   0.564
 6251SOL    HW219653   4.781   1.247   0.423
 6252SOL     OW19654   1.648   6.414   5.308
 6252SOL    HW119655   1.737   6.452   5.335
 6252SOL    HW219656   1.589   6.488   5.278
 6253SOL     OW19657   2.451   3.613   1.233
 6253SOL    HW119658   2.375   3.563   1.191
 6253SOL    HW219659   2.444   3.710   1.208
 6254SOL     OW19660   5.662   0.351   6.906
 6254SOL    HW119661   5.743   0.382   6.857
 6254SOL    HW219662   5.656   0.251   6.901
 6255SOL     OW19663   0.778   3.662   2.796
 6255SOL    HW119664   0.811   3.636   2.705
 6255SOL    HW219665   0.849   3.713   2.843
 6256SOL     OW19666   4.540   5.243   4.512
 6256SOL    HW119667   4.468   5.181   4.545
 6256SOL    HW219668   4.568   5.303   4.587
 6257SOL     OW19669   4.053   2.965   6.755
 6257SOL    HW119670   4.084   2.895   6.691
 6257SOL    HW219671   3.957   2.987   6.736
 6258SOL     OW19672   4.487   1.961   3.103
 6258SOL    HW119673   4.465   2.008   3.018
 6258SOL    HW219674   4.437   1.875   3.107
 6259SOL     OW19675   3.430   2.358   1.676
 6259SOL    HW119676   3.467   2.374   1.584
 6259SOL    HW219677   3.505   2.359   1.742
 6260SOL     OW19678   3.882   4.318   1.370
 6260SOL    HW119679   3.886   4.383   1.446
 6260SOL    HW219680   3.862   4.227   1.404
 6261SOL     OW19681   4.870   6.522   6.041
 6261SOL    HW119682   4.961   6.553   6.071
 6261SOL    HW219683   4.810   6.602   6.030
 6262SOL     OW19684   0.017   5.800   5.351
 6262SOL    HW119685   0.050   5.893   5.337
 6262SOL    HW219686   0.089   5.745   5.393
 6263SOL     OW19687   6.908   0.790   1.405
 6263SOL    HW119688   6.849   0.820   1.330
 6263SOL    HW219689   6.956   0.707   1.378
 6264SOL     OW19690   2.754   1.322   0.218
 6264SOL    HW119691   2.671   1.268   0.230
 6264SOL    HW219692   2.834   1.265   0.234
 6265SOL     OW19693   6.601   3.554   0.337
 6265SOL    HW119694   6.614   3.534   0.434
 6265SOL    HW219695   6.503   3.564   0.318
 6266SOL     OW19696   2.298   6.651   2.738
 6266SOL    HW119697   2.280   6.593   2.817
 6266SOL    HW219698   2.234   6.727   2.738
 6267SOL     OW19699   2.944   6.190   6.732
 6267SOL    HW119700   2.928   6.183   6.830
 6267SOL    HW219701   2.890   6.120   6.685
 6268SOL     OW19702   2.310   6.358   2.080
 6268SOL    HW119703   2.371   6.300   2.026
 6268SOL    HW219704   2.232   6.305   2.112
 6269SOL     OW19705   6.904   4.523   6.283
 6269SOL    HW119706   6.911   4.619   6.255
 6269SOL    HW219707   6.964   4.467   6.227
 6270SOL     OW19708   0.762   1.354   4.090
 6270SOL    HW119709   0.803   1.263   4.087
 6270SOL    HW219710   0.664   1.346   4.107
 6271SOL     OW19711   5.776   1.690   1.250
 6271SOL    HW119712   5.781   1.678   1.151
 6271SOL    HW219713   5.716   1.768   1.271
 6272SOL     OW19714   2.947   2.246   3.697
 6272SOL    HW119715   2.988   2.168   3.743
 6272SOL    HW219716   2.985   2.254   3.605
 6273SOL     OW19717   3.522   1.563   2.752
 6273SOL    HW119718   3.440   1.589   2.701
 6273SOL    HW219719   3.532   1.463   2.751
 6274SOL     OW19720   2.850   5.534   6.756
 6274SOL    HW119721   2.914   5.465   6.791
 6274SOL    HW219722   2.895   5.623   6.757
 6275SOL     OW19723   3.285   0.966   4.582
 6275SOL    HW119724   3.343   0.995   4.658
 6275SOL    HW219725   3.205   1.025   4.577
 6276SOL     OW19726   0.513   5.554   3.576
 6276SOL    HW119727   0.454   5.516   3.648
 6276SOL    HW219728   0.606   5.520   3.588
 6277SOL     OW19729   6.438   3.337   4.293
 6277SOL    HW119730   6.487   3.337   4.380
 6277SOL    HW219731   6.447   3.426   4.249
 6278SOL     OW19732   4.595   1.310   3.227
 6278SOL    HW119733   4.639   1.359   3.151
 6278SOL    HW219734   4.663   1.255   3.275
 6279SOL     OW19735   3.593   1.520   5.854
 6279SOL    HW119736   3.635   1.610   5.860
 6279SOL    HW219737   3.494   1.529   5.849
 6280SOL     OW19738   1.350   4.960   5.378
 6280SOL    HW119739   1.313   5.047   5.344
 6280SOL    HW219740   1.277   4.893   5.384
 6281SOL     OW19741   3.493   6.069   4.970
 6281SOL    HW119742   3.584   6.034   4.947
 6281SOL    HW219743   3.466   6.036   5.060
 6282SOL     OW19744   0.798   6.153   4.447
 6282SOL    HW119745   0.705   6.160   4.413
 6282SOL    HW219746   0.827   6.241   4.484
 6283SOL     OW19747   0.946   2.854   4.689
 6283SOL    HW119748   0.926   2.869   4.786
 6283SOL    HW219749   0.960   2.942   4.644
 6284SOL     OW19750   2.450   4.796   0.114
 6284SOL    HW119751   2.402   4.832   0.034
 6284SOL    HW219752   2.429   4.699   0.125
 6285SOL     OW19753   2.205   3.967   2.505
 6285SOL    HW119754   2.241   3.963   2.599
 6285SOL    HW219755   2.180   4.061   2.483
 6286SOL     OW19756   6.915   6.460   3.902
 6286SOL    HW119757   6.949   6.553   3.917
 6286SOL    HW219758   6.845   6.439   3.971
 6287SOL     OW19759   3.412   4.894   3.052
 6287SOL    HW119760   3.429   4.913   2.956
 6287SOL    HW219761   3.422   4.796   3.069
 6288SOL     OW19762   0.046   3.748   1.157
 6288SOL    HW119763   6.996   3.718   1.226
 6288SOL    HW219764   0.126   3.786   1.203
 6289SOL     OW19765   0.343   0.130   2.924
 6289SOL    HW119766   0.267   0.193   2.906
 6289SOL    HW219767   0.307   0.039   2.943
 6290SOL     OW19768   5.632   3.466   3.914
 6290SOL    HW119769   5.655   3.465   3.817
 6290SOL    HW219770   5.695   3.526   3.963
 6291SOL     OW19771   3.657   4.076   3.764
 6291SOL    HW119772   3.591   4.065   3.839
 6291SOL    HW219773   3.750   4.065   3.799
 6292SOL     OW19774   6.871   1.202   1.455
 6292SOL    HW119775   6.814   1.281   1.432
 6292SOL    HW219776   6.912   1.165   1.372
 6293SOL     OW19777   5.624   4.094   6.050
 6293SOL    HW119778   5.613   4.124   5.956
 6293SOL    HW219779   5.674   4.163   6.102
 6294SOL     OW19780   2.858   6.628   0.619
 6294SOL    HW119781   2.839   6.565   0.544
 6294SOL    HW219782   2.937   6.595   0.670
 6295SOL     OW19783   6.272   5.657   6.359
 6295SOL    HW119784   6.236   5.575   6.403
 6295SOL    HW219785   6.201   5.697   6.300
 6296SOL     OW19786   6.022   2.014   3.325
 6296SOL    HW119787   6.063   2.023   3.416
 6296SOL    HW219788   6.077   2.066   3.259
 6297SOL     OW19789   5.428   2.174   5.713
 6297SOL    HW119790   5.492   2.188   5.638
 6297SOL    HW219791   5.334   2.177   5.679
 6298SOL     OW19792   6.217   2.760   4.297
 6298SOL    HW119793   6.286   2.832   4.305
 6298SOL    HW219794   6.230   2.693   4.370
 6299SOL     OW19795   0.416   2.324   0.141
 6299SOL    HW119796   0.454   2.375   0.064
 6299SOL    HW219797   0.434   2.226   0.127
 6300SOL     OW19798   5.268   1.129   3.644
 6300SOL    HW119799   5.301   1.223   3.641
 6300SOL    HW219800   5.344   1.067   3.659
 6301SOL     OW19801   2.882   0.238   1.379
 6301SOL    HW119802   2.910   0.184   1.300
 6301SOL    HW219803   2.910   0.333   1.365
 6302SOL     OW19804   6.448   0.644   3.072
 6302SOL    HW119805   6.536   0.651   3.118
 6302SOL    HW219806   6.382   0.706   3.115
 6303SOL     OW19807   2.475   5.152   4.896
 6303SOL    HW119808   2.475   5.146   4.797
 6303SOL    HW219809   2.530   5.078   4.934
 6304SOL     OW19810   4.335   0.796   5.076
 6304SOL    HW119811   4.323   0.891   5.046
 6304SOL    HW219812   4.344   0.737   4.996
 6305SOL     OW19813   5.207   6.945   3.198
 6305SOL    HW119814   5.177   6.923   3.291
 6305SOL    HW219815   5.140   6.910   3.133
 6306SOL     OW19816   6.416   3.002   4.340
 6306SOL    HW119817   6.374   3.010   4.430
 6306SOL    HW219818   6.504   3.048   4.340
 6307SOL     OW19819   1.993   4.463   0.444
 6307SOL    HW119820   1.938   4.426   0.368
 6307SOL    HW219821   1.955   4.550   0.473
 6308SOL     OW19822   3.736   2.526   6.420
 6308SOL    HW119823   3.700   2.445   6.466
 6308SOL    HW219824   3.661   2.583   6.388
 6309SOL     OW19825   6.261   2.488   5.071
 6309SOL    HW119826   6.227   2.394   5.072
 6309SOL    HW219827   6.185   2.551   5.083
 6310SOL     OW19828   6.761   5.834   5.337
 6310SOL    HW119829   6.856   5.809   5.358
 6310SOL    HW219830   6.736   5.797   5.248
 6311SOL     OW19831   6.393   6.847   5.043
 6311SOL    HW119832   6.311   6.887   5.083
 6311SOL    HW219833   6.410   6.888   4.954
 6312SOL     OW19834   5.850   3.958   5.908
 6312SOL    HW119835   5.871   3.941   5.812
 6312SOL    HW219836   5.756   3.992   5.915
 6313SOL     OW19837   2.482   5.854   3.981
 6313SOL    HW119838   2.453   5.780   3.920
 6313SOL    HW219839   2.485   5.820   4.075
 6314SOL     OW19840   1.230   0.193   3.009
 6314SOL    HW119841   1.148   0.241   2.977
 6314SOL    HW219842   1.293   0.180   2.933
 6315SOL     OW19843   1.447   3.444   0.800
 6315SOL    HW119844   1.437   3.467   0.703
 6315SOL    HW219845   1.502   3.514   0.845
 6316SOL     OW19846   4.404   1.265   4.633
 6316SOL    HW119847   4.315   1.245   4.674
 6316SOL    HW219848   4.392   1.322   4.552
 6317SOL     OW19849   6.707   5.875   4.144
 6317SOL    HW119850   6.787   5.929   4.120
 6317SOL    HW219851   6.645   5.868   4.066
 6318SOL     OW19852   1.631   2.816   3.921
 6318SOL    HW119853   1.571   2.740   3.893
 6318SOL    HW219854   1.575   2.896   3.943
 6319SOL     OW19855   1.133   2.238   3.050
 6319SOL    HW119856   1.055   2.292   3.083
 6319SOL    HW219857   1.195   2.298   2.998
 6320SOL     OW19858   0.128   2.281   2.305
 6320SOL    HW119859   0.128   2.293   2.205
 6320SOL    HW219860   0.189   2.206   2.329
 6321SOL     OW19861   2.182   4.051   5.837
 6321SOL    HW119862   2.210   4.062   5.932
 6321SOL    HW219863   2.205   3.959   5.805
 6322SOL     OW19864   2.322   6.678   0.148
 6322SOL    HW119865   2.397   6.704   0.209
 6322SOL    HW219866   2.302   6.754   0.086
 6323SOL     OW19867   4.512   1.658   1.928
 6323SOL    HW119868   4.486   1.706   2.012
 6323SOL    HW219869   4.474   1.565   1.930
 6324SOL     OW19870   3.142   1.819   1.499
 6324SOL    HW119871   3.239   1.841   1.506
 6324SOL    HW219872   3.118   1.748   1.566
 6325SOL     OW19873   2.046   3.312   3.133
 6325SOL    HW119874   2.081   3.334   3.224
 6325SOL    HW219875   2.027   3.397   3.083
 6326SOL     OW19876   4.412   6.392   1.541
 6326SOL    HW119877   4.469   6.371   1.620
 6326SOL    HW219878   4.317   6.405   1.571
 6327SOL     OW19879   3.794   5.557   5.177
 6327SOL    HW119880   3.855   5.496   5.128
 6327SOL    HW219881   3.810   5.550   5.276
 6328SOL     OW19882   3.514   4.300   0.284
 6328SOL    HW119883   3.556   4.223   0.331
 6328SOL    HW219884   3.541   4.385   0.329
 6329SOL     OW19885   0.706   2.704   3.216
 6329SOL    HW119886   0.641   2.746   3.280
 6329SOL    HW219887   0.693   2.742   3.125
 6330SOL     OW19888   3.358   0.032   6.829
 6330SOL    HW119889   3.451   0.057   6.802
 6330SOL    HW219890   3.360   7.007   6.920
 6331SOL     OW19891   5.377   2.505   1.586
 6331SOL    HW119892   5.403   2.558   1.666
 6331SOL    HW219893   5.455   2.496   1.525
 6332SOL     OW19894   4.155   6.137   1.970
 6332SOL    HW119895   4.214   6.057   1.955
 6332SOL    HW219896   4.079   6.111   2.029
 6333SOL     OW19897   2.075   5.765   2.344
 6333SOL    HW119898   2.047   5.826   2.418
 6333SOL    HW219899   1.994   5.723   2.304
 6334SOL     OW19900   2.336   0.422   1.775
 6334SOL    HW119901   2.347   0.379   1.685
 6334SOL    HW219902   2.239   0.424   1.799
 6335SOL     OW19903   6.319   0.880   0.024
 6335SOL    HW119904   6.355   0.942   6.970
 6335SOL    HW219905   6.299   0.931   0.107
 6336SOL     OW19906   1.925   2.619   5.319
 6336SOL    HW119907   1.969   2.572   5.395
 6336SOL    HW219908   1.834   2.579   5.303
 6337SOL     OW19909   0.779   4.624   5.026
 6337SOL    HW119910   0.805   4.599   5.119
 6337SOL    HW219911   0.685   4.658   5.025
 6338SOL     OW19912   3.525   0.992   4.065
 6338SOL    HW119913   3.506   1.082   4.103
 6338SOL    HW219914   3.590   1.000   3.989
 6339SOL     OW19915   6.517   2.485   4.504
 6339SOL    HW119916   6.599   2.451   4.551
 6339SOL    HW219917   6.541   2.509   4.409
 6340SOL     OW19918   3.178   5.374   3.924
 6340SOL    HW119919   3.148   5.289   3.968
 6340SOL    HW219920   3.099   5.420   3.884
 6341SOL     OW19921   5.779   4.781   1.934
 6341SOL    HW119922   5.840   4.839   1.879
 6341SOL    HW219923   5.696   4.832   1.955
 6342SOL     OW19924   1.036   3.544   0.039
 6342SOL    HW119925   0.993   3.606   0.105
 6342SOL    HW219926   1.119   3.504   0.080
 6343SOL     OW19927   3.557   1.638   0.140
 6343SOL    HW119928   3.653   1.610   0.139
 6343SOL    HW219929   3.542   1.706   0.211
 6344SOL     OW19930   6.094   4.940   4.127
 6344SOL    HW119931   6.108   4.848   4.165
 6344SOL    HW219932   6.116   4.939   4.029
 6345SOL     OW19933   2.221   2.157   1.063
 6345SOL    HW119934   2.310   2.171   1.106
 6345SOL    HW219935   2.148   2.171   1.131
 6346SOL     OW19936   0.745   4.826   4.185
 6346SOL    HW119937   0.703   4.772   4.259
 6346SOL    HW219938   0.733   4.924   4.205
 6347SOL     OW19939   2.927   0.636   0.541
 6347SOL    HW119940   2.996   0.707   0.543
 6347SOL    HW219941   2.955   0.564   0.477
 6348SOL     OW19942   0.181   2.127   4.345
 6348SOL    HW119943   0.142   2.218   4.332
 6348SOL    HW219944   0.137   2.063   4.282
 6349SOL     OW19945   0.482   0.618   0.158
 6349SOL    HW119946   0.446   0.597   0.249
 6349SOL    HW219947   0.434   0.564   0.089
 6350SOL     OW19948   6.927   5.431   3.216
 6350SOL    HW119949   6.870   5.371   3.271
 6350SOL    HW219950   6.909   5.526   3.240
 6351SOL     OW19951   0.220   2.498   2.431
 6351SOL    HW119952   0.273   2.447   2.499
 6351SOL    HW219953   0.179   2.434   2.366
 6352SOL     OW19954   6.083   4.236   2.951
 6352SOL    HW119955   6.043   4.156   2.906
 6352SOL    HW219956   6.167   4.210   2.998
 6353SOL     OW19957   6.345   0.279   1.929
 6353SOL    HW119958   6.273   0.346   1.948
 6353SOL    HW219959   6.326   0.194   1.979
 6354SOL     OW19960   6.605   0.181   5.084
 6354SOL    HW119961   6.633   0.085   5.096
 6354SOL    HW219962   6.656   0.238   5.148
 6355SOL     OW19963   1.149   1.524   0.849
 6355SOL    HW119964   1.068   1.497   0.797
 6355SOL    HW219965   1.230   1.478   0.811
 6356SOL     OW19966   3.436   3.862   1.645
 6356SOL    HW119967   3.506   3.804   1.686
 6356SOL    HW219968   3.475   3.952   1.624
 6357SOL     OW19969   5.171   1.571   0.879
 6357SOL    HW119970   5.258   1.524   0.869
 6357SOL    HW219971   5.185   1.670   0.878
 6358SOL     OW19972   1.140   2.874   5.447
 6358SOL    HW119973   1.132   2.957   5.393
 6358SOL    HW219974   1.226   2.828   5.426
 6359SOL     OW19975   0.315   0.250   6.236
 6359SOL    HW119976   0.281   0.199   6.158
 6359SOL    HW219977   0.415   0.242   6.241
 6360SOL     OW19978   2.150   5.198   3.886
 6360SOL    HW119979   2.110   5.115   3.847
 6360SOL    HW219980   2.094   5.229   3.963
 6361SOL     OW19981   3.116   6.091   5.388
 6361SOL    HW119982   3.043   6.089   5.456
 6361SOL    HW219983   3.093   6.029   5.313
 6362SOL     OW19984   6.573   4.494   5.814
 6362SOL    HW119985   6.477   4.519   5.827
 6362SOL    HW219986   6.597   4.420   5.877
 6363SOL     OW19987   0.706   6.007   3.462
 6363SOL    HW119988   0.644   5.961   3.524
 6363SOL    HW219989   0.785   5.948   3.443
 6364SOL     OW19990   2.503   1.596   6.919
 6364SOL    HW119991   2.526   1.502   6.893
 6364SOL    HW219992   2.491   1.651   6.836
 6365SOL     OW19993   4.000   5.853   2.256
 6365SOL    HW119994   4.077   5.905   2.295
 6365SOL    HW219995   3.990   5.767   2.306
 6366SOL     OW19996   0.617   3.997   5.105
 6366SOL    HW119997   0.683   4.069   5.128
 6366SOL    HW219998   0.608   3.992   5.006
 6367SOL     OW19999   5.154   5.425   2.041
 6367SOL    HW120000   5.169   5.417   2.140
 6367SOL    HW220001   5.197   5.509   2.007
 6368SOL     OW20002   2.664   1.562   2.167
 6368SOL    HW120003   2.676   1.463   2.174
 6368SOL    HW220004   2.615   1.595   2.247
 6369SOL     OW20005   2.152   5.937   5.009
 6369SOL    HW120006   2.174   5.964   5.103
 6369SOL    HW220007   2.170   6.013   4.947
 6370SOL     OW20008   5.052   2.264   2.175
 6370SOL    HW120009   5.124   2.321   2.214
 6370SOL    HW220010   4.980   2.248   2.243
 6371SOL     OW20011   4.631   1.661   3.479
 6371SOL    HW120012   4.641   1.647   3.381
 6371SOL    HW220013   4.572   1.740   3.496
 6372SOL     OW20014   2.764   0.272   2.743
 6372SOL    HW120015   2.737   0.326   2.663
 6372SOL    HW220016   2.782   0.178   2.715
 6373SOL     OW20017   3.302   4.630   6.949
 6373SOL    HW120018   3.225   4.694   6.951
 6373SOL    HW220019   3.303   4.576   0.018
 6374SOL     OW20020   3.030   3.150   4.785
 6374SOL    HW120021   2.983   3.064   4.765
 6374SOL    HW220022   2.982   3.225   4.740
 6375SOL     OW20023   2.100   5.493   1.677
 6375SOL    HW120024   2.130   5.484   1.772
 6375SOL    HW220025   2.001   5.500   1.674
 6376SOL     OW20026   0.893   1.170   5.491
 6376SOL    HW120027   0.926   1.084   5.452
 6376SOL    HW220028   0.952   1.245   5.461
 6377SOL     OW20029   0.364   2.665   3.519
 6377SOL    HW120030   0.294   2.721   3.563
 6377SOL    HW220031   0.332   2.635   3.430
 6378SOL     OW20032   3.877   5.287   3.903
 6378SOL    HW120033   3.785   5.261   3.933
 6378SOL    HW220034   3.936   5.206   3.904
 6379SOL     OW20035   1.947   4.080   1.721
 6379SOL    HW120036   1.875   4.028   1.767
 6379SOL    HW220037   2.034   4.067   1.769
 6380SOL     OW20038   0.881   0.416   6.211
 6380SOL    HW120039   0.873   0.485   6.139
 6380SOL    HW220040   0.929   0.336   6.175
 6381SOL     OW20041   3.836   3.462   3.239
 6381SOL    HW120042   3.802   3.460   3.333
 6381SOL    HW220043   3.841   3.369   3.203
 6382SOL     OW20044   1.039   4.526   5.206
 6382SOL    HW120045   0.992   4.471   5.136
 6382SOL    HW220046   1.082   4.605   5.163
 6383SOL     OW20047   3.958   1.852   3.868
 6383SOL    HW120048   3.861   1.864   3.847
 6383SOL    HW220049   3.973   1.866   3.966
 6384SOL     OW20050   6.556   4.559   1.942
 6384SOL    HW120051   6.579   4.462   1.948
 6384SOL    HW220052   6.633   4.614   1.974
 6385SOL     OW20053   0.785   5.853   5.177
 6385SOL    HW120054   0.825   5.892   5.260
 6385SOL    HW220055   0.836   5.886   5.098
 6386SOL     OW20056   2.020   5.520   2.804
 6386SOL    HW120057   2.062   5.610   2.799
 6386SOL    HW220058   2.069   5.464   2.871
 6387SOL     OW20059   5.686   1.181   5.022
 6387SOL    HW120060   5.762   1.123   4.993
 6387SOL    HW220061   5.612   1.174   4.956
 6388SOL     OW20062   2.230   5.241   1.589
 6388SOL    HW120063   2.307   5.177   1.584
 6388SOL    HW220064   2.262   5.329   1.624
 6389SOL     OW20065   1.537   3.667   0.919
 6389SOL    HW120066   1.485   3.636   0.998
 6389SOL    HW220067   1.518   3.764   0.902
 6390SOL     OW20068   0.693   3.225   4.702
 6390SOL    HW120069   0.704   3.188   4.794
 6390SOL    HW220070   0.731   3.160   4.636
 6391SOL     OW20071   4.099   0.561   0.703
 6391SOL    HW120072   4.060   0.649   0.730
 6391SOL    HW220073   4.140   0.517   0.783
 6392SOL     OW20074   1.517   5.952   4.398
 6392SOL    HW120075   1.518   5.958   4.298
 6392SOL    HW220076   1.518   5.856   4.426
 6393SOL     OW20077   4.821   1.278   6.576
 6393SOL    HW120078   4.757   1.352   6.557
 6393SOL    HW220079   4.821   1.213   6.500
 6394SOL     OW20080   3.736   5.544   2.733
 6394SOL    HW120081   3.799   5.481   2.779
 6394SOL    HW220082   3.670   5.579   2.800
 6395SOL     OW20083   5.780   1.751   6.958
 6395SOL    HW120084   5.823   1.666   6.927
 6395SOL    HW220085   5.682   1.747   6.939
 6396SOL     OW20086   6.851   1.828   6.826
 6396SOL    HW120087   6.852   1.856   6.922
 6396SOL    HW220088   6.781   1.880   6.777
 6397SOL     OW20089   0.253   0.233   0.214
 6397SOL    HW120090   0.328   0.208   0.276
 6397SOL    HW220091   0.284   0.305   0.151
 6398SOL     OW20092   4.642   1.163   1.641
 6398SOL    HW120093   4.644   1.201   1.734
 6398SOL    HW220094   4.733   1.128   1.617
 6399SOL     OW20095   1.038   6.846   6.328
 6399SOL    HW120096   1.001   6.754   6.345
 6399SOL    HW220097   1.094   6.844   6.245
 6400SOL     OW20098   2.990   5.053   4.736
 6400SOL    HW120099   3.080   5.017   4.712
 6400SOL    HW220100   2.992   5.090   4.829
 6401SOL     OW20101   6.808   4.695   5.464
 6401SOL    HW120102   6.905   4.693   5.441
 6401SOL    HW220103   6.791   4.632   5.540
 6402SOL     OW20104   2.155   4.112   2.988
 6402SOL    HW120105   2.092   4.035   2.976
 6402SOL    HW220106   2.125   4.189   2.932
 6403SOL     OW20107   0.135   6.341   2.031
 6403SOL    HW120108   0.128   6.351   1.932
 6403SOL    HW220109   0.082   6.261   2.060
 6404SOL     OW20110   5.003   0.134   2.063
 6404SOL    HW120111   5.028   0.231   2.060
 6404SOL    HW220112   4.905   0.125   2.080
 6405SOL     OW20113   3.500   6.330   2.050
 6405SOL    HW120114   3.429   6.308   1.983
 6405SOL    HW220115   3.469   6.405   2.108
 6406SOL     OW20116   2.258   2.357   3.401
 6406SOL    HW120117   2.215   2.333   3.488
 6406SOL    HW220118   2.313   2.280   3.369
 6407SOL     OW20119   5.487   6.431   0.398
 6407SOL    HW120120   5.489   6.524   0.435
 6407SOL    HW220121   5.393   6.398   0.396
 6408SOL     OW20122   6.515   2.253   0.834
 6408SOL    HW120123   6.567   2.168   0.833
 6408SOL    HW220124   6.418   2.232   0.851
 6409SOL     OW20125   1.001   5.027   1.688
 6409SOL    HW120126   0.980   4.992   1.779
 6409SOL    HW220127   1.032   4.953   1.629
 6410SOL     OW20128   6.711   0.033   1.009
 6410SOL    HW120129   6.650   6.989   0.958
 6410SOL    HW220130   6.790   0.056   0.953
 6411SOL     OW20131   1.769   1.869   3.342
 6411SOL    HW120132   1.717   1.922   3.275
 6411SOL    HW220133   1.854   1.837   3.301
 6412SOL     OW20134   5.833   2.408   5.087
 6412SOL    HW120135   5.802   2.502   5.098
 6412SOL    HW220136   5.763   2.345   5.122
 6413SOL     OW20137   0.145   5.534   1.084
 6413SOL    HW120138   0.174   5.544   1.179
 6413SOL    HW220139   0.147   5.437   1.059
 6414SOL     OW20140   6.596   0.009   3.649
 6414SOL    HW120141   6.598   6.947   3.587
 6414SOL    HW220142   6.549   7.000   3.733
 6415SOL     OW20143   1.626   1.675   2.230
 6415SOL    HW120144   1.535   1.686   2.271
 6415SOL    HW220145   1.690   1.737   2.276
 6416SOL     OW20146   3.235   6.131   6.732
 6416SOL    HW120147   3.139   6.159   6.726
 6416SOL    HW220148   3.244   6.036   6.700
 6417SOL     OW20149   6.709   6.243   4.091
 6417SOL    HW120150   6.653   6.229   4.173
 6417SOL    HW220151   6.651   6.240   4.010
 6418SOL     OW20152   6.613   4.991   2.226
 6418SOL    HW120153   6.520   4.977   2.191
 6418SOL    HW220154   6.673   5.016   2.150
 6419SOL     OW20155   3.078   2.090   0.832
 6419SOL    HW120156   3.076   2.013   0.896
 6419SOL    HW220157   3.170   2.098   0.794
 6420SOL     OW20158   0.706   1.957   6.984
 6420SOL    HW120159   0.730   2.044   6.941
 6420SOL    HW220160   0.710   1.883   6.916
 6421SOL     OW20161   5.859   1.582   0.676
 6421SOL    HW120162   5.933   1.525   0.640
 6421SOL    HW220163   5.772   1.532   0.670
 6422SOL     OW20164   5.108   2.481   2.985
 6422SOL    HW120165   5.189   2.498   2.928
 6422SOL    HW220166   5.136   2.473   3.081
 6423SOL     OW20167   5.648   3.652   0.840
 6423SOL    HW120168   5.598   3.737   0.828
 6423SOL    HW220169   5.585   3.579   0.866
 6424SOL     OW20170   6.410   3.511   4.957
 6424SOL    HW120171   6.342   3.488   5.027
 6424SOL    HW220172   6.478   3.574   4.996
 6425SOL     OW20173   0.864   5.261   0.947
 6425SOL    HW120174   0.817   5.267   1.035
 6425SOL    HW220175   0.871   5.353   0.908
 6426SOL     OW20176   6.558   3.961   3.611
 6426SOL    HW120177   6.499   4.027   3.658
 6426SOL    HW220178   6.625   4.011   3.555
 6427SOL     OW20179   1.136   3.545   5.963
 6427SOL    HW120180   1.138   3.555   5.863
 6427SOL    HW220181   1.178   3.457   5.988
 6428SOL     OW20182   6.622   3.894   5.615
 6428SOL    HW120183   6.540   3.837   5.614
 6428SOL    HW220184   6.596   3.990   5.620
 6429SOL     OW20185   1.351   0.330   4.573
 6429SOL    HW120186   1.389   0.266   4.640
 6429SOL    HW220187   1.351   0.422   4.612
 6430SOL     OW20188   6.520   3.214   6.896
 6430SOL    HW120189   6.608   3.186   6.935
 6430SOL    HW220190   6.473   3.134   6.859
 6431SOL     OW20191   5.501   1.416   2.105
 6431SOL    HW120192   5.556   1.363   2.040
 6431SOL    HW220193   5.558   1.445   2.181
 6432SOL     OW20194   6.441   3.941   0.929
 6432SOL    HW120195   6.468   3.894   0.845
 6432SOL    HW220196   6.501   4.020   0.944
 6433SOL     OW20197   2.228   3.198   1.679
 6433SOL    HW120198   2.184   3.193   1.590
 6433SOL    HW220199   2.322   3.231   1.668
 6434SOL     OW20200   1.666   5.952   0.675
 6434SOL    HW120201   1.652   5.858   0.707
 6434SOL    HW220202   1.661   5.954   0.575
 6435SOL     OW20203   6.233   3.476   0.702
 6435SOL    HW120204   6.161   3.539   0.730
 6435SOL    HW220205   6.210   3.437   0.612
 6436SOL     OW20206   3.361   2.175   0.724
 6436SOL    HW120207   3.404   2.240   0.786
 6436SOL    HW220208   3.363   2.212   0.631
 6437SOL     OW20209   0.052   1.165   2.351
 6437SOL    HW120210   0.149   1.146   2.364
 6437SOL    HW220211   0.041   1.254   2.306
 6438SOL     OW20212   0.496   3.925   4.594
 6438SOL    HW120213   0.427   3.966   4.535
 6438SOL    HW220214   0.567   3.992   4.615
 6439SOL     OW20215   0.484   5.987   2.423
 6439SOL    HW120216   0.474   6.051   2.346
 6439SOL    HW220217   0.406   5.925   2.425
 6440SOL     OW20218   0.540   0.693   2.168
 6440SOL    HW120219   0.580   0.745   2.093
 6440SOL    HW220220   0.559   0.738   2.255
 6441SOL     OW20221   5.374   2.231   3.122
 6441SOL    HW120222   5.361   2.192   3.213
 6441SOL    HW220223   5.298   2.202   3.063
 6442SOL     OW20224   1.261   2.072   3.909
 6442SOL    HW120225   1.188   2.114   3.855
 6442SOL    HW220226   1.293   1.989   3.862
 6443SOL     OW20227   2.555   0.863   0.783
 6443SOL    HW120228   2.640   0.878   0.833
 6443SOL    HW220229   2.575   0.825   0.693
 6444SOL     OW20230   0.863   1.666   2.818
 6444SOL    HW120231   0.781   1.610   2.809
 6444SOL    HW220232   0.875   1.691   2.914
 6445SOL     OW20233   3.632   4.266   6.265
 6445SOL    HW120234   3.552   4.212   6.239
 6445SOL    HW220235   3.617   4.362   6.240
 6446SOL     OW20236   0.470   1.239   1.107
 6446SOL    HW120237   0.396   1.207   1.166
 6446SOL    HW220238   0.557   1.233   1.157
 6447SOL     OW20239   1.662   1.171   3.558
 6447SOL    HW120240   1.690   1.076   3.559
 6447SOL    HW220241   1.685   1.212   3.470
 6448SOL     OW20242   6.206   1.969   1.858
 6448SOL    HW120243   6.227   1.983   1.955
 6448SOL    HW220244   6.114   1.930   1.849
 6449SOL     OW20245   4.541   2.509   0.315
 6449SOL    HW120246   4.547   2.541   0.220
 6449SOL    HW220247   4.517   2.587   0.374
 6450SOL     OW20248   6.621   2.485   0.506
 6450SOL    HW120249   6.658   2.475   0.413
 6450SOL    HW220250   6.672   2.556   0.554
 6451SOL     OW20251   3.099   6.441   4.941
 6451SOL    HW120252   3.184   6.458   4.990
 6451SOL    HW220253   3.074   6.345   4.947
 6452SOL     OW20254   3.753   5.980   4.932
 6452SOL    HW120255   3.753   5.983   4.832
 6452SOL    HW220256   3.813   5.906   4.963
 6453SOL     OW20257   2.838   4.976   6.906
 6453SOL    HW120258   2.801   4.926   6.984
 6453SOL    HW220259   2.934   4.999   6.924
 6454SOL     OW20260   3.836   0.840   5.055
 6454SOL    HW120261   3.791   0.862   5.142
 6454SOL    HW220262   3.855   0.741   5.052
 6455SOL     OW20263   6.038   3.235   0.101
 6455SOL    HW120264   6.132   3.236   0.137
 6455SOL    HW220265   6.041   3.233   0.001
 6456SOL     OW20266   6.453   1.995   4.114
 6456SOL    HW120267   6.496   2.059   4.177
 6456SOL    HW220268   6.369   2.036   4.077
 6457SOL     OW20269   5.878   3.261   1.529
 6457SOL    HW120270   5.926   3.184   1.570
 6457SOL    HW220271   5.786   3.267   1.565
 6458SOL     OW20272   1.042   5.669   3.806
 6458SOL    HW120273   1.133   5.631   3.820
 6458SOL    HW220274   0.975   5.612   3.853
 6459SOL     OW20275   5.788   3.733   6.861
 6459SOL    HW120276   5.798   3.833   6.859
 6459SOL    HW220277   5.695   3.708   6.837
 6460SOL     OW20278   3.927   5.373   2.185
 6460SOL    HW120279   4.004   5.318   2.154
 6460SOL    HW220280   3.853   5.369   2.118
 6461SOL     OW20281   2.969   6.004   4.514
 6461SOL    HW120282   2.900   5.948   4.560
 6461SOL    HW220283   3.060   5.967   4.533
 6462SOL     OW20284   1.783   4.585   2.606
 6462SOL    HW120285   1.754   4.547   2.518
 6462SOL    HW220286   1.804   4.682   2.594
 6463SOL     OW20287   2.429   3.103   5.593
 6463SOL    HW120288   2.405   3.164   5.517
 6463SOL    HW220289   2.357   3.106   5.662
 6464SOL     OW20290   0.878   5.489   2.046
 6464SOL    HW120291   0.906   5.417   1.983
 6464SOL    HW220292   0.954   5.553   2.060
 6465SOL     OW20293   6.224   0.280   2.978
 6465SOL    HW120294   6.252   0.358   2.923
 6465SOL    HW220295   6.300   0.215   2.985
 6466SOL     OW20296   6.577   2.821   4.803
 6466SOL    HW120297   6.592   2.872   4.887
 6466SOL    HW220298   6.479   2.805   4.790
 6467SOL     OW20299   3.845   0.252   5.771
 6467SOL    HW120300   3.762   0.296   5.735
 6467SOL    HW220301   3.854   0.273   5.868
 6468SOL     OW20302   6.461   4.640   2.601
 6468SOL    HW120303   6.510   4.723   2.574
 6468SOL    HW220304   6.373   4.664   2.642
 6469SOL     OW20305   6.283   2.451   5.967
 6469SOL    HW120306   6.200   2.501   5.993
 6469SOL    HW220307   6.269   2.353   5.985
 6470SOL     OW20308   6.593   6.399   4.849
 6470SOL    HW120309   6.617   6.302   4.847
 6470SOL    HW220310   6.570   6.429   4.756
 6471SOL     OW20311   6.651   6.927   5.118
 6471SOL    HW120312   6.702   6.850   5.156
 6471SOL    HW220313   6.553   6.912   5.132
 6472SOL     OW20314   1.443   6.927   1.863
 6472SOL    HW120315   1.387   6.995   1.816
 6472SOL    HW220316   1.489   6.869   1.795
 6473SOL     OW20317   2.220   1.669   5.721
 6473SOL    HW120318   2.278   1.732   5.670
 6473SOL    HW220319   2.124   1.685   5.696
 6474SOL     OW20320   2.087   2.955   6.827
 6474SOL    HW120321   2.023   3.024   6.861
 6474SOL    HW220322   2.121   2.901   6.904
 6475SOL     OW20323   4.069   5.118   3.643
 6475SOL    HW120324   4.099   5.208   3.612
 6475SOL    HW220325   4.050   5.121   3.741
 6476SOL     OW20326   4.774   5.839   3.130
 6476SOL    HW120327   4.813   5.884   3.050
 6476SOL    HW220328   4.842   5.836   3.203
 6477SOL     OW20329   6.600   5.745   0.514
 6477SOL    HW120330   6.587   5.647   0.504
 6477SOL    HW220331   6.647   5.781   0.434
 6478SOL     OW20332   4.339   6.400   0.775
 6478SOL    HW120333   4.426   6.432   0.738
 6478SOL    HW220334   4.356   6.326   0.841
 6479SOL     OW20335   2.781   5.971   2.420
 6479SOL    HW120336   2.820   5.930   2.338
 6479SOL    HW220337   2.796   5.911   2.499
 6480SOL     OW20338   2.084   1.359   0.732
 6480SOL    HW120339   2.153   1.414   0.685
 6480SOL    HW220340   2.123   1.320   0.816
 6481SOL     OW20341   4.568   0.954   0.874
 6481SOL    HW120342   4.515   1.023   0.924
 6481SOL    HW220343   4.554   0.865   0.917
 6482SOL     OW20344   6.863   0.272   5.510
 6482SOL    HW120345   6.902   0.259   5.601
 6482SOL    HW220346   6.810   0.191   5.484
 6483SOL     OW20347   1.062   5.488   1.281
 6483SOL    HW120348   1.016   5.570   1.316
 6483SOL    HW220349   1.027   5.408   1.329
 6484SOL     OW20350   4.161   0.439   2.677
 6484SOL    HW120351   4.120   0.360   2.722
 6484SOL    HW220352   4.105   0.465   2.598
 6485SOL     OW20353   6.747   2.351   2.194
 6485SOL    HW120354   6.824   2.351   2.258
 6485SOL    HW220355   6.735   2.260   2.156
 6486SOL     OW20356   1.472   3.325   3.071
 6486SOL    HW120357   1.419   3.289   3.148
 6486SOL    HW220358   1.528   3.402   3.102
 6487SOL     OW20359   6.378   5.602   3.029
 6487SOL    HW120360   6.312   5.528   3.044
 6487SOL    HW220361   6.361   5.676   3.095
 6488SOL     OW20362   3.339   5.043   4.283
 6488SOL    HW120363   3.255   5.091   4.309
 6488SOL    HW220364   3.415   5.073   4.341
 6489SOL     OW20365   2.975   0.810   6.537
 6489SOL    HW120366   2.940   0.820   6.444
 6489SOL    HW220367   3.009   0.898   6.569
 6490SOL     OW20368   3.699   0.829   6.801
 6490SOL    HW120369   3.601   0.848   6.799
 6490SOL    HW220370   3.715   0.742   6.848
 6491SOL     OW20371   4.903   1.027   5.745
 6491SOL    HW120372   4.840   1.062   5.675
 6491SOL    HW220373   4.985   1.084   5.747
 6492SOL     OW20374   5.877   5.261   6.449
 6492SOL    HW120375   5.870   5.199   6.371
 6492SOL    HW220376   5.924   5.345   6.420
 6493SOL     OW20377   6.943   6.343   5.326
 6493SOL    HW120378   6.905   6.279   5.392
 6493SOL    HW220379   6.869   6.381   5.270
 6494SOL     OW20380   0.083   2.779   3.149
 6494SOL    HW120381   0.138   2.847   3.100
 6494SOL    HW220382   0.122   2.688   3.133
 6495SOL     OW20383   5.576   4.617   2.311
 6495SOL    HW120384   5.660   4.640   2.261
 6495SOL    HW220385   5.549   4.523   2.290
 6496SOL     OW20386   6.913   6.713   3.468
 6496SOL    HW120387   6.919   6.767   3.384
 6496SOL    HW220388   6.934   6.772   3.547
 6497SOL     OW20389   1.260   0.460   1.103
 6497SOL    HW120390   1.295   0.460   1.197
 6497SOL    HW220391   1.336   0.441   1.040
 6498SOL     OW20392   1.204   3.727   4.408
 6498SOL    HW120393   1.200   3.823   4.381
 6498SOL    HW220394   1.123   3.704   4.462
 6499SOL     OW20395   6.100   1.328   2.954
 6499SOL    HW120396   6.002   1.342   2.973
 6499SOL    HW220397   6.144   1.289   3.035
 6500SOL     OW20398   5.537   4.914   1.996
 6500SOL    HW120399   5.464   4.849   1.973
 6500SOL    HW220400   5.528   4.942   2.091
 6501SOL     OW20401   6.658   4.036   0.499
 6501SOL    HW120402   6.594   4.112   0.493
 6501SOL    HW220403   6.751   4.070   0.483
 6502SOL     OW20404   0.264   5.413   1.972
 6502SOL    HW120405   0.214   5.409   1.885
 6502SOL    HW220406   0.335   5.483   1.967
 6503SOL     OW20407   3.657   0.359   3.998
 6503SOL    HW120408   3.572   0.408   4.016
 6503SOL    HW220409   3.637   0.262   3.981
 6504SOL     OW20410   2.508   2.584   0.254
 6504SOL    HW120411   2.594   2.634   0.264
 6504SOL    HW220412   2.517   2.518   0.180
 6505SOL     OW20413   5.385   5.101   0.706
 6505SOL    HW120414   5.481   5.081   0.690
 6505SOL    HW220415   5.376   5.193   0.744
 6506SOL     OW20416   2.535   1.352   1.932
 6506SOL    HW120417   2.634   1.341   1.941
 6506SOL    HW220418   2.514   1.447   1.909
 6507SOL     OW20419   2.904   0.712   1.622
 6507SOL    HW120420   2.856   0.635   1.663
 6507SOL    HW220421   2.840   0.786   1.605
 6508SOL     OW20422   1.298   3.133   1.729
 6508SOL    HW120423   1.212   3.105   1.686
 6508SOL    HW220424   1.373   3.123   1.664
 6509SOL     OW20425   1.522   3.056   3.991
 6509SOL    HW120426   1.502   3.143   3.944
 6509SOL    HW220427   1.612   3.062   4.034
 6510SOL     OW20428   6.228   4.011   6.682
 6510SOL    HW120429   6.156   3.966   6.734
 6510SOL    HW220430   6.230   4.108   6.706
 6511SOL     OW20431   6.687   6.908   5.910
 6511SOL    HW120432   6.637   6.850   5.846
 6511SOL    HW220433   6.655   6.891   6.003
 6512SOL     OW20434   5.573   6.675   4.303
 6512SOL    HW120435   5.490   6.707   4.256
 6512SOL    HW220436   5.552   6.593   4.355
 6513SOL     OW20437   1.295   6.962   3.623
 6513SOL    HW120438   1.362   6.889   3.640
 6513SOL    HW220439   1.336   0.016   3.565
 6514SOL     OW20440   2.786   0.760   3.806
 6514SOL    HW120441   2.697   0.800   3.827
 6514SOL    HW220442   2.805   0.685   3.869
 6515SOL     OW20443   1.406   1.093   3.488
 6515SOL    HW120444   1.391   1.015   3.548
 6515SOL    HW220445   1.502   1.120   3.492
 6516SOL     OW20446   2.311   1.405   5.813
 6516SOL    HW120447   2.409   1.398   5.832
 6516SOL    HW220448   2.289   1.498   5.785
 6517SOL     OW20449   3.400   1.961   0.955
 6517SOL    HW120450   3.353   2.018   1.023
 6517SOL    HW220451   3.412   2.013   0.871
 6518SOL     OW20452   5.310   6.040   1.462
 6518SOL    HW120453   5.372   6.055   1.540
 6518SOL    HW220454   5.264   6.126   1.439
 6519SOL     OW20455   0.415   2.012   3.675
 6519SOL    HW120456   0.482   1.973   3.738
 6519SOL    HW220457   0.407   1.953   3.594
 6520SOL     OW20458   5.962   5.502   1.307
 6520SOL    HW120459   5.932   5.560   1.232
 6520SOL    HW220460   5.893   5.431   1.324
 6521SOL     OW20461   1.352   2.110   6.088
 6521SOL    HW120462   1.362   2.012   6.100
 6521SOL    HW220463   1.441   2.154   6.105
 6522SOL     OW20464   2.498   4.762   4.314
 6522SOL    HW120465   2.543   4.686   4.362
 6522SOL    HW220466   2.534   4.768   4.221
 6523SOL     OW20467   2.801   2.680   1.143
 6523SOL    HW120468   2.710   2.697   1.106
 6523SOL    HW220469   2.865   2.660   1.068
 6524SOL     OW20470   3.890   2.355   5.364
 6524SOL    HW120471   3.798   2.318   5.365
 6524SOL    HW220472   3.886   2.455   5.375
 6525SOL     OW20473   0.230   2.427   4.772
 6525SOL    HW120474   0.194   2.497   4.711
 6525SOL    HW220475   0.298   2.467   4.833
 6526SOL     OW20476   1.707   6.370   3.039
 6526SOL    HW120477   1.708   6.271   3.051
 6526SOL    HW220478   1.613   6.403   3.036
 6527SOL     OW20479   1.937   1.294   4.706
 6527SOL    HW120480   1.960   1.274   4.611
 6527SOL    HW220481   1.927   1.209   4.756
 6528SOL     OW20482   6.586   0.693   2.727
 6528SOL    HW120483   6.495   0.703   2.767
 6528SOL    HW220484   6.615   0.597   2.733
 6529SOL     OW20485   5.949   2.950   2.511
 6529SOL    HW120486   6.046   2.971   2.496
 6529SOL    HW220487   5.924   2.975   2.605
 6530SOL     OW20488   0.178   0.749   0.297
 6530SOL    HW120489   0.261   0.715   0.341
 6530SOL    HW220490   0.136   0.819   0.356
 6531SOL     OW20491   5.050   2.294   5.899
 6531SOL    HW120492   5.007   2.261   5.815
 6531SOL    HW220493   5.098   2.219   5.944
 6532SOL     OW20494   1.746   1.471   6.515
 6532SOL    HW120495   1.694   1.521   6.584
 6532SOL    HW220496   1.730   1.373   6.526
 6533SOL     OW20497   5.102   0.579   0.109
 6533SOL    HW120498   5.098   0.542   0.016
 6533SOL    HW220499   5.012   0.570   0.152
 6534SOL     OW20500   4.040   2.590   6.856
 6534SOL    HW120501   4.108   2.620   6.789
 6534SOL    HW220502   4.067   2.502   6.893
 6535SOL     OW20503   1.832   2.412   4.882
 6535SOL    HW120504   1.924   2.375   4.869
 6535SOL    HW220505   1.781   2.407   4.796
 6536SOL     OW20506   0.659   1.603   0.878
 6536SOL    HW120507   0.641   1.515   0.922
 6536SOL    HW220508   0.611   1.607   0.790
 6537SOL     OW20509   0.158   0.852   6.078
 6537SOL    HW120510   0.086   0.826   6.142
 6537SOL    HW220511   0.223   0.914   6.123
 6538SOL     OW20512   3.308   2.575   5.598
 6538SOL    HW120513   3.336   2.603   5.506
 6538SOL    HW220514   3.260   2.487   5.593
 6539SOL     OW20515   3.286   1.255   6.643
 6539SOL    HW120516   3.313   1.273   6.738
 6539SOL    HW220517   3.354   1.196   6.600
 6540SOL     OW20518   4.104   1.957   3.161
 6540SOL    HW120519   4.079   2.036   3.105
 6540SOL    HW220520   4.152   1.890   3.104
 6541SOL     OW20521   2.923   1.788   5.311
 6541SOL    HW120522   2.851   1.829   5.255
 6541SOL    HW220523   2.991   1.745   5.252
 6542SOL     OW20524   4.519   4.882   2.628
 6542SOL    HW120525   4.518   4.883   2.728
 6542SOL    HW220526   4.547   4.791   2.596
 6543SOL     OW20527   1.319   6.427   6.198
 6543SOL    HW120528   1.409   6.385   6.209
 6543SOL    HW220529   1.316   6.514   6.247
 6544SOL     OW20530   0.711   5.012   2.734
 6544SOL    HW120531   0.633   5.074   2.735
 6544SOL    HW220532   0.686   4.927   2.780
 6545SOL     OW20533   6.201   2.326   6.797
 6545SOL    HW120534   6.183   2.424   6.785
 6545SOL    HW220535   6.126   2.274   6.758
 6546SOL     OW20536   3.073   4.638   6.311
 6546SOL    HW120537   3.169   4.611   6.315
 6546SOL    HW220538   3.050   4.693   6.392
 6547SOL     OW20539   4.169   1.374   5.917
 6547SOL    HW120540   4.136   1.323   5.837
 6547SOL    HW220541   4.244   1.434   5.891
 6548SOL     OW20542   4.924   3.801   5.625
 6548SOL    HW120543   4.884   3.726   5.571
 6548SOL    HW220544   4.982   3.763   5.697
 6549SOL     OW20545   2.618   2.078   2.200
 6549SOL    HW120546   2.537   2.052   2.252
 6549SOL    HW220547   2.619   2.029   2.113
 6550SOL     OW20548   1.034   5.918   2.171
 6550SOL    HW120549   0.940   5.901   2.201
 6550SOL    HW220550   1.033   5.969   2.086
 6551SOL     OW20551   3.367   5.281   2.145
 6551SOL    HW120552   3.452   5.310   2.189
 6551SOL    HW220553   3.384   5.197   2.093
 6552SOL     OW20554   4.657   4.595   5.800
 6552SOL    HW120555   4.597   4.523   5.764
 6552SOL    HW220556   4.601   4.666   5.844
 6553SOL     OW20557   6.394   3.416   2.866
 6553SOL    HW120558   6.448   3.381   2.942
 6553SOL    HW220559   6.339   3.493   2.896
 6554SOL     OW20560   6.687   3.076   4.400
 6554SOL    HW120561   6.757   3.076   4.329
 6554SOL    HW220562   6.690   2.988   4.449
 6555SOL     OW20563   0.722   1.508   1.685
 6555SOL    HW120564   0.647   1.547   1.738
 6555SOL    HW220565   0.710   1.409   1.677
 6556SOL     OW20566   2.982   6.823   3.146
 6556SOL    HW120567   3.001   6.781   3.058
 6556SOL    HW220568   2.883   6.834   3.157
 6557SOL     OW20569   4.747   6.380   0.437
 6557SOL    HW120570   4.817   6.328   0.485
 6557SOL    HW220571   4.698   6.318   0.374
 6558SOL     OW20572   6.017   6.818   6.363
 6558SOL    HW120573   6.065   6.904   6.348
 6558SOL    HW220574   5.922   6.827   6.336
 6559SOL     OW20575   3.182   4.051   0.837
 6559SOL    HW120576   3.192   3.958   0.872
 6559SOL    HW220577   3.117   4.051   0.761
 6560SOL     OW20578   4.662   1.967   1.075
 6560SOL    HW120579   4.582   1.918   1.040
 6560SOL    HW220580   4.632   2.049   1.125
 6561SOL     OW20581   3.215   3.083   4.991
 6561SOL    HW120582   3.137   3.095   4.930
 6561SOL    HW220583   3.263   3.171   5.001
 6562SOL     OW20584   0.098   4.483   5.085
 6562SOL    HW120585   0.013   4.496   5.135
 6562SOL    HW220586   0.121   4.386   5.082
 6563SOL     OW20587   1.130   6.531   2.437
 6563SOL    HW120588   1.031   6.516   2.435
 6563SOL    HW220589   1.172   6.487   2.357
 6564SOL     OW20590   1.975   5.099   2.823
 6564SOL    HW120591   1.902   5.035   2.846
 6564SOL    HW220592   2.049   5.091   2.891
 6565SOL     OW20593   0.258   3.414   5.333
 6565SOL    HW120594   0.179   3.467   5.302
 6565SOL    HW220595   0.272   3.428   5.431
 6566SOL     OW20596   4.545   1.361   0.741
 6566SOL    HW120597   4.556   1.455   0.773
 6566SOL    HW220598   4.620   1.305   0.775
 6567SOL     OW20599   7.010   2.577   0.825
 6567SOL    HW120600   0.002   2.632   0.742
 6567SOL    HW220601   6.933   2.514   0.816
 6568SOL     OW20602   5.246   3.435   1.409
 6568SOL    HW120603   5.161   3.448   1.460
 6568SOL    HW220604   5.321   3.482   1.455
 6569SOL     OW20605   1.323   4.522   5.806
 6569SOL    HW120606   1.303   4.522   5.904
 6569SOL    HW220607   1.398   4.585   5.786
 6570SOL     OW20608   0.646   4.005   2.117
 6570SOL    HW120609   0.658   3.906   2.130
 6570SOL    HW220610   0.561   4.021   2.067
 6571SOL     OW20611   1.957   5.244   4.112
 6571SOL    HW120612   2.006   5.159   4.132
 6571SOL    HW220613   1.916   5.279   4.196
 6572SOL     OW20614   1.781   3.348   5.228
 6572SOL    HW120615   1.829   3.278   5.175
 6572SOL    HW220616   1.684   3.347   5.205
 6573SOL     OW20617   1.315   2.191   1.366
 6573SOL    HW120618   1.369   2.179   1.449
 6573SOL    HW220619   1.310   2.104   1.317
 6574SOL     OW20620   2.045   4.935   4.426
 6574SOL    HW120621   2.133   4.889   4.438
 6574SOL    HW220622   2.041   5.015   4.485
 6575SOL     OW20623   1.467   1.344   2.404
 6575SOL    HW120624   1.412   1.337   2.321
 6575SOL    HW220625   1.421   1.402   2.471
 6576SOL     OW20626   0.262   5.488   4.335
 6576SOL    HW120627   0.200   5.411   4.317
 6576SOL    HW220628   0.261   5.510   4.432
 6577SOL     OW20629   1.006   3.852   5.613
 6577SOL    HW120630   0.929   3.853   5.677
 6577SOL    HW220631   1.006   3.765   5.563
 6578SOL     OW20632   5.798   5.961   4.238
 6578SOL    HW120633   5.761   5.880   4.284
 6578SOL    HW220634   5.875   5.997   4.292
 6579SOL     OW20635   0.399   3.962   3.896
 6579SOL    HW120636   0.334   4.014   3.953
 6579SOL    HW220637   0.377   3.865   3.902
 6580SOL     OW20638   5.669   2.313   0.911
 6580SOL    HW120639   5.757   2.351   0.940
 6580SOL    HW220640   5.617   2.383   0.862
 6581SOL     OW20641   2.668   1.876   5.152
 6581SOL    HW120642   2.608   1.956   5.144
 6581SOL    HW220643   2.717   1.863   5.066
 6582SOL     OW20644   6.020   0.363   2.584
 6582SOL    HW120645   6.102   0.339   2.532
 6582SOL    HW220646   6.034   0.450   2.632
 6583SOL     OW20647   5.778   0.610   6.143
 6583SOL    HW120648   5.823   0.548   6.207
 6583SOL    HW220649   5.696   0.648   6.185
 6584SOL     OW20650   6.097   2.274   0.768
 6584SOL    HW120651   6.187   2.230   0.774
 6584SOL    HW220652   6.103   2.353   0.707
 6585SOL     OW20653   2.322   0.630   2.714
 6585SOL    HW120654   2.286   0.622   2.807
 6585SOL    HW220655   2.344   0.539   2.679
 6586SOL     OW20656   5.926   0.457   6.332
 6586SOL    HW120657   5.948   0.524   6.403
 6586SOL    HW220658   5.843   0.408   6.359
 6587SOL     OW20659   1.907   5.865   2.020
 6587SOL    HW120660   1.987   5.923   2.038
 6587SOL    HW220661   1.894   5.856   1.921
 6588SOL     OW20662   3.673   3.577   0.314
 6588SOL    HW120663   3.639   3.509   0.379
 6588SOL    HW220664   3.756   3.619   0.351
 6589SOL     OW20665   4.535   1.822   5.913
 6589SOL    HW120666   4.574   1.736   5.944
 6589SOL    HW220667   4.510   1.878   5.992
 6590SOL     OW20668   6.628   1.966   5.704
 6590SOL    HW120669   6.695   2.036   5.678
 6590SOL    HW220670   6.596   1.919   5.622
 6591SOL     OW20671   4.703   0.194   2.350
 6591SOL    HW120672   4.675   0.107   2.390
 6591SOL    HW220673   4.678   0.196   2.253
 6592SOL     OW20674   6.251   4.688   5.437
 6592SOL    HW120675   6.154   4.691   5.412
 6592SOL    HW220676   6.276   4.774   5.482
 6593SOL     OW20677   5.408   1.492   2.543
 6593SOL    HW120678   5.348   1.565   2.511
 6593SOL    HW220679   5.353   1.414   2.573
 6594SOL     OW20680   5.455   0.396   6.643
 6594SOL    HW120681   5.391   0.342   6.589
 6594SOL    HW220682   5.515   0.334   6.694
 6595SOL     OW20683   3.901   2.936   6.384
 6595SOL    HW120684   3.824   2.931   6.321
 6595SOL    HW220685   3.869   2.969   6.473
 6596SOL     OW20686   2.189   5.486   4.848
 6596SOL    HW120687   2.211   5.554   4.919
 6596SOL    HW220688   2.270   5.472   4.790
 6597SOL     OW20689   0.538   4.310   0.673
 6597SOL    HW120690   0.452   4.312   0.724
 6597SOL    HW220691   0.607   4.261   0.726
 6598SOL     OW20692   3.207   6.352   4.326
 6598SOL    HW120693   3.142   6.422   4.355
 6598SOL    HW220694   3.157   6.269   4.300
 6599SOL     OW20695   4.207   3.852   5.983
 6599SOL    HW120696   4.133   3.911   6.015
 6599SOL    HW220697   4.188   3.821   5.890
 6600SOL     OW20698   4.521   4.722   5.141
 6600SOL    HW120699   4.475   4.652   5.086
 6600SOL    HW220700   4.610   4.744   5.099
 6601SOL     OW20701   1.029   1.208   2.491
 6601SOL    HW120702   1.038   1.237   2.396
 6601SOL    HW220703   0.982   1.279   2.543
 6602SOL     OW20704   5.459   1.517   1.022
 6602SOL    HW120705   5.497   1.498   0.931
 6602SOL    HW220706   5.414   1.435   1.057
 6603SOL     OW20707   3.224   2.197   1.523
 6603SOL    HW120708   3.292   2.261   1.556
 6603SOL    HW220709   3.233   2.110   1.572
 6604SOL     OW20710   4.523   5.165   5.047
 6604SOL    HW120711   4.588   5.101   5.089
 6604SOL    HW220712   4.435   5.159   5.095
 6605SOL     OW20713   4.818   5.669   0.943
 6605SOL    HW120714   4.917   5.659   0.957
 6605SOL    HW220715   4.796   5.766   0.929
 6606SOL     OW20716   0.437   2.964   3.069
 6606SOL    HW120717   0.507   3.028   3.100
 6606SOL    HW220718   0.455   2.936   2.974
 6607SOL     OW20719   1.978   3.911   2.920
 6607SOL    HW120720   2.001   3.838   2.856
 6607SOL    HW220721   1.879   3.925   2.922
 6608SOL     OW20722   5.041   4.245   4.690
 6608SOL    HW120723   5.047   4.219   4.594
 6608SOL    HW220724   4.981   4.324   4.700
 6609SOL     OW20725   5.695   2.675   6.480
 6609SOL    HW120726   5.674   2.746   6.412
 6609SOL    HW220727   5.614   2.619   6.495
 6610SOL     OW20728   4.272   0.951   0.537
 6610SOL    HW120729   4.359   0.991   0.567
 6610SOL    HW220730   4.196   0.999   0.580
 6611SOL     OW20731   5.924   3.012   2.088
 6611SOL    HW120732   5.870   2.939   2.131
 6611SOL    HW220733   5.862   3.072   2.037
 6612SOL     OW20734   0.608   5.338   6.487
 6612SOL    HW120735   0.616   5.437   6.479
 6612SOL    HW220736   0.525   5.307   6.441
 6613SOL     OW20737   6.199   5.215   0.614
 6613SOL    HW120738   6.224   5.145   0.681
 6613SOL    HW220739   6.113   5.189   0.569
 6614SOL     OW20740   5.724   3.938   6.424
 6614SOL    HW120741   5.752   3.933   6.329
 6614SOL    HW220742   5.625   3.957   6.429
 6615SOL     OW20743   0.291   3.459   4.521
 6615SOL    HW120744   0.369   3.522   4.525
 6615SOL    HW220745   0.270   3.426   4.612
 6616SOL     OW20746   5.034   1.382   3.821
 6616SOL    HW120747   5.064   1.298   3.867
 6616SOL    HW220748   5.073   1.385   3.729
 6617SOL     OW20749   3.860   0.731   4.413
 6617SOL    HW120750   3.784   0.693   4.465
 6617SOL    HW220751   3.847   0.709   4.316
 6618SOL     OW20752   0.009   4.370   1.266
 6618SOL    HW120753   0.007   4.314   1.349
 6618SOL    HW220754   6.931   4.384   1.234
 6619SOL     OW20755   5.904   5.762   2.558
 6619SOL    HW120756   5.871   5.854   2.582
 6619SOL    HW220757   6.004   5.763   2.551
 6620SOL     OW20758   5.098   3.567   5.441
 6620SOL    HW120759   5.156   3.568   5.360
 6620SOL    HW220760   5.153   3.547   5.522
 6621SOL     OW20761   3.960   3.535   1.521
 6621SOL    HW120762   3.884   3.517   1.583
 6621SOL    HW220763   4.023   3.457   1.522
 6622SOL     OW20764   5.964   5.188   0.474
 6622SOL    HW120765   5.947   5.287   0.477
 6622SOL    HW220766   5.885   5.139   0.511
 6623SOL     OW20767   2.982   3.855   2.586
 6623SOL    HW120768   3.048   3.899   2.525
 6623SOL    HW220769   3.012   3.865   2.680
 6624SOL     OW20770   4.633   4.879   4.448
 6624SOL    HW120771   4.700   4.952   4.461
 6624SOL    HW220772   4.543   4.910   4.481
 6625SOL     OW20773   5.240   6.261   0.368
 6625SOL    HW120774   5.165   6.234   0.428
 6625SOL    HW220775   5.310   6.190   0.369
 6626SOL     OW20776   2.614   5.468   4.487
 6626SOL    HW120777   2.712   5.470   4.505
 6626SOL    HW220778   2.595   5.402   4.414
 6627SOL     OW20779   0.522   0.857   1.255
 6627SOL    HW120780   0.566   0.912   1.325
 6627SOL    HW220781   0.559   0.880   1.165
 6628SOL     OW20782   3.494   6.050   4.433
 6628SOL    HW120783   3.455   6.046   4.341
 6628SOL    HW220784   3.446   6.120   4.486
 6629SOL     OW20785   2.907   4.398   0.444
 6629SOL    HW120786   2.983   4.372   0.503
 6629SOL    HW220787   2.823   4.401   0.498
 6630SOL     OW20788   2.809   0.956   6.075
 6630SOL    HW120789   2.826   1.046   6.036
 6630SOL    HW220790   2.786   0.892   6.001
 6631SOL     OW20791   3.590   6.729   2.043
 6631SOL    HW120792   3.563   6.823   2.064
 6631SOL    HW220793   3.627   6.685   2.125
 6632SOL     OW20794   6.192   3.216   1.766
 6632SOL    HW120795   6.140   3.152   1.711
 6632SOL    HW220796   6.264   3.258   1.711
 6633SOL     OW20797   1.079   6.100   2.967
 6633SOL    HW120798   1.141   6.136   2.896
 6633SOL    HW220799   1.024   6.175   3.003
 6634SOL     OW20800   6.544   2.114   5.030
 6634SOL    HW120801   6.578   2.064   4.951
 6634SOL    HW220802   6.444   2.123   5.023
 6635SOL     OW20803   4.058   5.062   3.927
 6635SOL    HW120804   4.072   5.050   4.025
 6635SOL    HW220805   4.050   4.972   3.883
 6636SOL     OW20806   2.002   3.449   2.487
 6636SOL    HW120807   1.933   3.520   2.502
 6636SOL    HW220808   2.027   3.447   2.391
 6637SOL     OW20809   0.309   2.693   0.249
 6637SOL    HW120810   0.311   2.608   0.302
 6637SOL    HW220811   0.376   2.688   0.175
 6638SOL     OW20812   1.921   0.486   6.605
 6638SOL    HW120813   1.996   0.443   6.554
 6638SOL    HW220814   1.841   0.493   6.546
 6639SOL     OW20815   4.024   5.265   6.306
 6639SOL    HW120816   4.027   5.320   6.223
 6639SOL    HW220817   3.932   5.267   6.345
 6640SOL     OW20818   5.079   4.024   3.229
 6640SOL    HW120819   5.085   3.934   3.271
 6640SOL    HW220820   4.988   4.036   3.188
 6641SOL     OW20821   2.516   5.211   6.373
 6641SOL    HW120822   2.511   5.179   6.278
 6641SOL    HW220823   2.611   5.235   6.394
 6642SOL     OW20824   6.298   6.199   6.047
 6642SOL    HW120825   6.301   6.117   6.104
 6642SOL    HW220826   6.327   6.278   6.100
 6643SOL     OW20827   4.188   5.659   1.045
 6643SOL    HW120828   4.276   5.625   1.077
 6643SOL    HW220829   4.124   5.663   1.122
 6644SOL     OW20830   0.990   3.201   2.203
 6644SOL    HW120831   1.067   3.141   2.181
 6644SOL    HW220832   0.905   3.160   2.170
 6645SOL     OW20833   0.264   5.047   5.523
 6645SOL    HW120834   0.177   5.093   5.503
 6645SOL    HW220835   0.322   5.050   5.441
 6646SOL     OW20836   1.880   5.529   3.532
 6646SOL    HW120837   1.961   5.583   3.508
 6646SOL    HW220838   1.866   5.534   3.631
 6647SOL     OW20839   4.377   1.399   1.895
 6647SOL    HW120840   4.320   1.370   1.818
 6647SOL    HW220841   4.325   1.390   1.980
 6648SOL     OW20842   3.615   5.367   2.264
 6648SOL    HW120843   3.650   5.441   2.321
 6648SOL    HW220844   3.658   5.370   2.174
 6649SOL     OW20845   4.076   1.878   5.696
 6649SOL    HW120846   4.001   1.844   5.752
 6649SOL    HW220847   4.062   1.849   5.601
 6650SOL     OW20848   3.371   1.395   4.167
 6650SOL    HW120849   3.289   1.408   4.224
 6650SOL    HW220850   3.418   1.312   4.195
 6651SOL     OW20851   0.611   1.794   1.235
 6651SOL    HW120852   0.548   1.719   1.258
 6651SOL    HW220853   0.650   1.832   1.318
 6652SOL     OW20854   0.332   5.431   3.735
 6652SOL    HW120855   0.304   5.337   3.714
 6652SOL    HW220856   0.256   5.480   3.776
 6653SOL     OW20857   3.592   4.120   4.191
 6653SOL    HW120858   3.633   4.204   4.154
 6653SOL    HW220859   3.654   4.079   4.257
 6654SOL     OW20860   1.240   3.455   1.735
 6654SOL    HW120861   1.248   3.364   1.776
 6654SOL    HW220862   1.318   3.511   1.762
 6655SOL     OW20863   1.496   1.084   6.671
 6655SOL    HW120864   1.561   1.019   6.710
 6655SOL    HW220865   1.442   1.125   6.744
 6656SOL     OW20866   6.613   1.713   1.381
 6656SOL    HW120867   6.643   1.752   1.294
 6656SOL    HW220868   6.515   1.729   1.393
 6657SOL     OW20869   3.587   4.810   5.562
 6657SOL    HW120870   3.675   4.790   5.604
 6657SOL    HW220871   3.547   4.726   5.525
 6658SOL     OW20872   5.957   6.822   5.407
 6658SOL    HW120873   5.920   6.807   5.315
 6658SOL    HW220874   5.984   6.734   5.447
 6659SOL     OW20875   2.478   3.086   0.332
 6659SOL    HW120876   2.449   3.089   0.428
 6659SOL    HW220877   2.483   2.991   0.301
 6660SOL     OW20878   6.565   6.744   2.986
 6660SOL    HW120879   6.526   6.720   2.897
 6660SOL    HW220880   6.565   6.663   3.045
 6661SOL     OW20881   6.546   0.062   3.926
 6661SOL    HW120882   6.520   0.132   3.992
 6661SOL    HW220883   6.640   0.034   3.943
 6662SOL     OW20884   1.666   3.694   5.712
 6662SOL    HW120885   1.760   3.713   5.681
 6662SOL    HW220886   1.661   3.704   5.811
 6663SOL     OW20887   0.920   5.456   1.763
 6663SOL    HW120888   0.899   5.519   1.837
 6663SOL    HW220889   0.961   5.505   1.686
 6664SOL     OW20890   0.092   1.934   1.470
 6664SOL    HW120891   0.079   2.018   1.523
 6664SOL    HW220892   0.031   1.863   1.504
 6665SOL     OW20893   1.955   6.800   3.512
 6665SOL    HW120894   2.009   6.811   3.428
 6665SOL    HW220895   1.945   6.702   3.532
 6666SOL     OW20896   5.847   0.471   0.258
 6666SOL    HW120897   5.796   0.528   0.194
 6666SOL    HW220898   5.942   0.462   0.227
 6667SOL     OW20899   5.697   5.015   5.711
 6667SOL    HW120900   5.732   5.098   5.756
 6667SOL    HW220901   5.605   4.996   5.745
 6668SOL     OW20902   6.261   6.175   0.914
 6668SOL    HW120903   6.176   6.217   0.947
 6668SOL    HW220904   6.239   6.111   0.840
 6669SOL     OW20905   0.587   4.888   3.345
 6669SOL    HW120906   0.607   4.813   3.408
 6669SOL    HW220907   0.589   4.975   3.393
 6670SOL     OW20908   5.593   4.707   0.670
 6670SOL    HW120909   5.554   4.754   0.749
 6670SOL    HW220910   5.596   4.769   0.592
 6671SOL     OW20911   1.169   2.231   5.248
 6671SOL    HW120912   1.119   2.209   5.164
 6671SOL    HW220913   1.117   2.198   5.327
 6672SOL     OW20914   6.945   1.298   5.116
 6672SOL    HW120915   0.006   1.296   5.179
 6672SOL    HW220916   6.906   1.390   5.115
 6673SOL     OW20917   3.376   6.067   1.727
 6673SOL    HW120918   3.344   6.148   1.775
 6673SOL    HW220919   3.304   5.998   1.724
 6674SOL     OW20920   1.096   5.885   4.875
 6674SOL    HW120921   1.072   5.789   4.858
 6674SOL    HW220922   1.076   5.939   4.794
 6675SOL     OW20923   6.651   6.787   6.236
 6675SOL    HW120924   6.729   6.849   6.244
 6675SOL    HW220925   6.644   6.731   6.318
 6676SOL     OW20926   0.606   1.317   0.894
 6676SOL    HW120927   0.558   1.290   0.978
 6676SOL    HW220928   0.549   1.296   0.815
 6677SOL     OW20929   0.817   4.438   0.627
 6677SOL    HW120930   0.720   4.455   0.607
 6677SOL    HW220931   0.865   4.415   0.542
 6678SOL     OW20932   0.424   3.989   4.261
 6678SOL    HW120933   0.373   3.950   4.184
 6678SOL    HW220934   0.510   3.939   4.273
 6679SOL     OW20935   2.623   1.675   4.435
 6679SOL    HW120936   2.556   1.606   4.461
 6679SOL    HW220937   2.619   1.690   4.336
 6680SOL     OW20938   3.037   0.820   6.909
 6680SOL    HW120939   3.130   0.804   6.876
 6680SOL    HW220940   3.037   0.821   7.009
 6681SOL     OW20941   5.885   5.023   6.627
 6681SOL    HW120942   5.976   5.065   6.623
 6681SOL    HW220943   5.826   5.064   6.559
 6682SOL     OW20944   6.110   4.772   2.475
 6682SOL    HW120945   6.110   4.864   2.437
 6682SOL    HW220946   6.137   4.776   2.571
 6683SOL     OW20947   5.891   3.295   3.790
 6683SOL    HW120948   5.875   3.318   3.886
 6683SOL    HW220949   5.986   3.266   3.778
 6684SOL     OW20950   1.720   0.684   1.719
 6684SOL    HW120951   1.698   0.715   1.812
 6684SOL    HW220952   1.697   0.756   1.654
 6685SOL     OW20953   6.189   2.679   0.022
 6685SOL    HW120954   6.284   2.658   0.042
 6685SOL    HW220955   6.132   2.656   0.100
 6686SOL     OW20956   5.065   4.219   3.997
 6686SOL    HW120957   5.072   4.285   3.922
 6686SOL    HW220958   4.976   4.229   4.041
 6687SOL     OW20959   0.441   6.685   6.821
 6687SOL    HW120960   0.412   6.778   6.842
 6687SOL    HW220961   0.514   6.687   6.754
 6688SOL     OW20962   0.341   4.569   3.061
 6688SOL    HW120963   0.273   4.514   3.109
 6688SOL    HW220964   0.299   4.611   2.980
 6689SOL     OW20965   5.884   3.428   0.367
 6689SOL    HW120966   5.870   3.478   0.282
 6689SOL    HW220967   5.803   3.372   0.386
 6690SOL     OW20968   0.422   1.081   0.593
 6690SOL    HW120969   0.341   1.140   0.599
 6690SOL    HW220970   0.504   1.138   0.592
 6691SOL     OW20971   0.707   5.520   1.174
 6691SOL    HW120972   0.706   5.529   1.075
 6691SOL    HW220973   0.712   5.423   1.199
 6692SOL     OW20974   4.900   3.418   6.436
 6692SOL    HW120975   4.862   3.510   6.448
 6692SOL    HW220976   4.827   3.354   6.414
 6693SOL     OW20977   3.958   3.148   6.055
 6693SOL    HW120978   3.947   3.069   5.995
 6693SOL    HW220979   3.886   3.148   6.125
 6694SOL     OW20980   2.598   5.734   0.292
 6694SOL    HW120981   2.671   5.739   0.224
 6694SOL    HW220982   2.550   5.647   0.284
 6695SOL     OW20983   1.781   1.534   6.994
 6695SOL    HW120984   1.790   1.461   0.046
 6695SOL    HW220985   1.846   1.518   6.919
 6696SOL     OW20986   1.564   1.988   1.189
 6696SOL    HW120987   1.488   1.923   1.199
 6696SOL    HW220988   1.646   1.939   1.161
 6697SOL     OW20989   5.336   3.488   4.742
 6697SOL    HW120990   5.395   3.568   4.736
 6697SOL    HW220991   5.391   3.407   4.765
 6698SOL     OW20992   2.368   4.535   5.405
 6698SOL    HW120993   2.301   4.480   5.455
 6698SOL    HW220994   2.456   4.531   5.453
 6699SOL     OW20995   1.663   3.213   6.803
 6699SOL    HW120996   1.612   3.177   6.881
 6699SOL    HW220997   1.681   3.139   6.738
 6700SOL     OW20998   0.152   6.273   6.388
 6700SOL    HW120999   0.151   6.234   6.296
 6700SOL    HW221000   0.100   6.359   6.387
 6701SOL     OW21001   1.706   2.008   6.862
 6701SOL    HW121002   1.796   1.984   6.826
 6701SOL    HW221003   1.697   2.107   6.868
 6702SOL     OW21004   3.221   3.319   0.493
 6702SOL    HW121005   3.133   3.279   0.471
 6702SOL    HW221006   3.208   3.397   0.554
 6703SOL     OW21007   0.546   1.964   0.374
 6703SOL    HW121008   0.473   2.016   0.418
 6703SOL    HW221009   0.532   1.966   0.275
 6704SOL     OW21010   5.465   3.369   2.555
 6704SOL    HW121011   5.441   3.312   2.477
 6704SOL    HW221012   5.387   3.373   2.618
 6705SOL     OW21013   5.106   2.480   1.049
 6705SOL    HW121014   5.018   2.448   1.014
 6705SOL    HW221015   5.121   2.574   1.020
 6706SOL     OW21016   1.552   6.883   6.491
 6706SOL    HW121017   1.560   6.789   6.523
 6706SOL    HW221018   1.455   6.907   6.482
 6707SOL     OW21019   1.196   5.403   3.482
 6707SOL    HW121020   1.101   5.436   3.478
 6707SOL    HW221021   1.256   5.470   3.439
 6708SOL     OW21022   2.363   6.107   0.887
 6708SOL    HW121023   2.435   6.121   0.955
 6708SOL    HW221024   2.404   6.098   0.796
 6709SOL     OW21025   4.895   1.609   3.788
 6709SOL    HW121026   4.940   1.522   3.809
 6709SOL    HW221027   4.919   1.639   3.696
 6710SOL     OW21028   2.915   2.266   0.670
 6710SOL    HW121029   2.989   2.214   0.711
 6710SOL    HW221030   2.843   2.204   0.640
 6711SOL     OW21031   5.627   3.492   6.148
 6711SOL    HW121032   5.591   3.560   6.084
 6711SOL    HW221033   5.565   3.415   6.154
 6712SOL     OW21034   3.369   6.424   0.352
 6712SOL    HW121035   3.288   6.400   0.406
 6712SOL    HW221036   3.446   6.441   0.413
 6713SOL     OW21037   0.388   2.684   3.042
 6713SOL    HW121038   0.379   2.782   3.057
 6713SOL    HW221039   0.358   2.635   3.124
 6714SOL     OW21040   6.607   1.202   5.261
 6714SOL    HW121041   6.588   1.119   5.209
 6714SOL    HW221042   6.521   1.239   5.297
 6715SOL     OW21043   5.017   3.035   1.647
 6715SOL    HW121044   5.032   2.947   1.691
 6715SOL    HW221045   4.941   3.082   1.692
 6716SOL     OW21046   3.446   5.773   1.132
 6716SOL    HW121047   3.518   5.809   1.191
 6716SOL    HW221048   3.483   5.757   1.041
 6717SOL     OW21049   3.431   0.800   6.827
 6717SOL    HW121050   3.441   0.728   6.895
 6717SOL    HW221051   3.373   0.873   6.865
 6718SOL     OW21052   4.467   0.357   6.454
 6718SOL    HW121053   4.406   0.435   6.466
 6718SOL    HW221054   4.421   0.285   6.403
 6719SOL     OW21055   1.079   2.104   5.044
 6719SOL    HW121056   1.146   2.058   4.985
 6719SOL    HW221057   1.020   2.163   4.988
 6720SOL     OW21058   1.650   4.626   0.154
 6720SOL    HW121059   1.742   4.636   0.117
 6720SOL    HW221060   1.651   4.652   0.251
 6721SOL     OW21061   6.178   6.511   2.546
 6721SOL    HW121062   6.081   6.518   2.524
 6721SOL    HW221063   6.191   6.519   2.645
 6722SOL     OW21064   3.765   4.591   6.668
 6722SOL    HW121065   3.669   4.618   6.677
 6722SOL    HW221066   3.818   4.627   6.744
 6723SOL     OW21067   3.664   1.893   2.501
 6723SOL    HW121068   3.684   1.810   2.553
 6723SOL    HW221069   3.660   1.971   2.564
 6724SOL     OW21070   3.753   4.803   5.959
 6724SOL    HW121071   3.748   4.800   6.059
 6724SOL    HW221072   3.663   4.786   5.920
 6725SOL     OW21073   0.601   6.215   1.367
 6725SOL    HW121074   0.641   6.133   1.324
 6725SOL    HW221075   0.652   6.296   1.337
 6726SOL     OW21076   2.192   2.558   1.656
 6726SOL    HW121077   2.222   2.484   1.596
 6726SOL    HW221078   2.194   2.645   1.607
 6727SOL     OW21079   2.853   3.729   1.330
 6727SOL    HW121080   2.840   3.825   1.356
 6727SOL    HW221081   2.951   3.711   1.318
 6728SOL     OW21082   4.316   1.594   3.782
 6728SOL    HW121083   4.315   1.643   3.869
 6728SOL    HW221084   4.224   1.594   3.743
 6729SOL     OW21085   3.795   5.617   3.589
 6729SOL    HW121086   3.818   5.562   3.508
 6729SOL    HW221087   3.783   5.712   3.562
 6730SOL     OW21088   1.213   6.784   2.806
 6730SOL    HW121089   1.241   6.814   2.715
 6730SOL    HW221090   1.114   6.770   2.808
 6731SOL     OW21091   1.868   3.937   0.991
 6731SOL    HW121092   1.945   3.973   0.937
 6731SOL    HW221093   1.904   3.891   1.072
 6732SOL     OW21094   3.431   5.657   0.390
 6732SOL    HW121095   3.412   5.726   0.460
 6732SOL    HW221096   3.400   5.567   0.422
 6733SOL     OW21097   6.358   5.723   4.429
 6733SOL    HW121098   6.439   5.771   4.463
 6733SOL    HW221099   6.334   5.757   4.339
 6734SOL     OW21100   2.827   3.832   6.870
 6734SOL    HW121101   2.813   3.788   6.781
 6734SOL    HW221102   2.912   3.885   6.867
 6735SOL     OW21103   0.306   6.407   5.914
 6735SOL    HW121104   0.366   6.441   5.986
 6735SOL    HW221105   0.231   6.471   5.899
 6736SOL     OW21106   2.025   4.383   1.899
 6736SOL    HW121107   2.050   4.287   1.885
 6736SOL    HW221108   2.095   4.441   1.858
 6737SOL     OW21109   1.560   0.215   1.328
 6737SOL    HW121110   1.532   0.305   1.362
 6737SOL    HW221111   1.638   0.182   1.381
 6738SOL     OW21112   5.204   1.714   0.479
 6738SOL    HW121113   5.253   1.628   0.498
 6738SOL    HW221114   5.144   1.735   0.556
 6739SOL     OW21115   3.902   5.330   6.045
 6739SOL    HW121116   3.808   5.350   6.071
 6739SOL    HW221117   3.912   5.340   5.946
 6740SOL     OW21118   5.652   2.452   5.592
 6740SOL    HW121119   5.619   2.537   5.632
 6740SOL    HW221120   5.751   2.446   5.603
 6741SOL     OW21121   0.289   0.879   5.546
 6741SOL    HW121122   0.330   0.897   5.457
 6741SOL    HW221123   0.274   0.781   5.556
 6742SOL     OW21124   5.888   5.959   5.170
 6742SOL    HW121125   5.970   6.017   5.175
 6742SOL    HW221126   5.848   5.951   5.261
 6743SOL     OW21127   5.949   2.100   0.938
 6743SOL    HW121128   5.851   2.097   0.916
 6743SOL    HW221129   6.000   2.133   0.859
 6744SOL     OW21130   4.055   0.696   3.803
 6744SOL    HW121131   4.106   0.732   3.881
 6744SOL    HW221132   4.071   0.597   3.795
 6745SOL     OW21133   0.844   3.940   3.581
 6745SOL    HW121134   0.904   3.884   3.639
 6745SOL    HW221135   0.775   3.881   3.539
 6746SOL     OW21136   6.355   0.173   6.995
 6746SOL    HW121137   6.389   0.097   0.034
 6746SOL    HW221138   6.396   0.258   0.011
 6747SOL     OW21139   5.106   5.343   5.956
 6747SOL    HW121140   5.190   5.378   5.998
 6747SOL    HW221141   5.125   5.255   5.912
 6748SOL     OW21142   6.048   6.742   2.195
 6748SOL    HW121143   6.119   6.745   2.266
 6748SOL    HW221144   5.959   6.759   2.237
 6749SOL     OW21145   3.111   5.089   0.946
 6749SOL    HW121146   3.146   4.997   0.964
 6749SOL    HW221147   3.012   5.092   0.965
 6750SOL     OW21148   2.123   2.984   5.112
 6750SOL    HW121149   2.218   2.985   5.082
 6750SOL    HW221150   2.070   3.049   5.056
 6751SOL     OW21151   4.875   2.520   5.649
 6751SOL    HW121152   4.873   2.600   5.709
 6751SOL    HW221153   4.784   2.508   5.608
 6752SOL     OW21154   6.246   1.004   0.248
 6752SOL    HW121155   6.186   0.954   0.309
 6752SOL    HW221156   6.305   1.065   0.301
 6753SOL     OW21157   5.489   0.408   6.236
 6753SOL    HW121158   5.445   0.319   6.243
 6753SOL    HW221159   5.464   0.451   6.149
 6754SOL     OW21160   4.410   1.568   6.612
 6754SOL    HW121161   4.358   1.635   6.663
 6754SOL    HW221162   4.349   1.494   6.581
 6755SOL     OW21163   5.061   1.706   2.947
 6755SOL    HW121164   5.130   1.636   2.966
 6755SOL    HW221165   5.107   1.791   2.919
 6756SOL     OW21166   4.152   5.013   2.847
 6756SOL    HW121167   4.122   5.079   2.916
 6756SOL    HW221168   4.251   5.000   2.855
 6757SOL     OW21169   6.222   3.741   1.664
 6757SOL    HW121170   6.204   3.649   1.631
 6757SOL    HW221171   6.320   3.750   1.686
 6758SOL     OW21172   6.898   2.365   2.447
 6758SOL    HW121173   6.983   2.326   2.413
 6758SOL    HW221174   6.898   2.363   2.547
 6759SOL     OW21175   6.710   5.593   4.168
 6759SOL    HW121176   6.623   5.583   4.120
 6759SOL    HW221177   6.736   5.690   4.168
 6760SOL     OW21178   0.833   3.800   5.121
 6760SOL    HW121179   0.892   3.843   5.052
 6760SOL    HW221180   0.766   3.867   5.153
 6761SOL     OW21181   6.439   2.739   6.618
 6761SOL    HW121182   6.461   2.710   6.525
 6761SOL    HW221183   6.349   2.705   6.644
 6762SOL     OW21184   6.972   1.764   4.354
 6762SOL    HW121185   6.924   1.821   4.287
 6762SOL    HW221186   6.942   1.786   4.446
 6763SOL     OW21187   5.085   6.564   5.444
 6763SOL    HW121188   5.181   6.591   5.450
 6763SOL    HW221189   5.033   6.610   5.516
 6764SOL     OW21190   1.643   3.958   0.174
 6764SOL    HW121191   1.571   3.889   0.183
 6764SOL    HW221192   1.673   3.986   0.265
 6765SOL     OW21193   4.709   5.574   1.924
 6765SOL    HW121194   4.793   5.537   1.964
 6765SOL    HW221195   4.631   5.550   1.982
 6766SOL     OW21196   2.695   2.295   4.947
 6766SOL    HW121197   2.611   2.246   4.969
 6766SOL    HW221198   2.718   2.358   5.021
 6767SOL     OW21199   0.788   2.742   6.007
 6767SOL    HW121200   0.810   2.797   6.088
 6767SOL    HW221201   0.864   2.745   5.943
 6768SOL     OW21202   6.519   0.307   5.502
 6768SOL    HW121203   6.590   0.236   5.504
 6768SOL    HW221204   6.523   0.355   5.415
 6769SOL     OW21205   1.358   2.644   6.433
 6769SOL    HW121206   1.413   2.643   6.349
 6769SOL    HW221207   1.354   2.552   6.471
 6770SOL     OW21208   0.347   2.244   3.575
 6770SOL    HW121209   0.375   2.169   3.634
 6770SOL    HW221210   0.414   2.256   3.502
 6771SOL     OW21211   5.512   2.169   1.737
 6771SOL    HW121212   5.417   2.176   1.706
 6771SOL    HW221213   5.536   2.252   1.787
 6772SOL     OW21214   1.571   6.763   1.710
 6772SOL    HW121215   1.549   6.690   1.776
 6772SOL    HW221216   1.579   6.723   1.618
 6773SOL     OW21217   1.623   1.314   3.315
 6773SOL    HW121218   1.537   1.357   3.345
 6773SOL    HW221219   1.606   1.262   3.231
 6774SOL     OW21220   3.733   0.920   5.284
 6774SOL    HW121221   3.700   0.856   5.353
 6774SOL    HW221222   3.655   0.971   5.246
 6775SOL     OW21223   1.444   2.993   5.095
 6775SOL    HW121224   1.477   3.087   5.098
 6775SOL    HW221225   1.512   2.935   5.050
 6776SOL     OW21226   3.383   3.141   4.161
 6776SOL    HW121227   3.310   3.113   4.224
 6776SOL    HW221228   3.343   3.194   4.086
 6777SOL     OW21229   6.950   0.208   5.047
 6777SOL    HW121230   6.915   0.292   5.005
 6777SOL    HW221231   0.027   0.224   5.081
 6778SOL     OW21232   6.799   5.635   1.561
 6778SOL    HW121233   6.799   5.735   1.565
 6778SOL    HW221234   6.729   5.604   1.496
 6779SOL     OW21235   5.787   3.093   5.508
 6779SOL    HW121236   5.875   3.045   5.516
 6779SOL    HW221237   5.745   3.100   5.599
 6780SOL     OW21238   4.740   0.766   2.119
 6780SOL    HW121239   4.702   0.706   2.048
 6780SOL    HW221240   4.700   0.742   2.207
 6781SOL     OW21241   5.211   3.816   3.046
 6781SOL    HW121242   5.213   3.776   3.138
 6781SOL    HW221243   5.131   3.780   2.997
 6782SOL     OW21244   6.538   1.700   2.803
 6782SOL    HW121245   6.626   1.686   2.848
 6782SOL    HW221246   6.524   1.797   2.786
 6783SOL     OW21247   0.684   7.007   6.538
 6783SOL    HW121248   0.690   0.054   6.615
 6783SOL    HW221249   0.644   6.920   6.568
 6784SOL     OW21250   1.256   4.665   6.396
 6784SOL    HW121251   1.338   4.615   6.368
 6784SOL    HW221252   1.267   4.762   6.377
 6785SOL     OW21253   5.531   4.102   1.276
 6785SOL    HW121254   5.595   4.151   1.334
 6785SOL    HW221255   5.555   4.005   1.274
 6786SOL     OW21256   6.555   1.038   6.379
 6786SOL    HW121257   6.494   0.959   6.393
 6786SOL    HW221258   6.555   1.063   6.283
 6787SOL     OW21259   4.193   2.434   1.781
 6787SOL    HW121260   4.142   2.516   1.755
 6787SOL    HW221261   4.291   2.456   1.786
 6788SOL     OW21262   1.323   4.660   1.210
 6788SOL    HW121263   1.302   4.753   1.242
 6788SOL    HW221264   1.264   4.639   1.132
 6789SOL     OW21265   6.094   2.483   2.376
 6789SOL    HW121266   6.055   2.393   2.399
 6789SOL    HW221267   6.046   2.554   2.427
 6790SOL     OW21268   0.948   5.971   6.920
 6790SOL    HW121269   0.977   6.044   6.981
 6790SOL    HW221270   1.005   5.890   6.935
 6791SOL     OW21271   1.823   6.542   4.010
 6791SOL    HW121272   1.841   6.461   4.066
 6791SOL    HW221273   1.900   6.605   4.017
 6792SOL     OW21274   3.255   5.974   0.352
 6792SOL    HW121275   3.244   5.888   0.301
 6792SOL    HW221276   3.325   6.030   0.308
 6793SOL     OW21277   1.799   3.317   5.726
 6793SOL    HW121278   1.841   3.398   5.768
 6793SOL    HW221279   1.854   3.289   5.647
 6794SOL     OW21280   4.367   2.352   3.598
 6794SOL    HW121281   4.382   2.412   3.676
 6794SOL    HW221282   4.387   2.401   3.513
 6795SOL     OW21283   0.757   0.205   2.345
 6795SOL    HW121284   0.726   0.258   2.266
 6795SOL    HW221285   0.789   0.116   2.314
 6796SOL     OW21286   5.784   2.427   2.047
 6796SOL    HW121287   5.795   2.500   2.115
 6796SOL    HW221288   5.872   2.403   2.008
 6797SOL     OW21289   1.835   4.313   0.267
 6797SOL    HW121290   1.793   4.245   0.328
 6797SOL    HW221291   1.919   4.275   0.228
 6798SOL     OW21292   5.379   2.164   1.416
 6798SOL    HW121293   5.404   2.068   1.427
 6798SOL    HW221294   5.307   2.187   1.481
 6799SOL     OW21295   4.051   6.687   2.911
 6799SOL    HW121296   4.092   6.601   2.880
 6799SOL    HW221297   3.975   6.667   2.973
 6800SOL     OW21298   6.836   2.653   2.894
 6800SOL    HW121299   6.883   2.577   2.939
 6800SOL    HW221300   6.878   2.669   2.804
 6801SOL     OW21301   1.930   5.102   5.176
 6801SOL    HW121302   1.932   5.141   5.268
 6801SOL    HW221303   1.875   5.018   5.176
 6802SOL     OW21304   2.220   4.622   2.471
 6802SOL    HW121305   2.269   4.645   2.556
 6802SOL    HW221306   2.286   4.612   2.397
 6803SOL     OW21307   6.148   5.255   5.973
 6803SOL    HW121308   6.186   5.276   6.063
 6803SOL    HW221309   6.170   5.161   5.948
 6804SOL     OW21310   3.209   6.035   1.359
 6804SOL    HW121311   3.172   5.944   1.378
 6804SOL    HW221312   3.138   6.104   1.373
 6805SOL     OW21313   0.280   4.075   4.467
 6805SOL    HW121314   0.323   4.063   4.377
 6805SOL    HW221315   0.306   4.164   4.505
 6806SOL     OW21316   5.500   3.759   2.340
 6806SOL    HW121317   5.421   3.819   2.324
 6806SOL    HW221318   5.544   3.784   2.426
 6807SOL     OW21319   3.995   3.383   2.647
 6807SOL    HW121320   3.911   3.437   2.653
 6807SOL    HW221321   3.993   3.310   2.716
 6808SOL     OW21322   2.423   6.301   4.718
 6808SOL    HW121323   2.375   6.341   4.639
 6808SOL    HW221324   2.435   6.371   4.788
 6809SOL     OW21325   6.144   2.439   0.542
 6809SOL    HW121326   6.168   2.360   0.485
 6809SOL    HW221327   6.211   2.512   0.529
 6810SOL     OW21328   3.496   0.051   4.863
 6810SOL    HW121329   3.425   0.121   4.874
 6810SOL    HW221330   3.511   0.034   4.765
 6811SOL     OW21331   6.523   2.089   1.551
 6811SOL    HW121332   6.485   2.005   1.590
 6811SOL    HW221333   6.598   2.121   1.609
 6812SOL     OW21334   3.266   4.773   5.633
 6812SOL    HW121335   3.306   4.686   5.660
 6812SOL    HW221336   3.334   4.829   5.586
 6813SOL     OW21337   0.375   3.184   1.693
 6813SOL    HW121338   0.475   3.181   1.692
 6813SOL    HW221339   0.345   3.260   1.751
 6814SOL     OW21340   4.911   2.183   1.418
 6814SOL    HW121341   4.931   2.109   1.481
 6814SOL    HW221342   4.877   2.262   1.469
 6815SOL     OW21343   1.642   6.042   1.135
 6815SOL    HW121344   1.716   6.081   1.082
 6815SOL    HW221345   1.567   6.108   1.143
 6816SOL     OW21346   5.539   0.455   3.392
 6816SOL    HW121347   5.609   0.392   3.360
 6816SOL    HW221348   5.497   0.418   3.475
 6817SOL     OW21349   6.235   0.845   0.990
 6817SOL    HW121350   6.309   0.779   0.998
 6817SOL    HW221351   6.225   0.894   1.077
 6818SOL     OW21352   6.977   6.326   5.731
 6818SOL    HW121353   6.987   6.289   5.639
 6818SOL    HW221354   0.024   6.402   5.744
 6819SOL     OW21355   6.405   4.227   0.791
 6819SOL    HW121356   6.494   4.232   0.746
 6819SOL    HW221357   6.334   4.204   0.724
 6820SOL     OW21358   2.568   4.351   1.021
 6820SOL    HW121359   2.519   4.365   0.935
 6820SOL    HW221360   2.549   4.426   1.084
 6821SOL     OW21361   2.462   3.968   5.974
 6821SOL    HW121362   2.408   3.991   6.055
 6821SOL    HW221363   2.465   3.868   5.964
 6822SOL     OW21364   0.666   4.522   4.779
 6822SOL    HW121365   0.710   4.548   4.865
 6822SOL    HW221366   0.581   4.472   4.799
 6823SOL     OW21367   6.767   3.355   5.618
 6823SOL    HW121368   6.848   3.360   5.559
 6823SOL    HW221369   6.698   3.298   5.574
 6824SOL     OW21370   1.283   0.864   3.617
 6824SOL    HW121371   1.270   0.811   3.701
 6824SOL    HW221372   1.346   0.816   3.556
 6825SOL     OW21373   5.027   5.135   1.417
 6825SOL    HW121374   5.083   5.148   1.499
 6825SOL    HW221375   4.948   5.197   1.421
 6826SOL     OW21376   5.548   0.666   4.252
 6826SOL    HW121377   5.467   0.722   4.238
 6826SOL    HW221378   5.625   0.705   4.202
 6827SOL     OW21379   5.622   5.270   5.455
 6827SOL    HW121380   5.678   5.344   5.491
 6827SOL    HW221381   5.594   5.210   5.530
 6828SOL     OW21382   2.208   1.554   2.719
 6828SOL    HW121383   2.279   1.534   2.652
 6828SOL    HW221384   2.124   1.506   2.694
 6829SOL     OW21385   5.629   6.374   5.207
 6829SOL    HW121386   5.648   6.320   5.288
 6829SOL    HW221387   5.648   6.320   5.125
 6830SOL     OW21388   3.894   6.477   3.804
 6830SOL    HW121389   3.945   6.493   3.719
 6830SOL    HW221390   3.803   6.516   3.796
 6831SOL     OW21391   1.631   0.116   6.838
 6831SOL    HW121392   1.578   0.197   6.860
 6831SOL    HW221393   1.657   0.117   6.742
 6832SOL     OW21394   4.389   3.766   0.454
 6832SOL    HW121395   4.360   3.770   0.550
 6832SOL    HW221396   4.453   3.690   0.442
 6833SOL     OW21397   3.880   5.639   0.862
 6833SOL    HW121398   3.938   5.647   0.943
 6833SOL    HW221399   3.935   5.658   0.780
 6834SOL     OW21400   6.609   5.923   5.095
 6834SOL    HW121401   6.652   5.874   5.019
 6834SOL    HW221402   6.544   5.861   5.141
 6835SOL     OW21403   3.469   0.359   3.286
 6835SOL    HW121404   3.528   0.333   3.210
 6835SOL    HW221405   3.499   0.446   3.324
 6836SOL     OW21406   0.955   4.486   6.517
 6836SOL    HW121407   1.034   4.423   6.517
 6836SOL    HW221408   0.881   4.447   6.571
 6837SOL     OW21409   5.860   2.599   1.740
 6837SOL    HW121410   5.906   2.543   1.671
 6837SOL    HW221411   5.887   2.568   1.831
 6838SOL     OW21412   2.265   4.582   6.827
 6838SOL    HW121413   2.240   4.528   6.907
 6838SOL    HW221414   2.267   4.523   6.746
 6839SOL     OW21415   6.909   2.778   5.267
 6839SOL    HW121416   6.928   2.717   5.343
 6839SOL    HW221417   6.947   2.869   5.287
 6840SOL     OW21418   3.297   0.280   4.156
 6840SOL    HW121419   3.302   0.348   4.084
 6840SOL    HW221420   3.202   0.252   4.169
 6841SOL     OW21421   5.035   5.807   0.764
 6841SOL    HW121422   5.070   5.745   0.834
 6841SOL    HW221423   4.978   5.877   0.807
 6842SOL     OW21424   6.957   3.608   3.055
 6842SOL    HW121425   0.006   3.602   2.980
 6842SOL    HW221426   6.865   3.625   3.018
 6843SOL     OW21427   4.429   3.139   1.707
 6843SOL    HW121428   4.492   3.083   1.760
 6843SOL    HW221429   4.340   3.093   1.701
 6844SOL     OW21430   3.253   6.552   3.989
 6844SOL    HW121431   3.168   6.599   4.013
 6844SOL    HW221432   3.233   6.456   3.969
 6845SOL     OW21433   3.888   4.356   0.047
 6845SOL    HW121434   3.807   4.397   0.006
 6845SOL    HW221435   3.863   4.311   0.133
 6846SOL     OW21436   3.568   2.961   4.270
 6846SOL    HW121437   3.523   2.928   4.353
 6846SOL    HW221438   3.521   3.042   4.235
 6847SOL     OW21439   5.163   3.496   0.838
 6847SOL    HW121440   5.184   3.450   0.924
 6847SOL    HW221441   5.097   3.569   0.855
 6848SOL     OW21442   1.075   5.941   4.431
 6848SOL    HW121443   1.028   6.001   4.366
 6848SOL    HW221444   1.149   5.992   4.476
 6849SOL     OW21445   2.546   0.571   4.397
 6849SOL    HW121446   2.451   0.540   4.400
 6849SOL    HW221447   2.552   0.663   4.436
 6850SOL     OW21448   0.085   2.155   1.654
 6850SOL    HW121449   0.130   2.165   1.743
 6850SOL    HW221450   0.025   2.234   1.638
 6851SOL     OW21451   2.154   5.207   0.812
 6851SOL    HW121452   2.153   5.129   0.750
 6851SOL    HW221453   2.125   5.178   0.904
 6852SOL     OW21454   4.824   4.600   2.865
 6852SOL    HW121455   4.900   4.559   2.816
 6852SOL    HW221456   4.815   4.696   2.838
 6853SOL     OW21457   6.139   4.242   4.441
 6853SOL    HW121458   6.128   4.283   4.351
 6853SOL    HW221459   6.124   4.311   4.512
 6854SOL     OW21460   5.990   0.604   6.603
 6854SOL    HW121461   6.087   0.582   6.611
 6854SOL    HW221462   5.937   0.546   6.665
 6855SOL     OW21463   2.673   6.850   3.137
 6855SOL    HW121464   2.615   6.770   3.124
 6855SOL    HW221465   2.655   6.891   3.227
 6856SOL     OW21466   0.626   5.246   5.526
 6856SOL    HW121467   0.692   5.172   5.513
 6856SOL    HW221468   0.539   5.208   5.557
 6857SOL     OW21469   4.680   1.059   6.429
 6857SOL    HW121470   4.657   0.962   6.433
 6857SOL    HW221471   4.603   1.113   6.464
 6858SOL     OW21472   3.408   3.138   6.393
 6858SOL    HW121473   3.379   3.049   6.357
 6858SOL    HW221474   3.338   3.173   6.455
 6859SOL     OW21475   4.411   6.667   1.559
 6859SOL    HW121476   4.398   6.568   1.549
 6859SOL    HW221477   4.500   6.693   1.521
 6860SOL     OW21478   4.729   3.243   0.096
 6860SOL    HW121479   4.827   3.249   0.073
 6860SOL    HW221480   4.677   3.304   0.036
 6861SOL     OW21481   6.482   3.368   0.092
 6861SOL    HW121482   6.476   3.461   0.057
 6861SOL    HW221483   6.502   3.305   0.017
 6862SOL     OW21484   2.655   4.603   4.466
 6862SOL    HW121485   2.641   4.542   4.544
 6862SOL    HW221486   2.712   4.681   4.494
 6863SOL     OW21487   0.720   3.466   3.795
 6863SOL    HW121488   0.712   3.406   3.715
 6863SOL    HW221489   0.804   3.519   3.789
 6864SOL     OW21490   3.158   5.703   6.088
 6864SOL    HW121491   3.065   5.665   6.089
 6864SOL    HW221492   3.158   5.792   6.043
 6865SOL     OW21493   0.684   2.491   5.623
 6865SOL    HW121494   0.729   2.440   5.550
 6865SOL    HW221495   0.731   2.474   5.709
 6866SOL     OW21496   0.526   4.464   2.859
 6866SOL    HW121497   0.453   4.529   2.877
 6866SOL    HW221498   0.504   4.376   2.901
 6867SOL     OW21499   2.951   5.549   3.817
 6867SOL    HW121500   2.964   5.640   3.778
 6867SOL    HW221501   2.857   5.519   3.803
 6868SOL     OW21502   2.186   5.894   5.583
 6868SOL    HW121503   2.207   5.813   5.527
 6868SOL    HW221504   2.091   5.891   5.612
 6869SOL     OW21505   0.267   2.394   3.900
 6869SOL    HW121506   0.349   2.441   3.865
 6869SOL    HW221507   0.269   2.298   3.872
 6870SOL     OW21508   4.859   4.047   3.078
 6870SOL    HW121509   4.790   4.015   3.143
 6870SOL    HW221510   4.839   4.010   2.987
 6871SOL     OW21511   4.247   6.234   2.436
 6871SOL    HW121512   4.163   6.183   2.417
 6871SOL    HW221513   4.305   6.180   2.497
 6872SOL     OW21514   3.314   4.121   1.316
 6872SOL    HW121515   3.405   4.161   1.303
 6872SOL    HW221516   3.264   4.122   1.230
 6873SOL     OW21517   4.707   4.506   5.248
 6873SOL    HW121518   4.793   4.493   5.198
 6873SOL    HW221519   4.722   4.567   5.325
 6874SOL     OW21520   1.649   1.465   6.238
 6874SOL    HW121521   1.654   1.457   6.338
 6874SOL    HW221522   1.615   1.556   6.214
 6875SOL     OW21523   3.573   6.395   5.123
 6875SOL    HW121524   3.584   6.298   5.144
 6875SOL    HW221525   3.637   6.420   5.050
 6876SOL     OW21526   2.967   6.838   5.044
 6876SOL    HW121527   3.040   6.806   4.983
 6876SOL    HW221528   2.963   6.938   5.040
 6877SOL     OW21529   1.929   4.400   0.790
 6877SOL    HW121530   1.964   4.340   0.719
 6877SOL    HW221531   1.920   4.349   0.876
 6878SOL     OW21532   2.440   1.658   5.083
 6878SOL    HW121533   2.452   1.562   5.060
 6878SOL    HW221534   2.450   1.670   5.182
 6879SOL     OW21535   6.407   0.875   5.982
 6879SOL    HW121536   6.401   0.793   6.039
 6879SOL    HW221537   6.454   0.853   5.896
 6880SOL     OW21538   1.114   5.270   4.441
 6880SOL    HW121539   1.165   5.197   4.396
 6880SOL    HW221540   1.115   5.256   4.540
 6881SOL     OW21541   4.867   6.672   1.332
 6881SOL    HW121542   4.962   6.660   1.305
 6881SOL    HW221543   4.808   6.660   1.252
 6882SOL     OW21544   2.710   6.048   5.454
 6882SOL    HW121545   2.781   6.077   5.518
 6882SOL    HW221546   2.656   5.974   5.495
 6883SOL     OW21547   2.600   6.844   2.056
 6883SOL    HW121548   2.659   6.795   2.120
 6883SOL    HW221549   2.505   6.841   2.089
 6884SOL     OW21550   1.823   5.278   3.143
 6884SOL    HW121551   1.798   5.292   3.239
 6884SOL    HW221552   1.761   5.212   3.101
 6885SOL     OW21553   4.477   4.613   4.774
 6885SOL    HW121554   4.480   4.545   4.701
 6885SOL    HW221555   4.451   4.569   4.860
 6886SOL     OW21556   5.674   6.809   0.930
 6886SOL    HW121557   5.666   6.754   0.847
 6886SOL    HW221558   5.699   6.903   0.906
 6887SOL     OW21559   6.883   0.726   5.024
 6887SOL    HW121560   6.783   0.729   5.035
 6887SOL    HW221561   6.913   0.807   4.974
 6888SOL     OW21562   6.629   6.626   3.959
 6888SOL    HW121563   6.580   6.583   4.034
 6888SOL    HW221564   6.673   6.710   3.990
 6889SOL     OW21565   1.990   4.081   6.198
 6889SOL    HW121566   2.078   4.058   6.157
 6889SOL    HW221567   1.980   4.180   6.203
 6890SOL     OW21568   1.504   0.469   1.421
 6890SOL    HW121569   1.531   0.519   1.339
 6890SOL    HW221570   1.443   0.526   1.476
 6891SOL     OW21571   5.124   5.537   5.319
 6891SOL    HW121572   5.206   5.594   5.320
 6891SOL    HW221573   5.055   5.579   5.261
 6892SOL     OW21574   2.963   1.986   4.255
 6892SOL    HW121575   3.014   2.028   4.180
 6892SOL    HW221576   3.024   1.924   4.305
 6893SOL     OW21577   5.185   0.464   0.722
 6893SOL    HW121578   5.173   0.521   0.640
 6893SOL    HW221579   5.278   0.476   0.757
 6894SOL     OW21580   5.821   4.276   5.130
 6894SOL    HW121581   5.916   4.286   5.160
 6894SOL    HW221582   5.760   4.304   5.203
 6895SOL     OW21583   5.054   4.561   3.929
 6895SOL    HW121584   4.955   4.548   3.937
 6895SOL    HW221585   5.083   4.636   3.989
 6896SOL     OW21586   5.158   1.734   2.076
 6896SOL    HW121587   5.090   1.799   2.041
 6896SOL    HW221588   5.116   1.675   2.145
 6897SOL     OW21589   4.442   1.564   1.335
 6897SOL    HW121590   4.486   1.547   1.423
 6897SOL    HW221591   4.352   1.606   1.350
 6898SOL     OW21592   4.246   1.405   1.667
 6898SOL    HW121593   4.239   1.364   1.576
 6898SOL    HW221594   4.154   1.428   1.700
 6899SOL     OW21595   5.337   4.294   5.824
 6899SOL    HW121596   5.435   4.276   5.810
 6899SOL    HW221597   5.284   4.248   5.753
 6900SOL     OW21598   4.258   0.415   5.888
 6900SOL    HW121599   4.214   0.459   5.967
 6900SOL    HW221600   4.235   0.317   5.888
 6901SOL     OW21601   1.628   0.577   6.973
 6901SOL    HW121602   1.666   0.621   6.892
 6901SOL    HW221603   1.630   0.641   0.033
 6902SOL     OW21604   6.328   5.140   2.579
 6902SOL    HW121605   6.324   5.240   2.576
 6902SOL    HW221606   6.264   5.106   2.648
 6903SOL     OW21607   6.285   4.738   0.177
 6903SOL    HW121608   6.363   4.691   0.218
 6903SOL    HW221609   6.298   4.744   0.078
 6904SOL     OW21610   0.740   1.100   2.368
 6904SOL    HW121611   0.772   1.145   2.451
 6904SOL    HW221612   0.818   1.080   2.308
 6905SOL     OW21613   3.426   5.171   0.667
 6905SOL    HW121614   3.520   5.202   0.655
 6905SOL    HW221615   3.396   5.189   0.760
 6906SOL     OW21616   5.689   6.145   2.376
 6906SOL    HW121617   5.665   6.214   2.445
 6906SOL    HW221618   5.760   6.181   2.316
 6907SOL     OW21619   3.642   1.346   1.731
 6907SOL    HW121620   3.692   1.417   1.780
 6907SOL    HW221621   3.707   1.280   1.693
 6908SOL     OW21622   5.349   6.680   0.138
 6908SOL    HW121623   5.331   6.777   0.154
 6908SOL    HW221624   5.270   6.627   0.170
 6909SOL     OW21625   2.691   2.126   6.830
 6909SOL    HW121626   2.600   2.095   6.803
 6909SOL    HW221627   2.727   2.189   6.761
 6910SOL     OW21628   4.014   1.250   0.664
 6910SOL    HW121629   4.107   1.286   0.671
 6910SOL    HW221630   4.012   1.156   0.697
 6911SOL     OW21631   3.970   6.273   5.703
 6911SOL    HW121632   3.882   6.295   5.660
 6911SOL    HW221633   4.007   6.190   5.662
 6912SOL     OW21634   3.602   5.749   1.826
 6912SOL    HW121635   3.634   5.829   1.876
 6912SOL    HW221636   3.505   5.735   1.844
 6913SOL     OW21637   4.078   5.903   6.039
 6913SOL    HW121638   4.158   5.881   6.093
 6913SOL    HW221639   3.998   5.912   6.099
 6914SOL     OW21640   0.115   5.053   0.161
 6914SOL    HW121641   0.196   5.034   0.105
 6914SOL    HW221642   0.109   4.985   0.235
 6915SOL     OW21643   0.955   0.224   6.666
 6915SOL    HW121644   0.992   0.186   6.581
 6915SOL    HW221645   0.939   0.322   6.654
 6916SOL     OW21646   6.212   0.414   6.379
 6916SOL    HW121647   6.302   0.370   6.375
 6916SOL    HW221648   6.150   0.357   6.432
 6917SOL     OW21649   4.128   6.161   6.215
 6917SOL    HW121650   4.180   6.076   6.221
 6917SOL    HW221651   4.091   6.185   6.305
 6918SOL     OW21652   1.870   2.677   3.978
 6918SOL    HW121653   1.804   2.742   3.943
 6918SOL    HW221654   1.836   2.637   4.064
 6919SOL     OW21655   1.833   5.835   3.469
 6919SOL    HW121656   1.871   5.783   3.546
 6919SOL    HW221657   1.777   5.774   3.413
 6920SOL     OW21658   6.008   5.629   3.857
 6920SOL    HW121659   6.023   5.621   3.758
 6920SOL    HW221660   5.996   5.725   3.881
 6921SOL     OW21661   1.666   5.035   2.458
 6921SOL    HW121662   1.681   5.127   2.421
 6921SOL    HW221663   1.642   5.043   2.555
 6922SOL     OW21664   1.685   6.381   1.327
 6922SOL    HW121665   1.692   6.384   1.228
 6922SOL    HW221666   1.683   6.286   1.357
 6923SOL     OW21667   5.365   5.679   4.744
 6923SOL    HW121668   5.390   5.770   4.777
 6923SOL    HW221669   5.267   5.674   4.729
 6924SOL     OW21670   5.408   6.032   2.557
 6924SOL    HW121671   5.411   6.046   2.458
 6924SOL    HW221672   5.366   5.943   2.577
 6925SOL     OW21673   4.292   5.882   2.006
 6925SOL    HW121674   4.375   5.936   2.017
 6925SOL    HW221675   4.272   5.834   2.091
 6926SOL     OW21676   2.578   4.415   5.234
 6926SOL    HW121677   2.566   4.512   5.217
 6926SOL    HW221678   2.488   4.373   5.249
 6927SOL     OW21679   4.404   3.652   0.737
 6927SOL    HW121680   4.372   3.583   0.802
 6927SOL    HW221681   4.467   3.609   0.671
 6928SOL     OW21682   6.768   0.250   6.678
 6928SOL    HW121683   6.761   0.231   6.580
 6928SOL    HW221684   6.704   0.323   6.703
 6929SOL     OW21685   4.052   6.135   1.235
 6929SOL    HW121686   4.149   6.142   1.212
 6929SOL    HW221687   4.041   6.139   1.335
 6930SOL     OW21688   0.034   0.690   3.313
 6930SOL    HW121689   0.010   0.601   3.275
 6930SOL    HW221690   0.073   0.678   3.404
 6931SOL     OW21691   2.262   6.965   1.064
 6931SOL    HW121692   2.347   6.921   1.037
 6931SOL    HW221693   2.206   6.982   0.983
 6932SOL     OW21694   3.342   2.797   0.614
 6932SOL    HW121695   3.279   2.826   0.542
 6932SOL    HW221696   3.392   2.877   0.648
 6933SOL     OW21697   2.914   6.309   5.170
 6933SOL    HW121698   2.885   6.214   5.175
 6933SOL    HW221699   3.013   6.313   5.157
 6934SOL     OW21700   5.328   4.834   0.001
 6934SOL    HW121701   5.265   4.758   7.000
 6934SOL    HW221702   5.381   4.852   6.934
 6935SOL     OW21703   4.366   5.627   3.483
 6935SOL    HW121704   4.368   5.565   3.561
 6935SOL    HW221705   4.274   5.630   3.445
 6936SOL     OW21706   1.397   4.672   0.538
 6936SOL    HW121707   1.318   4.654   0.480
 6936SOL    HW221708   1.398   4.769   0.564
 6937SOL     OW21709   4.456   6.157   6.658
 6937SOL    HW121710   4.463   6.254   6.633
 6937SOL    HW221711   4.397   6.110   6.592
 6938SOL     OW21712   6.547   2.123   5.384
 6938SOL    HW121713   6.462   2.172   5.402
 6938SOL    HW221714   6.527   2.037   5.337
 6939SOL     OW21715   6.215   4.252   1.879
 6939SOL    HW121716   6.305   4.230   1.841
 6939SOL    HW221717   6.205   4.210   1.969
 6940SOL     OW21718   3.963   0.695   4.139
 6940SOL    HW121719   3.925   0.782   4.110
 6940SOL    HW221720   3.928   0.622   4.080
 6941SOL     OW21721   3.502   2.902   5.242
 6941SOL    HW121722   3.429   2.844   5.206
 6941SOL    HW221723   3.586   2.849   5.248
 6942SOL     OW21724   6.467   1.376   6.222
 6942SOL    HW121725   6.561   1.352   6.196
 6942SOL    HW221726   6.414   1.293   6.237
 6943SOL     OW21727   6.009   4.098   0.376
 6943SOL    HW121728   5.984   4.194   0.369
 6943SOL    HW221729   5.972   4.047   0.299
 6944SOL     OW21730   2.127   0.277   0.015
 6944SOL    HW121731   2.123   0.374   0.036
 6944SOL    HW221732   2.036   0.237   0.027
 6945SOL     OW21733   3.270   1.370   6.358
 6945SOL    HW121734   3.236   1.304   6.291
 6945SOL    HW221735   3.280   1.325   6.447
 6946SOL     OW21736   6.115   3.853   2.561
 6946SOL    HW121737   6.077   3.885   2.474
 6946SOL    HW221738   6.059   3.778   2.596
 6947SOL     OW21739   3.960   6.811   0.852
 6947SOL    HW121740   3.926   6.736   0.795
 6947SOL    HW221741   3.943   6.790   0.948
 6948SOL     OW21742   3.478   1.695   6.101
 6948SOL    HW121743   3.389   1.719   6.062
 6948SOL    HW221744   3.482   1.722   6.197
 6949SOL     OW21745   5.260   6.873   2.837
 6949SOL    HW121746   5.218   6.923   2.761
 6949SOL    HW221747   5.279   6.779   2.808
 6950SOL     OW21748   3.094   1.890   3.376
 6950SOL    HW121749   3.075   1.847   3.288
 6950SOL    HW221750   3.052   1.837   3.449
 6951SOL     OW21751   4.197   3.772   5.719
 6951SOL    HW121752   4.099   3.782   5.703
 6951SOL    HW221753   4.248   3.805   5.639
 6952SOL     OW21754   0.197   3.790   6.337
 6952SOL    HW121755   0.186   3.848   6.256
 6952SOL    HW221756   0.280   3.735   6.327
 6953SOL     OW21757   6.096   2.197   4.712
 6953SOL    HW121758   6.125   2.110   4.671
 6953SOL    HW221759   6.112   2.195   4.811
 6954SOL     OW21760   0.137   4.766   1.814
 6954SOL    HW121761   0.104   4.836   1.750
 6954SOL    HW221762   0.233   4.783   1.834
 6955SOL     OW21763   0.121   0.882   3.774
 6955SOL    HW121764   0.131   0.821   3.696
 6955SOL    HW221765   0.029   0.873   3.812
 6956SOL     OW21766   3.755   4.030   1.430
 6956SOL    HW121767   3.791   3.941   1.460
 6956SOL    HW221768   3.706   4.018   1.344
 6957SOL     OW21769   1.492   4.442   0.652
 6957SOL    HW121770   1.552   4.469   0.727
 6957SOL    HW221771   1.443   4.522   0.617
 6958SOL     OW21772   1.897   3.519   5.866
 6958SOL    HW121773   1.836   3.585   5.909
 6958SOL    HW221774   1.992   3.549   5.876
 6959SOL     OW21775   4.090   1.156   5.020
 6959SOL    HW121776   3.997   1.187   4.999
 6959SOL    HW221777   4.099   1.145   5.119
 6960SOL     OW21778   1.142   5.984   6.655
 6960SOL    HW121779   1.068   6.005   6.718
 6960SOL    HW221780   1.119   6.019   6.564
 6961SOL     OW21781   5.982   0.722   3.795
 6961SOL    HW121782   5.961   0.789   3.724
 6961SOL    HW221783   5.902   0.709   3.854
 6962SOL     OW21784   3.423   3.152   0.986
 6962SOL    HW121785   3.352   3.192   0.928
 6962SOL    HW221786   3.511   3.154   0.938
 6963SOL     OW21787   6.500   6.180   1.695
 6963SOL    HW121788   6.496   6.253   1.627
 6963SOL    HW221789   6.569   6.113   1.667
 6964SOL     OW21790   4.044   5.217   5.447
 6964SOL    HW121791   4.037   5.316   5.463
 6964SOL    HW221792   4.138   5.187   5.463
 6965SOL     OW21793   5.951   0.820   6.166
 6965SOL    HW121794   6.032   0.762   6.175
 6965SOL    HW221795   5.870   0.764   6.152
 6966SOL     OW21796   4.143   2.222   3.312
 6966SOL    HW121797   4.068   2.156   3.299
 6966SOL    HW221798   4.106   2.307   3.349
 6967SOL     OW21799   2.845   2.966   6.680
 6967SOL    HW121800   2.747   2.984   6.688
 6967SOL    HW221801   2.879   2.930   6.766
 6968SOL     OW21802   3.499   0.572   3.454
 6968SOL    HW121803   3.405   0.587   3.425
 6968SOL    HW221804   3.504   0.567   3.553
 6969SOL     OW21805   3.821   3.278   1.824
 6969SOL    HW121806   3.888   3.220   1.870
 6969SOL    HW221807   3.736   3.227   1.812
 6970SOL     OW21808   5.171   3.902   0.357
 6970SOL    HW121809   5.088   3.905   0.302
 6970SOL    HW221810   5.176   3.985   0.413
 6971SOL     OW21811   5.994   1.732   2.244
 6971SOL    HW121812   5.966   1.822   2.279
 6971SOL    HW221813   5.912   1.678   2.223
 6972SOL     OW21814   5.008   5.870   4.573
 6972SOL    HW121815   5.051   5.924   4.500
 6972SOL    HW221816   4.910   5.890   4.576
 6973SOL     OW21817   1.611   4.687   2.831
 6973SOL    HW121818   1.513   4.667   2.823
 6973SOL    HW221819   1.653   4.682   2.740
 6974SOL     OW21820   2.829   3.628   5.126
 6974SOL    HW121821   2.735   3.611   5.098
 6974SOL    HW221822   2.831   3.661   5.221
 6975SOL     OW21823   1.801   6.703   6.159
 6975SOL    HW121824   1.762   6.622   6.201
 6975SOL    HW221825   1.736   6.741   6.093
 6976SOL     OW21826   1.171   5.953   1.474
 6976SOL    HW121827   1.150   6.026   1.409
 6976SOL    HW221828   1.246   5.898   1.438
 6977SOL     OW21829   5.740   2.905   1.275
 6977SOL    HW121830   5.838   2.886   1.280
 6977SOL    HW221831   5.711   2.902   1.179
 6978SOL     OW21832   5.257   2.898   3.688
 6978SOL    HW121833   5.329   2.966   3.705
 6978SOL    HW221834   5.228   2.858   3.775
 6979SOL     OW21835   0.039   3.704   4.556
 6979SOL    HW121836   7.011   3.639   4.618
 6979SOL    HW221837   0.127   3.731   4.594
 6980SOL     OW21838   4.891   2.092   4.806
 6980SOL    HW121839   4.839   2.124   4.885
 6980SOL    HW221840   4.889   1.992   4.803
 6981SOL     OW21841   3.251   3.408   6.433
 6981SOL    HW121842   3.189   3.402   6.355
 6981SOL    HW221843   3.328   3.468   6.410
 6982SOL     OW21844   1.212   0.282   4.317
 6982SOL    HW121845   1.302   0.259   4.279
 6982SOL    HW221846   1.218   0.289   4.416
 6983SOL     OW21847   6.038   1.033   2.781
 6983SOL    HW121848   6.094   1.057   2.702
 6983SOL    HW221849   5.942   1.056   2.761
 6984SOL     OW21850   2.266   0.960   6.555
 6984SOL    HW121851   2.257   1.023   6.632
 6984SOL    HW221852   2.305   1.009   6.477
 6985SOL     OW21853   4.447   6.957   4.058
 6985SOL    HW121854   4.491   7.011   3.986
 6985SOL    HW221855   4.500   6.966   4.143
 6986SOL     OW21856   2.597   6.366   5.621
 6986SOL    HW121857   2.598   6.453   5.670
 6986SOL    HW221858   2.532   6.304   5.665
 6987SOL     OW21859   6.937   3.612   6.206
 6987SOL    HW121860   6.851   3.587   6.162
 6987SOL    HW221861   6.971   3.534   6.258
 6988SOL     OW21862   5.302   1.774   6.648
 6988SOL    HW121863   5.316   1.842   6.575
 6988SOL    HW221864   5.318   1.817   6.737
 6989SOL     OW21865   2.080   3.804   4.294
 6989SOL    HW121866   2.124   3.716   4.308
 6989SOL    HW221867   2.050   3.812   4.200
 6990SOL     OW21868   4.187   3.647   1.796
 6990SOL    HW121869   4.120   3.697   1.741
 6990SOL    HW221870   4.193   3.553   1.763
 6991SOL     OW21871   4.742   4.623   5.529
 6991SOL    HW121872   4.731   4.624   5.628
 6991SOL    HW221873   4.795   4.704   5.501
 6992SOL     OW21874   6.731   6.483   5.226
 6992SOL    HW121875   6.732   6.573   5.270
 6992SOL    HW221876   6.638   6.447   5.225
 6993SOL     OW21877   0.452   0.738   2.690
 6993SOL    HW121878   0.367   0.689   2.677
 6993SOL    HW221879   0.435   0.823   2.740
 6994SOL     OW21880   2.250   2.577   0.283
 6994SOL    HW121881   2.220   2.668   0.312
 6994SOL    HW221882   2.350   2.573   0.281
 6995SOL     OW21883   0.787   5.570   3.652
 6995SOL    HW121884   0.798   5.471   3.648
 6995SOL    HW221885   0.794   5.601   3.746
 6996SOL     OW21886   1.421   6.999   4.992
 6996SOL    HW121887   1.520   6.987   4.985
 6996SOL    HW221888   1.392   0.058   4.933
 6997SOL     OW21889   4.709   4.981   4.762
 6997SOL    HW121890   4.612   4.983   4.783
 6997SOL    HW221891   4.722   5.002   4.665
 6998SOL     OW21892   2.480   2.115   1.833
 6998SOL    HW121893   2.470   2.109   1.734
 6998SOL    HW221894   2.549   2.184   1.855
 6999SOL     OW21895   5.693   2.024   6.730
 6999SOL    HW121896   5.656   1.983   6.647
 6999SOL    HW221897   5.690   2.123   6.723
 7000SOL     OW21898   6.718   0.154   1.767
 7000SOL    HW121899   6.654   0.213   1.718
 7000SOL    HW221900   6.796   0.208   1.800
 7001SOL     OW21901   2.525   1.322   6.823
 7001SOL    HW121902   2.488   1.271   6.901
 7001SOL    HW221903   2.616   1.286   6.800
 7002SOL     OW21904   2.963   5.444   1.271
 7002SOL    HW121905   3.016   5.496   1.205
 7002SOL    HW221906   2.886   5.399   1.225
 7003SOL     OW21907   1.073   6.323   6.267
 7003SOL    HW121908   1.146   6.379   6.227
 7003SOL    HW221909   0.984   6.363   6.245
 7004SOL     OW21910   2.305   3.968   6.449
 7004SOL    HW121911   2.256   3.902   6.505
 7004SOL    HW221912   2.345   4.039   6.507
 7005SOL     OW21913   6.294   0.293   5.659
 7005SOL    HW121914   6.380   0.309   5.610
 7005SOL    HW221915   6.261   0.201   5.640
 7006SOL     OW21916   5.142   5.408   4.504
 7006SOL    HW121917   5.066   5.408   4.439
 7006SOL    HW221918   5.227   5.431   4.455
 7007SOL     OW21919   5.380   4.926   1.231
 7007SOL    HW121920   5.339   4.873   1.157
 7007SOL    HW221921   5.409   4.865   1.304
 7008SOL     OW21922   0.764   6.767   3.967
 7008SOL    HW121923   0.832   6.706   4.008
 7008SOL    HW221924   0.703   6.801   4.038
 7009SOL     OW21925   6.811   3.988   1.536
 7009SOL    HW121926   6.870   4.061   1.501
 7009SOL    HW221927   6.780   3.930   1.460
 7010SOL     OW21928   5.039   4.154   5.723
 7010SOL    HW121929   5.104   4.179   5.651
 7010SOL    HW221930   4.951   4.200   5.706
 7011SOL     OW21931   1.242   0.219   5.518
 7011SOL    HW121932   1.249   0.319   5.511
 7011SOL    HW221933   1.311   0.185   5.582
 7012SOL     OW21934   0.110   0.682   1.944
 7012SOL    HW121935   0.088   0.774   1.912
 7012SOL    HW221936   0.172   0.638   1.879
 7013SOL     OW21937   6.414   2.003   1.149
 7013SOL    HW121938   6.417   2.083   1.209
 7013SOL    HW221939   6.357   1.932   1.191
 7014SOL     OW21940   2.491   5.168   1.121
 7014SOL    HW121941   2.440   5.209   1.046
 7014SOL    HW221942   2.521   5.076   1.094
 7015SOL     OW21943   4.469   2.070   2.219
 7015SOL    HW121944   4.386   2.026   2.254
 7015SOL    HW221945   4.515   2.118   2.294
 7016SOL     OW21946   5.326   4.683   0.436
 7016SOL    HW121947   5.334   4.646   0.343
 7016SOL    HW221948   5.407   4.737   0.457
 7017SOL     OW21949   5.338   2.398   5.392
 7017SOL    HW121950   5.286   2.439   5.467
 7017SOL    HW221951   5.284   2.326   5.349
 7018SOL     OW21952   0.462   4.456   3.694
 7018SOL    HW121953   0.551   4.442   3.736
 7018SOL    HW221954   0.406   4.374   3.705
 7019SOL     OW21955   6.538   6.209   2.476
 7019SOL    HW121956   6.498   6.295   2.443
 7019SOL    HW221957   6.525   6.138   2.407
 7020SOL     OW21958   6.581   5.489   0.545
 7020SOL    HW121959   6.627   5.449   0.624
 7020SOL    HW221960   6.524   5.420   0.501
 7021SOL     OW21961   3.073   6.797   5.582
 7021SOL    HW121962   2.982   6.755   5.574
 7021SOL    HW221963   3.099   6.836   5.494
 7022SOL     OW21964   3.832   4.683   5.603
 7022SOL    HW121965   3.827   4.595   5.650
 7022SOL    HW221966   3.858   4.669   5.508
 7023SOL     OW21967   4.891   5.163   2.363
 7023SOL    HW121968   4.877   5.256   2.395
 7023SOL    HW221969   4.824   5.141   2.292
 7024SOL     OW21970   6.103   6.904   1.963
 7024SOL    HW121971   6.061   6.985   1.921
 7024SOL    HW221972   6.055   6.882   2.048
 7025SOL     OW21973   3.157   0.216   1.589
 7025SOL    HW121974   3.214   0.175   1.517
 7025SOL    HW221975   3.070   0.245   1.549
 7026SOL     OW21976   4.188   2.500   0.456
 7026SOL    HW121977   4.247   2.457   0.388
 7026SOL    HW221978   4.216   2.596   0.468
 7027SOL     OW21979   5.761   5.743   5.074
 7027SOL    HW121980   5.815   5.811   5.124
 7027SOL    HW221981   5.753   5.770   4.978
 7028SOL     OW21982   3.283   0.677   4.683
 7028SOL    HW121983   3.203   0.679   4.743
 7028SOL    HW221984   3.286   0.761   4.629
 7029SOL     OW21985   3.475   6.930   4.069
 7029SOL    HW121986   3.513   6.849   4.113
 7029SOL    HW221987   3.394   6.960   4.120
 7030SOL     OW21988   0.940   3.655   3.781
 7030SOL    HW121989   0.887   3.725   3.829
 7030SOL    HW221990   1.006   3.699   3.720
 7031SOL     OW21991   1.962   0.923   4.277
 7031SOL    HW121992   1.981   0.851   4.211
 7031SOL    HW221993   1.959   1.012   4.231
 7032SOL     OW21994   6.223   2.241   3.519
 7032SOL    HW121995   6.232   2.240   3.618
 7032SOL    HW221996   6.290   2.306   3.481
 7033SOL     OW21997   7.005   0.966   4.928
 7033SOL    HW121998   0.057   1.010   4.870
 7033SOL    HW221999   6.930   1.030   4.947
 7034SOL     OW22000   6.960   5.106   4.228
 7034SOL    HW122001   6.937   5.047   4.151
 7034SOL    HW222002   6.947   5.202   4.202
 7035SOL     OW22003   6.752   4.595   0.975
 7035SOL    HW122004   6.784   4.525   1.039
 7035SOL    HW222005   6.652   4.594   0.971
 7036SOL     OW22006   6.308   5.674   0.712
 7036SOL    HW122007   6.335   5.697   0.618
 7036SOL    HW222008   6.376   5.612   0.752
 7037SOL     OW22009   1.188   0.169   6.491
 7037SOL    HW122010   1.230   0.222   6.565
 7037SOL    HW222011   1.200   0.218   6.405
 7038SOL     OW22012   2.309   2.348   3.879
 7038SOL    HW122013   2.266   2.367   3.967
 7038SOL    HW222014   2.238   2.332   3.810
 7039SOL     OW22015   4.224   2.158   6.470
 7039SOL    HW122016   4.205   2.071   6.515
 7039SOL    HW222017   4.138   2.202   6.444
 7040SOL     OW22018   6.636   1.966   6.755
 7040SOL    HW122019   6.644   2.050   6.809
 7040SOL    HW222020   6.541   1.938   6.750
 7041SOL     OW22021   2.062   1.343   3.530
 7041SOL    HW122022   2.042   1.247   3.547
 7041SOL    HW222023   2.028   1.368   3.439
 7042SOL     OW22024   1.937   0.860   0.022
 7042SOL    HW122025   1.990   0.937   0.057
 7042SOL    HW222026   1.935   0.787   0.090
 7043SOL     OW22027   1.818   2.673   0.987
 7043SOL    HW122028   1.813   2.630   1.078
 7043SOL    HW222029   1.862   2.610   0.923
 7044SOL     OW22030   0.089   5.714   0.667
 7044SOL    HW122031   0.075   5.616   0.659
 7044SOL    HW222032   0.035   5.750   0.743
 7045SOL     OW22033   0.378   4.180   0.242
 7045SOL    HW122034   0.419   4.103   0.291
 7045SOL    HW222035   0.439   4.210   0.169
 7046SOL     OW22036   2.578   2.075   3.561
 7046SOL    HW122037   2.531   1.987   3.554
 7046SOL    HW222038   2.543   2.125   3.641
 7047SOL     OW22039   1.131   6.846   3.298
 7047SOL    HW122040   1.194   6.768   3.294
 7047SOL    HW222041   1.171   6.918   3.355
 7048SOL     OW22042   0.362   5.416   6.795
 7048SOL    HW122043   0.301   5.442   6.720
 7048SOL    HW222044   0.409   5.331   6.772
 7049SOL     OW22045   2.675   1.245   6.525
 7049SOL    HW122046   2.758   1.240   6.470
 7049SOL    HW222047   2.693   1.295   6.609
 7050SOL     OW22048   3.510   3.577   6.023
 7050SOL    HW122049   3.610   3.582   6.030
 7050SOL    HW222050   3.484   3.484   5.996
 7051SOL     OW22051   5.720   6.217   1.859
 7051SOL    HW122052   5.812   6.232   1.896
 7051SOL    HW222053   5.654   6.221   1.934
 7052SOL     OW22054   6.425   0.854   4.645
 7052SOL    HW122055   6.336   0.870   4.686
 7052SOL    HW222056   6.429   0.760   4.610
 7053SOL     OW22057   6.319   3.629   6.354
 7053SOL    HW122058   6.332   3.667   6.263
 7053SOL    HW222059   6.231   3.581   6.358
 7054SOL     OW22060   5.644   2.553   2.644
 7054SOL    HW122061   5.720   2.490   2.662
 7054SOL    HW222062   5.648   2.583   2.549
 7055SOL     OW22063   4.195   1.782   3.515
 7055SOL    HW122064   4.158   1.873   3.530
 7055SOL    HW222065   4.295   1.787   3.507
 7056SOL     OW22066   4.554   5.817   4.553
 7056SOL    HW122067   4.496   5.735   4.552
 7056SOL    HW222068   4.535   5.870   4.636
 7057SOL     OW22069   5.546   6.090   3.214
 7057SOL    HW122070   5.522   6.063   3.121
 7057SOL    HW222071   5.488   6.166   3.243
 7058SOL     OW22072   6.954   3.999   4.784
 7058SOL    HW122073   6.936   3.994   4.686
 7058SOL    HW222074   6.916   4.084   4.820
 7059SOL     OW22075   1.379   0.376   2.085
 7059SOL    HW122076   1.452   0.438   2.115
 7059SOL    HW222077   1.405   0.335   1.997
 7060SOL     OW22078   3.977   0.064   1.572
 7060SOL    HW122079   3.895   0.026   1.616
 7060SOL    HW222080   4.057   0.010   1.598
 7061SOL     OW22081   0.947   1.301   2.834
 7061SOL    HW122082   0.849   1.320   2.844
 7061SOL    HW222083   1.000   1.377   2.870
 7062SOL     OW22084   6.506   1.168   5.711
 7062SOL    HW122085   6.470   1.234   5.645
 7062SOL    HW222086   6.577   1.113   5.667
 7063SOL     OW22087   1.843   6.630   1.575
 7063SOL    HW122088   1.877   6.665   1.488
 7063SOL    HW222089   1.757   6.582   1.561
 7064SOL     OW22090   3.239   3.128   0.779
 7064SOL    HW122091   3.297   3.146   0.699
 7064SOL    HW222092   3.148   3.166   0.764
 7065SOL     OW22093   3.081   3.584   2.518
 7065SOL    HW122094   3.079   3.676   2.556
 7065SOL    HW222095   3.171   3.567   2.477
 7066SOL     OW22096   2.484   4.731   1.607
 7066SOL    HW122097   2.446   4.823   1.611
 7066SOL    HW222098   2.547   4.717   1.683
 7067SOL     OW22099   1.267   4.068   4.755
 7067SOL    HW122100   1.287   4.079   4.853
 7067SOL    HW222101   1.233   3.976   4.738
 7068SOL     OW22102   0.625   1.272   3.019
 7068SOL    HW122103   0.663   1.180   3.030
 7068SOL    HW222104   0.581   1.300   3.105
 7069SOL     OW22105   1.551   4.165   5.426
 7069SOL    HW122106   1.516   4.227   5.496
 7069SOL    HW222107   1.639   4.199   5.392
 7070SOL     OW22108   5.640   5.582   2.710
 7070SOL    HW122109   5.586   5.601   2.628
 7070SOL    HW222110   5.662   5.485   2.713
 7071SOL     OW22111   1.699   6.746   5.452
 7071SOL    HW122112   1.772   6.690   5.489
 7071SOL    HW222113   1.715   6.842   5.478
 7072SOL     OW22114   0.159   0.057   6.477
 7072SOL    HW122115   0.155   0.033   6.575
 7072SOL    HW222116   0.139   0.154   6.466
 7073SOL     OW22117   2.337   2.326   6.842
 7073SOL    HW122118   2.427   2.336   6.799
 7073SOL    HW222119   2.332   2.386   6.921
 7074SOL     OW22120   4.205   1.352   6.498
 7074SOL    HW122121   4.152   1.423   6.545
 7074SOL    HW222122   4.168   1.262   6.520
 7075SOL     OW22123   0.715   6.230   3.310
 7075SOL    HW122124   0.736   6.146   3.359
 7075SOL    HW222125   0.781   6.301   3.335
 7076SOL     OW22126   2.873   1.219   6.010
 7076SOL    HW122127   2.836   1.247   5.921
 7076SOL    HW222128   2.861   1.293   6.076
 7077SOL     OW22129   0.973   5.683   6.251
 7077SOL    HW122130   0.968   5.724   6.342
 7077SOL    HW222131   0.890   5.706   6.200
 7078SOL     OW22132   0.427   0.598   1.220
 7078SOL    HW122133   0.328   0.610   1.211
 7078SOL    HW222134   0.472   0.686   1.205
 7079SOL     OW22135   5.280   6.470   4.304
 7079SOL    HW122136   5.275   6.569   4.285
 7079SOL    HW222137   5.355   6.431   4.251
 7080SOL     OW22138   6.072   0.328   3.947
 7080SOL    HW122139   6.028   0.408   3.989
 7080SOL    HW222140   6.077   0.341   3.848
 7081SOL     OW22141   4.486   0.932   4.521
 7081SOL    HW122142   4.484   0.940   4.422
 7081SOL    HW222143   4.515   1.019   4.561
 7082SOL     OW22144   5.930   1.185   0.330
 7082SOL    HW122145   5.833   1.183   0.356
 7082SOL    HW222146   5.939   1.156   0.234
 7083SOL     OW22147   4.420   0.131   5.164
 7083SOL    HW122148   4.333   0.180   5.178
 7083SOL    HW222149   4.496   0.189   5.195
 7084SOL     OW22150   5.879   5.685   0.185
 7084SOL    HW122151   5.899   5.769   0.134
 7084SOL    HW222152   5.810   5.632   0.138
 7085SOL     OW22153   5.055   1.735   1.228
 7085SOL    HW122154   5.096   1.644   1.220
 7085SOL    HW222155   5.123   1.805   1.204
 7086SOL     OW22156   1.552   0.824   5.836
 7086SOL    HW122157   1.640   0.832   5.881
 7086SOL    HW222158   1.533   0.907   5.784
 7087SOL     OW22159   2.520   2.635   4.465
 7087SOL    HW122160   2.608   2.672   4.435
 7087SOL    HW222161   2.468   2.706   4.512
 7088SOL     OW22162   6.623   1.403   4.507
 7088SOL    HW122163   6.576   1.359   4.430
 7088SOL    HW222164   6.647   1.333   4.575
 7089SOL     OW22165   2.588   1.886   1.989
 7089SOL    HW122166   2.505   1.925   1.950
 7089SOL    HW222167   2.654   1.867   1.916
 7090SOL     OW22168   3.292   0.705   5.220
 7090SOL    HW122169   3.205   0.698   5.269
 7090SOL    HW222170   3.362   0.651   5.268
 7091SOL     OW22171   6.575   4.927   6.770
 7091SOL    HW122172   6.666   4.936   6.729
 7091SOL    HW222173   6.583   4.888   6.861
 7092SOL     OW22174   3.714   2.367   0.837
 7092SOL    HW122175   3.785   2.315   0.790
 7092SOL    HW222176   3.726   2.465   0.819
 7093SOL     OW22177   3.776   3.605   6.030
 7093SOL    HW122178   3.840   3.529   6.022
 7093SOL    HW222179   3.786   3.665   5.951
 7094SOL     OW22180   6.006   0.985   6.802
 7094SOL    HW122181   6.046   1.075   6.822
 7094SOL    HW222182   5.955   0.989   6.717
 7095SOL     OW22183   1.035   4.397   1.573
 7095SOL    HW122184   0.938   4.408   1.550
 7095SOL    HW222185   1.091   4.432   1.497
 7096SOL     OW22186   3.681   0.027   3.225
 7096SOL    HW122187   3.605   0.065   3.173
 7096SOL    HW222188   3.650   0.001   3.316
 7097SOL     OW22189   1.627   1.575   1.693
 7097SOL    HW122190   1.613   1.594   1.790
 7097SOL    HW222191   1.564   1.631   1.639
 7098SOL     OW22192   1.458   0.653   6.627
 7098SOL    HW122193   1.550   0.657   6.667
 7098SOL    HW222194   1.449   0.568   6.575
 7099SOL     OW22195   0.093   1.400   4.609
 7099SOL    HW122196   0.081   1.304   4.586
 7099SOL    HW222197   0.088   1.412   4.708
 7100SOL     OW22198   5.554   2.133   0.628
 7100SOL    HW122199   5.616   2.098   0.557
 7100SOL    HW222200   5.606   2.149   0.712
 7101SOL     OW22201   1.716   0.613   4.811
 7101SOL    HW122202   1.706   0.711   4.826
 7101SOL    HW222203   1.648   0.583   4.744
 7102SOL     OW22204   4.248   2.474   0.153
 7102SOL    HW122205   4.329   2.462   0.095
 7102SOL    HW222206   4.215   2.568   0.144
 7103SOL     OW22207   2.054   0.136   6.243
 7103SOL    HW122208   2.147   0.162   6.217
 7103SOL    HW222209   2.018   0.070   6.176
 7104SOL     OW22210   0.434   3.642   1.554
 7104SOL    HW122211   0.340   3.614   1.573
 7104SOL    HW222212   0.497   3.592   1.615
 7105SOL     OW22213   2.062   2.273   4.884
 7105SOL    HW122214   2.140   2.251   4.943
 7105SOL    HW222215   2.090   2.267   4.789
 7106SOL     OW22216   3.018   2.994   5.224
 7106SOL    HW122217   3.024   3.009   5.322
 7106SOL    HW222218   3.040   3.079   5.175
 7107SOL     OW22219   2.168   1.661   7.007
 7107SOL    HW122220   2.221   1.618   0.063
 7107SOL    HW222221   2.112   1.592   6.961
 7108SOL     OW22222   4.361   6.744   2.649
 7108SOL    HW122223   4.347   6.839   2.676
 7108SOL    HW222224   4.429   6.702   2.709
 7109SOL     OW22225   4.725   5.613   6.780
 7109SOL    HW122226   4.752   5.589   6.873
 7109SOL    HW222227   4.644   5.672   6.782
 7110SOL     OW22228   3.718   5.292   4.222
 7110SOL    HW122229   3.673   5.256   4.303
 7110SOL    HW222230   3.657   5.283   4.143
 7111SOL     OW22231   1.126   3.295   3.181
 7111SOL    HW122232   1.167   3.321   3.093
 7111SOL    HW222233   1.199   3.268   3.244
 7112SOL     OW22234   2.001   6.264   2.872
 7112SOL    HW122235   2.048   6.214   2.800
 7112SOL    HW222236   1.902   6.256   2.860
 7113SOL     OW22237   3.775   4.065   5.911
 7113SOL    HW122238   3.719   4.051   5.992
 7113SOL    HW222239   3.723   4.114   5.842
 7114SOL     OW22240   3.760   6.594   0.756
 7114SOL    HW122241   3.677   6.577   0.703
 7114SOL    HW222242   3.838   6.597   0.695
 7115SOL     OW22243   4.166   2.243   1.995
 7115SOL    HW122244   4.165   2.317   1.927
 7115SOL    HW222245   4.239   2.260   2.061
 7116SOL     OW22246   6.404   4.141   3.740
 7116SOL    HW122247   6.468   4.208   3.702
 7116SOL    HW222248   6.319   4.187   3.764
 7117SOL     OW22249   5.473   0.153   2.609
 7117SOL    HW122250   5.447   0.249   2.603
 7117SOL    HW222251   5.501   0.132   2.703
 7118SOL     OW22252   6.856   3.728   3.684
 7118SOL    HW122253   6.829   3.702   3.592
 7118SOL    HW222254   6.952   3.758   3.683
 7119SOL     OW22255   0.775   2.353   2.097
 7119SOL    HW122256   0.810   2.319   2.010
 7119SOL    HW222257   0.689   2.402   2.082
 7120SOL     OW22258   4.574   6.451   4.210
 7120SOL    HW122259   4.565   6.351   4.210
 7120SOL    HW222260   4.500   6.491   4.156
 7121SOL     OW22261   1.561   6.181   0.782
 7121SOL    HW122262   1.616   6.103   0.752
 7121SOL    HW222263   1.464   6.155   0.785
 7122SOL     OW22264   0.116   6.178   0.138
 7122SOL    HW122265   0.062   6.260   0.156
 7122SOL    HW222266   0.065   6.116   0.078
 7123SOL     OW22267   3.260   4.488   0.738
 7123SOL    HW122268   3.319   4.482   0.818
 7123SOL    HW222269   3.297   4.555   0.674
 7124SOL     OW22270   0.179   5.062   6.869
 7124SOL    HW122271   0.252   5.093   6.929
 7124SOL    HW222272   0.106   5.130   6.866
 7125SOL     OW22273   1.335   5.788   3.224
 7125SOL    HW122274   1.409   5.854   3.208
 7125SOL    HW222275   1.325   5.772   3.322
 7126SOL     OW22276   1.519   4.380   1.141
 7126SOL    HW122277   1.444   4.439   1.112
 7126SOL    HW222278   1.496   4.285   1.119
 7127SOL     OW22279   2.402   0.413   4.848
 7127SOL    HW122280   2.465   0.486   4.875
 7127SOL    HW222281   2.333   0.401   4.919
 7128SOL     OW22282   3.416   3.692   2.698
 7128SOL    HW122283   3.495   3.692   2.637
 7128SOL    HW222284   3.358   3.771   2.676
 7129SOL     OW22285   3.552   1.707   0.563
 7129SOL    HW122286   3.621   1.668   0.623
 7129SOL    HW222287   3.529   1.799   0.594
 7130SOL     OW22288   1.539   0.678   2.798
 7130SOL    HW122289   1.526   0.767   2.841
 7130SOL    HW222290   1.556   0.609   2.868
 7131SOL     OW22291   2.815   1.030   3.178
 7131SOL    HW122292   2.800   1.063   3.084
 7131SOL    HW222293   2.913   1.028   3.197
 7132SOL     OW22294   3.045   4.006   2.257
 7132SOL    HW122295   3.075   4.038   2.167
 7132SOL    HW222296   3.005   3.915   2.248
 7133SOL     OW22297   6.262   3.831   2.067
 7133SOL    HW122298   6.303   3.788   2.148
 7133SOL    HW222299   6.181   3.780   2.039
 7134SOL     OW22300   4.443   4.576   2.462
 7134SOL    HW122301   4.445   4.513   2.384
 7134SOL    HW222302   4.453   4.525   2.547
 7135SOL     OW22303   0.037   1.519   5.698
 7135SOL    HW122304   0.034   1.450   5.770
 7135SOL    HW222305   0.132   1.549   5.685
 7136SOL     OW22306   2.071   2.017   6.495
 7136SOL    HW122307   2.138   1.943   6.504
 7136SOL    HW222308   2.101   2.081   6.425
 7137SOL     OW22309   5.550   1.702   5.196
 7137SOL    HW122310   5.599   1.631   5.246
 7137SOL    HW222311   5.603   1.786   5.196
 7138SOL     OW22312   2.336   1.972   6.429
 7138SOL    HW122313   2.293   2.011   6.347
 7138SOL    HW222314   2.432   1.999   6.431
 7139SOL     OW22315   1.876   1.339   0.140
 7139SOL    HW122316   1.951   1.370   0.199
 7139SOL    HW222317   1.846   1.248   0.169
 7140SOL     OW22318   6.663   4.740   4.478
 7140SOL    HW122319   6.614   4.777   4.557
 7140SOL    HW222320   6.626   4.651   4.453
 7141SOL     OW22321   0.817   0.652   2.058
 7141SOL    HW122322   0.745   0.668   2.126
 7141SOL    HW222323   0.871   0.735   2.046
 7142SOL     OW22324   3.564   6.664   4.200
 7142SOL    HW122325   3.531   6.569   4.198
 7142SOL    HW222326   3.595   6.686   4.293
 7143SOL     OW22327   1.804   3.041   3.686
 7143SOL    HW122328   1.769   2.954   3.718
 7143SOL    HW222329   1.857   3.085   3.759
 7144SOL     OW22330   1.464   3.477   3.464
 7144SOL    HW122331   1.503   3.560   3.504
 7144SOL    HW222332   1.524   3.399   3.486
 7145SOL     OW22333   3.669   5.929   6.877
 7145SOL    HW122334   3.598   5.999   6.878
 7145SOL    HW222335   3.644   5.857   6.812
 7146SOL     OW22336   3.784   4.866   1.228
 7146SOL    HW122337   3.745   4.944   1.180
 7146SOL    HW222338   3.712   4.797   1.244
 7147SOL     OW22339   0.734   1.460   3.392
 7147SOL    HW122340   0.752   1.448   3.490
 7147SOL    HW222341   0.706   1.555   3.374
 7148SOL     OW22342   6.793   2.396   0.759
 7148SOL    HW122343   6.830   2.315   0.713
 7148SOL    HW222344   6.711   2.371   0.810
 7149SOL     OW22345   1.084   0.655   4.574
 7149SOL    HW122346   1.163   0.668   4.515
 7149SOL    HW222347   1.066   0.739   4.625
 7150SOL     OW22348   6.553   2.770   5.790
 7150SOL    HW122349   6.550   2.813   5.880
 7150SOL    HW222350   6.504   2.683   5.794
 7151SOL     OW22351   1.350   0.321   0.433
 7151SOL    HW122352   1.428   0.268   0.467
 7151SOL    HW222353   1.278   0.259   0.402
 7152SOL     OW22354   0.700   2.533   4.364
 7152SOL    HW122355   0.688   2.511   4.461
 7152SOL    HW222356   0.646   2.469   4.309
 7153SOL     OW22357   4.728   2.067   3.252
 7153SOL    HW122358   4.648   2.026   3.207
 7153SOL    HW222359   4.719   2.166   3.252
 7154SOL     OW22360   3.319   0.103   4.517
 7154SOL    HW122361   3.321   0.163   4.598
 7154SOL    HW222362   3.391   0.131   4.453
 7155SOL     OW22363   2.525   1.466   4.244
 7155SOL    HW122364   2.502   1.475   4.147
 7155SOL    HW222365   2.625   1.463   4.254
 7156SOL     OW22366   2.261   5.688   5.414
 7156SOL    HW122367   2.186   5.636   5.370
 7156SOL    HW222368   2.340   5.628   5.426
 7157SOL     OW22369   5.786   4.291   0.687
 7157SOL    HW122370   5.747   4.285   0.779
 7157SOL    HW222371   5.821   4.201   0.660
 7158SOL     OW22372   3.786   0.442   3.351
 7158SOL    HW122373   3.778   0.400   3.261
 7158SOL    HW222374   3.810   0.538   3.341
 7159SOL     OW22375   1.317   6.028   0.030
 7159SOL    HW122376   1.337   5.962   0.103
 7159SOL    HW222377   1.249   6.093   0.062
 7160SOL     OW22378   0.061   0.433   2.092
 7160SOL    HW122379   6.980   0.448   2.105
 7160SOL    HW222380   0.100   0.509   2.039
 7161SOL     OW22381   2.921   3.739   4.880
 7161SOL    HW122382   2.913   3.722   4.978
 7161SOL    HW222383   2.849   3.803   4.851
 7162SOL     OW22384   3.458   4.997   4.042
 7162SOL    HW122385   3.383   4.935   4.021
 7162SOL    HW222386   3.447   5.034   4.135
 7163SOL     OW22387   1.072   6.406   3.615
 7163SOL    HW122388   1.115   6.316   3.611
 7163SOL    HW222389   1.142   6.477   3.619
 7164SOL     OW22390   3.833   1.344   4.410
 7164SOL    HW122391   3.745   1.390   4.416
 7164SOL    HW222392   3.818   1.245   4.405
 7165SOL     OW22393   4.227   5.229   2.039
 7165SOL    HW122394   4.157   5.261   1.976
 7165SOL    HW222395   4.303   5.188   1.988
 7166SOL     OW22396   3.352   6.435   2.589
 7166SOL    HW122397   3.327   6.347   2.629
 7166SOL    HW222398   3.269   6.484   2.562
 7167SOL     OW22399   6.159   2.880   0.571
 7167SOL    HW122400   6.083   2.828   0.612
 7167SOL    HW222401   6.192   2.832   0.490
 7168SOL     OW22402   6.686   0.992   4.379
 7168SOL    HW122403   6.686   1.050   4.298
 7168SOL    HW222404   6.602   1.007   4.431
 7169SOL     OW22405   2.689   2.894   7.000
 7169SOL    HW122406   2.649   2.858   6.915
 7169SOL    HW222407   2.615   2.916   0.048
 7170SOL     OW22408   4.933   3.850   4.618
 7170SOL    HW122409   4.879   3.868   4.700
 7170SOL    HW222410   4.910   3.759   4.583
 7171SOL     OW22411   3.522   3.792   5.339
 7171SOL    HW122412   3.439   3.743   5.311
 7171SOL    HW222413   3.522   3.883   5.298
 7172SOL     OW22414   5.754   5.856   1.431
 7172SOL    HW122415   5.752   5.860   1.331
 7172SOL    HW222416   5.821   5.787   1.460
 7173SOL     OW22417   6.624   6.503   4.567
 7173SOL    HW122418   6.561   6.540   4.498
 7173SOL    HW222419   6.656   6.412   4.538
 7174SOL     OW22420   1.184   6.685   5.895
 7174SOL    HW122421   1.091   6.686   5.932
 7174SOL    HW222422   1.206   6.775   5.856
 7175SOL     OW22423   6.217   3.456   5.788
 7175SOL    HW122424   6.196   3.533   5.727
 7175SOL    HW222425   6.302   3.412   5.758
 7176SOL     OW22426   1.073   3.432   1.170
 7176SOL    HW122427   1.031   3.357   1.119
 7176SOL    HW222428   1.124   3.396   1.248
 7177SOL     OW22429   0.376   5.209   1.336
 7177SOL    HW122430   0.449   5.233   1.271
 7177SOL    HW222431   0.323   5.133   1.300
 7178SOL     OW22432   6.415   0.629   6.624
 7178SOL    HW122433   6.363   0.685   6.559
 7178SOL    HW222434   6.372   0.539   6.632
 7179SOL     OW22435   0.757   3.790   5.728
 7179SOL    HW122436   0.791   3.723   5.794
 7179SOL    HW222437   0.691   3.747   5.667
 7180SOL     OW22438   6.866   0.793   2.180
 7180SOL    HW122439   6.946   0.801   2.121
 7180SOL    HW222440   6.786   0.768   2.125
 7181SOL     OW22441   5.192   5.959   2.175
 7181SOL    HW122442   5.274   5.982   2.226
 7181SOL    HW222443   5.117   5.941   2.239
 7182SOL     OW22444   3.775   3.794   5.854
 7182SOL    HW122445   3.681   3.778   5.823
 7182SOL    HW222446   3.780   3.883   5.900
 7183SOL     OW22447   2.293   2.832   2.835
 7183SOL    HW122448   2.333   2.758   2.781
 7183SOL    HW222449   2.327   2.920   2.802
 7184SOL     OW22450   2.538   5.459   3.163
 7184SOL    HW122451   2.568   5.471   3.068
 7184SOL    HW222452   2.476   5.381   3.169
 7185SOL     OW22453   5.427   2.161   6.314
 7185SOL    HW122454   5.488   2.200   6.245
 7185SOL    HW222455   5.346   2.220   6.323
 7186SOL     OW22456   1.437   6.610   4.525
 7186SOL    HW122457   1.470   6.672   4.595
 7186SOL    HW222458   1.478   6.635   4.437
 7187SOL     OW22459   1.550   4.828   1.135
 7187SOL    HW122460   1.636   4.802   1.179
 7187SOL    HW222461   1.478   4.766   1.165
 7188SOL     OW22462   4.420   0.407   1.472
 7188SOL    HW122463   4.487   0.333   1.467
 7188SOL    HW222464   4.352   0.385   1.541
 7189SOL     OW22465   6.012   0.890   5.718
 7189SOL    HW122466   5.934   0.952   5.709
 7189SOL    HW222467   6.095   0.938   5.689
 7190SOL     OW22468   4.596   4.787   2.367
 7190SOL    HW122469   4.669   4.786   2.435
 7190SOL    HW222470   4.526   4.719   2.391
 7191SOL     OW22471   0.880   3.694   1.615
 7191SOL    HW122472   0.794   3.643   1.618
 7191SOL    HW222473   0.893   3.731   1.523
 7192SOL     OW22474   3.417   4.177   6.122
 7192SOL    HW122475   3.328   4.144   6.152
 7192SOL    HW222476   3.477   4.098   6.104
 7193SOL     OW22477   5.990   1.926   4.845
 7193SOL    HW122478   6.051   2.000   4.873
 7193SOL    HW222479   5.934   1.899   4.923
 7194SOL     OW22480   3.292   0.938   1.776
 7194SOL    HW122481   3.264   0.845   1.753
 7194SOL    HW222482   3.309   0.945   1.874
 7195SOL     OW22483   0.418   0.272   3.152
 7195SOL    HW122484   0.375   0.214   3.083
 7195SOL    HW222485   0.517   0.275   3.137
 7196SOL     OW22486   4.079   4.091   1.525
 7196SOL    HW122487   4.129   4.098   1.438
 7196SOL    HW222488   4.129   4.031   1.587
 7197SOL     OW22489   2.010   1.127   4.093
 7197SOL    HW122490   1.967   1.218   4.089
 7197SOL    HW222491   2.022   1.092   4.000
 7198SOL     OW22492   7.015   7.000   5.608
 7198SOL    HW122493   0.065   0.031   5.666
 7198SOL    HW222494   0.015   0.008   5.512
 7199SOL     OW22495   6.317   5.795   1.762
 7199SOL    HW122496   6.322   5.799   1.862
 7199SOL    HW222497   6.240   5.850   1.731
 7200SOL     OW22498   1.287   1.995   2.411
 7200SOL    HW122499   1.330   2.062   2.471
 7200SOL    HW222500   1.199   2.029   2.379
 7201SOL     OW22501   1.401   4.798   3.034
 7201SOL    HW122502   1.411   4.755   3.124
 7201SOL    HW222503   1.475   4.768   2.974
 7202SOL     OW22504   2.241   6.664   5.392
 7202SOL    HW122505   2.219   6.648   5.488
 7202SOL    HW222506   2.159   6.697   5.344
 7203SOL     OW22507   5.666   0.609   0.095
 7203SOL    HW122508   5.648   0.533   0.034
 7203SOL    HW222509   5.591   0.676   0.089
 7204SOL     OW22510   0.664   3.359   2.686
 7204SOL    HW122511   0.642   3.262   2.680
 7204SOL    HW222512   0.678   3.384   2.782
 7205SOL     OW22513   1.221   4.326   1.234
 7205SOL    HW122514   1.134   4.362   1.201
 7205SOL    HW222515   1.258   4.264   1.165
 7206SOL     OW22516   6.650   0.912   1.661
 7206SOL    HW122517   6.612   0.827   1.696
 7206SOL    HW222518   6.638   0.915   1.561
 7207SOL     OW22519   3.899   0.303   1.453
 7207SOL    HW122520   3.929   0.215   1.489
 7207SOL    HW222521   3.839   0.347   1.519
 7208SOL     OW22522   2.632   7.015   4.941
 7208SOL    HW122523   2.655   0.096   4.950
 7208SOL    HW222524   2.568   7.002   4.866
 7209SOL     OW22525   2.501   3.862   5.709
 7209SOL    HW122526   2.537   3.896   5.795
 7209SOL    HW222527   2.518   3.929   5.636
 7210SOL     OW22528   4.170   0.470   4.315
 7210SOL    HW122529   4.112   0.544   4.351
 7210SOL    HW222530   4.113   0.395   4.284
 7211SOL     OW22531   0.795   5.490   3.211
 7211SOL    HW122532   0.781   5.392   3.195
 7211SOL    HW222533   0.718   5.542   3.173
 7212SOL     OW22534   5.571   6.492   2.878
 7212SOL    HW122535   5.574   6.566   2.810
 7212SOL    HW222536   5.532   6.410   2.836
 7213SOL     OW22537   5.503   6.391   5.567
 7213SOL    HW122538   5.562   6.462   5.527
 7213SOL    HW222539   5.558   6.310   5.586
 7214SOL     OW22540   1.429   5.130   6.206
 7214SOL    HW122541   1.391   5.148   6.116
 7214SOL    HW222542   1.378   5.057   6.251
 7215SOL     OW22543   1.244   3.041   1.348
 7215SOL    HW122544   1.233   2.956   1.295
 7215SOL    HW222545   1.155   3.072   1.381
 7216SOL     OW22546   2.623   1.908   2.709
 7216SOL    HW122547   2.534   1.928   2.752
 7216SOL    HW222548   2.647   1.982   2.646
 7217SOL     OW22549   1.275   3.748   1.951
 7217SOL    HW122550   1.195   3.724   2.006
 7217SOL    HW222551   1.245   3.774   1.859
 7218SOL     OW22552   6.290   2.933   3.480
 7218SOL    HW122553   6.258   2.958   3.571
 7218SOL    HW222554   6.377   2.978   3.461
 7219SOL     OW22555   2.129   1.390   1.575
 7219SOL    HW122556   2.097   1.298   1.596
 7219SOL    HW222557   2.214   1.408   1.625
 7220SOL     OW22558   6.948   1.709   3.076
 7220SOL    HW122559   6.875   1.680   3.015
 7220SOL    HW222560   6.925   1.685   3.171
 7221SOL     OW22561   6.644   3.797   4.537
 7221SOL    HW122562   6.660   3.852   4.455
 7221SOL    HW222563   6.681   3.844   4.617
 7222SOL     OW22564   6.527   0.100   2.590
 7222SOL    HW122565   6.456   0.056   2.645
 7222SOL    HW222566   6.500   0.099   2.494
 7223SOL     OW22567   5.026   1.202   4.258
 7223SOL    HW122568   4.984   1.114   4.280
 7223SOL    HW222569   4.955   1.268   4.234
 7224SOL     OW22570   5.364   1.389   3.331
 7224SOL    HW122571   5.403   1.441   3.406
 7224SOL    HW222572   5.435   1.331   3.290
 7225SOL     OW22573   2.670   0.518   1.656
 7225SOL    HW122574   2.643   0.511   1.560
 7225SOL    HW222575   2.682   0.427   1.694
 7226SOL     OW22576   5.340   6.665   5.421
 7226SOL    HW122577   5.352   6.764   5.414
 7226SOL    HW222578   5.400   6.629   5.492
 7227SOL     OW22579   0.669   2.698   5.453
 7227SOL    HW122580   0.675   2.620   5.514
 7227SOL    HW222581   0.671   2.783   5.506
 7228SOL     OW22582   1.397   0.144   2.786
 7228SOL    HW122583   1.353   0.117   2.701
 7228SOL    HW222584   1.480   0.197   2.765
 7229SOL     OW22585   6.296   6.846   3.639
 7229SOL    HW122586   6.343   6.800   3.715
 7229SOL    HW222587   6.363   6.871   3.569
 7230SOL     OW22588   6.227   5.355   1.329
 7230SOL    HW122589   6.235   5.265   1.371
 7230SOL    HW222590   6.132   5.386   1.332
 7231SOL     OW22591   5.776   0.690   6.825
 7231SOL    HW122592   5.850   0.757   6.817
 7231SOL    HW222593   5.752   0.677   6.921
 7232SOL     OW22594   3.138   3.787   0.613
 7232SOL    HW122595   3.165   3.865   0.557
 7232SOL    HW222596   3.160   3.806   0.709
 7233SOL     OW22597   1.103   1.807   6.527
 7233SOL    HW122598   1.190   1.783   6.485
 7233SOL    HW222599   1.036   1.826   6.456
 7234SOL     OW22600   5.484   2.504   3.612
 7234SOL    HW122601   5.428   2.566   3.557
 7234SOL    HW222602   5.581   2.521   3.596
 7235SOL     OW22603   5.558   2.405   4.517
 7235SOL    HW122604   5.498   2.484   4.506
 7235SOL    HW222605   5.504   2.325   4.541
 7236SOL     OW22606   0.956   1.742   3.125
 7236SOL    HW122607   1.002   1.828   3.106
 7236SOL    HW222608   1.017   1.666   3.104
 7237SOL     OW22609   6.201   4.956   5.628
 7237SOL    HW122610   6.159   5.039   5.664
 7237SOL    HW222611   6.133   4.904   5.575
 7238SOL     OW22612   1.314   0.065   2.539
 7238SOL    HW122613   1.389   0.016   2.494
 7238SOL    HW222614   1.227   0.039   2.497
 7239SOL     OW22615   4.821   1.648   2.166
 7239SOL    HW122616   4.899   1.605   2.213
 7239SOL    HW222617   4.824   1.747   2.182
 7240SOL     OW22618   3.106   3.128   3.761
 7240SOL    HW122619   3.060   3.205   3.716
 7240SOL    HW222620   3.161   3.078   3.695
 7241SOL     OW22621   4.758   0.171   5.300
 7241SOL    HW122622   4.745   0.237   5.373
 7241SOL    HW222623   4.793   0.217   5.218
 7242SOL     OW22624   5.938   5.694   0.466
 7242SOL    HW122625   5.957   5.612   0.520
 7242SOL    HW222626   5.936   5.670   0.369
 7243SOL     OW22627   0.753   5.964   1.214
 7243SOL    HW122628   0.728   5.884   1.269
 7243SOL    HW222629   0.678   5.987   1.152
 7244SOL     OW22630   4.983   1.657   1.486
 7244SOL    HW122631   5.062   1.622   1.536
 7244SOL    HW222632   5.013   1.695   1.399
 7245SOL     OW22633   5.770   1.730   3.290
 7245SOL    HW122634   5.688   1.741   3.234
 7245SOL    HW222635   5.851   1.726   3.231
 7246SOL     OW22636   0.674   5.773   5.500
 7246SOL    HW122637   0.754   5.813   5.544
 7246SOL    HW222638   0.673   5.674   5.516
 7247SOL     OW22639   4.033   5.650   3.726
 7247SOL    HW122640   3.953   5.628   3.671
 7247SOL    HW222641   4.019   5.616   3.820
 7248SOL     OW22642   3.054   0.956   5.088
 7248SOL    HW122643   3.058   0.896   5.168
 7248SOL    HW222644   2.967   0.943   5.041
 7249SOL     OW22645   5.051   2.591   6.348
 7249SOL    HW122646   5.061   2.686   6.379
 7249SOL    HW222647   4.970   2.583   6.290
 7250SOL     OW22648   3.138   2.898   0.150
 7250SOL    HW122649   3.194   2.860   0.076
 7250SOL    HW222650   3.149   2.998   0.152
 7251SOL     OW22651   6.267   1.074   5.651
 7251SOL    HW122652   6.357   1.095   5.689
 7251SOL    HW222653   6.207   1.153   5.660
 7252SOL     OW22654   4.532   3.657   5.358
 7252SOL    HW122655   4.582   3.613   5.284
 7252SOL    HW222656   4.544   3.605   5.443
 7253SOL     OW22657   4.922   5.132   0.165
 7253SOL    HW122658   4.834   5.091   0.188
 7253SOL    HW222659   4.954   5.187   0.243
 7254SOL     OW22660   5.417   6.091   5.382
 7254SOL    HW122661   5.369   6.157   5.441
 7254SOL    HW222662   5.416   6.124   5.288
 7255SOL     OW22663   3.478   3.662   3.723
 7255SOL    HW122664   3.520   3.725   3.657
 7255SOL    HW222665   3.458   3.575   3.678
 7256SOL     OW22666   3.421   5.839   3.854
 7256SOL    HW122667   3.495   5.773   3.841
 7256SOL    HW222668   3.336   5.790   3.872
 7257SOL     OW22669   6.055   5.259   2.313
 7257SOL    HW122670   5.956   5.264   2.301
 7257SOL    HW222671   6.084   5.334   2.373
 7258SOL     OW22672   2.783   0.870   6.324
 7258SOL    HW122673   2.737   0.924   6.395
 7258SOL    HW222674   2.788   0.924   6.240
 7259SOL     OW22675   3.599   4.282   5.783
 7259SOL    HW122676   3.533   4.309   5.854
 7259SOL    HW222677   3.569   4.196   5.742
 7260SOL     OW22678   4.444   2.403   2.487
 7260SOL    HW122679   4.499   2.475   2.529
 7260SOL    HW222680   4.407   2.435   2.400
 7261SOL     OW22681   2.498   4.584   1.137
 7261SOL    HW122682   2.425   4.606   1.072
 7261SOL    HW222683   2.491   4.646   1.215
 7262SOL     OW22684   5.791   0.084   4.531
 7262SOL    HW122685   5.790   0.178   4.496
 7262SOL    HW222686   5.743   0.025   4.466
 7263SOL     OW22687   4.877   4.756   1.294
 7263SOL    HW122688   4.905   4.797   1.381
 7263SOL    HW222689   4.824   4.673   1.311
 7264SOL     OW22690   6.847   0.057   4.659
 7264SOL    HW122691   6.826   6.990   4.711
 7264SOL    HW222692   6.803   0.136   4.703
 7265SOL     OW22693   4.325   2.879   6.500
 7265SOL    HW122694   4.269   2.927   6.433
 7265SOL    HW222695   4.420   2.907   6.490
 7266SOL     OW22696   4.083   0.926   2.765
 7266SOL    HW122697   4.006   0.985   2.743
 7266SOL    HW222698   4.097   0.924   2.864
 7267SOL     OW22699   4.789   2.145   3.891
 7267SOL    HW122700   4.885   2.166   3.873
 7267SOL    HW222701   4.759   2.070   3.832
 7268SOL     OW22702   3.806   6.607   6.857
 7268SOL    HW122703   3.811   6.626   6.759
 7268SOL    HW222704   3.873   6.663   6.905
 7269SOL     OW22705   1.504   0.172   3.870
 7269SOL    HW122706   1.552   0.084   3.867
 7269SOL    HW222707   1.484   0.201   3.776
 7270SOL     OW22708   3.778   2.577   1.463
 7270SOL    HW122709   3.827   2.663   1.454
 7270SOL    HW222710   3.732   2.574   1.551
 7271SOL     OW22711   4.761   6.079   3.903
 7271SOL    HW122712   4.811   6.151   3.952
 7271SOL    HW222713   4.788   5.990   3.940
 7272SOL     OW22714   5.606   1.370   1.752
 7272SOL    HW122715   5.557   1.289   1.718
 7272SOL    HW222716   5.624   1.360   1.849
 7273SOL     OW22717   6.039   5.083   4.533
 7273SOL    HW122718   6.118   5.140   4.554
 7273SOL    HW222719   6.023   5.085   4.434
 7274SOL     OW22720   5.803   4.607   3.695
 7274SOL    HW122721   5.813   4.680   3.762
 7274SOL    HW222722   5.795   4.519   3.743
 7275SOL     OW22723   5.536   0.165   2.187
 7275SOL    HW122724   5.576   0.214   2.110
 7275SOL    HW222725   5.436   0.163   2.178
 7276SOL     OW22726   4.035   1.577   3.074
 7276SOL    HW122727   4.077   1.625   3.151
 7276SOL    HW222728   3.957   1.524   3.106
 7277SOL     OW22729   6.189   2.400   4.101
 7277SOL    HW122730   6.283   2.415   4.133
 7277SOL    HW222731   6.132   2.478   4.128
 7278SOL     OW22732   3.690   1.514   3.009
 7278SOL    HW122733   3.672   1.545   2.916
 7278SOL    HW222734   3.674   1.416   3.016
 7279SOL     OW22735   3.536   3.456   1.937
 7279SOL    HW122736   3.564   3.380   1.878
 7279SOL    HW222737   3.522   3.422   2.030
 7280SOL     OW22738   6.458   1.287   5.933
 7280SOL    HW122739   6.458   1.222   5.858
 7280SOL    HW222740   6.421   1.244   6.015
 7281SOL     OW22741   3.818   6.887   3.768
 7281SOL    HW122742   3.797   6.835   3.850
 7281SOL    HW222743   3.917   6.885   3.752
 7282SOL     OW22744   0.610   3.711   1.311
 7282SOL    HW122745   0.705   3.742   1.305
 7282SOL    HW222746   0.608   3.618   1.350
 7283SOL     OW22747   2.765   6.119   2.819
 7283SOL    HW122748   2.749   6.036   2.874
 7283SOL    HW222749   2.840   6.102   2.756
 7284SOL     OW22750   0.411   0.659   4.023
 7284SOL    HW122751   0.506   0.633   4.008
 7284SOL    HW222752   0.358   0.579   4.051
 7285SOL     OW22753   4.787   2.434   2.217
 7285SOL    HW122754   4.717   2.500   2.192
 7285SOL    HW222755   4.834   2.402   2.135
 7286SOL     OW22756   6.499   1.225   4.743
 7286SOL    HW122757   6.468   1.317   4.767
 7286SOL    HW222758   6.598   1.218   4.755
 7287SOL     OW22759   3.355   1.485   4.498
 7287SOL    HW122760   3.314   1.513   4.584
 7287SOL    HW222761   3.284   1.456   4.434
 7288SOL     OW22762   3.025   1.636   1.170
 7288SOL    HW122763   3.020   1.640   1.270
 7288SOL    HW222764   2.962   1.567   1.136
 7289SOL     OW22765   6.848   2.412   1.179
 7289SOL    HW122766   6.895   2.496   1.203
 7289SOL    HW222767   6.755   2.432   1.149
 7290SOL     OW22768   3.236   2.039   4.953
 7290SOL    HW122769   3.195   2.127   4.977
 7290SOL    HW222770   3.264   1.991   5.036
 7291SOL     OW22771   0.979   0.990   0.250
 7291SOL    HW122772   1.033   1.030   0.324
 7291SOL    HW222773   0.896   1.043   0.235
 7292SOL     OW22774   3.230   1.413   2.301
 7292SOL    HW122775   3.198   1.336   2.356
 7292SOL    HW222776   3.172   1.423   2.221
 7293SOL     OW22777   6.102   1.320   4.002
 7293SOL    HW122778   6.034   1.280   4.062
 7293SOL    HW222779   6.079   1.416   3.984
 7294SOL     OW22780   2.132   1.228   2.368
 7294SOL    HW122781   2.061   1.159   2.351
 7294SOL    HW222782   2.128   1.298   2.297
 7295SOL     OW22783   5.223   4.654   1.485
 7295SOL    HW122784   5.162   4.726   1.452
 7295SOL    HW222785   5.316   4.690   1.493
 7296SOL     OW22786   2.998   0.387   2.848
 7296SOL    HW122787   2.934   0.463   2.863
 7296SOL    HW222788   2.949   0.311   2.804
 7297SOL     OW22789   4.642   0.785   6.819
 7297SOL    HW122790   4.636   0.819   6.914
 7297SOL    HW222791   4.708   0.710   6.815
 7298SOL     OW22792   4.238   4.363   0.563
 7298SOL    HW122793   4.191   4.451   0.574
 7298SOL    HW222794   4.181   4.301   0.509
 7299SOL     OW22795   0.236   2.962   0.287
 7299SOL    HW122796   0.297   3.023   0.338
 7299SOL    HW222797   0.273   2.870   0.285
 7300SOL     OW22798   0.462   4.136   2.479
 7300SOL    HW122799   0.503   4.206   2.538
 7300SOL    HW222800   0.405   4.180   2.410
 7301SOL     OW22801   3.938   1.693   0.428
 7301SOL    HW122802   4.010   1.761   0.413
 7301SOL    HW222803   3.849   1.738   0.420
 7302SOL     OW22804   5.848   1.267   6.690
 7302SOL    HW122805   5.843   1.254   6.789
 7302SOL    HW222806   5.937   1.306   6.667
 7303SOL     OW22807   4.056   2.623   1.065
 7303SOL    HW122808   3.975   2.655   1.114
 7303SOL    HW222809   4.032   2.544   1.010
 7304SOL     OW22810   3.189   0.162   0.821
 7304SOL    HW122811   3.227   0.070   0.808
 7304SOL    HW222812   3.109   0.174   0.761
 7305SOL     OW22813   6.873   6.966   6.285
 7305SOL    HW122814   6.947   6.969   6.353
 7305SOL    HW222815   6.912   6.944   6.195
 7306SOL     OW22816   1.841   3.407   0.947
 7306SOL    HW122817   1.777   3.334   0.968
 7306SOL    HW222818   1.912   3.373   0.885
 7307SOL     OW22819   4.483   6.728   1.184
 7307SOL    HW122820   4.404   6.726   1.123
 7307SOL    HW222821   4.491   6.641   1.232
 7308SOL     OW22822   3.569   2.076   2.922
 7308SOL    HW122823   3.667   2.094   2.925
 7308SOL    HW222824   3.554   1.977   2.919
 7309SOL     OW22825   2.320   5.578   3.257
 7309SOL    HW122826   2.277   5.518   3.325
 7309SOL    HW222827   2.409   5.540   3.232
 7310SOL     OW22828   5.280   3.083   0.177
 7310SOL    HW122829   5.193   3.054   0.136
 7310SOL    HW222830   5.262   3.154   0.244
 7311SOL     OW22831   1.158   6.778   5.464
 7311SOL    HW122832   1.244   6.758   5.511
 7311SOL    HW222833   1.113   6.693   5.440
 7312SOL     OW22834   5.533   1.592   4.653
 7312SOL    HW122835   5.533   1.634   4.562
 7312SOL    HW222836   5.608   1.628   4.707
 7313SOL     OW22837   3.377   0.878   3.165
 7313SOL    HW122838   3.407   0.972   3.148
 7313SOL    HW222839   3.450   0.827   3.209
 7314SOL     OW22840   2.593   5.582   4.912
 7314SOL    HW122841   2.564   5.580   5.007
 7314SOL    HW222842   2.546   5.509   4.861
 7315SOL     OW22843   2.544   4.858   2.049
 7315SOL    HW122844   2.467   4.863   2.113
 7315SOL    HW222845   2.626   4.828   2.098
 7316SOL     OW22846   3.046   0.904   2.599
 7316SOL    HW122847   3.045   0.870   2.693
 7316SOL    HW222848   3.002   0.994   2.597
 7317SOL     OW22849   5.393   1.313   1.326
 7317SOL    HW122850   5.351   1.395   1.363
 7317SOL    HW222851   5.407   1.324   1.227
 7318SOL     OW22852   5.037   6.793   1.591
 7318SOL    HW122853   4.966   6.839   1.538
 7318SOL    HW222854   5.017   6.804   1.689
 7319SOL     OW22855   4.635   4.987   6.053
 7319SOL    HW122856   4.574   4.958   5.979
 7319SOL    HW222857   4.702   5.052   6.017
 7320SOL     OW22858   1.980   2.955   0.483
 7320SOL    HW122859   2.003   2.971   0.579
 7320SOL    HW222860   1.891   2.996   0.462
 7321SOL     OW22861   2.567   2.554   5.101
 7321SOL    HW122862   2.581   2.583   5.006
 7321SOL    HW222863   2.500   2.614   5.145
 7322SOL     OW22864   2.745   2.034   3.842
 7322SOL    HW122865   2.691   1.980   3.777
 7322SOL    HW222866   2.737   2.131   3.819
 7323SOL     OW22867   2.112   1.939   0.024
 7323SOL    HW122868   2.188   2.002   0.043
 7323SOL    HW222869   2.148   1.847   0.010
 7324SOL     OW22870   5.791   4.006   5.247
 7324SOL    HW122871   5.769   4.084   5.187
 7324SOL    HW222872   5.886   3.979   5.232
 7325SOL     OW22873   3.198   0.776   0.161
 7325SOL    HW122874   3.250   0.706   0.211
 7325SOL    HW222875   3.226   0.867   0.191
 7326SOL     OW22876   3.570   6.803   0.427
 7326SOL    HW122877   3.511   6.773   0.351
 7326SOL    HW222878   3.578   6.903   0.425
 7327SOL     OW22879   1.942   4.671   3.279
 7327SOL    HW122880   1.865   4.620   3.240
 7327SOL    HW222881   1.971   4.742   3.215
 7328SOL     OW22882   4.201   5.881   6.968
 7328SOL    HW122883   4.236   5.937   0.026
 7328SOL    HW222884   4.103   5.862   6.982
 7329SOL     OW22885   2.762   3.897   6.567
 7329SOL    HW122886   2.828   3.823   6.555
 7329SOL    HW222887   2.689   3.887   6.500
 7330SOL     OW22888   2.651   3.587   1.532
 7330SOL    HW122889   2.643   3.496   1.573
 7330SOL    HW222890   2.653   3.579   1.432
 7331SOL     OW22891   5.396   1.892   2.671
 7331SOL    HW122892   5.491   1.913   2.691
 7331SOL    HW222893   5.345   1.977   2.656
 7332SOL     OW22894   1.445   0.175   4.784
 7332SOL    HW122895   1.544   0.172   4.801
 7332SOL    HW222896   1.406   0.250   4.838
 7333SOL     OW22897   6.334   1.640   1.481
 7333SOL    HW122898   6.315   1.583   1.561
 7333SOL    HW222899   6.288   1.728   1.491
 7334SOL     OW22900   0.841   5.038   5.102
 7334SOL    HW122901   0.838   4.969   5.030
 7334SOL    HW222902   0.831   5.129   5.061
 7335SOL     OW22903   6.627   2.468   1.872
 7335SOL    HW122904   6.654   2.561   1.845
 7335SOL    HW222905   6.543   2.443   1.823
 7336SOL     OW22906   2.409   0.139   1.163
 7336SOL    HW122907   2.358   0.057   1.135
 7336SOL    HW222908   2.471   0.115   1.238
 7337SOL     OW22909   2.805   1.315   1.868
 7337SOL    HW122910   2.759   1.290   1.783
 7337SOL    HW222911   2.837   1.409   1.863
 7338SOL     OW22912   5.281   2.202   0.108
 7338SOL    HW122913   5.200   2.148   0.129
 7338SOL    HW222914   5.279   2.229   0.012
 7339SOL     OW22915   6.609   6.627   3.380
 7339SOL    HW122916   6.687   6.628   3.443
 7339SOL    HW222917   6.640   6.593   3.290
 7340SOL     OW22918   3.046   0.059   0.228
 7340SOL    HW122919   2.955   0.094   0.206
 7340SOL    HW222920   3.107   0.135   0.249
 7341SOL     OW22921   5.751   5.181   3.015
 7341SOL    HW122922   5.705   5.261   2.975
 7341SOL    HW222923   5.753   5.191   3.114
 7342SOL     OW22924   6.884   4.896   6.709
 7342SOL    HW122925   6.938   4.812   6.701
 7342SOL    HW222926   6.936   4.964   6.761
 7343SOL     OW22927   0.509   2.344   3.361
 7343SOL    HW122928   0.563   2.384   3.435
 7343SOL    HW222929   0.567   2.334   3.280
 7344SOL     OW22930   1.414   1.320   5.480
 7344SOL    HW122931   1.417   1.405   5.428
 7344SOL    HW222932   1.353   1.255   5.434
 7345SOL     OW22933   1.792   6.733   6.725
 7345SOL    HW122934   1.809   6.657   6.662
 7345SOL    HW222935   1.696   6.760   6.719
 7346SOL     OW22936   3.325   5.581   3.113
 7346SOL    HW122937   3.341   5.508   3.180
 7346SOL    HW222938   3.275   5.656   3.157
 7347SOL     OW22939   5.792   2.764   3.232
 7347SOL    HW122940   5.874   2.751   3.287
 7347SOL    HW222941   5.772   2.862   3.225
 7348SOL     OW22942   5.273   0.209   6.494
 7348SOL    HW122943   5.190   0.195   6.547
 7348SOL    HW222944   5.257   0.186   6.398
 7349SOL     OW22945   3.982   1.945   1.034
 7349SOL    HW122946   3.883   1.938   1.026
 7349SOL    HW222947   4.006   1.977   1.126
 7350SOL     OW22948   2.037   1.839   2.136
 7350SOL    HW122949   1.989   1.786   2.066
 7350SOL    HW222950   2.090   1.912   2.092
 7351SOL     OW22951   6.037   5.072   0.234
 7351SOL    HW122952   6.016   5.127   0.315
 7351SOL    HW222953   5.998   5.116   0.153
 7352SOL     OW22954   6.831   1.630   2.850
 7352SOL    HW122955   6.896   1.557   2.866
 7352SOL    HW222956   6.837   1.660   2.755
 7353SOL     OW22957   5.496   1.526   4.077
 7353SOL    HW122958   5.591   1.544   4.051
 7353SOL    HW222959   5.435   1.591   4.031
 7354SOL     OW22960   6.050   4.280   5.286
 7354SOL    HW122961   6.150   4.285   5.283
 7354SOL    HW222962   6.021   4.218   5.359
 7355SOL     OW22963   7.007   5.637   0.387
 7355SOL    HW122964   0.047   5.664   0.465
 7355SOL    HW222965   6.957   5.553   0.409
 7356SOL     OW22966   6.833   2.159   6.579
 7356SOL    HW122967   6.790   2.076   6.611
 7356SOL    HW222968   6.933   2.147   6.579
 7357SOL     OW22969   1.158   0.733   1.399
 7357SOL    HW122970   1.099   0.661   1.363
 7357SOL    HW222971   1.105   0.796   1.455
 7358SOL     OW22972   3.586   1.321   3.754
 7358SOL    HW122973   3.516   1.393   3.750
 7358SOL    HW222974   3.654   1.338   3.682
 7359SOL     OW22975   3.373   3.744   4.334
 7359SOL    HW122976   3.451   3.764   4.275
 7359SOL    HW222977   3.336   3.829   4.371
 7360SOL     OW22978   1.901   4.978   5.771
 7360SOL    HW122979   1.830   4.908   5.782
 7360SOL    HW222980   1.982   4.953   5.824
 7361SOL     OW22981   4.639   0.227   1.531
 7361SOL    HW122982   4.670   0.141   1.492
 7361SOL    HW222983   4.688   0.303   1.489
 7362SOL     OW22984   1.216   4.846   0.309
 7362SOL    HW122985   1.205   4.809   0.402
 7362SOL    HW222986   1.158   4.927   0.298
 7363SOL     OW22987   5.232   2.372   6.320
 7363SOL    HW122988   5.165   2.439   6.353
 7363SOL    HW222989   5.185   2.302   6.267
 7364SOL     OW22990   4.798   6.381   0.028
 7364SOL    HW122991   4.710   6.421   0.001
 7364SOL    HW222992   4.829   6.318   6.973
 7365SOL     OW22993   5.300   0.093   1.843
 7365SOL    HW122994   5.219   0.091   1.785
 7365SOL    HW222995   5.336   0.000   1.853
 7366SOL     OW22996   3.240   6.899   0.862
 7366SOL    HW122997   3.194   6.877   0.948
 7366SOL    HW222998   3.184   6.866   0.786
 7367SOL     OW22999   5.069   3.050   6.126
 7367SOL    HW123000   5.017   3.013   6.204
 7367SOL    HW223001   5.166   3.055   6.151
 7368SOL     OW23002   3.246   2.836   5.153
 7368SOL    HW123003   3.246   2.918   5.096
 7368SOL    HW223004   3.156   2.824   5.195
 7369SOL     OW23005   0.337   6.680   6.493
 7369SOL    HW123006   0.257   6.683   6.552
 7369SOL    HW223007   0.381   6.591   6.501
 7370SOL     OW23008   6.751   5.589   1.165
 7370SOL    HW123009   6.783   5.683   1.171
 7370SOL    HW223010   6.755   5.558   1.070
 7371SOL     OW23011   2.403   5.150   3.349
 7371SOL    HW123012   2.393   5.058   3.387
 7371SOL    HW223013   2.430   5.145   3.253
 7372SOL     OW23014   2.116   6.877   5.067
 7372SOL    HW123015   2.210   6.854   5.040
 7372SOL    HW223016   2.097   6.972   5.043
 7373SOL     OW23017   4.291   1.579   0.740
 7373SOL    HW123018   4.373   1.636   0.746
 7373SOL    HW223019   4.213   1.629   0.777
 7374SOL     OW23020   2.437   3.996   0.736
 7374SOL    HW123021   2.376   3.948   0.798
 7374SOL    HW223022   2.507   3.933   0.703
 7375SOL     OW23023   2.158   5.445   2.224
 7375SOL    HW123024   2.141   5.355   2.262
 7375SOL    HW223025   2.223   5.494   2.282
 7376SOL     OW23026   3.455   4.769   0.217
 7376SOL    HW123027   3.438   4.867   0.229
 7376SOL    HW223028   3.437   4.743   0.122
 7377SOL     OW23029   4.727   5.941   1.384
 7377SOL    HW123030   4.703   5.979   1.294
 7377SOL    HW223031   4.664   5.976   1.453
 7378SOL     OW23032   0.878   1.376   6.329
 7378SOL    HW123033   0.886   1.276   6.325
 7378SOL    HW223034   0.885   1.413   6.237
 7379SOL     OW23035   4.545   1.163   6.980
 7379SOL    HW123036   4.496   1.079   7.003
 7379SOL    HW223037   4.594   1.195   0.045
 7380SOL     OW23038   0.414   3.115   6.472
 7380SOL    HW123039   0.492   3.157   6.518
 7380SOL    HW223040   0.329   3.156   6.504
 7381SOL     OW23041   5.676   3.053   0.770
 7381SOL    HW123042   5.584   3.033   0.736
 7381SOL    HW223043   5.736   3.072   0.692
 7382SOL     OW23044   0.646   5.835   3.749
 7382SOL    HW123045   0.678   5.750   3.708
 7382SOL    HW223046   0.724   5.893   3.772
 7383SOL     OW23047   1.722   4.853   2.040
 7383SOL    HW123048   1.627   4.830   2.057
 7383SOL    HW223049   1.769   4.773   2.001
 7384SOL     OW23050   5.734   0.977   1.667
 7384SOL    HW123051   5.744   0.954   1.764
 7384SOL    HW223052   5.671   0.912   1.624
 7385SOL     OW23053   5.162   6.796   2.272
 7385SOL    HW123054   5.129   6.751   2.355
 7385SOL    HW223055   5.131   6.891   2.271
 7386SOL     OW23056   5.996   1.764   5.295
 7386SOL    HW123057   6.038   1.694   5.353
 7386SOL    HW223058   5.996   1.733   5.200
 7387SOL     OW23059   5.341   5.629   4.389
 7387SOL    HW123060   5.339   5.620   4.289
 7387SOL    HW223061   5.306   5.719   4.415
 7388SOL     OW23062   4.918   3.630   4.244
 7388SOL    HW123063   4.935   3.533   4.228
 7388SOL    HW223064   4.905   3.676   4.156
 7389SOL     OW23065   2.157   3.611   5.803
 7389SOL    HW123066   2.195   3.694   5.763
 7389SOL    HW223067   2.179   3.533   5.745
 7390SOL     OW23068   4.466   5.877   0.688
 7390SOL    HW123069   4.441   5.859   0.593
 7390SOL    HW223070   4.390   5.848   0.748
 7391SOL     OW23071   0.053   4.976   0.923
 7391SOL    HW123072   6.974   4.994   0.899
 7391SOL    HW223073   0.066   4.878   0.939
 7392SOL     OW23074   1.272   4.509   1.459
 7392SOL    HW123075   1.286   4.588   1.399
 7392SOL    HW223076   1.303   4.427   1.412
 7393SOL     OW23077   1.438   3.812   0.617
 7393SOL    HW123078   1.410   3.858   0.701
 7393SOL    HW223079   1.357   3.789   0.563
 7394SOL     OW23080   2.956   4.104   6.884
 7394SOL    HW123081   2.907   4.139   6.804
 7394SOL    HW223082   3.053   4.125   6.875
 7395SOL     OW23083   2.475   0.086   0.603
 7395SOL    HW123084   2.456   7.005   0.608
 7395SOL    HW223085   2.389   0.136   0.587
 7396SOL     OW23086   6.727   6.761   2.332
 7396SOL    HW123087   6.791   6.685   2.338
 7396SOL    HW223088   6.634   6.727   2.343
 7397SOL     OW23089   5.589   4.131   4.126
 7397SOL    HW123090   5.607   4.053   4.186
 7397SOL    HW223091   5.672   4.186   4.116
 7398SOL     OW23092   4.254   5.379   3.278
 7398SOL    HW123093   4.330   5.347   3.335
 7398SOL    HW223094   4.209   5.456   3.323
 7399SOL     OW23095   4.943   6.251   4.018
 7399SOL    HW123096   4.970   6.347   4.019
 7399SOL    HW223097   4.946   6.214   4.111
 7400SOL     OW23098   2.661   4.431   6.766
 7400SOL    HW123099   2.636   4.525   6.792
 7400SOL    HW223100   2.594   4.367   6.803
 7401SOL     OW23101   6.563   2.912   3.706
 7401SOL    HW123102   6.629   2.921   3.780
 7401SOL    HW223103   6.606   2.864   3.629
 7402SOL     OW23104   1.613   6.175   5.172
 7402SOL    HW123105   1.516   6.153   5.176
 7402SOL    HW223106   1.630   6.263   5.216
 7403SOL     OW23107   2.107   3.081   1.445
 7403SOL    HW123108   2.096   2.999   1.500
 7403SOL    HW223109   2.171   3.064   1.370
 7404SOL     OW23110   1.479   2.902   3.044
 7404SOL    HW123111   1.513   2.911   2.950
 7404SOL    HW223112   1.383   2.874   3.042
 7405SOL     OW23113   3.422   5.567   5.992
 7405SOL    HW123114   3.505   5.622   6.003
 7405SOL    HW223115   3.344   5.628   5.980
 7406SOL     OW23116   5.656   5.874   2.705
 7406SOL    HW123117   5.582   5.888   2.771
 7406SOL    HW223118   5.680   5.777   2.703
 7407SOL     OW23119   4.031   1.647   5.869
 7407SOL    HW123120   4.127   1.618   5.874
 7407SOL    HW223121   3.975   1.569   5.840
 7408SOL     OW23122   0.655   3.336   5.155
 7408SOL    HW123123   0.579   3.275   5.175
 7408SOL    HW223124   0.633   3.392   5.075
 7409SOL     OW23125   2.047   0.123   4.561
 7409SOL    HW123126   1.957   0.150   4.525
 7409SOL    HW223127   2.107   0.098   4.486
 7410SOL     OW23128   3.936   5.304   5.775
 7410SOL    HW123129   3.892   5.215   5.762
 7410SOL    HW223130   3.963   5.341   5.687
 7411SOL     OW23131   5.997   3.298   5.781
 7411SOL    HW123132   6.064   3.370   5.801
 7411SOL    HW223133   5.967   3.307   5.686
 7412SOL     OW23134   1.227   0.629   0.147
 7412SOL    HW123135   1.157   0.684   0.101
 7412SOL    HW223136   1.228   0.537   0.107
 7413SOL     OW23137   6.483   3.698   3.056
 7413SOL    HW123138   6.427   3.759   3.001
 7413SOL    HW223139   6.549   3.751   3.109
 7414SOL     OW23140   0.179   5.506   2.235
 7414SOL    HW123141   0.175   5.496   2.135
 7414SOL    HW223142   0.274   5.503   2.266
 7415SOL     OW23143   2.726   1.491   3.481
 7415SOL    HW123144   2.651   1.479   3.547
 7415SOL    HW223145   2.812   1.462   3.523
 7416SOL     OW23146   6.525   0.617   2.204
 7416SOL    HW123147   6.461   0.693   2.207
 7416SOL    HW223148   6.550   0.591   2.297
 7417SOL     OW23149   0.151   5.419   1.708
 7417SOL    HW123150   0.179   5.513   1.685
 7417SOL    HW223151   0.060   5.402   1.671
 7418SOL     OW23152   2.093   3.445   0.800
 7418SOL    HW123153   2.140   3.532   0.816
 7418SOL    HW223154   2.138   3.373   0.852
 7419SOL     OW23155   6.104   1.911   5.638
 7419SOL    HW123156   6.136   2.004   5.657
 7419SOL    HW223157   6.182   1.851   5.627
 7420SOL     OW23158   0.670   6.681   1.866
 7420SOL    HW123159   0.726   6.759   1.894
 7420SOL    HW223160   0.577   6.693   1.901
 7421SOL     OW23161   4.739   2.228   0.876
 7421SOL    HW123162   4.778   2.280   0.952
 7421SOL    HW223163   4.671   2.285   0.828
 7422SOL     OW23164   1.785   1.687   0.261
 7422SOL    HW123165   1.757   1.631   0.339
 7422SOL    HW223166   1.762   1.639   0.176
 7423SOL     OW23167   2.978   4.067   0.640
 7423SOL    HW123168   2.879   4.073   0.632
 7423SOL    HW223169   3.016   4.158   0.655
 7424SOL     OW23170   5.498   6.134   3.536
 7424SOL    HW123171   5.579   6.107   3.483
 7424SOL    HW223172   5.443   6.199   3.484
 7425SOL     OW23173   4.261   6.803   5.047
 7425SOL    HW123174   4.228   6.869   4.979
 7425SOL    HW223175   4.203   6.807   5.128
 7426SOL     OW23176   0.144   0.340   6.416
 7426SOL    HW123177   0.204   0.305   6.344
 7426SOL    HW223178   0.061   0.377   6.374
 7427SOL     OW23179   5.137   4.927   6.320
 7427SOL    HW123180   5.079   4.948   6.241
 7427SOL    HW223181   5.095   4.855   6.374
 7428SOL     OW23182   5.707   1.507   5.310
 7428SOL    HW123183   5.806   1.492   5.303
 7428SOL    HW223184   5.662   1.420   5.331
 7429SOL     OW23185   5.703   6.543   3.126
 7429SOL    HW123186   5.664   6.502   3.208
 7429SOL    HW223187   5.641   6.530   3.049
 7430SOL     OW23188   0.691   4.093   4.599
 7430SOL    HW123189   0.683   4.191   4.581
 7430SOL    HW223190   0.743   4.050   4.526
 7431SOL     OW23191   6.808   3.926   2.948
 7431SOL    HW123192   6.762   3.927   3.037
 7431SOL    HW223193   6.898   3.883   2.957
 7432SOL     OW23194   2.124   6.380   5.788
 7432SOL    HW123195   2.029   6.409   5.779
 7432SOL    HW223196   2.131   6.282   5.769
 7433SOL     OW23197   0.733   6.843   0.709
 7433SOL    HW123198   0.657   6.790   0.746
 7433SOL    HW223199   0.795   6.782   0.660
 7434SOL     OW23200   4.429   0.073   0.722
 7434SOL    HW123201   4.437   0.091   0.624
 7434SOL    HW223202   4.509   0.109   0.769
 7435SOL     OW23203   0.991   4.250   6.930
 7435SOL    HW123204   0.951   4.340   6.950
 7435SOL    HW223205   1.000   4.198   7.015
 7436SOL     OW23206   5.208   3.727   6.686
 7436SOL    HW123207   5.266   3.787   6.741
 7436SOL    HW223208   5.265   3.662   6.636
 7437SOL     OW23209   6.568   6.776   5.574
 7437SOL    HW123210   6.666   6.792   5.571
 7437SOL    HW223211   6.538   6.772   5.670
 7438SOL     OW23212   6.772   3.874   1.027
 7438SOL    HW123213   6.752   3.790   0.978
 7438SOL    HW223214   6.865   3.904   1.007
 7439SOL     OW23215   1.715   6.450   2.568
 7439SOL    HW123216   1.807   6.411   2.572
 7439SOL    HW223217   1.670   6.438   2.656
 7440SOL     OW23218   1.448   0.713   4.556
 7440SOL    HW123219   1.453   0.780   4.482
 7440SOL    HW223220   1.496   0.630   4.529
 7441SOL     OW23221   0.126   1.037   3.440
 7441SOL    HW123222   0.045   0.988   3.470
 7441SOL    HW223223   0.208   0.988   3.469
 7442SOL     OW23224   1.937   0.684   0.231
 7442SOL    HW123225   1.977   0.668   0.321
 7442SOL    HW223226   1.838   0.694   0.240
 7443SOL     OW23227   5.972   1.504   1.551
 7443SOL    HW123228   5.956   1.412   1.586
 7443SOL    HW223229   6.057   1.540   1.590
 7444SOL     OW23230   1.983   2.813   4.845
 7444SOL    HW123231   2.081   2.833   4.845
 7444SOL    HW223232   1.959   2.761   4.927
 7445SOL     OW23233   5.913   2.635   2.514
 7445SOL    HW123234   5.921   2.732   2.538
 7445SOL    HW223235   5.916   2.581   2.598
 7446SOL     OW23236   4.692   4.366   2.477
 7446SOL    HW123237   4.767   4.413   2.524
 7446SOL    HW223238   4.608   4.375   2.531
 7447SOL     OW23239   1.830   3.072   6.325
 7447SOL    HW123240   1.865   3.121   6.405
 7447SOL    HW223241   1.779   3.136   6.267
 7448SOL     OW23242   6.958   1.096   5.422
 7448SOL    HW123243   6.944   1.193   5.402
 7448SOL    HW223244   0.009   1.087   5.496
 7449SOL     OW23245   3.073   1.174   2.899
 7449SOL    HW123246   3.062   1.075   2.893
 7449SOL    HW223247   2.989   1.214   2.937
 7450SOL     OW23248   3.929   2.103   2.031
 7450SOL    HW123249   4.015   2.153   2.042
 7450SOL    HW223250   3.873   2.148   1.961
 7451SOL     OW23251   0.948   0.891   1.501
 7451SOL    HW123252   0.882   0.861   1.569
 7451SOL    HW223253   0.960   0.990   1.506
 7452SOL     OW23254   2.160   5.475   3.039
 7452SOL    HW123255   2.155   5.387   3.087
 7452SOL    HW223256   2.158   5.549   3.105
 7453SOL     OW23257   6.322   4.465   4.615
 7453SOL    HW123258   6.296   4.559   4.592
 7453SOL    HW223259   6.349   4.416   4.532
 7454SOL     OW23260   2.888   2.140   0.014
 7454SOL    HW123261   2.949   2.061   0.014
 7454SOL    HW223262   2.812   2.124   6.967
 7455SOL     OW23263   4.998   0.251   0.751
 7455SOL    HW123264   5.028   0.159   0.726
 7455SOL    HW223265   5.076   0.314   0.746
 7456SOL     OW23266   1.912   3.225   6.526
 7456SOL    HW123267   1.973   3.189   6.597
 7456SOL    HW223268   1.908   3.324   6.532
 7457SOL     OW23269   0.676   6.451   5.471
 7457SOL    HW123270   0.730   6.526   5.433
 7457SOL    HW223271   0.688   6.369   5.415
 7458SOL     OW23272   3.062   0.540   2.024
 7458SOL    HW123273   2.968   0.507   2.029
 7458SOL    HW223274   3.062   0.639   2.012
 7459SOL     OW23275   3.664   5.361   3.622
 7459SOL    HW123276   3.758   5.383   3.646
 7459SOL    HW223277   3.624   5.436   3.570
 7460SOL     OW23278   1.294   4.922   6.367
 7460SOL    HW123279   1.317   4.951   6.460
 7460SOL    HW223280   1.202   4.954   6.344
 7461SOL     OW23281   3.523   1.631   4.130
 7461SOL    HW123282   3.464   1.552   4.119
 7461SOL    HW223283   3.473   1.714   4.106
 7462SOL     OW23284   1.392   2.498   4.112
 7462SOL    HW123285   1.413   2.536   4.022
 7462SOL    HW223286   1.335   2.562   4.162
 7463SOL     OW23287   4.163   3.507   2.465
 7463SOL    HW123288   4.073   3.467   2.483
 7463SOL    HW223289   4.204   3.536   2.551
 7464SOL     OW23290   4.344   5.422   0.752
 7464SOL    HW123291   4.375   5.406   0.846
 7464SOL    HW223292   4.397   5.498   0.713
 7465SOL     OW23293   2.823   1.367   2.738
 7465SOL    HW123294   2.914   1.390   2.703
 7465SOL    HW223295   2.827   1.358   2.837
 7466SOL     OW23296   0.367   6.301   0.805
 7466SOL    HW123297   0.279   6.322   0.762
 7466SOL    HW223298   0.370   6.342   0.897
 7467SOL     OW23299   4.304   2.480   0.963
 7467SOL    HW123300   4.290   2.382   0.948
 7467SOL    HW223301   4.226   2.531   0.925
 7468SOL     OW23302   5.247   5.002   4.688
 7468SOL    HW123303   5.316   4.959   4.746
 7468SOL    HW223304   5.157   4.966   4.711
 7469SOL     OW23305   5.215   2.388   0.551
 7469SOL    HW123306   5.170   2.310   0.506
 7469SOL    HW223307   5.242   2.362   0.643
 7470SOL     OW23308   0.672   3.636   3.167
 7470SOL    HW123309   0.689   3.540   3.146
 7470SOL    HW223310   0.729   3.694   3.109
 7471SOL     OW23311   6.603   4.178   5.905
 7471SOL    HW123312   6.629   4.152   5.997
 7471SOL    HW223313   6.685   4.205   5.853
 7472SOL     OW23314   4.198   5.805   2.910
 7472SOL    HW123315   4.111   5.800   2.959
 7472SOL    HW223316   4.218   5.717   2.868
 7473SOL     OW23317   1.600   2.217   6.140
 7473SOL    HW123318   1.674   2.160   6.103
 7473SOL    HW223319   1.635   2.271   6.217
 7474SOL     OW23320   2.362   1.307   2.123
 7474SOL    HW123321   2.417   1.330   2.042
 7474SOL    HW223322   2.282   1.367   2.126
 7475SOL     OW23323   5.471   1.059   6.254
 7475SOL    HW123324   5.545   1.089   6.194
 7475SOL    HW223325   5.481   1.102   6.344
 7476SOL     OW23326   1.863   6.601   4.655
 7476SOL    HW123327   1.928   6.670   4.689
 7476SOL    HW223328   1.848   6.616   4.557
 7477SOL     OW23329   4.778   4.077   4.987
 7477SOL    HW123330   4.758   4.048   5.080
 7477SOL    HW223331   4.723   4.158   4.964
 7478SOL     OW23332   6.772   4.349   1.184
 7478SOL    HW123333   6.736   4.269   1.135
 7478SOL    HW223334   6.704   4.382   1.248
 7479SOL     OW23335   3.608   0.290   4.601
 7479SOL    HW123336   3.655   0.374   4.631
 7479SOL    HW223337   3.560   0.308   4.516
 7480SOL     OW23338   5.671   4.928   0.027
 7480SOL    HW123339   5.680   4.860   0.100
 7480SOL    HW223340   5.576   4.932   7.012
 7481SOL     OW23341   5.561   6.681   0.552
 7481SOL    HW123342   5.568   6.778   0.526
 7481SOL    HW223343   5.613   6.666   0.636
 7482SOL     OW23344   5.113   0.265   5.175
 7482SOL    HW123345   5.136   0.184   5.228
 7482SOL    HW223346   5.195   0.301   5.131
 7483SOL     OW23347   3.993   0.019   6.566
 7483SOL    HW123348   3.908   6.997   6.602
 7483SOL    HW223349   3.992   0.118   6.580
 7484SOL     OW23350   3.165   6.296   0.512
 7484SOL    HW123351   3.145   6.199   0.502
 7484SOL    HW223352   3.175   6.318   0.609
 7485SOL     OW23353   1.183   0.331   5.181
 7485SOL    HW123354   1.211   0.424   5.202
 7485SOL    HW223355   1.098   0.310   5.229
 7486SOL     OW23356   1.695   2.315   5.324
 7486SOL    HW123357   1.634   2.243   5.291
 7486SOL    HW223358   1.643   2.398   5.344
 7487SOL     OW23359   2.362   6.230   2.379
 7487SOL    HW123360   2.418   6.151   2.402
 7487SOL    HW223361   2.404   6.313   2.415
 7488SOL     OW23362   4.474   2.090   4.719
 7488SOL    HW123363   4.546   2.154   4.693
 7488SOL    HW223364   4.391   2.141   4.742
 7489SOL     OW23365   1.276   3.705   3.386
 7489SOL    HW123366   1.224   3.632   3.430
 7489SOL    HW223367   1.348   3.736   3.448
 7490SOL     OW23368   5.628   0.639   2.565
 7490SOL    HW123369   5.588   0.572   2.627
 7490SOL    HW223370   5.618   0.607   2.471
 7491SOL     OW23371   1.098   0.181   1.104
 7491SOL    HW123372   1.146   0.107   1.057
 7491SOL    HW223373   1.007   0.193   1.063
 7492SOL     OW23374   1.490   2.422   2.727
 7492SOL    HW123375   1.498   2.403   2.629
 7492SOL    HW223376   1.574   2.393   2.774
 7493SOL     OW23377   5.878   3.975   0.160
 7493SOL    HW123378   5.912   4.011   0.073
 7493SOL    HW223379   5.782   4.001   0.172
 7494SOL     OW23380   5.271   2.321   0.809
 7494SOL    HW123381   5.215   2.240   0.826
 7494SOL    HW223382   5.272   2.379   0.890
 7495SOL     OW23383   1.349   1.830   3.302
 7495SOL    HW123384   1.373   1.895   3.230
 7495SOL    HW223385   1.264   1.859   3.345
 7496SOL     OW23386   0.102   5.083   5.838
 7496SOL    HW123387   0.061   5.174   5.830
 7496SOL    HW223388   0.188   5.091   5.888
 7497SOL     OW23389   0.508   4.248   3.030
 7497SOL    HW123390   0.593   4.226   3.077
 7497SOL    HW223391   0.471   4.165   2.987
 7498SOL     OW23392   4.960   1.503   4.163
 7498SOL    HW123393   4.921   1.587   4.125
 7498SOL    HW223394   5.041   1.478   4.111
 7499SOL     OW23395   3.155   4.904   3.689
 7499SOL    HW123396   3.156   4.974   3.618
 7499SOL    HW223397   3.248   4.881   3.716
 7500SOL     OW23398   5.029   4.048   1.958
 7500SOL    HW123399   5.097   4.099   2.010
 7500SOL    HW223400   4.947   4.105   1.946
 7501SOL     OW23401   0.931   4.551   3.672
 7501SOL    HW123402   0.893   4.632   3.717
 7501SOL    HW223403   0.929   4.474   3.736
 7502SOL     OW23404   1.217   1.987   4.840
 7502SOL    HW123405   1.248   1.899   4.805
 7502SOL    HW223406   1.289   2.056   4.826
 7503SOL     OW23407   2.407   2.408   0.721
 7503SOL    HW123408   2.316   2.368   0.712
 7503SOL    HW223409   2.455   2.366   0.799
 7504SOL     OW23410   5.594   5.165   6.062
 7504SOL    HW123411   5.514   5.128   6.111
 7504SOL    HW223412   5.563   5.225   5.989
 7505SOL     OW23413   1.607   1.787   3.107
 7505SOL    HW123414   1.576   1.882   3.099
 7505SOL    HW223415   1.541   1.735   3.162
 7506SOL     OW23416   3.691   0.532   2.980
 7506SOL    HW123417   3.770   0.562   3.033
 7506SOL    HW223418   3.700   0.564   2.886
 7507SOL     OW23419   1.657   6.562   4.978
 7507SOL    HW123420   1.587   6.567   4.907
 7507SOL    HW223421   1.629   6.618   5.056
 7508SOL     OW23422   4.967   5.724   3.277
 7508SOL    HW123423   4.923   5.645   3.319
 7508SOL    HW223424   5.024   5.694   3.200
 7509SOL     OW23425   2.610   4.379   6.490
 7509SOL    HW123426   2.569   4.455   6.439
 7509SOL    HW223427   2.634   4.411   6.582
 7510SOL     OW23428   3.863   3.165   4.238
 7510SOL    HW123429   3.780   3.191   4.288
 7510SOL    HW223430   3.837   3.118   4.154
 7511SOL     OW23431   1.329   1.304   2.172
 7511SOL    HW123432   1.334   1.204   2.165
 7511SOL    HW223433   1.249   1.337   2.121
 7512SOL     OW23434   2.006   2.882   2.812
 7512SOL    HW123435   1.941   2.906   2.884
 7512SOL    HW223436   2.098   2.879   2.851
 7513SOL     OW23437   2.406   2.961   6.974
 7513SOL    HW123438   2.356   3.045   6.954
 7513SOL    HW223439   2.341   2.888   6.995
 7514SOL     OW23440   2.879   5.441   3.032
 7514SOL    HW123441   2.805   5.490   2.986
 7514SOL    HW223442   2.880   5.346   3.000
 7515SOL     OW23443   6.754   5.369   3.406
 7515SOL    HW123444   6.688   5.295   3.411
 7515SOL    HW223445   6.809   5.370   3.490
 7516SOL     OW23446   1.332   3.578   1.115
 7516SOL    HW123447   1.265   3.504   1.123
 7516SOL    HW223448   1.317   3.644   1.189
 7517SOL     OW23449   1.529   5.431   2.423
 7517SOL    HW123450   1.496   5.452   2.331
 7517SOL    HW223451   1.588   5.505   2.455
 7518SOL     OW23452   4.929   3.679   2.155
 7518SOL    HW123453   4.973   3.722   2.076
 7518SOL    HW223454   4.870   3.745   2.201
 7519SOL     OW23455   2.052   0.675   4.735
 7519SOL    HW123456   2.056   0.718   4.826
 7519SOL    HW223457   2.002   0.734   4.672
 7520SOL     OW23458   1.856   0.277   4.116
 7520SOL    HW123459   1.878   0.184   4.145
 7520SOL    HW223460   1.769   0.305   4.155
 7521SOL     OW23461   4.220   2.752   5.680
 7521SOL    HW123462   4.181   2.678   5.734
 7521SOL    HW223463   4.173   2.838   5.701
 7522SOL     OW23464   1.818   6.480   2.102
 7522SOL    HW123465   1.889   6.425   2.144
 7522SOL    HW223466   1.812   6.458   2.004
 7523SOL     OW23467   6.536   5.997   6.443
 7523SOL    HW123468   6.522   6.076   6.384
 7523SOL    HW223469   6.465   5.994   6.513
 7524SOL     OW23470   6.439   1.918   6.102
 7524SOL    HW123471   6.445   1.944   6.005
 7524SOL    HW223472   6.407   1.824   6.109
 7525SOL     OW23473   0.250   6.957   0.398
 7525SOL    HW123474   0.329   7.016   0.386
 7525SOL    HW223475   0.243   6.893   0.322
 7526SOL     OW23476   4.153   3.275   5.252
 7526SOL    HW123477   4.122   3.293   5.159
 7526SOL    HW223478   4.121   3.185   5.281
 7527SOL     OW23479   2.340   6.502   1.432
 7527SOL    HW123480   2.327   6.470   1.338
 7527SOL    HW223481   2.418   6.456   1.473
 7528SOL     OW23482   6.168   1.977   0.485
 7528SOL    HW123483   6.186   1.958   0.581
 7528SOL    HW223484   6.072   2.004   0.474
 7529SOL     OW23485   1.233   0.408   3.982
 7529SOL    HW123486   1.275   0.378   3.897
 7529SOL    HW223487   1.217   0.330   4.041
 7530SOL     OW23488   0.069   3.258   3.033
 7530SOL    HW123489   0.141   3.323   3.057
 7530SOL    HW223490   7.005   3.276   3.090
 7531SOL     OW23491   1.589   2.435   4.296
 7531SOL    HW123492   1.536   2.439   4.211
 7531SOL    HW223493   1.548   2.495   4.364
 7532SOL     OW23494   4.543   4.431   2.237
 7532SOL    HW123495   4.641   4.425   2.252
 7532SOL    HW223496   4.517   4.378   2.157
 7533SOL     OW23497   3.732   6.860   5.173
 7533SOL    HW123498   3.748   6.802   5.253
 7533SOL    HW223499   3.811   6.855   5.111
 7534SOL     OW23500   4.369   6.697   4.147
 7534SOL    HW123501   4.348   6.635   4.071
 7534SOL    HW223502   4.424   6.774   4.113
 7535SOL     OW23503   3.105   4.550   6.669
 7535SOL    HW123504   3.057   4.463   6.656
 7535SOL    HW223505   3.203   4.532   6.680
 7536SOL     OW23506   4.519   5.125   6.626
 7536SOL    HW123507   4.442   5.109   6.688
 7536SOL    HW223508   4.527   5.050   6.562
 7537SOL     OW23509   2.131   4.502   4.522
 7537SOL    HW123510   2.118   4.544   4.432
 7537SOL    HW223511   2.171   4.569   4.585
 7538SOL     OW23512   3.384   4.105   5.446
 7538SOL    HW123513   3.458   4.086   5.381
 7538SOL    HW223514   3.375   4.204   5.459
 7539SOL     OW23515   1.388   3.025   4.594
 7539SOL    HW123516   1.484   3.000   4.579
 7539SOL    HW223517   1.381   3.081   4.676
 7540SOL     OW23518   2.926   1.128   0.228
 7540SOL    HW123519   2.932   1.028   0.237
 7540SOL    HW223520   3.018   1.166   0.232
 7541SOL     OW23521   0.516   1.923   6.156
 7541SOL    HW123522   0.577   1.996   6.125
 7541SOL    HW223523   0.507   1.855   6.084
 7542SOL     OW23524   1.989   0.495   4.481
 7542SOL    HW123525   1.903   0.446   4.498
 7542SOL    HW223526   2.056   0.469   4.549
 7543SOL     OW23527   2.716   2.551   1.701
 7543SOL    HW123528   2.621   2.539   1.729
 7543SOL    HW223529   2.776   2.503   1.764
 7544SOL     OW23530   1.164   2.469   2.411
 7544SOL    HW123531   1.147   2.563   2.440
 7544SOL    HW223532   1.097   2.443   2.341
 7545SOL     OW23533   3.908   0.455   4.014
 7545SOL    HW123534   3.814   0.441   3.982
 7545SOL    HW223535   3.940   0.373   4.060
 7546SOL     OW23536   4.941   6.786   4.581
 7546SOL    HW123537   4.852   6.743   4.595
 7546SOL    HW223538   4.987   6.796   4.669
 7547SOL     OW23539   1.843   6.501   0.578
 7547SOL    HW123540   1.915   6.571   0.580
 7547SOL    HW223541   1.768   6.532   0.519
 7548SOL     OW23542   2.722   4.074   0.721
 7548SOL    HW123543   2.780   4.010   0.771
 7548SOL    HW223544   2.632   4.033   0.705
 7549SOL     OW23545   5.983   0.028   2.190
 7549SOL    HW123546   5.906   6.990   2.225
 7549SOL    HW223547   6.044   0.052   2.266
 7550SOL     OW23548   0.985   5.584   0.622
 7550SOL    HW123549   1.079   5.584   0.588
 7550SOL    HW223550   0.930   5.520   0.568
 7551SOL     OW23551   4.902   3.788   6.131
 7551SOL    HW123552   4.969   3.808   6.060
 7551SOL    HW223553   4.932   3.708   6.184
 7552SOL     OW23554   3.555   5.762   4.623
 7552SOL    HW123555   3.647   5.780   4.590
 7552SOL    HW223556   3.533   5.665   4.612
 7553SOL     OW23557   4.279   4.122   5.690
 7553SOL    HW123558   4.221   4.074   5.623
 7553SOL    HW223559   4.261   4.220   5.685
 7554SOL     OW23560   6.704   1.030   0.760
 7554SOL    HW123561   6.780   1.071   0.708
 7554SOL    HW223562   6.688   1.084   0.842
 7555SOL     OW23563   2.384   6.742   6.638
 7555SOL    HW123564   2.381   6.705   6.731
 7555SOL    HW223565   2.409   6.669   6.574
 7556SOL     OW23566   0.068   3.910   2.865
 7556SOL    HW123567   0.146   3.971   2.877
 7556SOL    HW223568   0.096   3.816   2.879
 7557SOL     OW23569   4.704   4.270   0.801
 7557SOL    HW123570   4.732   4.297   0.894
 7557SOL    HW223571   4.616   4.312   0.780
 7558SOL     OW23572   1.364   3.721   3.793
 7558SOL    HW123573   1.436   3.780   3.828
 7558SOL    HW223574   1.326   3.666   3.868
 7559SOL     OW23575   0.824   4.904   0.210
 7559SOL    HW123576   0.873   4.869   0.290
 7559SOL    HW223577   0.890   4.924   0.137
 7560SOL     OW23578   4.491   0.048   5.916
 7560SOL    HW123579   4.494   6.982   5.973
 7560SOL    HW223580   4.414   0.105   5.944
 7561SOL     OW23581   1.669   2.769   0.299
 7561SOL    HW123582   1.748   2.708   0.302
 7561SOL    HW223583   1.588   2.719   0.269
 7562SOL     OW23584   4.522   6.074   5.057
 7562SOL    HW123585   4.533   6.050   5.154
 7562SOL    HW223586   4.593   6.139   5.031
 7563SOL     OW23587   1.961   1.624   3.637
 7563SOL    HW123588   1.989   1.619   3.733
 7563SOL    HW223589   1.984   1.538   3.591
 7564SOL     OW23590   6.219   5.602   4.006
 7564SOL    HW123591   6.221   5.664   4.084
 7564SOL    HW223592   6.131   5.611   3.958
 7565SOL     OW23593   5.025   4.723   6.493
 7565SOL    HW123594   5.079   4.657   6.442
 7565SOL    HW223595   4.955   4.676   6.547
 7566SOL     OW23596   1.542   5.558   3.837
 7566SOL    HW123597   1.611   5.532   3.904
 7566SOL    HW223598   1.549   5.656   3.818
 7567SOL     OW23599   2.773   4.056   0.119
 7567SOL    HW123600   2.820   4.082   0.035
 7567SOL    HW223601   2.840   4.047   0.193
 7568SOL     OW23602   4.218   4.788   4.241
 7568SOL    HW123603   4.285   4.729   4.287
 7568SOL    HW223604   4.163   4.835   4.309
 7569SOL     OW23605   3.621   0.144   2.847
 7569SOL    HW123606   3.555   0.196   2.792
 7569SOL    HW223607   3.687   0.099   2.788
 7570SOL     OW23608   6.337   5.335   5.053
 7570SOL    HW123609   6.435   5.316   5.043
 7570SOL    HW223610   6.322   5.434   5.052
 7571SOL     OW23611   6.761   4.485   0.439
 7571SOL    HW123612   6.805   4.525   0.520
 7571SOL    HW223613   6.802   4.396   0.419
 7572SOL     OW23614   5.885   1.433   3.626
 7572SOL    HW123615   5.929   1.361   3.680
 7572SOL    HW223616   5.846   1.502   3.688
 7573SOL     OW23617   2.860   5.070   3.934
 7573SOL    HW123618   2.782   5.089   3.994
 7573SOL    HW223619   2.943   5.109   3.973
 7574SOL     OW23620   4.086   6.096   1.514
 7574SOL    HW123621   4.019   6.149   1.566
 7574SOL    HW223622   4.102   6.008   1.560
 7575SOL     OW23623   4.889   3.237   3.991
 7575SOL    HW123624   4.914   3.140   3.992
 7575SOL    HW223625   4.858   3.262   3.900
 7576SOL     OW23626   0.381   4.559   1.807
 7576SOL    HW123627   0.391   4.489   1.878
 7576SOL    HW223628   0.299   4.539   1.753
 7577SOL     OW23629   3.988   1.511   3.960
 7577SOL    HW123630   3.920   1.575   3.996
 7577SOL    HW223631   4.077   1.556   3.957
 7578SOL     OW23632   1.910   5.275   5.695
 7578SOL    HW123633   1.926   5.179   5.720
 7578SOL    HW223634   1.927   5.287   5.598
 7579SOL     OW23635   4.422   2.371   4.588
 7579SOL    HW123636   4.511   2.330   4.571
 7579SOL    HW223637   4.350   2.310   4.556
 7580SOL     OW23638   1.706   3.329   2.586
 7580SOL    HW123639   1.640   3.355   2.515
 7580SOL    HW223640   1.775   3.402   2.596
 7581SOL     OW23641   5.799   0.874   1.214
 7581SOL    HW123642   5.707   0.854   1.246
 7581SOL    HW223643   5.825   0.966   1.242
 7582SOL     OW23644   4.036   3.266   1.569
 7582SOL    HW123645   4.016   3.235   1.476
 7582SOL    HW223646   3.972   3.223   1.633
 7583SOL     OW23647   5.978   4.128   3.551
 7583SOL    HW123648   5.923   4.093   3.627
 7583SOL    HW223649   5.970   4.065   3.473
 7584SOL     OW23650   1.931   2.691   2.039
 7584SOL    HW123651   1.879   2.703   2.123
 7584SOL    HW223652   2.007   2.757   2.037
 7585SOL     OW23653   3.281   3.961   0.454
 7585SOL    HW123654   3.257   4.052   0.423
 7585SOL    HW223655   3.336   3.967   0.538
 7586SOL     OW23656   1.324   2.847   3.333
 7586SOL    HW123657   1.288   2.836   3.241
 7586SOL    HW223658   1.249   2.866   3.396
 7587SOL     OW23659   3.136   0.475   5.544
 7587SOL    HW123660   3.203   0.506   5.611
 7587SOL    HW223661   3.177   0.405   5.485
 7588SOL     OW23662   0.202   4.464   1.597
 7588SOL    HW123663   0.169   4.494   1.508
 7588SOL    HW223664   0.298   4.437   1.591
 7589SOL     OW23665   4.443   5.562   6.024
 7589SOL    HW123666   4.352   5.525   6.004
 7589SOL    HW223667   4.497   5.564   5.941
 7590SOL     OW23668   2.399   0.718   4.943
 7590SOL    HW123669   2.314   0.666   4.951
 7590SOL    HW223670   2.477   0.659   4.963
 7591SOL     OW23671   6.675   5.660   6.058
 7591SOL    HW123672   6.724   5.714   6.127
 7591SOL    HW223673   6.579   5.686   6.058
 7592SOL     OW23674   4.625   4.706   6.135
 7592SOL    HW123675   4.526   4.696   6.138
 7592SOL    HW223676   4.649   4.801   6.118
 7593SOL     OW23677   6.640   4.856   0.013
 7593SOL    HW123678   6.651   4.757   0.015
 7593SOL    HW223679   6.728   4.900   0.029
 7594SOL     OW23680   0.987   0.251   4.528
 7594SOL    HW123681   0.993   0.334   4.471
 7594SOL    HW223682   0.988   0.171   4.468
 7595SOL     OW23683   0.283   3.883   6.858
 7595SOL    HW123684   0.299   3.882   6.759
 7595SOL    HW223685   0.203   3.939   6.878
 7596SOL     OW23686   5.415   5.198   2.087
 7596SOL    HW123687   5.380   5.288   2.112
 7596SOL    HW223688   5.410   5.187   1.988
 7597SOL     OW23689   2.300   4.651   2.751
 7597SOL    HW123690   2.387   4.666   2.797
 7597SOL    HW223691   2.233   4.615   2.816
 7598SOL     OW23692   6.692   1.553   2.464
 7598SOL    HW123693   6.611   1.581   2.412
 7598SOL    HW223694   6.766   1.618   2.449
 7599SOL     OW23695   5.420   3.889   2.005
 7599SOL    HW123696   5.507   3.855   2.040
 7599SOL    HW223697   5.358   3.813   1.988
 7600SOL     OW23698   2.150   2.508   2.642
 7600SOL    HW123699   2.165   2.410   2.638
 7600SOL    HW223700   2.239   2.554   2.654
 7601SOL     OW23701   2.152   0.670   5.242
 7601SOL    HW123702   2.199   0.597   5.292
 7601SOL    HW223703   2.055   0.670   5.265
 7602SOL     OW23704   2.130   2.771   5.290
 7602SOL    HW123705   2.046   2.722   5.269
 7602SOL    HW223706   2.153   2.832   5.214
 7603SOL     OW23707   6.197   1.179   2.362
 7603SOL    HW123708   6.197   1.192   2.263
 7603SOL    HW223709   6.258   1.247   2.405
 7604SOL     OW23710   5.721   5.638   6.509
 7604SOL    HW123711   5.730   5.598   6.600
 7604SOL    HW223712   5.805   5.620   6.457
 7605SOL     OW23713   5.013   3.249   5.449
 7605SOL    HW123714   5.016   3.231   5.547
 7605SOL    HW223715   5.078   3.322   5.427
 7606SOL     OW23716   5.785   0.985   3.877
 7606SOL    HW123717   5.730   1.000   3.794
 7606SOL    HW223718   5.742   1.033   3.954
 7607SOL     OW23719   4.849   6.041   6.243
 7607SOL    HW123720   4.875   6.042   6.146
 7607SOL    HW223721   4.932   6.040   6.299
 7608SOL     OW23722   3.831   3.426   4.757
 7608SOL    HW123723   3.804   3.351   4.696
 7608SOL    HW223724   3.811   3.514   4.712
 7609SOL     OW23725   1.033   3.046   3.043
 7609SOL    HW123726   1.043   3.113   3.117
 7609SOL    HW223727   1.122   3.006   3.022
 7610SOL     OW23728   5.776   0.354   2.470
 7610SOL    HW123729   5.723   0.283   2.516
 7610SOL    HW223730   5.863   0.366   2.517
 7611SOL     OW23731   1.406   1.902   1.904
 7611SOL    HW123732   1.351   1.977   1.865
 7611SOL    HW223733   1.345   1.836   1.947
 7612SOL     OW23734   3.430   1.123   2.679
 7612SOL    HW123735   3.369   1.092   2.606
 7612SOL    HW223736   3.470   1.044   2.725
 7613SOL     OW23737   6.648   0.760   2.001
 7613SOL    HW123738   6.671   0.719   1.913
 7613SOL    HW223739   6.605   0.691   2.060
 7614SOL     OW23740   4.251   0.898   0.288
 7614SOL    HW123741   4.301   0.814   0.269
 7614SOL    HW223742   4.260   0.921   0.385
 7615SOL     OW23743   4.350   4.658   6.104
 7615SOL    HW123744   4.270   4.717   6.101
 7615SOL    HW223745   4.330   4.573   6.056
 7616SOL     OW23746   6.944   6.356   3.314
 7616SOL    HW123747   6.898   6.354   3.225
 7616SOL    HW223748   6.955   6.263   3.348
 7617SOL     OW23749   4.079   5.240   3.037
 7617SOL    HW123750   3.992   5.265   3.080
 7617SOL    HW223751   4.151   5.239   3.106
 7618SOL     OW23752   3.275   1.517   0.195
 7618SOL    HW123753   3.350   1.571   0.156
 7618SOL    HW223754   3.196   1.522   0.134
 7619SOL     OW23755   5.703   3.485   5.658
 7619SOL    HW123756   5.774   3.432   5.611
 7619SOL    HW223757   5.743   3.532   5.737
 7620SOL     OW23758   2.459   5.567   2.000
 7620SOL    HW123759   2.455   5.657   2.044
 7620SOL    HW223760   2.367   5.541   1.970
 7621SOL     OW23761   2.771   2.982   1.375
 7621SOL    HW123762   2.827   2.956   1.454
 7621SOL    HW223763   2.829   2.987   1.294
 7622SOL     OW23764   5.014   1.810   0.664
 7622SOL    HW123765   4.944   1.749   0.700
 7622SOL    HW223766   4.986   1.905   0.681
 7623SOL     OW23767   6.759   6.845   4.788
 7623SOL    HW123768   6.798   6.755   4.771
 7623SOL    HW223769   6.732   6.852   4.884
 7624SOL     OW23770   6.994   1.309   4.840
 7624SOL    HW123771   0.042   1.235   4.819
 7624SOL    HW223772   6.961   1.299   4.933
 7625SOL     OW23773   2.284   4.570   0.458
 7625SOL    HW123774   2.196   4.523   0.466
 7625SOL    HW223775   2.358   4.502   0.464
 7626SOL     OW23776   2.549   3.885   5.426
 7626SOL    HW123777   2.551   3.977   5.465
 7626SOL    HW223778   2.497   3.885   5.341
 7627SOL     OW23779   6.997   0.159   6.780
 7627SOL    HW123780   6.913   0.209   6.760
 7627SOL    HW223781   0.059   0.217   6.760
 7628SOL     OW23782   4.013   1.520   0.127
 7628SOL    HW123783   4.006   1.477   0.217
 7628SOL    HW223784   4.076   1.467   0.070
 7629SOL     OW23785   6.239   5.411   2.640
 7629SOL    HW123786   6.226   5.455   2.552
 7629SOL    HW223787   6.160   5.353   2.661
 7630SOL     OW23788   5.739   1.665   2.118
 7630SOL    HW123789   5.697   1.608   2.189
 7630SOL    HW223790   5.678   1.741   2.095
 7631SOL     OW23791   0.749   0.396   3.655
 7631SOL    HW123792   0.666   0.385   3.710
 7631SOL    HW223793   0.766   0.311   3.605
 7632SOL     OW23794   4.797   1.167   4.782
 7632SOL    HW123795   4.799   1.076   4.823
 7632SOL    HW223796   4.871   1.176   4.715
 7633SOL     OW23797   5.647   3.176   6.176
 7633SOL    HW123798   5.705   3.186   6.095
 7633SOL    HW223799   5.558   3.218   6.158
 7634SOL     OW23800   0.742   2.534   1.786
 7634SOL    HW123801   0.823   2.476   1.785
 7634SOL    HW223802   0.754   2.608   1.721
 7635SOL     OW23803   2.098   4.817   5.928
 7635SOL    HW123804   2.069   4.751   5.997
 7635SOL    HW223805   2.163   4.773   5.866
 7636SOL     OW23806   0.699   1.722   3.250
 7636SOL    HW123807   0.796   1.743   3.235
 7636SOL    HW223808   0.657   1.795   3.303
 7637SOL     OW23809   3.078   6.318   4.045
 7637SOL    HW123810   3.155   6.293   4.104
 7637SOL    HW223811   3.078   6.260   3.964
 7638SOL     OW23812   4.838   5.068   1.983
 7638SOL    HW123813   4.792   5.099   1.899
 7638SOL    HW223814   4.812   4.974   2.003
 7639SOL     OW23815   0.768   2.258   4.542
 7639SOL    HW123816   0.707   2.203   4.486
 7639SOL    HW223817   0.717   2.335   4.580
 7640SOL     OW23818   2.168   2.926   6.279
 7640SOL    HW123819   2.190   2.946   6.374
 7640SOL    HW223820   2.075   2.889   6.274
 7641SOL     OW23821   5.647   3.250   1.723
 7641SOL    HW123822   5.565   3.208   1.684
 7641SOL    HW223823   5.620   3.321   1.787
 7642SOL     OW23824   0.957   3.528   3.209
 7642SOL    HW123825   1.040   3.473   3.212
 7642SOL    HW223826   0.895   3.491   3.140
 7643SOL     OW23827   5.562   3.758   3.496
 7643SOL    HW123828   5.622   3.801   3.564
 7643SOL    HW223829   5.590   3.785   3.404
 7644SOL     OW23830   6.439   2.505   3.816
 7644SOL    HW123831   6.368   2.569   3.846
 7644SOL    HW223832   6.396   2.421   3.784
 7645SOL     OW23833   4.166   3.036   0.751
 7645SOL    HW123834   4.217   2.981   0.817
 7645SOL    HW223835   4.230   3.093   0.700
 7646SOL     OW23836   0.777   0.641   2.369
 7646SOL    HW123837   0.869   0.602   2.368
 7646SOL    HW223838   0.711   0.570   2.394
 7647SOL     OW23839   2.550   4.187   0.117
 7647SOL    HW123840   2.633   4.132   0.118
 7647SOL    HW223841   2.485   4.150   0.184
 7648SOL     OW23842   2.107   0.399   3.650
 7648SOL    HW123843   2.022   0.450   3.633
 7648SOL    HW223844   2.135   0.353   3.565
 7649SOL     OW23845   4.089   2.003   0.800
 7649SOL    HW123846   4.067   1.909   0.774
 7649SOL    HW223847   4.069   2.017   0.897
 7650SOL     OW23848   0.226   4.576   0.940
 7650SOL    HW123849   0.147   4.617   0.985
 7650SOL    HW223850   0.298   4.644   0.929
 7651SOL     OW23851   5.701   1.766   5.907
 7651SOL    HW123852   5.782   1.710   5.919
 7651SOL    HW223853   5.651   1.771   5.994
 7652SOL     OW23854   0.814   2.896   2.305
 7652SOL    HW123855   0.829   2.970   2.370
 7652SOL    HW223856   0.865   2.815   2.334
 7653SOL     OW23857   4.821   2.627   1.758
 7653SOL    HW123858   4.835   2.590   1.667
 7653SOL    HW223859   4.902   2.678   1.786
 7654SOL     OW23860   5.653   3.789   5.224
 7654SOL    HW123861   5.629   3.754   5.315
 7654SOL    HW223862   5.705   3.874   5.234
 7655SOL     OW23863   5.350   4.663   6.195
 7655SOL    HW123864   5.361   4.612   6.280
 7655SOL    HW223865   5.264   4.636   6.151
 7656SOL     OW23866   0.002   0.012   5.306
 7656SOL    HW123867   6.926   0.020   5.270
 7656SOL    HW223868   0.057   0.089   5.273
 7657SOL     OW23869   3.588   2.085   3.384
 7657SOL    HW123870   3.528   2.096   3.464
 7657SOL    HW223871   3.532   2.083   3.301
 7658SOL     OW23872   4.433   1.205   5.544
 7658SOL    HW123873   4.489   1.191   5.461
 7658SOL    HW223874   4.352   1.148   5.539
 7659SOL     OW23875   5.153   5.975   6.278
 7659SOL    HW123876   5.157   5.931   6.188
 7659SOL    HW223877   5.241   5.964   6.324
 7660SOL     OW23878   5.677   5.229   3.592
 7660SOL    HW123879   5.616   5.281   3.653
 7660SOL    HW223880   5.625   5.196   3.513
 7661SOL     OW23881   5.808   3.112   3.429
 7661SOL    HW123882   5.907   3.117   3.415
 7661SOL    HW223883   5.765   3.192   3.386
 7662SOL     OW23884   6.097   5.226   3.176
 7662SOL    HW123885   6.150   5.148   3.210
 7662SOL    HW223886   6.009   5.230   3.224
 7663SOL     OW23887   1.076   6.719   6.983
 7663SOL    HW123888   1.141   6.750   6.912
 7663SOL    HW223889   1.064   6.791   0.035
 7664SOL     OW23890   5.104   4.954   4.998
 7664SOL    HW123891   5.063   4.930   4.910
 7664SOL    HW223892   5.104   5.053   5.009
 7665SOL     OW23893   2.236   5.841   3.634
 7665SOL    HW123894   2.284   5.926   3.612
 7665SOL    HW223895   2.165   5.860   3.703
 7666SOL     OW23896   1.955   0.152   2.486
 7666SOL    HW123897   1.980   0.056   2.478
 7666SOL    HW223898   1.857   0.160   2.504
 7667SOL     OW23899   5.436   0.110   5.541
 7667SOL    HW123900   5.353   0.162   5.519
 7667SOL    HW223901   5.514   0.150   5.494
 7668SOL     OW23902   2.975   3.790   3.213
 7668SOL    HW123903   3.073   3.792   3.232
 7668SOL    HW223904   2.958   3.727   3.137
 7669SOL     OW23905   4.645   6.624   4.925
 7669SOL    HW123906   4.586   6.566   4.981
 7669SOL    HW223907   4.589   6.682   4.866
 7670SOL     OW23908   1.377   5.814   1.370
 7670SOL    HW123909   1.439   5.805   1.449
 7670SOL    HW223910   1.410   5.757   1.295
 7671SOL     OW23911   4.749   2.856   4.929
 7671SOL    HW123912   4.786   2.930   4.985
 7671SOL    HW223913   4.684   2.803   4.983
 7672SOL     OW23914   5.290   6.912   1.550
 7672SOL    HW123915   5.337   6.925   1.637
 7672SOL    HW223916   5.208   6.856   1.565
 7673SOL     OW23917   1.856   3.771   0.358
 7673SOL    HW123918   1.849   3.676   0.390
 7673SOL    HW223919   1.838   3.833   0.434
 7674SOL     OW23920   6.383   1.609   6.097
 7674SOL    HW123921   6.416   1.528   6.147
 7674SOL    HW223922   6.387   1.591   5.999
 7675SOL     OW23923   5.522   6.831   3.388
 7675SOL    HW123924   5.482   6.789   3.307
 7675SOL    HW223925   5.474   6.916   3.410
 7676SOL     OW23926   2.492   0.279   0.914
 7676SOL    HW123927   2.462   0.231   0.996
 7676SOL    HW223928   2.418   0.336   0.878
 7677SOL     OW23929   1.959   2.363   2.515
 7677SOL    HW123930   2.016   2.434   2.556
 7677SOL    HW223931   1.911   2.402   2.436
 7678SOL     OW23932   4.856   6.912   5.773
 7678SOL    HW123933   4.771   6.874   5.738
 7678SOL    HW223934   4.868   7.005   5.738
 7679SOL     OW23935   1.779   4.921   4.474
 7679SOL    HW123936   1.759   4.866   4.555
 7679SOL    HW223937   1.874   4.905   4.446
 7680SOL     OW23938   4.508   0.539   1.064
 7680SOL    HW123939   4.425   0.524   1.010
 7680SOL    HW223940   4.550   0.452   1.085
 7681SOL     OW23941   4.163   2.371   5.521
 7681SOL    HW123942   4.183   2.297   5.586
 7681SOL    HW223943   4.229   2.444   5.533
 7682SOL     OW23944   3.414   1.313   6.875
 7682SOL    HW123945   3.367   1.355   6.953
 7682SOL    HW223946   3.513   1.319   6.889
 7683SOL     OW23947   6.719   3.600   2.928
 7683SOL    HW123948   6.721   3.617   2.829
 7683SOL    HW223949   6.635   3.639   2.966
 7684SOL     OW23950   3.900   1.828   6.056
 7684SOL    HW123951   3.925   1.786   6.143
 7684SOL    HW223952   3.956   1.789   5.983
 7685SOL     OW23953   4.640   4.589   1.417
 7685SOL    HW123954   4.705   4.514   1.432
 7685SOL    HW223955   4.553   4.566   1.460
 7686SOL     OW23956   2.174   0.605   2.069
 7686SOL    HW123957   2.181   0.573   2.163
 7686SOL    HW223958   2.252   0.666   2.049
 7687SOL     OW23959   5.084   4.170   5.260
 7687SOL    HW123960   5.032   4.117   5.327
 7687SOL    HW223961   5.116   4.109   5.187
 7688SOL     OW23962   6.552   0.370   3.812
 7688SOL    HW123963   6.535   0.463   3.777
 7688SOL    HW223964   6.515   0.303   3.748
 7689SOL     OW23965   3.316   0.009   5.238
 7689SOL    HW123966   3.312   6.927   5.220
 7689SOL    HW223967   3.405   0.033   5.277
 7690SOL     OW23968   1.118   5.344   3.199
 7690SOL    HW123969   1.052   5.333   3.273
 7690SOL    HW223970   1.199   5.392   3.233
 7691SOL     OW23971   6.842   3.820   5.458
 7691SOL    HW123972   6.907   3.768   5.514
 7691SOL    HW223973   6.774   3.863   5.517
 7692SOL     OW23974   1.516   6.134   1.449
 7692SOL    HW123975   1.532   6.036   1.462
 7692SOL    HW223976   1.440   6.147   1.385
 7693SOL     OW23977   4.350   0.963   0.010
 7693SOL    HW123978   4.285   0.968   6.950
 7693SOL    HW223979   4.301   0.971   0.096
 7694SOL     OW23980   5.600   5.400   3.841
 7694SOL    HW123981   5.657   5.461   3.895
 7694SOL    HW223982   5.564   5.327   3.901
 7695SOL     OW23983   5.255   6.645   6.486
 7695SOL    HW123984   5.297   6.713   6.546
 7695SOL    HW223985   5.161   6.670   6.466
 7696SOL     OW23986   1.307   4.277   5.280
 7696SOL    HW123987   1.208   4.265   5.285
 7696SOL    HW223988   1.348   4.251   5.367
 7697SOL     OW23989   4.444   0.479   2.640
 7697SOL    HW123990   4.462   0.576   2.658
 7697SOL    HW223991   4.349   0.459   2.662
 7698SOL     OW23992   0.115   2.174   6.349
 7698SOL    HW123993   0.061   2.089   6.342
 7698SOL    HW223994   0.064   2.249   6.307
 7699SOL     OW23995   3.477   3.268   1.232
 7699SOL    HW123996   3.451   3.183   1.279
 7699SOL    HW223997   3.463   3.256   1.133
 7700SOL     OW23998   5.370   0.973   5.375
 7700SOL    HW123999   5.367   1.073   5.382
 7700SOL    HW224000   5.430   0.936   5.447
 7701SOL     OW24001   6.757   2.374   5.026
 7701SOL    HW124002   6.708   2.449   4.982
 7701SOL    HW224003   6.850   2.403   5.048
 7702SOL     OW24004   1.036   6.122   0.121
 7702SOL    HW124005   0.948   6.170   0.116
 7702SOL    HW224006   1.065   6.116   0.217
 7703SOL     OW24007   0.928   2.470   0.351
 7703SOL    HW124008   0.942   2.516   0.438
 7703SOL    HW224009   1.014   2.430   0.319
 7704SOL     OW24010   3.871   3.928   1.204
 7704SOL    HW124011   3.902   3.833   1.206
 7704SOL    HW224012   3.916   3.980   1.277
 7705SOL     OW24013   4.075   3.320   4.612
 7705SOL    HW124014   4.129   3.399   4.641
 7705SOL    HW224015   3.978   3.339   4.626
 7706SOL     OW24016   5.554   1.283   5.598
 7706SOL    HW124017   5.627   1.320   5.655
 7706SOL    HW224018   5.594   1.238   5.518
 7707SOL     OW24019   0.337   4.885   6.153
 7707SOL    HW124020   0.327   4.969   6.100
 7707SOL    HW224021   0.401   4.824   6.107
 7708SOL     OW24022   4.664   1.494   5.479
 7708SOL    HW124023   4.649   1.396   5.489
 7708SOL    HW224024   4.725   1.526   5.552
 7709SOL     OW24025   4.031   2.651   1.670
 7709SOL    HW124026   4.086   2.702   1.604
 7709SOL    HW224027   3.943   2.697   1.682
 7710SOL     OW24028   3.165   1.598   6.220
 7710SOL    HW124029   3.254   1.639   6.240
 7710SOL    HW224030   3.155   1.513   6.273
 7711SOL     OW24031   5.204   6.513   4.569
 7711SOL    HW124032   5.204   6.470   4.479
 7711SOL    HW224033   5.228   6.445   4.638
 7712SOL     OW24034   6.186   4.458   6.147
 7712SOL    HW124035   6.100   4.431   6.103
 7712SOL    HW224036   6.253   4.385   6.138
 7713SOL     OW24037   0.652   4.738   6.499
 7713SOL    HW124038   0.644   4.825   6.449
 7713SOL    HW224039   0.663   4.757   6.596
 7714SOL     OW24040   6.252   4.794   5.061
 7714SOL    HW124041   6.315   4.725   5.097
 7714SOL    HW224042   6.261   4.878   5.115
 7715SOL     OW24043   3.630   2.102   1.573
 7715SOL    HW124044   3.562   2.085   1.644
 7715SOL    HW224045   3.717   2.129   1.615
 7716SOL     OW24046   3.786   2.172   4.450
 7716SOL    HW124047   3.791   2.188   4.351
 7716SOL    HW224048   3.691   2.181   4.480
 7717SOL     OW24049   2.983   6.450   0.414
 7717SOL    HW124050   3.070   6.402   0.424
 7717SOL    HW224051   2.985   6.506   0.331
 7718SOL     OW24052   1.459   6.504   3.083
 7718SOL    HW124053   1.406   6.442   3.141
 7718SOL    HW224054   1.411   6.516   2.995
 7719SOL     OW24055   5.477   2.626   5.296
 7719SOL    HW124056   5.386   2.658   5.270
 7719SOL    HW224057   5.468   2.540   5.347
 7720SOL     OW24058   4.702   6.702   1.547
 7720SOL    HW124059   4.745   6.665   1.629
 7720SOL    HW224060   4.760   6.682   1.468
 7721SOL     OW24061   0.313   5.007   3.638
 7721SOL    HW124062   0.323   5.051   3.548
 7721SOL    HW224063   0.395   5.025   3.693
 7722SOL     OW24064   0.308   6.008   3.412
 7722SOL    HW124065   0.362   5.955   3.477
 7722SOL    HW224066   0.249   5.947   3.360
 7723SOL     OW24067   0.083   2.338   6.035
 7723SOL    HW124068   0.143   2.377   6.105
 7723SOL    HW224069   0.001   2.300   6.078
 7724SOL     OW24070   2.726   5.898   6.921
 7724SOL    HW124071   2.693   5.969   6.982
 7724SOL    HW224072   2.664   5.820   6.922
 7725SOL     OW24073   5.073   4.204   3.483
 7725SOL    HW124074   5.056   4.149   3.401
 7725SOL    HW224075   5.169   4.194   3.511
 7726SOL     OW24076   5.067   6.126   3.769
 7726SOL    HW124077   5.011   6.181   3.831
 7726SOL    HW224078   5.007   6.067   3.714
 7727SOL     OW24079   6.021   3.672   2.240
 7727SOL    HW124080   6.040   3.648   2.145
 7727SOL    HW224081   5.926   3.700   2.250
 7728SOL     OW24082   2.067   3.405   2.766
 7728SOL    HW124083   1.994   3.347   2.801
 7728SOL    HW224084   2.058   3.413   2.666
 7729SOL     OW24085   5.649   1.441   5.968
 7729SOL    HW124086   5.711   1.382   5.917
 7729SOL    HW224087   5.556   1.429   5.935
 7730SOL     OW24088   4.205   6.071   3.406
 7730SOL    HW124089   4.195   6.008   3.329
 7730SOL    HW224090   4.151   6.038   3.483
 7731SOL     OW24091   6.015   1.788   4.142
 7731SOL    HW124092   5.990   1.816   4.234
 7731SOL    HW224093   5.995   1.863   4.078
 7732SOL     OW24094   4.081   4.708   0.676
 7732SOL    HW124095   4.071   4.770   0.754
 7732SOL    HW224096   4.012   4.730   0.607
 7733SOL     OW24097   3.771   5.316   1.699
 7733SOL    HW124098   3.841   5.387   1.684
 7733SOL    HW224099   3.681   5.353   1.676
 7734SOL     OW24100   1.256   3.339   2.071
 7734SOL    HW124101   1.207   3.258   2.103
 7734SOL    HW224102   1.310   3.316   1.990
 7735SOL     OW24103   5.816   4.036   0.577
 7735SOL    HW124104   5.904   4.026   0.531
 7735SOL    HW224105   5.748   3.978   0.532
 7736SOL     OW24106   5.667   4.312   6.871
 7736SOL    HW124107   5.598   4.358   6.927
 7736SOL    HW224108   5.623   4.263   6.796
 7737SOL     OW24109   5.106   2.718   0.115
 7737SOL    HW124110   5.137   2.661   0.039
 7737SOL    HW224111   5.076   2.660   0.191
 7738SOL     OW24112   1.827   4.925   6.617
 7738SOL    HW124113   1.856   4.906   6.523
 7738SOL    HW224114   1.831   5.023   6.634
 7739SOL     OW24115   5.927   4.406   2.366
 7739SOL    HW124116   5.901   4.348   2.289
 7739SOL    HW224117   5.996   4.472   2.336
 7740SOL     OW24118   6.756   6.040   3.067
 7740SOL    HW124119   6.682   6.041   2.999
 7740SOL    HW224120   6.773   5.946   3.096
 7741SOL     OW24121   2.687   5.144   3.740
 7741SOL    HW124122   2.615   5.075   3.733
 7741SOL    HW224123   2.759   5.111   3.802
 7742SOL     OW24124   0.085   0.733   4.715
 7742SOL    HW124125   0.061   0.676   4.794
 7742SOL    HW224126   0.014   0.801   4.700
 7743SOL     OW24127   5.003   3.449   1.875
 7743SOL    HW124128   4.963   3.359   1.864
 7743SOL    HW224129   4.942   3.518   1.836
 7744SOL     OW24130   0.062   6.326   4.265
 7744SOL    HW124131   7.000   6.330   4.202
 7744SOL    HW224132   0.126   6.256   4.234
 7745SOL     OW24133   6.070   2.671   5.585
 7745SOL    HW124134   6.044   2.698   5.678
 7745SOL    HW224135   6.037   2.739   5.520
 7746SOL     OW24136   2.224   0.573   6.245
 7746SOL    HW124137   2.137   0.541   6.210
 7746SOL    HW224138   2.209   0.644   6.314
 7747SOL     OW24139   4.948   5.260   0.880
 7747SOL    HW124140   4.863   5.208   0.891
 7747SOL    HW224141   5.026   5.198   0.884
 7748SOL     OW24142   1.587   3.433   6.601
 7748SOL    HW124143   1.490   3.427   6.624
 7748SOL    HW224144   1.639   3.370   6.658
 7749SOL     OW24145   5.852   3.175   5.973
 7749SOL    HW124146   5.906   3.224   5.904
 7749SOL    HW224147   5.832   3.083   5.940
 7750SOL     OW24148   3.957   5.814   3.050
 7750SOL    HW124149   3.884   5.851   3.108
 7750SOL    HW224150   3.919   5.742   2.992
 7751SOL     OW24151   1.292   2.641   1.339
 7751SOL    HW124152   1.335   2.656   1.428
 7751SOL    HW224153   1.346   2.576   1.287
 7752SOL     OW24154   2.744   1.029   2.649
 7752SOL    HW124155   2.647   1.018   2.627
 7752SOL    HW224156   2.781   1.107   2.598
 7753SOL     OW24157   4.634   0.438   5.039
 7753SOL    HW124158   4.601   0.498   5.113
 7753SOL    HW224159   4.717   0.391   5.069
 7754SOL     OW24160   4.758   6.337   1.204
 7754SOL    HW124161   4.787   6.375   1.116
 7754SOL    HW224162   4.766   6.237   1.201
 7755SOL     OW24163   1.305   3.321   6.033
 7755SOL    HW124164   1.346   3.364   6.113
 7755SOL    HW224165   1.336   3.227   6.026
 7756SOL     OW24166   1.668   3.842   2.175
 7756SOL    HW124167   1.636   3.935   2.157
 7756SOL    HW224168   1.720   3.841   2.260
 7757SOL     OW24169   0.952   4.403   0.387
 7757SOL    HW124170   0.915   4.323   0.339
 7757SOL    HW224171   1.039   4.430   0.346
 7758SOL     OW24172   6.769   1.075   5.028
 7758SOL    HW124173   6.770   1.165   5.071
 7758SOL    HW224174   6.767   1.004   5.099
 7759SOL     OW24175   3.255   1.377   2.904
 7759SOL    HW124176   3.183   1.309   2.914
 7759SOL    HW224177   3.343   1.331   2.888
 7760SOL     OW24178   5.410   2.912   0.722
 7760SOL    HW124179   5.412   2.834   0.785
 7760SOL    HW224180   5.372   2.883   0.634
 7761SOL     OW24181   4.764   5.643   2.760
 7761SOL    HW124182   4.735   5.579   2.689
 7761SOL    HW224183   4.793   5.592   2.841
 7762SOL     OW24184   4.608   1.323   0.205
 7762SOL    HW124185   4.667   1.284   0.276
 7762SOL    HW224186   4.597   1.421   0.220
 7763SOL     OW24187   1.765   0.736   3.082
 7763SOL    HW124188   1.681   0.789   3.093
 7763SOL    HW224189   1.832   0.766   3.151
 7764SOL     OW24190   3.834   4.580   5.323
 7764SOL    HW124191   3.913   4.637   5.304
 7764SOL    HW224192   3.844   4.492   5.277
 7765SOL     OW24193   6.211   3.976   4.205
 7765SOL    HW124194   6.254   3.905   4.261
 7765SOL    HW224195   6.112   3.975   4.219
 7766SOL     OW24196   7.008   2.723   5.805
 7766SOL    HW124197   6.948   2.751   5.729
 7766SOL    HW224198   6.955   2.724   5.890
 7767SOL     OW24199   4.141   0.805   3.309
 7767SOL    HW124200   4.203   0.727   3.306
 7767SOL    HW224201   4.182   0.877   3.365
 7768SOL     OW24202   3.089   5.850   4.090
 7768SOL    HW124203   3.185   5.825   4.098
 7768SOL    HW224204   3.065   5.864   3.994
 7769SOL     OW24205   3.995   2.181   6.240
 7769SOL    HW124206   4.032   2.126   6.165
 7769SOL    HW224207   3.917   2.134   6.281
 7770SOL     OW24208   1.374   3.273   3.304
 7770SOL    HW124209   1.405   3.358   3.346
 7770SOL    HW224210   1.425   3.196   3.342
 7771SOL     OW24211   1.242   3.640   5.277
 7771SOL    HW124212   1.217   3.718   5.220
 7771SOL    HW224213   1.339   3.644   5.297
 7772SOL     OW24214   5.118   6.361   2.153
 7772SOL    HW124215   5.057   6.308   2.096
 7772SOL    HW224216   5.211   6.357   2.116
 7773SOL     OW24217   2.915   6.504   5.970
 7773SOL    HW124218   2.988   6.551   5.920
 7773SOL    HW224219   2.897   6.552   6.056
 7774SOL     OW24220   5.051   0.783   2.994
 7774SOL    HW124221   5.113   0.793   2.916
 7774SOL    HW224222   5.067   0.857   3.059
 7775SOL     OW24223   3.946   2.110   1.326
 7775SOL    HW124224   3.960   2.206   1.353
 7775SOL    HW224225   3.942   2.054   1.409
 7776SOL     OW24226   2.492   1.789   4.126
 7776SOL    HW124227   2.544   1.842   4.191
 7776SOL    HW224228   2.545   1.709   4.097
 7777SOL     OW24229   4.846   4.768   3.223
 7777SOL    HW124230   4.929   4.762   3.168
 7777SOL    HW224231   4.845   4.694   3.290
 7778SOL     OW24232   0.651   3.181   1.736
 7778SOL    HW124233   0.682   3.128   1.656
 7778SOL    HW224234   0.731   3.215   1.785
 7779SOL     OW24235   2.542   1.184   3.907
 7779SOL    HW124236   2.549   1.271   3.956
 7779SOL    HW224237   2.447   1.170   3.880
 7780SOL     OW24238   6.280   5.895   3.809
 7780SOL    HW124239   6.195   5.916   3.761
 7780SOL    HW224240   6.286   5.949   3.893
 7781SOL     OW24241   3.047   3.019   1.529
 7781SOL    HW124242   3.028   2.923   1.506
 7781SOL    HW224243   3.039   3.032   1.628
 7782SOL     OW24244   5.078   5.058   3.319
 7782SOL    HW124245   4.979   5.069   3.327
 7782SOL    HW224246   5.112   5.005   3.396
 7783SOL     OW24247   0.286   6.891   3.962
 7783SOL    HW124248   0.312   6.909   4.057
 7783SOL    HW224249   0.362   6.915   3.902
 7784SOL     OW24250   0.963   3.330   2.469
 7784SOL    HW124251   1.037   3.370   2.523
 7784SOL    HW224252   0.996   3.311   2.377
 7785SOL     OW24253   6.182   0.097   2.362
 7785SOL    HW124254   6.237   0.094   2.278
 7785SOL    HW224255   6.204   0.181   2.413
 7786SOL     OW24256   5.476   0.672   6.580
 7786SOL    HW124257   5.568   0.710   6.568
 7786SOL    HW224258   5.484   0.575   6.602
 7787SOL     OW24259   0.974   2.031   0.612
 7787SOL    HW124260   1.032   1.951   0.623
 7787SOL    HW224261   1.028   2.107   0.577
 7788SOL     OW24262   0.958   4.501   2.345
 7788SOL    HW124263   0.916   4.439   2.411
 7788SOL    HW224264   1.001   4.577   2.393
 7789SOL     OW24265   3.637   0.128   6.724
 7789SOL    HW124266   3.618   0.221   6.693
 7789SOL    HW224267   3.706   0.130   6.796
 7790SOL     OW24268   4.051   4.877   4.782
 7790SOL    HW124269   4.091   4.819   4.711
 7790SOL    HW224270   4.116   4.947   4.810
 7791SOL     OW24271   1.973   6.497   1.214
 7791SOL    HW124272   1.961   6.571   1.280
 7791SOL    HW224273   1.958   6.533   1.121
 7792SOL     OW24274   1.241   1.739   2.082
 7792SOL    HW124275   1.293   1.655   2.067
 7792SOL    HW224276   1.213   1.744   2.178
 7793SOL     OW24277   5.358   1.312   0.814
 7793SOL    HW124278   5.292   1.279   0.746
 7793SOL    HW224279   5.335   1.272   0.903
 7794SOL     OW24280   1.113   1.554   2.743
 7794SOL    HW124281   1.084   1.631   2.687
 7794SOL    HW224282   1.108   1.579   2.840
 7795SOL     OW24283   4.935   3.694   0.904
 7795SOL    HW124284   4.949   3.774   0.962
 7795SOL    HW224285   4.853   3.645   0.933
 7796SOL     OW24286   4.098   1.165   0.209
 7796SOL    HW124287   4.137   1.085   0.254
 7796SOL    HW224288   4.064   1.229   0.279
 7797SOL     OW24289   1.756   6.187   2.780
 7797SOL    HW124290   1.700   6.104   2.780
 7797SOL    HW224291   1.696   6.267   2.776
 7798SOL     OW24292   2.214   3.219   0.914
 7798SOL    HW124293   2.288   3.152   0.922
 7798SOL    HW224294   2.128   3.177   0.942
 7799SOL     OW24295   1.915   5.981   4.421
 7799SOL    HW124296   1.846   5.982   4.494
 7799SOL    HW224297   2.005   5.996   4.461
 7800SOL     OW24298   0.631   0.883   1.983
 7800SOL    HW124299   0.539   0.921   1.993
 7800SOL    HW224300   0.696   0.955   1.961
 7801SOL     OW24301   2.780   2.193   0.978
 7801SOL    HW124302   2.810   2.207   1.073
 7801SOL    HW224303   2.860   2.191   0.918
 7802SOL     OW24304   6.819   4.925   4.046
 7802SOL    HW124305   6.733   4.890   4.010
 7802SOL    HW224306   6.894   4.897   3.987
 7803SOL     OW24307   3.177   2.241   6.459
 7803SOL    HW124308   3.153   2.315   6.396
 7803SOL    HW224309   3.271   2.253   6.489
 7804SOL     OW24310   2.841   1.494   5.540
 7804SOL    HW124311   2.852   1.456   5.632
 7804SOL    HW224312   2.921   1.548   5.516
 7805SOL     OW24313   0.019   1.987   0.134
 7805SOL    HW124314   6.938   1.986   0.111
 7805SOL    HW224315   0.047   2.080   0.158
 7806SOL     OW24316   6.333   2.707   4.833
 7806SOL    HW124317   6.269   2.715   4.909
 7806SOL    HW224318   6.327   2.617   4.792
 7807SOL     OW24319   2.227   6.201   5.460
 7807SOL    HW124320   2.300   6.269   5.470
 7807SOL    HW224321   2.243   6.125   5.523
 7808SOL     OW24322   0.325   2.722   4.617
 7808SOL    HW124323   0.351   2.737   4.522
 7808SOL    HW224324   0.323   2.810   4.665
 7809SOL     OW24325   2.758   0.658   3.185
 7809SOL    HW124326   2.730   0.606   3.104
 7809SOL    HW224327   2.810   0.739   3.156
 7810SOL     OW24328   2.616   6.579   5.791
 7810SOL    HW124329   2.680   6.651   5.819
 7810SOL    HW224330   2.600   6.518   5.869
 7811SOL     OW24331   1.351   5.500   3.248
 7811SOL    HW124332   1.432   5.458   3.207
 7811SOL    HW224333   1.368   5.598   3.261
 7812SOL     OW24334   2.877   0.011   5.912
 7812SOL    HW124335   2.879   0.096   5.964
 7812SOL    HW224336   2.964   6.978   5.925
 7813SOL     OW24337   5.811   0.877   0.686
 7813SOL    HW124338   5.753   0.828   0.621
 7813SOL    HW224339   5.796   0.976   0.677
 7814SOL     OW24340   6.698   1.761   1.652
 7814SOL    HW124341   6.663   1.771   1.559
 7814SOL    HW224342   6.622   1.744   1.715
 7815SOL     OW24343   4.569   5.768   3.893
 7815SOL    HW124344   4.591   5.671   3.897
 7815SOL    HW224345   4.634   5.820   3.949
 7816SOL     OW24346   1.136   1.316   5.068
 7816SOL    HW124347   1.114   1.234   5.120
 7816SOL    HW224348   1.120   1.300   4.970
 7817SOL     OW24349   4.772   1.167   5.522
 7817SOL    HW124350   4.716   1.159   5.440
 7817SOL    HW224351   4.839   1.240   5.511
 7818SOL     OW24352   4.215   0.441   3.216
 7818SOL    HW124353   4.162   0.471   3.295
 7818SOL    HW224354   4.222   0.341   3.217
 7819SOL     OW24355   2.438   2.398   4.331
 7819SOL    HW124356   2.355   2.418   4.279
 7819SOL    HW224357   2.467   2.480   4.381
 7820SOL     OW24358   2.111   0.753   6.502
 7820SOL    HW124359   2.034   0.747   6.564
 7820SOL    HW224360   2.165   0.834   6.522
 7821SOL     OW24361   3.057   5.827   6.516
 7821SOL    HW124362   3.001   5.816   6.598
 7821SOL    HW224363   3.029   5.759   6.448
 7822SOL     OW24364   0.832   1.267   4.476
 7822SOL    HW124365   0.911   1.245   4.420
 7822SOL    HW224366   0.750   1.269   4.419
 7823SOL     OW24367   2.042   2.502   5.537
 7823SOL    HW124368   2.138   2.508   5.564
 7823SOL    HW224369   2.022   2.411   5.502
 7824SOL     OW24370   6.356   4.124   3.090
 7824SOL    HW124371   6.332   4.131   3.187
 7824SOL    HW224372   6.442   4.073   3.082
 7825SOL     OW24373   2.920   3.304   3.860
 7825SOL    HW124374   2.922   3.340   3.767
 7825SOL    HW224375   2.955   3.210   3.860
 7826SOL     OW24376   6.148   6.395   1.094
 7826SOL    HW124377   6.052   6.371   1.108
 7826SOL    HW224378   6.205   6.339   1.154
 7827SOL     OW24379   5.343   3.721   0.441
 7827SOL    HW124380   5.288   3.801   0.417
 7827SOL    HW224381   5.323   3.692   0.534
 7828SOL     OW24382   0.927   5.831   0.284
 7828SOL    HW124383   0.839   5.856   0.245
 7828SOL    HW224384   0.953   5.899   0.353
 7829SOL     OW24385   3.059   3.914   2.841
 7829SOL    HW124386   3.086   4.010   2.835
 7829SOL    HW224387   3.122   3.865   2.901
 7830SOL     OW24388   7.008   4.587   6.688
 7830SOL    HW124389   6.968   4.498   6.666
 7830SOL    HW224390   0.069   4.574   6.751
 7831SOL     OW24391   3.435   3.554   0.138
 7831SOL    HW124392   3.527   3.572   0.173
 7831SOL    HW224393   3.408   3.627   0.076
 7832SOL     OW24394   4.199   2.614   6.309
 7832SOL    HW124395   4.199   2.607   6.210
 7832SOL    HW224396   4.110   2.649   6.340
 7833SOL     OW24397   6.382   6.785   2.026
 7833SOL    HW124398   6.301   6.836   1.995
 7833SOL    HW224399   6.464   6.833   1.996
 7834SOL     OW24400   4.957   1.248   1.520
 7834SOL    HW124401   4.928   1.326   1.577
 7834SOL    HW224402   4.883   1.224   1.457
 7835SOL     OW24403   2.071   2.182   4.138
 7835SOL    HW124404   2.065   2.183   4.038
 7835SOL    HW224405   2.016   2.107   4.174
 7836SOL     OW24406   2.368   7.006   6.548
 7836SOL    HW124407   2.278   0.008   6.588
 7836SOL    HW224408   2.396   6.913   6.569
 7837SOL     OW24409   5.006   6.403   2.403
 7837SOL    HW124410   5.025   6.499   2.423
 7837SOL    HW224411   5.066   6.373   2.328
 7838SOL     OW24412   3.139   5.286   4.319
 7838SOL    HW124413   3.084   5.257   4.398
 7838SOL    HW224414   3.114   5.380   4.295
 7839SOL     OW24415   0.113   5.420   3.038
 7839SOL    HW124416   0.070   5.449   2.953
 7839SOL    HW224417   0.043   5.405   3.108
 7840SOL     OW24418   4.143   2.990   6.302
 7840SOL    HW124419   4.161   2.987   6.203
 7840SOL    HW224420   4.049   2.961   6.319
 7841SOL     OW24421   1.108   1.542   5.807
 7841SOL    HW124422   1.108   1.637   5.775
 7841SOL    HW224423   1.042   1.489   5.754
 7842SOL     OW24424   1.483   0.867   2.581
 7842SOL    HW124425   1.511   0.888   2.674
 7842SOL    HW224426   1.534   0.788   2.547
 7843SOL     OW24427   0.290   2.120   1.831
 7843SOL    HW124428   0.250   2.060   1.900
 7843SOL    HW224429   0.342   2.193   1.876
 7844SOL     OW24430   3.419   2.071   3.169
 7844SOL    HW124431   3.443   2.118   3.084
 7844SOL    HW224432   3.412   1.973   3.152
 7845SOL     OW24433   1.135   1.076   4.375
 7845SOL    HW124434   1.173   1.067   4.467
 7845SOL    HW224435   1.107   1.171   4.360
 7846SOL     OW24436   4.831   6.482   2.978
 7846SOL    HW124437   4.898   6.515   3.044
 7846SOL    HW224438   4.808   6.556   2.914
 7847SOL     OW24439   0.581   6.665   5.860
 7847SOL    HW124440   0.619   6.753   5.889
 7847SOL    HW224441   0.655   6.605   5.832
 7848SOL     OW24442   4.509   3.547   1.301
 7848SOL    HW124443   4.521   3.458   1.258
 7848SOL    HW224444   4.597   3.596   1.301
 7849SOL     OW24445   6.375   4.374   5.500
 7849SOL    HW124446   6.324   4.450   5.541
 7849SOL    HW224447   6.456   4.410   5.453
 7850SOL     OW24448   1.187   2.966   5.036
 7850SOL    HW124449   1.163   3.060   5.011
 7850SOL    HW224450   1.282   2.963   5.066
 7851SOL     OW24451   2.650   6.791   0.675
 7851SOL    HW124452   2.685   6.781   0.768
 7851SOL    HW224453   2.716   6.753   0.611
 7852SOL     OW24454   2.549   6.527   0.394
 7852SOL    HW124455   2.602   6.453   0.435
 7852SOL    HW224456   2.592   6.615   0.415
 7853SOL     OW24457   2.302   1.656   6.545
 7853SOL    HW124458   2.302   1.557   6.559
 7853SOL    HW224459   2.343   1.677   6.456
 7854SOL     OW24460   3.849   4.119   4.664
 7854SOL    HW124461   3.904   4.202   4.677
 7854SOL    HW224462   3.776   4.118   4.733
 7855SOL     OW24463   3.161   6.766   4.902
 7855SOL    HW124464   3.230   6.698   4.927
 7855SOL    HW224465   3.193   6.820   4.825
 7856SOL     OW24466   3.027   2.773   5.847
 7856SOL    HW124467   3.011   2.773   5.749
 7856SOL    HW224468   2.954   2.722   5.893
 7857SOL     OW24469   0.272   3.061   5.086
 7857SOL    HW124470   0.292   3.035   4.992
 7857SOL    HW224471   0.348   3.114   5.123
 7858SOL     OW24472   5.111   2.941   3.313
 7858SOL    HW124473   5.017   2.915   3.290
 7858SOL    HW224474   5.119   2.955   3.412
 7859SOL     OW24475   6.658   0.012   0.155
 7859SOL    HW124476   6.690   0.070   0.080
 7859SOL    HW224477   6.566   6.995   0.134
 7860SOL     OW24478   4.573   6.475   0.658
 7860SOL    HW124479   4.600   6.427   0.574
 7860SOL    HW224480   4.648   6.533   0.688
 7861SOL     OW24481   6.656   3.612   0.074
 7861SOL    HW124482   6.659   3.605   0.173
 7861SOL    HW224483   6.562   3.601   0.042
 7862SOL     OW24484   2.797   4.533   1.610
 7862SOL    HW124485   2.861   4.479   1.664
 7862SOL    HW224486   2.723   4.474   1.576
 7863SOL     OW24487   4.418   5.940   2.880
 7863SOL    HW124488   4.400   6.000   2.802
 7863SOL    HW224489   4.349   5.869   2.885
 7864SOL     OW24490   1.940   5.925   5.696
 7864SOL    HW124491   1.891   5.863   5.757
 7864SOL    HW224492   1.877   5.995   5.662
 7865SOL     OW24493   4.403   0.294   3.532
 7865SOL    HW124494   4.376   0.389   3.513
 7865SOL    HW224495   4.329   0.248   3.582
 7866SOL     OW24496   2.746   0.058   5.682
 7866SOL    HW124497   2.740   0.152   5.649
 7866SOL    HW224498   2.756   0.058   5.781
 7867SOL     OW24499   0.217   3.053   0.606
 7867SOL    HW124500   0.185   3.084   0.696
 7867SOL    HW224501   0.142   3.058   0.540
 7868SOL     OW24502   5.403   6.998   1.118
 7868SOL    HW124503   5.461   0.023   1.048
 7868SOL    HW224504   5.460   6.948   1.183
 7869SOL     OW24505   6.060   1.723   4.449
 7869SOL    HW124506   6.115   1.727   4.532
 7869SOL    HW224507   6.007   1.807   4.439
 7870SOL     OW24508   5.996   0.134   2.977
 7870SOL    HW124509   6.081   0.186   2.982
 7870SOL    HW224510   6.015   0.036   2.985
 7871SOL     OW24511   5.669   2.545   3.001
 7871SOL    HW124512   5.602   2.478   2.970
 7871SOL    HW224513   5.658   2.560   3.100
 7872SOL     OW24514   5.288   3.844   3.865
 7872SOL    HW124515   5.190   3.858   3.853
 7872SOL    HW224516   5.331   3.931   3.889
 7873SOL     OW24517   0.126   6.053   5.298
 7873SOL    HW124518   0.174   6.051   5.211
 7873SOL    HW224519   0.162   6.128   5.354
 7874SOL     OW24520   6.047   6.664   0.229
 7874SOL    HW124521   6.121   6.601   0.252
 7874SOL    HW224522   5.982   6.669   0.306
 7875SOL     OW24523   5.864   2.186   0.164
 7875SOL    HW124524   5.859   2.088   0.144
 7875SOL    HW224525   5.959   2.215   0.160
 7876SOL     OW24526   6.839   2.410   5.302
 7876SOL    HW124527   6.899   2.333   5.282
 7876SOL    HW224528   6.894   2.486   5.338
 7877SOL     OW24529   5.881   3.509   1.634
 7877SOL    HW124530   5.827   3.499   1.717
 7877SOL    HW224531   5.905   3.418   1.598
 7878SOL     OW24532   3.859   4.052   2.150
 7878SOL    HW124533   3.794   4.127   2.158
 7878SOL    HW224534   3.934   4.079   2.090
 7879SOL     OW24535   6.928   1.560   5.079
 7879SOL    HW124536   6.858   1.567   5.150
 7879SOL    HW224537   0.001   1.584   5.118
 7880SOL     OW24538   1.806   6.278   6.605
 7880SOL    HW124539   1.818   6.293   6.704
 7880SOL    HW224540   1.771   6.186   6.590
 7881SOL     OW24541   0.227   4.786   5.557
 7881SOL    HW124542   0.167   4.778   5.636
 7881SOL    HW224543   0.249   4.882   5.541
 7882SOL     OW24544   1.672   4.981   0.333
 7882SOL    HW124545   1.674   4.884   0.355
 7882SOL    HW224546   1.578   5.009   0.314
 7883SOL     OW24547   2.684   2.346   2.457
 7883SOL    HW124548   2.746   2.319   2.383
 7883SOL    HW224549   2.619   2.414   2.423
 7884SOL     OW24550   0.143   2.063   5.549
 7884SOL    HW124551   0.117   2.068   5.646
 7884SOL    HW224552   0.215   2.129   5.530
 7885SOL     OW24553   5.168   4.862   2.420
 7885SOL    HW124554   5.254   4.903   2.451
 7885SOL    HW224555   5.148   4.892   2.327
 7886SOL     OW24556   3.453   5.172   3.109
 7886SOL    HW124557   3.370   5.168   3.053
 7886SOL    HW224558   3.503   5.085   3.102
 7887SOL     OW24559   0.709   3.420   0.467
 7887SOL    HW124560   0.747   3.367   0.392
 7887SOL    HW224561   0.666   3.503   0.432
 7888SOL     OW24562   0.507   1.624   5.113
 7888SOL    HW124563   0.540   1.579   5.196
 7888SOL    HW224564   0.578   1.620   5.043
 7889SOL     OW24565   6.019   4.599   0.431
 7889SOL    HW124566   5.987   4.531   0.365
 7889SOL    HW224567   6.032   4.687   0.385
 7890SOL     OW24568   1.407   2.672   1.606
 7890SOL    HW124569   1.465   2.590   1.605
 7890SOL    HW224570   1.357   2.676   1.693
 7891SOL     OW24571   6.166   0.935   4.661
 7891SOL    HW124572   6.101   0.892   4.724
 7891SOL    HW224573   6.116   0.968   4.580
 7892SOL     OW24574   0.922   1.569   4.355
 7892SOL    HW124575   0.828   1.566   4.320
 7892SOL    HW224576   0.953   1.664   4.358
 7893SOL     OW24577   5.762   6.243   0.854
 7893SOL    HW124578   5.813   6.257   0.939
 7893SOL    HW224579   5.676   6.294   0.859
 7894SOL     OW24580   2.947   0.132   6.563
 7894SOL    HW124581   2.887   0.118   6.484
 7894SOL    HW224582   2.913   0.208   6.617
 7895SOL     OW24583   5.102   6.637   2.482
 7895SOL    HW124584   5.025   6.689   2.519
 7895SOL    HW224585   5.166   6.615   2.556
 7896SOL     OW24586   3.704   1.961   1.090
 7896SOL    HW124587   3.703   2.056   1.059
 7896SOL    HW224588   3.693   1.958   1.189
 7897SOL     OW24589   5.002   0.733   1.351
 7897SOL    HW124590   4.921   0.703   1.402
 7897SOL    HW224591   5.080   0.675   1.374
 7898SOL     OW24592   3.893   6.593   3.132
 7898SOL    HW124593   3.880   6.525   3.204
 7898SOL    HW224594   3.900   6.684   3.172
 7899SOL     OW24595   5.811   4.573   2.793
 7899SOL    HW124596   5.791   4.530   2.705
 7899SOL    HW224597   5.903   4.549   2.822
 7900SOL     OW24598   0.299   3.962   0.778
 7900SOL    HW124599   0.374   4.005   0.728
 7900SOL    HW224600   0.215   3.968   0.726
 7901SOL     OW24601   6.940   2.557   6.249
 7901SOL    HW124602   6.877   2.631   6.227
 7901SOL    HW224603   6.889   2.471   6.258
 7902SOL     OW24604   1.584   0.121   1.072
 7902SOL    HW124605   1.553   0.152   1.162
 7902SOL    HW224606   1.527   0.163   1.001
 7903SOL     OW24607   3.452   2.303   5.572
 7903SOL    HW124608   3.412   2.300   5.480
 7903SOL    HW224609   3.549   2.277   5.567
 7904SOL     OW24610   5.166   3.144   2.906
 7904SOL    HW124611   5.080   3.097   2.889
 7904SOL    HW224612   5.225   3.135   2.826
 7905SOL     OW24613   6.065   1.895   1.063
 7905SOL    HW124614   6.059   1.813   1.006
 7905SOL    HW224615   6.012   1.968   1.022
 7906SOL     OW24616   6.767   5.898   5.769
 7906SOL    HW124617   6.837   5.917   5.838
 7906SOL    HW224618   6.795   5.819   5.714
 7907SOL     OW24619   5.237   5.523   2.940
 7907SOL    HW124620   5.202   5.512   3.033
 7907SOL    HW224621   5.259   5.433   2.902
 7908SOL     OW24622   1.656   6.994   6.167
 7908SOL    HW124623   1.674   0.061   6.220
 7908SOL    HW224624   1.650   6.916   6.229
 7909SOL     OW24625   6.573   4.422   2.926
 7909SOL    HW124626   6.642   4.353   2.948
 7909SOL    HW224627   6.515   4.388   2.852
 7910SOL     OW24628   1.283   4.341   4.738
 7910SOL    HW124629   1.338   4.388   4.669
 7910SOL    HW224630   1.268   4.246   4.709
 7911SOL     OW24631   6.104   3.832   6.485
 7911SOL    HW124632   6.160   3.895   6.539
 7911SOL    HW224633   6.151   3.745   6.476
 7912SOL     OW24634   5.659   5.820   1.818
 7912SOL    HW124635   5.698   5.781   1.734
 7912SOL    HW224636   5.561   5.837   1.804
 7913SOL     OW24637   1.322   3.988   6.636
 7913SOL    HW124638   1.368   4.070   6.602
 7913SOL    HW224639   1.258   4.013   6.708
 7914SOL     OW24640   1.343   0.404   4.898
 7914SOL    HW124641   1.262   0.427   4.843
 7914SOL    HW224642   1.338   0.452   4.986
 7915SOL     OW24643   2.978   6.374   1.648
 7915SOL    HW124644   3.047   6.424   1.701
 7915SOL    HW224645   2.925   6.439   1.593
 7916SOL     OW24646   1.872   0.479   3.251
 7916SOL    HW124647   1.896   0.382   3.253
 7916SOL    HW224648   1.871   0.511   3.156
 7917SOL     OW24649   4.788   1.708   2.986
 7917SOL    HW124650   4.887   1.700   2.982
 7917SOL    HW224651   4.758   1.790   2.937
 7918SOL     OW24652   1.398   2.672   2.658
 7918SOL    HW124653   1.427   2.689   2.564
 7918SOL    HW224654   1.425   2.580   2.685
 7919SOL     OW24655   1.058   0.457   4.793
 7919SOL    HW124656   1.091   0.498   4.708
 7919SOL    HW224657   0.992   0.385   4.772
 7920SOL     OW24658   5.116   6.958   1.132
 7920SOL    HW124659   5.090   0.035   1.110
 7920SOL    HW224660   5.213   6.944   1.109
 7921SOL     OW24661   6.533   3.459   0.802
 7921SOL    HW124662   6.445   3.415   0.817
 7921SOL    HW224663   6.575   3.422   0.719
 7922SOL     OW24664   1.934   6.320   3.340
 7922SOL    HW124665   2.005   6.313   3.411
 7922SOL    HW224666   1.869   6.245   3.351
 7923SOL     OW24667   5.046   0.813   0.628
 7923SOL    HW124668   5.031   0.723   0.588
 7923SOL    HW224669   5.065   0.804   0.726
 7924SOL     OW24670   5.573   5.967   0.045
 7924SOL    HW124671   5.577   5.908   0.126
 7924SOL    HW224672   5.590   6.061   0.072
 7925SOL     OW24673   2.542   4.530   6.184
 7925SOL    HW124674   2.567   4.582   6.102
 7925SOL    HW224675   2.549   4.589   6.264
 7926SOL     OW24676   4.561   5.550   0.293
 7926SOL    HW124677   4.539   5.560   0.196
 7926SOL    HW224678   4.660   5.559   0.305
 7927SOL     OW24679   5.047   6.817   3.825
 7927SOL    HW124680   4.981   6.821   3.900
 7927SOL    HW224681   5.033   6.732   3.773
 7928SOL     OW24682   5.975   2.553   4.168
 7928SOL    HW124683   5.900   2.501   4.209
 7928SOL    HW224684   5.996   2.632   4.225
 7929SOL     OW24685   4.496   3.988   5.564
 7929SOL    HW124686   4.404   4.015   5.591
 7929SOL    HW224687   4.499   3.889   5.549
 7930SOL     OW24688   3.906   5.674   1.177
 7930SOL    HW124689   3.911   5.774   1.166
 7930SOL    HW224690   3.828   5.639   1.126
 7931SOL     OW24691   5.336   0.678   0.194
 7931SOL    HW124692   5.332   0.704   0.290
 7931SOL    HW224693   5.249   0.638   0.166
 7932SOL     OW24694   1.098   3.832   0.646
 7932SOL    HW124695   1.084   3.735   0.624
 7932SOL    HW224696   1.134   3.879   0.566
 7933SOL     OW24697   1.776   0.954   6.766
 7933SOL    HW124698   1.854   0.891   6.764
 7933SOL    HW224699   1.792   1.025   6.835
 7934SOL     OW24700   6.410   5.452   0.846
 7934SOL    HW124701   6.348   5.379   0.816
 7934SOL    HW224702   6.441   5.434   0.939
 7935SOL     OW24703   6.187   3.855   3.614
 7935SOL    HW124704   6.197   3.782   3.681
 7935SOL    HW224705   6.190   3.943   3.661
 7936SOL     OW24706   2.512   5.696   3.568
 7936SOL    HW124707   2.486   5.792   3.574
 7936SOL    HW224708   2.463   5.653   3.493
 7937SOL     OW24709   3.651   1.166   1.384
 7937SOL    HW124710   3.641   1.257   1.345
 7937SOL    HW224711   3.569   1.112   1.365
 7938SOL     OW24712   1.908   6.990   3.114
 7938SOL    HW124713   1.947   6.924   3.178
 7938SOL    HW224714   1.825   6.952   3.073
 7939SOL     OW24715   1.817   0.247   3.506
 7939SOL    HW124716   1.791   0.159   3.545
 7939SOL    HW224717   1.875   0.232   3.426
 7940SOL     OW24718   6.736   1.310   5.481
 7940SOL    HW124719   6.706   1.278   5.391
 7940SOL    HW224720   6.830   1.343   5.475
 7941SOL     OW24721   2.712   0.303   1.081
 7941SOL    HW124722   2.739   0.209   1.099
 7941SOL    HW224723   2.640   0.304   1.011
 7942SOL     OW24724   1.604   3.702   1.489
 7942SOL    HW124725   1.609   3.660   1.580
 7942SOL    HW224726   1.676   3.665   1.431
 7943SOL     OW24727   1.702   5.671   0.015
 7943SOL    HW124728   1.686   5.721   6.946
 7943SOL    HW224729   1.720   5.575   7.011
 7944SOL     OW24730   1.537   1.980   0.449
 7944SOL    HW124731   1.485   2.030   0.518
 7944SOL    HW224732   1.477   1.916   0.401
 7945SOL     OW24733   6.220   4.629   3.999
 7945SOL    HW124734   6.155   4.553   4.008
 7945SOL    HW224735   6.171   4.711   3.970
 7946SOL     OW24736   5.139   1.508   5.683
 7946SOL    HW124737   5.130   1.523   5.782
 7946SOL    HW224738   5.228   1.543   5.652
 7947SOL     OW24739   0.881   3.953   0.101
 7947SOL    HW124740   0.801   4.010   0.081
 7947SOL    HW224741   0.864   3.898   0.182
 7948SOL     OW24742   1.093   5.795   1.251
 7948SOL    HW124743   1.154   5.716   1.256
 7948SOL    HW224744   1.092   5.842   1.339
 7949SOL     OW24745   3.813   5.580   4.749
 7949SOL    HW124746   3.843   5.568   4.844
 7949SOL    HW224747   3.792   5.676   4.733
 7950SOL     OW24748   6.757   2.458   5.945
 7950SOL    HW124749   6.686   2.503   5.890
 7950SOL    HW224750   6.821   2.411   5.884
 7951SOL     OW24751   3.149   0.513   3.054
 7951SOL    HW124752   3.122   0.432   3.002
 7951SOL    HW224753   3.248   0.518   3.058
 7952SOL     OW24754   0.334   3.439   5.609
 7952SOL    HW124755   0.373   3.348   5.620
 7952SOL    HW224756   0.361   3.497   5.685
 7953SOL     OW24757   0.696   0.816   0.243
 7953SOL    HW124758   0.730   0.879   0.173
 7953SOL    HW224759   0.660   0.734   0.199
 7954SOL     OW24760   3.783   2.644   1.147
 7954SOL    HW124761   3.703   2.678   1.098
 7954SOL    HW224762   3.757   2.620   1.241
 7955SOL     OW24763   6.498   0.301   6.313
 7955SOL    HW124764   6.473   0.242   6.389
 7955SOL    HW224765   6.444   0.276   6.232
 7956SOL     OW24766   0.279   6.922   1.187
 7956SOL    HW124767   0.317   6.908   1.278
 7956SOL    HW224768   0.185   6.956   1.194
 7957SOL     OW24769   6.215   1.855   6.243
 7957SOL    HW124770   6.301   1.906   6.231
 7957SOL    HW224771   6.175   1.836   6.154
 7958SOL     OW24772   4.966   2.647   6.696
 7958SOL    HW124773   4.989   2.731   6.646
 7958SOL    HW224774   4.867   2.644   6.711
 7959SOL     OW24775   5.579   2.853   6.899
 7959SOL    HW124776   5.538   2.781   6.843
 7959SOL    HW224777   5.510   2.920   6.926
 7960SOL     OW24778   0.893   2.441   5.165
 7960SOL    HW124779   0.963   2.513   5.162
 7960SOL    HW224780   0.872   2.411   5.072
 7961SOL     OW24781   5.933   0.038   6.055
 7961SOL    HW124782   5.963   0.066   5.964
 7961SOL    HW224783   5.960   0.108   6.122
 7962SOL     OW24784   5.569   0.434   4.731
 7962SOL    HW124785   5.509   0.360   4.700
 7962SOL    HW224786   5.651   0.435   4.674
 7963SOL     OW24787   5.705   5.898   2.287
 7963SOL    HW124788   5.741   5.903   2.194
 7963SOL    HW224789   5.710   5.989   2.330
 7964SOL     OW24790   0.826   4.390   1.861
 7964SOL    HW124791   0.825   4.408   1.959
 7964SOL    HW224792   0.860   4.471   1.813
 7965SOL     OW24793   4.432   1.798   6.377
 7965SOL    HW124794   4.343   1.757   6.355
 7965SOL    HW224795   4.504   1.753   6.324
 7966SOL     OW24796   5.558   3.654   5.461
 7966SOL    HW124797   5.622   3.592   5.507
 7966SOL    HW224798   5.520   3.718   5.528
 7967SOL     OW24799   2.193   4.095   1.475
 7967SOL    HW124800   2.264   4.045   1.526
 7967SOL    HW224801   2.103   4.068   1.508
 7968SOL     OW24802   1.813   2.217   3.451
 7968SOL    HW124803   1.789   2.314   3.454
 7968SOL    HW224804   1.778   2.176   3.367
 7969SOL     OW24805   2.830   4.320   6.340
 7969SOL    HW124806   2.839   4.293   6.244
 7969SOL    HW224807   2.734   4.316   6.367
 7970SOL     OW24808   6.550   2.645   2.922
 7970SOL    HW124809   6.492   2.652   2.841
 7970SOL    HW224810   6.646   2.654   2.895
 7971SOL     OW24811   2.566   0.375   6.770
 7971SOL    HW124812   2.482   0.428   6.759
 7971SOL    HW224813   2.629   0.424   6.830
 7972SOL     OW24814   3.768   2.963   4.083
 7972SOL    HW124815   3.803   2.872   4.060
 7972SOL    HW224816   3.702   2.955   4.158
 7973SOL     OW24817   0.787   5.556   2.311
 7973SOL    HW124818   0.780   5.571   2.212
 7973SOL    HW224819   0.735   5.475   2.336
 7974SOL     OW24820   6.991   2.976   4.019
 7974SOL    HW124821   6.892   2.968   4.003
 7974SOL    HW224822   0.014   2.885   4.029
 7975SOL     OW24823   4.133   0.695   6.303
 7975SOL    HW124824   4.115   0.793   6.316
 7975SOL    HW224825   4.223   0.672   6.339
 7976SOL     OW24826   0.202   0.441   1.006
 7976SOL    HW124827   0.264   0.382   0.953
 7976SOL    HW224828   0.216   0.536   0.980
 7977SOL     OW24829   5.266   4.928   2.877
 7977SOL    HW124830   5.277   4.844   2.824
 7977SOL    HW224831   5.295   4.912   2.972
 7978SOL     OW24832   0.197   4.092   1.465
 7978SOL    HW124833   0.239   4.028   1.528
 7978SOL    HW224834   0.226   4.072   1.371
 7979SOL     OW24835   3.845   2.658   5.814
 7979SOL    HW124836   3.941   2.639   5.795
 7979SOL    HW224837   3.797   2.678   5.729
 7980SOL     OW24838   3.962   5.981   2.689
 7980SOL    HW124839   4.028   6.050   2.717
 7980SOL    HW224840   4.008   5.892   2.685
 7981SOL     OW24841   0.604   3.010   3.720
 7981SOL    HW124842   0.698   3.045   3.725
 7981SOL    HW224843   0.543   3.083   3.690
 7982SOL     OW24844   6.621   6.713   0.497
 7982SOL    HW124845   6.626   6.812   0.510
 7982SOL    HW224846   6.707   6.680   0.458
 7983SOL     OW24847   3.706   1.636   1.164
 7983SOL    HW124848   3.615   1.672   1.142
 7983SOL    HW224849   3.751   1.697   1.230
 7984SOL     OW24850   6.245   1.989   2.120
 7984SOL    HW124851   6.336   1.952   2.141
 7984SOL    HW224852   6.182   1.966   2.194
 7985SOL     OW24853   3.104   3.835   5.909
 7985SOL    HW124854   3.132   3.741   5.931
 7985SOL    HW224855   3.016   3.854   5.953
 7986SOL     OW24856   1.968   1.067   3.598
 7986SOL    HW124857   1.888   1.018   3.567
 7986SOL    HW224858   2.019   1.011   3.663
 7987SOL     OW24859   1.148   2.856   6.553
 7987SOL    HW124860   1.245   2.873   6.566
 7987SOL    HW224861   1.123   2.767   6.590
 7988SOL     OW24862   6.073   0.117   1.596
 7988SOL    HW124863   6.023   0.112   1.683
 7988SOL    HW224864   6.160   0.068   1.605
 7989SOL     OW24865   0.631   4.672   1.705
 7989SOL    HW124866   0.562   4.617   1.752
 7989SOL    HW224867   0.647   4.757   1.757
 7990SOL     OW24868   4.334   5.184   5.479
 7990SOL    HW124869   4.424   5.141   5.468
 7990SOL    HW224870   4.326   5.220   5.572
 7991SOL     OW24871   5.343   0.904   4.256
 7991SOL    HW124872   5.253   0.874   4.290
 7991SOL    HW224873   5.339   0.916   4.157
 7992SOL     OW24874   2.917   0.861   0.256
 7992SOL    HW124875   2.835   0.858   0.314
 7992SOL    HW224876   2.969   0.777   0.268
 7993SOL     OW24877   6.337   4.848   1.031
 7993SOL    HW124878   6.400   4.898   1.090
 7993SOL    HW224879   6.244   4.853   1.069
 7994SOL     OW24880   0.785   1.496   5.174
 7994SOL    HW124881   0.748   1.536   5.089
 7994SOL    HW224882   0.863   1.550   5.205
 7995SOL     OW24883   0.223   5.860   0.412
 7995SOL    HW124884   0.287   5.787   0.390
 7995SOL    HW224885   0.187   5.847   0.505
 7996SOL     OW24886   1.580   6.249   4.037
 7996SOL    HW124887   1.552   6.262   4.132
 7996SOL    HW224888   1.568   6.153   4.012
 7997SOL     OW24889   2.598   0.582   5.899
 7997SOL    HW124890   2.664   0.538   5.960
 7997SOL    HW224891   2.506   0.551   5.922
 7998SOL     OW24892   1.890   2.135   1.447
 7998SOL    HW124893   1.795   2.111   1.469
 7998SOL    HW224894   1.930   2.185   1.525
 7999SOL     OW24895   0.140   0.848   2.341
 7999SOL    HW124896   0.074   0.776   2.363
 7999SOL    HW224897   0.197   0.818   2.265
 8000SOL     OW24898   4.518   6.088   0.837
 8000SOL    HW124899   4.518   6.016   0.768
 8000SOL    HW224900   4.492   6.050   0.926
 8001SOL     OW24901   4.821   4.641   2.273
 8001SOL    HW124902   4.734   4.691   2.274
 8001SOL    HW224903   4.832   4.593   2.360
 8002SOL     OW24904   1.307   0.578   5.113
 8002SOL    HW124905   1.399   0.550   5.139
 8002SOL    HW224906   1.303   0.678   5.105
 8003SOL     OW24907   2.361   5.410   2.854
 8003SOL    HW124908   2.448   5.452   2.877
 8003SOL    HW224909   2.288   5.449   2.910
 8004SOL     OW24910   2.102   3.756   3.700
 8004SOL    HW124911   2.072   3.728   3.609
 8004SOL    HW224912   2.133   3.851   3.696
 8005SOL     OW24913   2.925   0.098   4.582
 8005SOL    HW124914   2.971   0.090   4.671
 8005SOL    HW224915   2.918   0.194   4.557
 8006SOL     OW24916   4.313   5.477   6.313
 8006SOL    HW124917   4.273   5.404   6.257
 8006SOL    HW224918   4.409   5.455   6.332
 8007SOL     OW24919   0.097   0.289   1.350
 8007SOL    HW124920   0.154   0.259   1.273
 8007SOL    HW224921   0.146   0.360   1.402
 8008SOL     OW24922   5.281   5.568   1.506
 8008SOL    HW124923   5.238   5.480   1.485
 8008SOL    HW224924   5.380   5.556   1.516
 8009SOL     OW24925   6.210   0.205   1.138
 8009SOL    HW124926   6.282   0.267   1.169
 8009SOL    HW224927   6.129   0.216   1.196
 8010SOL     OW24928   2.932   0.407   0.397
 8010SOL    HW124929   2.920   0.351   0.479
 8010SOL    HW224930   2.843   0.425   0.355
 8011SOL     OW24931   3.596   1.797   1.761
 8011SOL    HW124932   3.695   1.807   1.756
 8011SOL    HW224933   3.555   1.879   1.801
 8012SOL     OW24934   6.134   0.709   5.480
 8012SOL    HW124935   6.159   0.623   5.436
 8012SOL    HW224936   6.069   0.691   5.554
 8013SOL     OW24937   3.374   0.183   3.768
 8013SOL    HW124938   3.467   0.146   3.771
 8013SOL    HW224939   3.347   0.198   3.673
 8014SOL     OW24940   1.938   2.565   3.722
 8014SOL    HW124941   1.921   2.590   3.818
 8014SOL    HW224942   1.854   2.578   3.669
 8015SOL     OW24943   3.908   5.815   5.064
 8015SOL    HW124944   3.864   5.729   5.090
 8015SOL    HW224945   3.991   5.795   5.012
 8016SOL     OW24946   2.946   3.555   5.586
 8016SOL    HW124947   2.925   3.649   5.558
 8016SOL    HW224948   2.926   3.493   5.511
 8017SOL     OW24949   5.243   6.269   1.747
 8017SOL    HW124950   5.304   6.297   1.673
 8017SOL    HW224951   5.149   6.292   1.723
 8018SOL     OW24952   3.539   2.642   1.002
 8018SOL    HW124953   3.492   2.650   1.090
 8018SOL    HW224954   3.480   2.593   0.938
 8019SOL     OW24955   2.849   3.561   0.910
 8019SOL    HW124956   2.788   3.496   0.956
 8019SOL    HW224957   2.857   3.536   0.814
 8020SOL     OW24958   1.148   0.148   0.370
 8020SOL    HW124959   1.081   0.137   0.296
 8020SOL    HW224960   1.175   0.057   0.404
 8021SOL     OW24961   1.378   2.245   0.362
 8021SOL    HW124962   1.442   2.283   0.429
 8021SOL    HW224963   1.426   2.228   0.276
 8022SOL     OW24964   3.804   0.351   2.604
 8022SOL    HW124965   3.794   0.257   2.638
 8022SOL    HW224966   3.780   0.355   2.508
 8023SOL     OW24967   3.539   5.129   2.400
 8023SOL    HW124968   3.440   5.135   2.407
 8023SOL    HW224969   3.573   5.203   2.342
 8024SOL     OW24970   2.971   0.533   6.574
 8024SOL    HW124971   2.994   0.630   6.562
 8024SOL    HW224972   2.874   0.525   6.600
 8025SOL     OW24973   1.158   6.788   1.679
 8025SOL    HW124974   1.085   6.720   1.669
 8025SOL    HW224975   1.225   6.755   1.746
 8026SOL     OW24976   0.563   6.498   5.187
 8026SOL    HW124977   0.661   6.510   5.201
 8026SOL    HW224978   0.524   6.446   5.264
 8027SOL     OW24979   3.995   6.842   6.395
 8027SOL    HW124980   3.926   6.883   6.335
 8027SOL    HW224981   4.016   6.904   6.470
 8028SOL     OW24982   3.533   5.819   6.565
 8028SOL    HW124983   3.441   5.827   6.527
 8028SOL    HW224984   3.543   5.730   6.610
 8029SOL     OW24985   1.576   6.680   1.445
 8029SOL    HW124986   1.630   6.718   1.370
 8029SOL    HW224987   1.504   6.621   1.408
 8030SOL     OW24988   0.552   3.587   0.986
 8030SOL    HW124989   0.545   3.686   0.994
 8030SOL    HW224990   0.493   3.543   1.053
 8031SOL     OW24991   0.553   1.060   3.739
 8031SOL    HW124992   0.480   1.005   3.779
 8031SOL    HW224993   0.619   1.001   3.693
 8032SOL     OW24994   0.639   3.472   1.984
 8032SOL    HW124995   0.710   3.402   1.979
 8032SOL    HW224996   0.562   3.437   2.036
 8033SOL     OW24997   3.933   5.369   0.568
 8033SOL    HW124998   3.886   5.366   0.656
 8033SOL    HW224999   3.883   5.312   0.502
 8034SOL     OW25000   0.927   1.510   4.802
 8034SOL    HW125001   0.941   1.412   4.813
 8034SOL    HW225002   1.005   1.559   4.840
 8035SOL     OW25003   5.669   0.408   4.217
 8035SOL    HW125004   5.604   0.484   4.218
 8035SOL    HW225005   5.619   0.322   4.219
 8036SOL     OW25006   5.366   4.954   5.180
 8036SOL    HW125007   5.295   5.015   5.144
 8036SOL    HW225008   5.455   4.997   5.170
 8037SOL     OW25009   3.448   1.099   6.476
 8037SOL    HW125010   3.419   1.006   6.502
 8037SOL    HW225011   3.503   1.094   6.392
 8038SOL     OW25012   5.384   5.906   1.732
 8038SOL    HW125013   5.314   5.836   1.717
 8038SOL    HW225014   5.357   5.964   1.808
 8039SOL     OW25015   1.670   2.827   5.020
 8039SOL    HW125016   1.656   2.737   5.061
 8039SOL    HW225017   1.671   2.818   4.920
 8040SOL     OW25018   0.577   6.933   5.316
 8040SOL    HW125019   0.584   6.899   5.410
 8040SOL    HW225020   0.625   0.004   5.309
 8041SOL     OW25021   2.872   1.748   2.851
 8041SOL    HW125022   2.887   1.817   2.781
 8041SOL    HW225023   2.774   1.738   2.868
 8042SOL     OW25024   4.738   4.322   6.255
 8042SOL    HW125025   4.807   4.250   6.248
 8042SOL    HW225026   4.674   4.315   6.178
 8043SOL     OW25027   5.751   5.261   6.958
 8043SOL    HW125028   5.847   5.233   6.947
 8043SOL    HW225029   5.693   5.199   6.905
 8044SOL     OW25030   0.860   3.001   1.163
 8044SOL    HW125031   0.845   2.934   1.091
 8044SOL    HW225032   0.923   2.964   1.231
 8045SOL     OW25033   5.703   3.179   5.188
 8045SOL    HW125034   5.785   3.200   5.242
 8045SOL    HW225035   5.691   3.249   5.117
 8046SOL     OW25036   7.002   4.241   1.512
 8046SOL    HW125037   0.060   4.175   1.503
 8046SOL    HW225038   7.014   4.291   1.598
 8047SOL     OW25039   2.695   6.421   6.933
 8047SOL    HW125040   2.638   6.402   7.013
 8047SOL    HW225041   2.787   6.385   6.948
 8048SOL     OW25042   4.845   1.811   6.931
 8048SOL    HW125043   4.901   1.810   6.848
 8048SOL    HW225044   4.782   1.734   6.930
 8049SOL     OW25045   2.657   1.583   0.853
 8049SOL    HW125046   2.685   1.562   0.760
 8049SOL    HW225047   2.705   1.665   0.885
 8050SOL     OW25048   6.869   4.720   6.005
 8050SOL    HW125049   6.931   4.737   6.082
 8050SOL    HW225050   6.786   4.774   6.018
 8051SOL     OW25051   3.990   6.738   3.372
 8051SOL    HW125052   3.937   6.805   3.320
 8051SOL    HW225053   4.068   6.707   3.316
 8052SOL     OW25054   1.984   1.603   3.175
 8052SOL    HW125055   2.008   1.699   3.189
 8052SOL    HW225056   1.933   1.593   3.089
 8053SOL     OW25057   2.016   1.130   6.326
 8053SOL    HW125058   1.918   1.145   6.309
 8053SOL    HW225059   2.046   1.050   6.275
 8054SOL     OW25060   4.877   3.841   4.874
 8054SOL    HW125061   4.826   3.762   4.908
 8054SOL    HW225062   4.848   3.923   4.923
 8055SOL     OW25063   0.029   1.132   6.436
 8055SOL    HW125064   6.984   1.087   6.371
 8055SOL    HW225065   0.012   1.097   6.528
 8056SOL     OW25066   1.736   2.596   2.834
 8056SOL    HW125067   1.833   2.588   2.855
 8056SOL    HW225068   1.684   2.610   2.918
 8057SOL     OW25069   2.819   1.849   1.845
 8057SOL    HW125070   2.868   1.916   1.901
 8057SOL    HW225071   2.858   1.846   1.754
 8058SOL     OW25072   3.333   5.970   2.011
 8058SOL    HW125073   3.392   5.962   2.091
 8058SOL    HW225074   3.376   6.033   1.945
 8059SOL     OW25075   4.515   4.244   5.329
 8059SOL    HW125076   4.598   4.223   5.380
 8059SOL    HW225077   4.440   4.187   5.363
 8060SOL     OW25078   0.536   1.147   4.751
 8060SOL    HW125079   0.517   1.206   4.673
 8060SOL    HW225080   0.635   1.137   4.762
 8061SOL     OW25081   6.751   0.756   0.768
 8061SOL    HW125082   6.844   0.740   0.801
 8061SOL    HW225083   6.729   0.853   0.779
 8062SOL     OW25084   4.833   4.543   6.698
 8062SOL    HW125085   4.748   4.538   6.646
 8062SOL    HW225086   4.896   4.473   6.664
 8063SOL     OW25087   2.410   4.615   2.001
 8063SOL    HW125088   2.463   4.576   1.925
 8063SOL    HW225089   2.456   4.698   2.033
 8064SOL     OW25090   6.930   2.368   0.284
 8064SOL    HW125091   6.928   2.294   0.352
 8064SOL    HW225092   6.995   2.344   0.212
 8065SOL     OW25093   4.888   0.333   6.595
 8065SOL    HW125094   4.795   0.301   6.611
 8065SOL    HW225095   4.894   0.431   6.613
 8066SOL     OW25096   6.494   0.841   5.515
 8066SOL    HW125097   6.556   0.911   5.551
 8066SOL    HW225098   6.411   0.884   5.480
 8067SOL     OW25099   5.654   0.690   4.509
 8067SOL    HW125100   5.635   0.695   4.411
 8067SOL    HW225101   5.574   0.654   4.557
 8068SOL     OW25102   0.144   3.968   1.028
 8068SOL    HW125103   0.131   3.874   1.059
 8068SOL    HW225104   0.169   3.969   0.931
 8069SOL     OW25105   0.813   3.030   2.062
 8069SOL    HW125106   0.785   2.969   2.136
 8069SOL    HW225107   0.797   2.986   1.974
 8070SOL     OW25108   5.508   3.865   1.522
 8070SOL    HW125109   5.528   3.840   1.427
 8070SOL    HW225110   5.409   3.862   1.537
 8071SOL     OW25111   1.755   0.261   6.129
 8071SOL    HW125112   1.819   0.244   6.054
 8071SOL    HW225113   1.670   0.299   6.092
 8072SOL     OW25114   2.675   1.658   5.331
 8072SOL    HW125115   2.656   1.736   5.272
 8072SOL    HW225116   2.766   1.667   5.371
 8073SOL     OW25117   5.600   6.212   0.156
 8073SOL    HW125118   5.665   6.262   0.213
 8073SOL    HW225119   5.552   6.275   0.095
 8074SOL     OW25120   6.476   0.432   0.751
 8074SOL    HW125121   6.424   0.361   0.799
 8074SOL    HW225122   6.573   0.423   0.773
 8075SOL     OW25123   0.036   6.627   1.300
 8075SOL    HW125124   0.027   6.715   1.253
 8075SOL    HW225125   0.050   6.642   1.398
 8076SOL     OW25126   6.697   6.000   0.681
 8076SOL    HW125127   6.695   5.904   0.706
 8076SOL    HW225128   6.775   6.017   0.620
 8077SOL     OW25129   6.230   4.392   1.256
 8077SOL    HW125130   6.214   4.298   1.287
 8077SOL    HW225131   6.186   4.406   1.167
 8078SOL     OW25132   5.483   1.657   1.484
 8078SOL    HW125133   5.570   1.610   1.500
 8078SOL    HW225134   5.501   1.751   1.453
 8079SOL     OW25135   6.991   0.765   6.332
 8079SOL    HW125136   6.973   0.701   6.408
 8079SOL    HW225137   6.941   0.850   6.348
 8080SOL     OW25138   6.749   3.638   3.423
 8080SOL    HW125139   6.668   3.588   3.451
 8080SOL    HW225140   6.803   3.582   3.360
 8081SOL     OW25141   5.786   0.680   5.257
 8081SOL    HW125142   5.707   0.710   5.202
 8081SOL    HW225143   5.763   0.597   5.307
 8082SOL     OW25144   4.665   2.228   4.521
 8082SOL    HW125145   4.758   2.235   4.557
 8082SOL    HW225146   4.669   2.221   4.421
 8083SOL     OW25147   6.743   2.849   3.886
 8083SOL    HW125148   6.742   2.749   3.890
 8083SOL    HW225149   6.820   2.879   3.829
 8084SOL     OW25150   5.720   1.434   6.943
 8084SOL    HW125151   5.789   1.365   6.968
 8084SOL    HW225152   5.634   1.412   6.989
 8085SOL     OW25153   1.578   5.931   4.108
 8085SOL    HW125154   1.665   5.942   4.059
 8085SOL    HW225155   1.502   5.937   4.043
 8086SOL     OW25156   0.158   1.965   2.046
 8086SOL    HW125157   0.075   1.932   2.001
 8086SOL    HW225158   0.154   1.944   2.144
 8087SOL     OW25159   5.955   1.037   6.336
 8087SOL    HW125160   5.909   1.108   6.282
 8087SOL    HW225161   5.959   0.952   6.284
 8088SOL     OW25162   6.080   6.978   5.617
 8088SOL    HW125163   6.069   6.944   5.523
 8088SOL    HW225164   6.129   6.910   5.672
 8089SOL     OW25165   0.065   0.425   0.299
 8089SOL    HW125166   0.075   0.509   0.247
 8089SOL    HW225167   0.127   0.356   0.262
 8090SOL     OW25168   4.168   2.233   4.526
 8090SOL    HW125169   4.147   2.169   4.452
 8090SOL    HW225170   4.166   2.184   4.613
 8091SOL     OW25171   1.236   3.284   5.504
 8091SOL    HW125172   1.152   3.244   5.540
 8091SOL    HW225173   1.295   3.312   5.580
 8092SOL     OW25174   4.461   6.622   5.342
 8092SOL    HW125175   4.445   6.637   5.440
 8092SOL    HW225176   4.490   6.708   5.300
 8093SOL     OW25177   3.896   0.170   3.343
 8093SOL    HW125178   3.854   0.260   3.361
 8093SOL    HW225179   3.831   0.112   3.294
 8094SOL     OW25180   2.430   5.227   3.050
 8094SOL    HW125181   2.519   5.201   3.011
 8094SOL    HW225182   2.370   5.259   2.977
 8095SOL     OW25183   1.068   5.285   5.163
 8095SOL    HW125184   1.003   5.304   5.236
 8095SOL    HW225185   1.154   5.253   5.202
 8096SOL     OW25186   0.860   4.729   0.430
 8096SOL    HW125187   0.781   4.674   0.406
 8096SOL    HW225188   0.834   4.796   0.500
 8097SOL     OW25189   4.613   0.803   0.086
 8097SOL    HW125190   4.705   0.823   0.122
 8097SOL    HW225191   4.547   0.865   0.129
 8098SOL     OW25192   2.818   6.402   5.453
 8098SOL    HW125193   2.818   6.370   5.358
 8098SOL    HW225194   2.742   6.361   5.503
 8099SOL     OW25195   2.079   4.485   3.429
 8099SOL    HW125196   2.009   4.550   3.397
 8099SOL    HW225197   2.155   4.486   3.364
 8100SOL     OW25198   7.008   6.453   0.230
 8100SOL    HW125199   6.934   6.435   0.295
 8100SOL    HW225200   0.072   6.488   0.280
 8101SOL     OW25201   3.008   4.776   6.527
 8101SOL    HW125202   3.032   4.692   6.576
 8101SOL    HW225203   2.974   4.844   6.592
 8102SOL     OW25204   1.189   4.575   3.582
 8102SOL    HW125205   1.101   4.547   3.620
 8102SOL    HW225206   1.176   4.612   3.490
 8103SOL     OW25207   5.288   0.521   1.657
 8103SOL    HW125208   5.205   0.483   1.698
 8103SOL    HW225209   5.352   0.547   1.730
 8104SOL     OW25210   1.402   6.799   0.100
 8104SOL    HW125211   1.499   6.825   0.096
 8104SOL    HW225212   1.368   6.781   0.008
 8105SOL     OW25213   6.756   7.014   2.449
 8105SOL    HW125214   6.678   0.025   2.504
 8105SOL    HW225215   6.741   6.923   2.411
 8106SOL     OW25216   3.760   6.136   0.095
 8106SOL    HW125217   3.834   6.174   0.150
 8106SOL    HW225218   3.756   6.184   0.007
 8107SOL     OW25219   0.580   6.197   0.278
 8107SOL    HW125220   0.490   6.166   0.309
 8107SOL    HW225221   0.570   6.286   0.233
 8108SOL     OW25222   1.692   1.095   1.349
 8108SOL    HW125223   1.726   1.188   1.363
 8108SOL    HW225224   1.769   1.035   1.324
 8109SOL     OW25225   0.427   4.411   2.030
 8109SOL    HW125226   0.429   4.505   2.063
 8109SOL    HW225227   0.391   4.351   2.101
 8110SOL     OW25228   4.954   4.298   6.642
 8110SOL    HW125229   4.869   4.251   6.667
 8110SOL    HW225230   5.002   4.244   6.572
 8111SOL     OW25231   5.286   2.022   2.281
 8111SOL    HW125232   5.280   1.939   2.225
 8111SOL    HW225233   5.380   2.056   2.279
 8112SOL     OW25234   1.858   4.674   6.373
 8112SOL    HW125235   1.773   4.684   6.322
 8112SOL    HW225236   1.908   4.761   6.374
 8113SOL     OW25237   5.522   5.095   6.804
 8113SOL    HW125238   5.481   5.113   6.714
 8113SOL    HW225239   5.537   4.996   6.815
 8114SOL     OW25240   2.045   2.892   3.219
 8114SOL    HW125241   2.024   2.954   3.295
 8114SOL    HW225242   2.124   2.835   3.244
 8115SOL     OW25243   2.703   1.565   6.033
 8115SOL    HW125244   2.630   1.526   6.088
 8115SOL    HW225245   2.690   1.664   6.025
 8116SOL     OW25246   4.046   3.158   1.994
 8116SOL    HW125247   4.086   3.239   2.037
 8116SOL    HW225248   4.115   3.086   1.988
 8117SOL     OW25249   1.176   0.813   3.197
 8117SOL    HW125250   1.238   0.883   3.162
 8117SOL    HW225251   1.082   0.840   3.176
 8118SOL     OW25252   6.358   2.178   6.988
 8118SOL    HW125253   6.307   2.251   6.942
 8118SOL    HW225254   6.346   2.093   6.937
 8119SOL     OW25255   5.534   4.813   6.763
 8119SOL    HW125256   5.577   4.751   6.698
 8119SOL    HW225257   5.445   4.842   6.727
 8120SOL     OW25258   1.861   6.652   2.347
 8120SOL    HW125259   1.930   6.643   2.419
 8120SOL    HW225260   1.893   6.607   2.264
 8121SOL     OW25261   1.369   2.458   3.143
 8121SOL    HW125262   1.438   2.528   3.126
 8121SOL    HW225263   1.330   2.428   3.056
 8122SOL     OW25264   0.361   5.317   0.890
 8122SOL    HW125265   0.288   5.280   0.948
 8122SOL    HW225266   0.329   5.401   0.846
 8123SOL     OW25267   6.363   0.602   6.010
 8123SOL    HW125268   6.296   0.588   5.937
 8123SOL    HW225269   6.447   0.553   5.988
 8124SOL     OW25270   6.259   5.949   6.162
 8124SOL    HW125271   6.160   5.966   6.165
 8124SOL    HW225272   6.275   5.850   6.155
 8125SOL     OW25273   0.620   6.056   1.607
 8125SOL    HW125274   0.609   6.102   1.520
 8125SOL    HW225275   0.655   6.120   1.675
 8126SOL     OW25276   3.351   5.850   4.796
 8126SOL    HW125277   3.373   5.920   4.864
 8126SOL    HW225278   3.435   5.823   4.748
 8127SOL     OW25279   4.481   1.948   5.701
 8127SOL    HW125280   4.385   1.943   5.673
 8127SOL    HW225281   4.494   1.898   5.786
 8128SOL     OW25282   4.192   2.770   0.895
 8128SOL    HW125283   4.141   2.723   0.966
 8128SOL    HW225284   4.155   2.746   0.805
 8129SOL     OW25285   6.217   2.779   3.215
 8129SOL    HW125286   6.156   2.847   3.173
 8129SOL    HW225287   6.306   2.821   3.233
 8130SOL     OW25288   0.239   6.089   6.841
 8130SOL    HW125289   0.175   6.165   6.843
 8130SOL    HW225290   0.194   6.007   6.877
 8131SOL     OW25291   3.014   2.532   0.602
 8131SOL    HW125292   3.111   2.555   0.610
 8131SOL    HW225293   2.999   2.441   0.641
 8132SOL     OW25294   5.933   1.530   4.720
 8132SOL    HW125295   5.946   1.625   4.693
 8132SOL    HW225296   5.920   1.474   4.638
 8133SOL     OW25297   4.062   5.408   1.446
 8133SOL    HW125298   4.066   5.308   1.446
 8133SOL    HW225299   4.045   5.440   1.539
 8134SOL     OW25300   6.540   1.690   6.909
 8134SOL    HW125301   6.591   1.677   6.994
 8134SOL    HW225302   6.575   1.770   6.861
 8135SOL     OW25303   2.562   6.007   1.713
 8135SOL    HW125304   2.573   5.960   1.625
 8135SOL    HW225305   2.646   6.055   1.736
 8136SOL     OW25306   4.222   4.752   2.482
 8136SOL    HW125307   4.206   4.795   2.393
 8136SOL    HW225308   4.312   4.708   2.481
 8137SOL     OW25309   3.602   1.246   5.891
 8137SOL    HW125310   3.581   1.324   5.832
 8137SOL    HW225311   3.609   1.277   5.986
 8138SOL     OW25312   6.418   0.843   2.486
 8138SOL    HW125313   6.425   0.834   2.386
 8138SOL    HW225314   6.509   0.857   2.524
 8139SOL     OW25315   1.097   1.690   4.922
 8139SOL    HW125316   1.196   1.707   4.922
 8139SOL    HW225317   1.049   1.774   4.947
 8140SOL     OW25318   4.534   2.565   3.030
 8140SOL    HW125319   4.602   2.634   3.007
 8140SOL    HW225320   4.530   2.496   2.958
 8141SOL     OW25321   6.221   3.970   3.928
 8141SOL    HW125322   6.216   3.940   4.023
 8141SOL    HW225323   6.251   3.895   3.870
 8142SOL     OW25324   0.297   6.140   0.405
 8142SOL    HW125325   0.250   6.155   0.319
 8142SOL    HW225326   0.256   6.062   0.453
 8143SOL     OW25327   6.747   2.362   6.393
 8143SOL    HW125328   6.754   2.285   6.456
 8143SOL    HW225329   6.687   2.432   6.431
 8144SOL     OW25330   4.428   6.170   0.317
 8144SOL    HW125331   4.438   6.269   0.307
 8144SOL    HW225332   4.504   6.125   0.270
 8145SOL     OW25333   4.395   6.617   4.414
 8145SOL    HW125334   4.459   6.673   4.468
 8145SOL    HW225335   4.385   6.657   4.322
 8146SOL     OW25336   3.172   1.622   2.962
 8146SOL    HW125337   3.156   1.698   2.898
 8146SOL    HW225338   3.197   1.540   2.910
 8147SOL     OW25339   4.904   1.691   3.517
 8147SOL    HW125340   4.810   1.660   3.503
 8147SOL    HW225341   4.939   1.729   3.432
 8148SOL     OW25342   0.863   3.227   3.253
 8148SOL    HW125343   0.853   3.133   3.286
 8148SOL    HW225344   0.960   3.247   3.240
 8149SOL     OW25345   3.984   5.374   4.271
 8149SOL    HW125346   3.885   5.358   4.265
 8149SOL    HW225347   4.033   5.291   4.244
 8150SOL     OW25348   1.258   5.582   0.474
 8150SOL    HW125349   1.240   5.612   0.380
 8150SOL    HW225350   1.283   5.661   0.530
 8151SOL     OW25351   0.933   1.883   5.048
 8151SOL    HW125352   0.856   1.895   4.984
 8151SOL    HW225353   0.991   1.964   5.045
 8152SOL     OW25354   0.424   0.976   3.165
 8152SOL    HW125355   0.373   1.057   3.137
 8152SOL    HW225356   0.504   0.965   3.106
 8153SOL     OW25357   2.086   6.176   6.978
 8153SOL    HW125358   2.125   6.211   6.893
 8153SOL    HW225359   2.110   6.237   0.037
 8154SOL     OW25360   1.902   6.531   3.644
 8154SOL    HW125361   1.870   6.482   3.725
 8154SOL    HW225362   1.831   6.530   3.573
 8155SOL     OW25363   4.021   3.824   4.628
 8155SOL    HW125364   4.010   3.874   4.714
 8155SOL    HW225365   3.936   3.776   4.606
 8156SOL     OW25366   0.829   6.519   5.094
 8156SOL    HW125367   0.870   6.576   5.022
 8156SOL    HW225368   0.870   6.428   5.091
 8157SOL     OW25369   5.699   2.283   6.701
 8157SOL    HW125370   5.743   2.337   6.773
 8157SOL    HW225371   5.626   2.336   6.658
 8158SOL     OW25372   1.262   5.782   2.805
 8158SOL    HW125373   1.270   5.882   2.796
 8158SOL    HW225374   1.218   5.760   2.892
 8159SOL     OW25375   0.200   6.493   0.427
 8159SOL    HW125376   0.194   6.451   0.517
 8159SOL    HW225377   0.285   6.464   0.383
 8160SOL     OW25378   5.570   2.271   1.162
 8160SOL    HW125379   5.592   2.302   1.070
 8160SOL    HW225380   5.470   2.268   1.173
 8161SOL     OW25381   3.933   3.828   1.504
 8161SOL    HW125382   3.928   3.732   1.532
 8161SOL    HW225383   4.023   3.847   1.466
 8162SOL     OW25384   5.985   0.733   0.986
 8162SOL    HW125385   6.050   0.807   0.969
 8162SOL    HW225386   5.943   0.745   1.076
 8163SOL     OW25387   2.490   2.896   5.434
 8163SOL    HW125388   2.475   2.965   5.505
 8163SOL    HW225389   2.466   2.934   5.345
 8164SOL     OW25390   5.632   4.124   1.720
 8164SOL    HW125391   5.624   4.203   1.781
 8164SOL    HW225392   5.717   4.130   1.668
 8165SOL     OW25393   1.449   3.296   1.882
 8165SOL    HW125394   1.542   3.308   1.847
 8165SOL    HW225395   1.404   3.222   1.833
 8166SOL     OW25396   2.567   6.859   2.736
 8166SOL    HW125397   2.581   6.772   2.783
 8166SOL    HW225398   2.630   6.866   2.658
 8167SOL     OW25399   5.407   2.959   4.428
 8167SOL    HW125400   5.313   2.924   4.433
 8167SOL    HW225401   5.411   3.050   4.471
 8168SOL     OW25402   2.828   1.779   2.136
 8168SOL    HW125403   2.767   1.700   2.135
 8168SOL    HW225404   2.775   1.863   2.140
 8169SOL     OW25405   5.442   3.897   5.908
 8169SOL    HW125406   5.504   3.950   5.966
 8169SOL    HW225407   5.351   3.938   5.911
 8170SOL     OW25408   0.504   5.544   4.225
 8170SOL    HW125409   0.407   5.529   4.247
 8170SOL    HW225410   0.521   5.518   4.130
 8171SOL     OW25411   2.065   0.574   6.801
 8171SOL    HW125412   2.053   0.674   6.807
 8171SOL    HW225413   2.003   0.538   6.730
 8172SOL     OW25414   6.895   5.873   2.270
 8172SOL    HW125415   6.878   5.955   2.325
 8172SOL    HW225416   6.907   5.795   2.331
 8173SOL     OW25417   6.778   2.964   6.538
 8173SOL    HW125418   6.690   2.996   6.502
 8173SOL    HW225419   6.782   2.982   6.636
 8174SOL     OW25420   4.804   6.692   2.796
 8174SOL    HW125421   4.833   6.721   2.704
 8174SOL    HW225422   4.726   6.747   2.825
 8175SOL     OW25423   0.953   2.433   3.275
 8175SOL    HW125424   0.969   2.480   3.189
 8175SOL    HW225425   0.896   2.490   3.334
 8176SOL     OW25426   4.547   4.889   3.145
 8176SOL    HW125427   4.628   4.893   3.203
 8176SOL    HW225428   4.511   4.796   3.144
 8177SOL     OW25429   2.383   6.902   6.187
 8177SOL    HW125430   2.316   6.938   6.123
 8177SOL    HW225431   2.335   6.855   6.262
 8178SOL     OW25432   1.840   6.011   6.914
 8178SOL    HW125433   1.871   6.106   6.920
 8178SOL    HW225434   1.844   5.969   7.005
 8179SOL     OW25435   4.220   0.132   5.905
 8179SOL    HW125436   4.200   0.114   5.809
 8179SOL    HW225437   4.159   0.077   5.963
 8180SOL     OW25438   4.717   4.256   4.682
 8180SOL    HW125439   4.705   4.295   4.773
 8180SOL    HW225440   4.724   4.157   4.688
 8181SOL     OW25441   2.171   1.817   2.852
 8181SOL    HW125442   2.161   1.722   2.824
 8181SOL    HW225443   2.156   1.826   2.950
 8182SOL     OW25444   5.690   2.770   5.409
 8182SOL    HW125445   5.606   2.731   5.372
 8182SOL    HW225446   5.699   2.747   5.506
 8183SOL     OW25447   2.099   4.040   3.659
 8183SOL    HW125448   2.111   4.040   3.560
 8183SOL    HW225449   2.007   4.071   3.681
 8184SOL     OW25450   6.368   6.434   4.986
 8184SOL    HW125451   6.369   6.400   5.080
 8184SOL    HW225452   6.451   6.405   4.939
 8185SOL     OW25453   0.750   2.548   3.476
 8185SOL    HW125454   0.677   2.575   3.540
 8185SOL    HW225455   0.742   2.601   3.392
 8186SOL     OW25456   4.253   3.140   6.672
 8186SOL    HW125457   4.191   3.200   6.622
 8186SOL    HW225458   4.208   3.053   6.690
 8187SOL     OW25459   2.222   1.820   5.979
 8187SOL    HW125460   2.184   1.771   5.900
 8187SOL    HW225461   2.265   1.754   6.041
 8188SOL     OW25462   5.019   3.680   2.882
 8188SOL    HW125463   5.051   3.585   2.884
 8188SOL    HW225464   4.962   3.694   2.801
 8189SOL     OW25465   6.591   5.555   3.328
 8189SOL    HW125466   6.493   5.545   3.341
 8189SOL    HW225467   6.639   5.481   3.375
 8190SOL     OW25468   5.500   3.573   3.041
 8190SOL    HW125469   5.521   3.659   3.088
 8190SOL    HW225470   5.428   3.589   2.973
 8191SOL     OW25471   6.099   4.427   0.991
 8191SOL    HW125472   6.171   4.456   0.928
 8191SOL    HW225473   6.061   4.340   0.961
 8192SOL     OW25474   1.936   1.591   0.708
 8192SOL    HW125475   1.963   1.499   0.735
 8192SOL    HW225476   2.018   1.645   0.686
 8193SOL     OW25477   3.757   6.099   6.177
 8193SOL    HW125478   3.798   6.009   6.187
 8193SOL    HW225479   3.797   6.146   6.098
 8194SOL     OW25480   1.271   0.690   2.591
 8194SOL    HW125481   1.270   0.646   2.501
 8194SOL    HW225482   1.340   0.762   2.592
 8195SOL     OW25483   6.225   1.009   1.225
 8195SOL    HW125484   6.234   1.107   1.207
 8195SOL    HW225485   6.175   0.995   1.311
 8196SOL     OW25486   2.609   0.808   1.128
 8196SOL    HW125487   2.594   0.711   1.112
 8196SOL    HW225488   2.601   0.828   1.225
 8197SOL     OW25489   0.522   6.684   0.816
 8197SOL    HW125490   0.440   6.731   0.848
 8197SOL    HW225491   0.567   6.639   0.894
 8198SOL     OW25492   2.374   0.943   3.128
 8198SOL    HW125493   2.417   0.910   3.211
 8198SOL    HW225494   2.342   0.866   3.073
 8199SOL     OW25495   5.908   4.628   0.971
 8199SOL    HW125496   5.951   4.539   0.982
 8199SOL    HW225497   5.934   4.667   0.882
 8200SOL     OW25498   3.976   4.651   1.185
 8200SOL    HW125499   3.915   4.725   1.212
 8200SOL    HW225500   4.071   4.685   1.185
 8201SOL     OW25501   0.805   1.087   4.687
 8201SOL    HW125502   0.884   1.041   4.727
 8201SOL    HW225503   0.835   1.143   4.609
 8202SOL     OW25504   1.321   3.785   4.147
 8202SOL    HW125505   1.390   3.855   4.128
 8202SOL    HW225506   1.234   3.812   4.106
 8203SOL     OW25507   6.653   4.200   6.586
 8203SOL    HW125508   6.637   4.290   6.626
 8203SOL    HW225509   6.707   4.209   6.503
 8204SOL     OW25510   3.207   6.828   1.722
 8204SOL    HW125511   3.251   6.896   1.663
 8204SOL    HW225512   3.277   6.767   1.759
 8205SOL     OW25513   3.488   6.894   2.809
 8205SOL    HW125514   3.411   6.911   2.748
 8205SOL    HW225515   3.467   6.930   2.900
 8206SOL     OW25516   3.722   2.118   4.154
 8206SOL    HW125517   3.801   2.179   4.143
 8206SOL    HW225518   3.734   2.038   4.096
 8207SOL     OW25519   2.199   6.439   0.081
 8207SOL    HW125520   2.221   6.425   7.000
 8207SOL    HW225521   2.222   6.532   0.107
 8208SOL     OW25522   0.959   5.837   0.707
 8208SOL    HW125523   0.971   5.742   0.675
 8208SOL    HW225524   1.023   5.856   0.780
 8209SOL     OW25525   1.001   6.332   4.091
 8209SOL    HW125526   0.959   6.338   4.000
 8209SOL    HW225527   0.970   6.248   4.136
 8210SOL     OW25528   2.546   0.778   1.399
 8210SOL    HW125529   2.567   0.683   1.379
 8210SOL    HW225530   2.497   0.784   1.486
 8211SOL     OW25531   3.191   3.963   4.436
 8211SOL    HW125532   3.210   4.055   4.400
 8211SOL    HW225533   3.161   3.971   4.531
 8212SOL     OW25534   3.692   5.374   6.729
 8212SOL    HW125535   3.784   5.336   6.732
 8212SOL    HW225536   3.647   5.360   6.817
 8213SOL     OW25537   4.757   4.105   2.088
 8213SOL    HW125538   4.696   4.030   2.061
 8213SOL    HW225539   4.703   4.187   2.106
 8214SOL     OW25540   3.725   4.862   3.653
 8214SOL    HW125541   3.817   4.846   3.616
 8214SOL    HW225542   3.692   4.779   3.698
 8215SOL     OW25543   2.667   6.454   5.105
 8215SOL    HW125544   2.747   6.395   5.113
 8215SOL    HW225545   2.586   6.398   5.091
 8216SOL     OW25546   6.508   4.897   0.227
 8216SOL    HW125547   6.412   4.873   0.211
 8216SOL    HW225548   6.558   4.894   0.141
 8217SOL     OW25549   3.632   6.587   3.806
 8217SOL    HW125550   3.601   6.531   3.729
 8217SOL    HW225551   3.564   6.658   3.825
 8218SOL     OW25552   2.253   6.017   3.980
 8218SOL    HW125553   2.256   6.094   3.915
 8218SOL    HW225554   2.338   5.964   3.973
 8219SOL     OW25555   3.364   4.104   4.713
 8219SOL    HW125556   3.408   4.109   4.623
 8219SOL    HW225557   3.265   4.100   4.701
 8220SOL     OW25558   4.668   4.016   6.039
 8220SOL    HW125559   4.581   4.025   5.989
 8220SOL    HW225560   4.696   3.920   6.038
 8221SOL     OW25561   6.247   3.702   4.082
 8221SOL    HW125562   6.169   3.682   4.142
 8221SOL    HW225563   6.328   3.654   4.114
 8222SOL     OW25564   5.347   2.096   5.948
 8222SOL    HW125565   5.418   2.066   6.012
 8222SOL    HW225566   5.389   2.122   5.861
 8223SOL     OW25567   1.027   6.547   5.360
 8223SOL    HW125568   1.048   6.463   5.410
 8223SOL    HW225569   0.979   6.524   5.275
 8224SOL     OW25570   4.993   1.534   4.909
 8224SOL    HW125571   4.969   1.630   4.893
 8224SOL    HW225572   5.070   1.529   4.972
 8225SOL     OW25573   6.162   1.827   0.163
 8225SOL    HW125574   6.194   1.776   0.082
 8225SOL    HW225575   6.066   1.851   0.151
 8226SOL     OW25576   3.701   0.609   6.586
 8226SOL    HW125577   3.642   0.689   6.590
 8226SOL    HW225578   3.789   0.635   6.546
 8227SOL     OW25579   5.999   3.438   2.419
 8227SOL    HW125580   5.917   3.383   2.412
 8227SOL    HW225581   5.996   3.511   2.350
 8228SOL     OW25582   2.495   1.864   4.690
 8228SOL    HW125583   2.584   1.895   4.656
 8228SOL    HW225584   2.453   1.804   4.622
 8229SOL     OW25585   4.578   4.017   0.745
 8229SOL    HW125586   4.590   3.985   0.651
 8229SOL    HW225587   4.602   4.114   0.750
 8230SOL     OW25588   6.100   1.270   6.487
 8230SOL    HW125589   6.120   1.173   6.500
 8230SOL    HW225590   6.186   1.321   6.481
 8231SOL     OW25591   3.105   1.483   1.573
 8231SOL    HW125592   3.146   1.478   1.664
 8231SOL    HW225593   3.175   1.461   1.504
 8232SOL     OW25594   3.781   6.384   4.312
 8232SOL    HW125595   3.838   6.457   4.274
 8232SOL    HW225596   3.685   6.407   4.301
 8233SOL     OW25597   3.169   0.494   6.995
 8233SOL    HW125598   3.180   0.581   0.027
 8233SOL    HW225599   3.109   0.434   0.032
 8234SOL     OW25600   0.161   2.509   6.370
 8234SOL    HW125601   0.178   2.562   6.453
 8234SOL    HW225602   0.071   2.531   6.334
 8235SOL     OW25603   1.116   6.442   6.646
 8235SOL    HW125604   1.173   6.484   6.717
 8235SOL    HW225605   1.174   6.393   6.581
 8236SOL     OW25606   0.941   0.452   0.240
 8236SOL    HW125607   0.973   0.413   0.326
 8236SOL    HW225608   0.996   0.416   0.164
 8237SOL     OW25609   4.571   4.436   6.079
 8237SOL    HW125610   4.584   4.530   6.109
 8237SOL    HW225611   4.485   4.428   6.028
 8238SOL     OW25612   6.821   5.420   6.611
 8238SOL    HW125613   6.783   5.329   6.598
 8238SOL    HW225614   6.804   5.451   6.705
 8239SOL     OW25615   4.747   2.879   3.785
 8239SOL    HW125616   4.696   2.914   3.706
 8239SOL    HW225617   4.750   2.779   3.781
 8240SOL     OW25618   3.755   3.554   5.090
 8240SOL    HW125619   3.701   3.620   5.037
 8240SOL    HW225620   3.711   3.540   5.179
 8241SOL     OW25621   0.374   2.777   5.437
 8241SOL    HW125622   0.351   2.836   5.515
 8241SOL    HW225623   0.472   2.754   5.442
 8242SOL     OW25624   0.636   3.768   3.501
 8242SOL    HW125625   0.541   3.747   3.524
 8242SOL    HW225626   0.687   3.683   3.485
 8243SOL     OW25627   2.189   5.656   3.881
 8243SOL    HW125628   2.133   5.729   3.842
 8243SOL    HW225629   2.277   5.652   3.834
 8244SOL     OW25630   5.429   6.974   4.585
 8244SOL    HW125631   5.482   7.005   4.505
 8244SOL    HW225632   5.335   6.952   4.556
 8245SOL     OW25633   5.776   3.763   2.237
 8245SOL    HW125634   5.759   3.783   2.141
 8245SOL    HW225635   5.692   3.776   2.289
 8246SOL     OW25636   2.181   4.456   0.059
 8246SOL    HW125637   2.244   4.472   0.135
 8246SOL    HW225638   2.133   4.369   0.073
 8247SOL     OW25639   2.245   4.787   3.665
 8247SOL    HW125640   2.200   4.699   3.680
 8247SOL    HW225641   2.226   4.848   3.743
 8248SOL     OW25642   6.440   0.359   2.611
 8248SOL    HW125643   6.490   0.272   2.604
 8248SOL    HW225644   6.403   0.369   2.703
 8249SOL     OW25645   3.625   6.586   5.589
 8249SOL    HW125646   3.665   6.588   5.681
 8249SOL    HW225647   3.612   6.679   5.557
 8250SOL     OW25648   1.925   1.238   6.677
 8250SOL    HW125649   2.020   1.249   6.646
 8250SOL    HW225650   1.868   1.214   6.598
 8251SOL     OW25651   1.990   1.563   6.451
 8251SOL    HW125652   1.890   1.568   6.455
 8251SOL    HW225653   2.020   1.477   6.492
 8252SOL     OW25654   0.693   0.962   6.323
 8252SOL    HW125655   0.784   1.003   6.313
 8252SOL    HW225656   0.640   1.014   6.390
 8253SOL     OW25657   6.890   3.597   4.755
 8253SOL    HW125658   6.926   3.601   4.848
 8253SOL    HW225659   6.810   3.656   4.748
 8254SOL     OW25660   4.982   4.254   0.015
 8254SOL    HW125661   4.903   4.316   0.009
 8254SOL    HW225662   4.967   4.176   6.971
 8255SOL     OW25663   1.753   6.185   5.860
 8255SOL    HW125664   1.751   6.145   5.769
 8255SOL    HW225665   1.725   6.117   5.928
 8256SOL     OW25666   1.694   5.892   2.783
 8256SOL    HW125667   1.624   5.848   2.839
 8256SOL    HW225668   1.778   5.838   2.787
 8257SOL     OW25669   4.782   4.674   3.933
 8257SOL    HW125670   4.771   4.743   3.861
 8257SOL    HW225671   4.732   4.704   4.015
 8258SOL     OW25672   0.454   2.809   4.393
 8258SOL    HW125673   0.421   2.823   4.300
 8258SOL    HW225674   0.549   2.840   4.399
 8259SOL     OW25675   5.408   3.815   4.107
 8259SOL    HW125676   5.358   3.890   4.152
 8259SOL    HW225677   5.370   3.802   4.015
 8260SOL     OW25678   4.694   2.567   6.685
 8260SOL    HW125679   4.690   2.470   6.712
 8260SOL    HW225680   4.603   2.598   6.659
 8261SOL     OW25681   4.977   2.175   2.620
 8261SOL    HW125682   4.878   2.183   2.613
 8261SOL    HW225683   5.019   2.265   2.617
 8262SOL     OW25684   5.048   4.121   2.263
 8262SOL    HW125685   4.972   4.088   2.208
 8262SOL    HW225686   5.133   4.115   2.209
 8263SOL     OW25687   6.797   1.124   6.882
 8263SOL    HW125688   6.884   1.078   6.896
 8263SOL    HW225689   6.774   1.123   6.785
 8264SOL     OW25690   3.396   1.639   1.718
 8264SOL    HW125691   3.475   1.697   1.738
 8264SOL    HW225692   3.402   1.604   1.625
 8265SOL     OW25693   5.667   5.231   0.243
 8265SOL    HW125694   5.713   5.224   0.155
 8265SOL    HW225695   5.568   5.218   0.230
 8266SOL     OW25696   4.320   2.334   2.885
 8266SOL    HW125697   4.314   2.334   2.985
 8266SOL    HW225698   4.391   2.398   2.856
 8267SOL     OW25699   2.117   3.720   2.697
 8267SOL    HW125700   2.106   3.621   2.691
 8267SOL    HW225701   2.107   3.760   2.606
 8268SOL     OW25702   2.283   5.224   1.270
 8268SOL    HW125703   2.306   5.265   1.358
 8268SOL    HW225704   2.367   5.206   1.219
 8269SOL     OW25705   6.411   1.987   3.413
 8269SOL    HW125706   6.381   1.950   3.325
 8269SOL    HW225707   6.385   2.084   3.418
 8270SOL     OW25708   4.250   5.468   0.237
 8270SOL    HW125709   4.313   5.494   0.163
 8270SOL    HW225710   4.300   5.414   0.305
 8271SOL     OW25711   2.454   0.256   5.835
 8271SOL    HW125712   2.495   0.241   5.924
 8271SOL    HW225713   2.394   0.336   5.839
 8272SOL     OW25714   0.456   1.121   1.626
 8272SOL    HW125715   0.441   1.113   1.724
 8272SOL    HW225716   0.380   1.078   1.577
 8273SOL     OW25717   5.400   0.149   6.258
 8273SOL    HW125718   5.495   0.146   6.227
 8273SOL    HW225719   5.355   0.062   6.235
 8274SOL     OW25720   5.420   6.722   3.966
 8274SOL    HW125721   5.349   6.772   4.016
 8274SOL    HW225722   5.392   6.711   3.871
 8275SOL     OW25723   4.700   0.782   4.223
 8275SOL    HW125724   4.634   0.710   4.242
 8275SOL    HW225725   4.760   0.754   4.148
 8276SOL     OW25726   4.880   2.576   0.411
 8276SOL    HW125727   4.801   2.519   0.432
 8276SOL    HW225728   4.944   2.526   0.353
 8277SOL     OW25729   1.164   6.973   1.502
 8277SOL    HW125730   1.129   6.897   1.556
 8277SOL    HW225731   1.263   6.962   1.490
 8278SOL     OW25732   1.575   1.235   1.639
 8278SOL    HW125733   1.508   1.299   1.676
 8278SOL    HW225734   1.600   1.262   1.546
 8279SOL     OW25735   5.946   4.424   6.044
 8279SOL    HW125736   5.884   4.393   6.116
 8279SOL    HW225737   5.907   4.402   5.954
 8280SOL     OW25738   0.099   4.716   0.700
 8280SOL    HW125739   0.144   4.653   0.763
 8280SOL    HW225740   0.001   4.720   0.721
 8281SOL     OW25741   2.398   4.518   0.200
 8281SOL    HW125742   2.384   4.509   0.298
 8281SOL    HW225743   2.487   4.479   0.175
 8282SOL     OW25744   4.621   2.656   0.659
 8282SOL    HW125745   4.718   2.681   0.652
 8282SOL    HW225746   4.568   2.709   0.593
 8283SOL     OW25747   0.821   2.143   3.000
 8283SOL    HW125748   0.795   2.185   2.913
 8283SOL    HW225749   0.903   2.086   2.986
 8284SOL     OW25750   4.693   2.653   0.920
 8284SOL    HW125751   4.667   2.670   0.825
 8284SOL    HW225752   4.758   2.722   0.950
 8285SOL     OW25753   0.579   4.664   0.445
 8285SOL    HW125754   0.542   4.585   0.397
 8285SOL    HW225755   0.571   4.650   0.544
 8286SOL     OW25756   0.081   1.743   0.297
 8286SOL    HW125757   0.063   1.814   0.229
 8286SOL    HW225758   0.057   1.654   0.258
 8287SOL     OW25759   0.828   2.255   2.623
 8287SOL    HW125760   0.751   2.300   2.577
 8287SOL    HW225761   0.803   2.161   2.645
 8288SOL     OW25762   2.045   6.655   2.545
 8288SOL    HW125763   1.996   6.677   2.629
 8288SOL    HW225764   2.143   6.650   2.564
 8289SOL     OW25765   5.833   6.640   0.436
 8289SOL    HW125766   5.742   6.617   0.470
 8289SOL    HW225767   5.891   6.669   0.512
 8290SOL     OW25768   4.706   2.887   1.653
 8290SOL    HW125769   4.788   2.836   1.681
 8290SOL    HW225770   4.678   2.946   1.729
 8291SOL     OW25771   6.268   5.347   5.347
 8291SOL    HW125772   6.266   5.319   5.251
 8291SOL    HW225773   6.308   5.274   5.403
 8292SOL     OW25774   0.155   4.072   5.758
 8292SOL    HW125775   0.202   3.988   5.786
 8292SOL    HW225776   0.209   4.151   5.785
 8293SOL     OW25777   2.816   5.250   4.314
 8293SOL    HW125778   2.825   5.303   4.398
 8293SOL    HW225779   2.870   5.166   4.321
 8294SOL     OW25780   6.456   3.320   5.776
 8294SOL    HW125781   6.427   3.226   5.757
 8294SOL    HW225782   6.535   3.319   5.837
 8295SOL     OW25783   4.233   4.711   1.218
 8295SOL    HW125784   4.220   4.734   1.315
 8295SOL    HW225785   4.331   4.695   1.201
 8296SOL     OW25786   3.313   0.436   2.021
 8296SOL    HW125787   3.319   0.378   1.940
 8296SOL    HW225788   3.221   0.476   2.027
 8297SOL     OW25789   5.885   4.564   2.036
 8297SOL    HW125790   5.949   4.519   1.974
 8297SOL    HW225791   5.847   4.645   1.992
 8298SOL     OW25792   0.108   6.030   0.664
 8298SOL    HW125793   0.035   5.973   0.700
 8298SOL    HW225794   0.195   6.004   0.706
 8299SOL     OW25795   0.953   1.394   0.068
 8299SOL    HW125796   0.910   1.359   0.151
 8299SOL    HW225797   0.928   1.491   0.056
 8300SOL     OW25798   4.193   6.516   4.959
 8300SOL    HW125799   4.132   6.575   4.906
 8300SOL    HW225800   4.226   6.565   5.039
 8301SOL     OW25801   6.149   4.535   6.795
 8301SOL    HW125802   6.153   4.635   6.801
 8301SOL    HW225803   6.054   4.507   6.782
 8302SOL     OW25804   3.487   6.289   6.245
 8302SOL    HW125805   3.581   6.284   6.213
 8302SOL    HW225806   3.485   6.285   6.345
 8303SOL     OW25807   7.013   4.441   4.464
 8303SOL    HW125808   0.003   4.341   4.462
 8303SOL    HW225809   6.998   4.475   4.372
 8304SOL     OW25810   6.041   2.872   3.838
 8304SOL    HW125811   6.035   2.943   3.907
 8304SOL    HW225812   5.990   2.900   3.756
 8305SOL     OW25813   4.146   6.263   5.970
 8305SOL    HW125814   4.135   6.218   6.058
 8305SOL    HW225815   4.094   6.214   5.900
 8306SOL     OW25816   4.783   1.126   3.371
 8306SOL    HW125817   4.778   1.180   3.455
 8306SOL    HW225818   4.778   1.029   3.393
 8307SOL     OW25819   0.559   4.983   4.587
 8307SOL    HW125820   0.644   4.969   4.638
 8307SOL    HW225821   0.515   4.895   4.572
 8308SOL     OW25822   1.823   5.060   0.546
 8308SOL    HW125823   1.808   5.039   0.643
 8308SOL    HW225824   1.741   5.036   0.494
 8309SOL     OW25825   5.404   5.531   2.245
 8309SOL    HW125826   5.501   5.552   2.231
 8309SOL    HW225827   5.349   5.612   2.225
 8310SOL     OW25828   2.427   5.725   2.817
 8310SOL    HW125829   2.461   5.732   2.723
 8310SOL    HW225830   2.327   5.718   2.816
 8311SOL     OW25831   4.910   6.815   2.531
 8311SOL    HW125832   4.864   6.841   2.446
 8311SOL    HW225833   4.980   6.883   2.552
 8312SOL     OW25834   6.489   6.597   0.719
 8312SOL    HW125835   6.511   6.499   0.725
 8312SOL    HW225836   6.521   6.632   0.631
 8313SOL     OW25837   4.682   2.144   5.901
 8313SOL    HW125838   4.767   2.094   5.884
 8313SOL    HW225839   4.648   2.182   5.814
 8314SOL     OW25840   5.596   5.961   5.536
 8314SOL    HW125841   5.530   6.003   5.474
 8314SOL    HW225842   5.552   5.884   5.583
 8315SOL     OW25843   3.574   1.637   6.603
 8315SOL    HW125844   3.650   1.595   6.654
 8315SOL    HW225845   3.491   1.633   6.659
 8316SOL     OW25846   1.374   1.086   4.876
 8316SOL    HW125847   1.336   1.034   4.800
 8316SOL    HW225848   1.359   1.184   4.861
 8317SOL     OW25849   2.684   1.622   6.447
 8317SOL    HW125850   2.691   1.525   6.423
 8317SOL    HW225851   2.766   1.670   6.417
 8318SOL     OW25852   4.648   6.279   5.286
 8318SOL    HW125853   4.619   6.192   5.247
 8318SOL    HW225854   4.649   6.272   5.386
 8319SOL     OW25855   2.890   6.021   6.419
 8319SOL    HW125856   2.947   5.942   6.443
 8319SOL    HW225857   2.817   6.031   6.485
 8320SOL     OW25858   4.284   5.169   5.183
 8320SOL    HW125859   4.251   5.263   5.189
 8320SOL    HW225860   4.288   5.129   5.275
 8321SOL     OW25861   0.632   0.177   0.108
 8321SOL    HW125862   0.638   0.275   0.090
 8321SOL    HW225863   0.629   0.128   0.021
 8322SOL     OW25864   2.433   0.188   2.071
 8322SOL    HW125865   2.517   0.140   2.094
 8322SOL    HW225866   2.396   0.231   2.154
 8323SOL     OW25867   6.531   5.395   6.546
 8323SOL    HW125868   6.610   5.444   6.582
 8323SOL    HW225869   6.550   5.297   6.543
 8324SOL     OW25870   6.837   6.093   5.124
 8324SOL    HW125871   6.885   6.061   5.205
 8324SOL    HW225872   6.747   6.050   5.119
 8325SOL     OW25873   1.546   5.274   5.249
 8325SOL    HW125874   1.512   5.290   5.157
 8325SOL    HW225875   1.644   5.294   5.252
 8326SOL     OW25876   3.231   0.994   6.799
 8326SOL    HW125877   3.220   0.986   6.700
 8326SOL    HW225878   3.250   1.090   6.823
 8327SOL     OW25879   0.692   6.192   5.825
 8327SOL    HW125880   0.754   6.166   5.750
 8327SOL    HW225881   0.597   6.183   5.794
 8328SOL     OW25882   0.938   7.010   0.735
 8328SOL    HW125883   0.922   0.057   0.811
 8328SOL    HW225884   0.850   6.984   0.694
 8329SOL     OW25885   1.732   1.933   6.383
 8329SOL    HW125886   1.635   1.910   6.383
 8329SOL    HW225887   1.755   1.982   6.299
 8330SOL     OW25888   3.087   6.711   0.388
 8330SOL    HW125889   3.058   6.678   0.298
 8330SOL    HW225890   3.010   6.756   0.433
 8331SOL     OW25891   1.482   2.349   5.913
 8331SOL    HW125892   1.525   2.440   5.914
 8331SOL    HW225893   1.531   2.288   5.975
 8332SOL     OW25894   5.416   4.290   1.128
 8332SOL    HW125895   5.409   4.273   1.030
 8332SOL    HW225896   5.465   4.214   1.172
 8333SOL     OW25897   2.082   4.553   6.058
 8333SOL    HW125898   2.105   4.509   5.971
 8333SOL    HW225899   2.114   4.497   6.134
 8334SOL     OW25900   2.945   2.751   5.594
 8334SOL    HW125901   2.847   2.741   5.581
 8334SOL    HW225902   2.994   2.689   5.532
 8335SOL     OW25903   6.581   2.863   0.023
 8335SOL    HW125904   6.568   2.894   6.945
 8335SOL    HW225905   6.492   2.845   0.065
 8336SOL     OW25906   0.506   4.572   4.072
 8336SOL    HW125907   0.576   4.589   4.141
 8336SOL    HW225908   0.544   4.588   3.981
 8337SOL     OW25909   6.189   6.593   4.551
 8337SOL    HW125910   6.271   6.637   4.515
 8337SOL    HW225911   6.124   6.662   4.582
 8338SOL     OW25912   2.312   4.641   0.731
 8338SOL    HW125913   2.260   4.619   0.813
 8338SOL    HW225914   2.279   4.587   0.654
 8339SOL     OW25915   6.482   0.496   1.563
 8339SOL    HW125916   6.403   0.514   1.504
 8339SOL    HW225917   6.488   0.398   1.582
 8340SOL     OW25918   5.968   2.330   6.538
 8340SOL    HW125919   5.942   2.401   6.604
 8340SOL    HW225920   5.895   2.261   6.532
 8341SOL     OW25921   3.490   0.030   1.281
 8341SOL    HW125922   3.533   0.021   1.191
 8341SOL    HW225923   3.485   0.126   1.306
 8342SOL     OW25924   4.021   0.927   1.484
 8342SOL    HW125925   3.982   0.838   1.463
 8342SOL    HW225926   4.117   0.916   1.512
 8343SOL     OW25927   4.530   5.964   3.219
 8343SOL    HW125928   4.613   5.922   3.183
 8343SOL    HW225929   4.539   5.976   3.318
 8344SOL     OW25930   2.169   4.156   4.778
 8344SOL    HW125931   2.214   4.108   4.703
 8344SOL    HW225932   2.204   4.122   4.865
 8345SOL     OW25933   6.772   6.854   4.056
 8345SOL    HW125934   6.722   6.888   4.135
 8345SOL    HW225935   6.792   6.930   3.994
 8346SOL     OW25936   5.359   4.057   3.038
 8346SOL    HW125937   5.275   4.006   3.058
 8346SOL    HW225938   5.353   4.149   3.078
 8347SOL     OW25939   1.070   1.335   6.852
 8347SOL    HW125940   1.046   1.355   6.947
 8347SOL    HW225941   1.059   1.418   6.797
 8348SOL     OW25942   2.490   6.853   0.995
 8348SOL    HW125943   2.559   6.869   1.066
 8348SOL    HW225944   2.536   6.840   0.907
 8349SOL     OW25945   4.648   6.034   1.142
 8349SOL    HW125946   4.551   6.039   1.165
 8349SOL    HW225947   4.671   5.942   1.112
 8350SOL     OW25948   2.607   0.834   6.665
 8350SOL    HW125949   2.590   0.901   6.592
 8350SOL    HW225950   2.551   0.753   6.650
 8351SOL     OW25951   0.318   4.332   3.235
 8351SOL    HW125952   0.334   4.255   3.297
 8351SOL    HW225953   0.388   4.332   3.164
 8352SOL     OW25954   2.227   6.755   6.366
 8352SOL    HW125955   2.191   6.783   6.455
 8352SOL    HW225956   2.288   6.677   6.378
 8353SOL     OW25957   0.996   5.760   2.738
 8353SOL    HW125958   1.060   5.816   2.789
 8353SOL    HW225959   0.934   5.713   2.801
 8354SOL     OW25960   5.374   3.120   3.807
 8354SOL    HW125961   5.467   3.146   3.781
 8354SOL    HW225962   5.343   3.179   3.882
 8355SOL     OW25963   3.478   4.015   5.747
 8355SOL    HW125964   3.500   3.921   5.770
 8355SOL    HW225965   3.414   4.017   5.669
 8356SOL     OW25966   3.177   3.223   2.510
 8356SOL    HW125967   3.173   3.322   2.519
 8356SOL    HW225968   3.207   3.199   2.418
 8357SOL     OW25969   2.960   6.644   5.270
 8357SOL    HW125970   2.947   6.545   5.270
 8357SOL    HW225971   2.950   6.679   5.177
 8358SOL     OW25972   0.376   0.490   4.566
 8358SOL    HW125973   0.472   0.474   4.590
 8358SOL    HW225974   0.327   0.404   4.564
 8359SOL     OW25975   5.116   2.545   4.900
 8359SOL    HW125976   5.086   2.482   4.828
 8359SOL    HW225977   5.201   2.590   4.871
 8360SOL     OW25978   3.367   0.296   2.553
 8360SOL    HW125979   3.284   0.343   2.583
 8360SOL    HW225980   3.381   0.314   2.455
 8361SOL     OW25981   4.722   1.587   6.925
 8361SOL    HW125982   4.781   1.537   6.989
 8361SOL    HW225983   4.627   1.562   6.940
 8362SOL     OW25984   0.661   4.694   2.036
 8362SOL    HW125985   0.581   4.708   2.094
 8362SOL    HW225986   0.697   4.602   2.050
 8363SOL     OW25987   3.518   2.432   1.444
 8363SOL    HW125988   3.441   2.489   1.471
 8363SOL    HW225989   3.603   2.474   1.477
 8364SOL     OW25990   0.489   1.616   3.119
 8364SOL    HW125991   0.579   1.630   3.162
 8364SOL    HW225992   0.423   1.587   3.189
 8365SOL     OW25993   2.505   2.675   1.046
 8365SOL    HW125994   2.437   2.614   1.088
 8365SOL    HW225995   2.462   2.762   1.023
 8366SOL     OW25996   4.944   5.868   1.546
 8366SOL    HW125997   4.856   5.832   1.515
 8366SOL    HW225998   5.017   5.836   1.486
 8367SOL     OW25999   0.893   4.901   3.977
 8367SOL    HW126000   0.879   4.848   3.894
 8367SOL    HW226001   0.835   4.864   4.050
 8368SOL     OW26002   0.388   3.084   5.962
 8368SOL    HW126003   0.355   3.009   5.903
 8368SOL    HW226004   0.323   3.097   6.037
 8369SOL     OW26005   1.450   0.731   0.574
 8369SOL    HW126006   1.406   0.778   0.497
 8369SOL    HW226007   1.410   0.640   0.585
 8370SOL     OW26008   2.644   3.253   1.344
 8370SOL    HW126009   2.679   3.160   1.350
 8370SOL    HW226010   2.613   3.283   1.434
 8371SOL     OW26011   2.994   4.427   5.662
 8371SOL    HW126012   2.971   4.444   5.758
 8371SOL    HW226013   3.068   4.359   5.658
 8372SOL     OW26014   1.677   6.824   3.342
 8372SOL    HW126015   1.600   6.799   3.284
 8372SOL    HW226016   1.715   6.912   3.312
 8373SOL     OW26017   6.029   0.344   4.570
 8373SOL    HW126018   6.017   0.409   4.645
 8373SOL    HW226019   5.991   0.255   4.598
 8374SOL     OW26020   0.702   2.227   3.613
 8374SOL    HW126021   0.699   2.187   3.704
 8374SOL    HW226022   0.708   2.327   3.620
 8375SOL     OW26023   1.476   2.366   5.603
 8375SOL    HW126024   1.417   2.287   5.619
 8375SOL    HW226025   1.563   2.353   5.650
 8376SOL     OW26026   0.801   1.400   3.665
 8376SOL    HW126027   0.777   1.469   3.733
 8376SOL    HW226028   0.901   1.397   3.654
 8377SOL     OW26029   4.502   5.762   1.798
 8377SOL    HW126030   4.481   5.859   1.792
 8377SOL    HW226031   4.599   5.750   1.817
 8378SOL     OW26032   4.234   5.930   6.299
 8378SOL    HW126033   4.325   5.891   6.290
 8378SOL    HW226034   4.167   5.856   6.309
 8379SOL     OW26035   5.795   3.008   1.617
 8379SOL    HW126036   5.748   3.025   1.703
 8379SOL    HW226037   5.762   2.922   1.578
 8380SOL     OW26038   1.502   5.502   2.797
 8380SOL    HW126039   1.414   5.535   2.762
 8380SOL    HW226040   1.488   5.459   2.886
 8381SOL     OW26041   0.434   2.612   2.794
 8381SOL    HW126042   0.338   2.599   2.768
 8381SOL    HW226043   0.441   2.619   2.894
 8382SOL     OW26044   1.215   0.081   2.061
 8382SOL    HW126045   1.152   0.026   2.005
 8382SOL    HW226046   1.262   0.147   2.002
 8383SOL     OW26047   1.792   6.859   4.845
 8383SOL    HW126048   1.735   6.894   4.770
 8383SOL    HW226049   1.885   6.844   4.811
 8384SOL     OW26050   0.624   4.069   3.999
 8384SOL    HW126051   0.548   4.026   3.949
 8384SOL    HW226052   0.592   4.153   4.042
 8385SOL     OW26053   4.443   2.553   1.806
 8385SOL    HW126054   4.532   2.518   1.838
 8385SOL    HW226055   4.458   2.628   1.742
 8386SOL     OW26056   6.471   5.480   2.287
 8386SOL    HW126057   6.556   5.479   2.339
 8386SOL    HW226058   6.432   5.388   2.286
 8387SOL     OW26059   0.561   2.595   3.658
 8387SOL    HW126060   0.531   2.533   3.730
 8387SOL    HW226061   0.483   2.621   3.602
 8388SOL     OW26062   3.256   6.374   1.468
 8388SOL    HW126063   3.348   6.410   1.450
 8388SOL    HW226064   3.263   6.295   1.529
 8389SOL     OW26065   1.213   2.670   4.228
 8389SOL    HW126066   1.133   2.683   4.286
 8389SOL    HW226067   1.184   2.667   4.132
 8390SOL     OW26068   0.949   6.605   6.447
 8390SOL    HW126069   1.008   6.586   6.525
 8390SOL    HW226070   0.853   6.593   6.474
 8391SOL     OW26071   4.978   6.136   1.149
 8391SOL    HW126072   4.980   6.115   1.247
 8391SOL    HW226073   5.070   6.154   1.117
 8392SOL     OW26074   3.390   5.818   0.609
 8392SOL    HW126075   3.306   5.871   0.607
 8392SOL    HW226076   3.379   5.740   0.671
 8393SOL     OW26077   1.502   6.568   1.912
 8393SOL    HW126078   1.564   6.491   1.898
 8393SOL    HW226079   1.461   6.561   2.003
 8394SOL     OW26080   1.615   1.325   4.076
 8394SOL    HW126081   1.526   1.283   4.093
 8394SOL    HW226082   1.652   1.360   4.162
 8395SOL     OW26083   1.937   5.970   6.670
 8395SOL    HW126084   1.887   5.971   6.757
 8395SOL    HW226085   1.986   5.883   6.660
 8396SOL     OW26086   5.102   1.801   0.246
 8396SOL    HW126087   5.056   1.721   0.208
 8396SOL    HW226088   5.121   1.785   0.343
 8397SOL     OW26089   0.453   4.191   3.432
 8397SOL    HW126090   0.442   4.184   3.531
 8397SOL    HW226091   0.470   4.100   3.394
 8398SOL     OW26092   5.748   1.606   6.468
 8398SOL    HW126093   5.734   1.559   6.381
 8398SOL    HW226094   5.697   1.558   6.540
 8399SOL     OW26095   5.273   6.932   5.409
 8399SOL    HW126096   5.192   6.932   5.350
 8399SOL    HW226097   5.304   0.010   5.423
 8400SOL     OW26098   5.762   5.924   3.006
 8400SOL    HW126099   5.674   5.877   3.013
 8400SOL    HW226100   5.747   6.021   2.986
 8401SOL     OW26101   2.322   3.483   5.332
 8401SOL    HW126102   2.264   3.508   5.255
 8401SOL    HW226103   2.342   3.385   5.328
 8402SOL     OW26104   4.610   1.195   4.443
 8402SOL    HW126105   4.567   1.284   4.450
 8402SOL    HW226106   4.622   1.171   4.346
 8403SOL     OW26107   0.653   1.705   6.404
 8403SOL    HW126108   0.570   1.761   6.396
 8403SOL    HW226109   0.664   1.651   6.321
 8404SOL     OW26110   4.931   5.313   5.134
 8404SOL    HW126111   4.920   5.289   5.037
 8404SOL    HW226112   4.847   5.289   5.183
 8405SOL     OW26113   0.735   2.505   6.143
 8405SOL    HW126114   0.816   2.482   6.197
 8405SOL    HW226115   0.748   2.595   6.101
 8406SOL     OW26116   5.952   3.759   1.744
 8406SOL    HW126117   6.050   3.760   1.724
 8406SOL    HW226118   5.913   3.673   1.711
 8407SOL     OW26119   5.673   3.551   2.505
 8407SOL    HW126120   5.582   3.511   2.510
 8407SOL    HW226121   5.689   3.609   2.585
 8408SOL     OW26122   5.100   4.232   4.423
 8408SOL    HW126123   5.149   4.262   4.341
 8408SOL    HW226124   5.015   4.285   4.431
 8409SOL     OW26125   0.971   1.928   3.962
 8409SOL    HW126126   0.956   1.942   4.060
 8409SOL    HW226127   1.036   1.997   3.928
 8410SOL     OW26128   1.866   5.473   2.208
 8410SOL    HW126129   1.842   5.570   2.213
 8410SOL    HW226130   1.965   5.464   2.200
 8411SOL     OW26131   2.001   3.555   3.010
 8411SOL    HW126132   1.909   3.590   2.994
 8411SOL    HW226133   2.045   3.535   2.922
 8412SOL     OW26134   5.433   2.377   2.494
 8412SOL    HW126135   5.341   2.413   2.511
 8412SOL    HW226136   5.489   2.389   2.575
 8413SOL     OW26137   1.395   5.477   2.197
 8413SOL    HW126138   1.429   5.556   2.146
 8413SOL    HW226139   1.410   5.394   2.144
 8414SOL     OW26140   6.203   0.100   4.251
 8414SOL    HW126141   6.166   0.012   4.280
 8414SOL    HW226142   6.198   0.165   4.326
 8415SOL     OW26143   0.400   4.778   0.906
 8415SOL    HW126144   0.477   4.817   0.956
 8415SOL    HW226145   0.401   4.812   0.812
 8416SOL     OW26146   4.162   4.857   3.171
 8416SOL    HW126147   4.074   4.880   3.128
 8416SOL    HW226148   4.227   4.829   3.101
 8417SOL     OW26149   0.778   5.498   0.013
 8417SOL    HW126150   0.828   5.486   0.099
 8417SOL    HW226151   0.785   5.592   6.999
 8418SOL     OW26152   5.651   6.333   2.579
 8418SOL    HW126153   5.738   6.325   2.626
 8418SOL    HW226154   5.583   6.274   2.623
 8419SOL     OW26155   2.234   1.550   3.047
 8419SOL    HW126156   2.232   1.522   2.951
 8419SOL    HW226157   2.142   1.542   3.086
 8420SOL     OW26158   4.819   1.932   5.321
 8420SOL    HW126159   4.748   1.885   5.374
 8420SOL    HW226160   4.906   1.885   5.333
 8421SOL     OW26161   0.387   0.818   0.544
 8421SOL    HW126162   0.436   0.905   0.553
 8421SOL    HW226163   0.294   0.829   0.579
 8422SOL     OW26164   2.858   0.908   1.268
 8422SOL    HW126165   2.812   0.900   1.357
 8422SOL    HW226166   2.876   1.004   1.249
 8423SOL     OW26167   2.072   4.780   1.345
 8423SOL    HW126168   1.984   4.824   1.323
 8423SOL    HW226169   2.143   4.849   1.351
 8424SOL     OW26170   2.671   2.299   1.905
 8424SOL    HW126171   2.763   2.308   1.943
 8424SOL    HW226172   2.603   2.303   1.978
 8425SOL     OW26173   0.207   5.404   5.544
 8425SOL    HW126174   0.251   5.402   5.634
 8425SOL    HW226175   0.146   5.325   5.535
 8426SOL     OW26176   3.516   4.159   2.799
 8426SOL    HW126177   3.477   4.166   2.891
 8426SOL    HW226178   3.613   4.184   2.803
 8427SOL     OW26179   2.465   1.121   0.006
 8427SOL    HW126180   2.421   1.041   0.047
 8427SOL    HW226181   2.564   1.105   0.001
 8428SOL     OW26182   6.754   3.429   1.890
 8428SOL    HW126183   6.701   3.495   1.943
 8428SOL    HW226184   6.713   3.338   1.899
 8429SOL     OW26185   1.479   6.740   3.170
 8429SOL    HW126186   1.453   6.795   3.090
 8429SOL    HW226187   1.480   6.643   3.145
 8430SOL     OW26188   3.753   6.777   3.512
 8430SOL    HW126189   3.843   6.742   3.485
 8430SOL    HW226190   3.763   6.834   3.594
 8431SOL     OW26191   3.122   3.408   2.892
 8431SOL    HW126192   3.164   3.374   2.976
 8431SOL    HW226193   3.077   3.332   2.845
 8432SOL     OW26194   4.532   5.583   0.701
 8432SOL    HW126195   4.564   5.667   0.655
 8432SOL    HW226196   4.608   5.540   0.748
 8433SOL     OW26197   6.904   1.222   3.616
 8433SOL    HW126198   6.844   1.299   3.595
 8433SOL    HW226199   6.869   1.139   3.571
 8434SOL     OW26200   5.175   6.512   0.270
 8434SOL    HW126201   5.185   6.415   0.292
 8434SOL    HW226202   5.111   6.523   0.194
 8435SOL     OW26203   5.397   3.740   0.756
 8435SOL    HW126204   5.404   3.648   0.794
 8435SOL    HW226205   5.304   3.774   0.770
 8436SOL     OW26206   3.529   4.132   1.569
 8436SOL    HW126207   3.608   4.106   1.513
 8436SOL    HW226208   3.494   4.221   1.538
 8437SOL     OW26209   0.509   2.941   0.979
 8437SOL    HW126210   0.453   2.858   0.985
 8437SOL    HW226211   0.465   3.015   1.031
 8438SOL     OW26212   2.752   5.621   1.793
 8438SOL    HW126213   2.792   5.556   1.858
 8438SOL    HW226214   2.815   5.698   1.782
 8439SOL     OW26215   5.248   0.103   2.381
 8439SOL    HW126216   5.253   0.157   2.297
 8439SOL    HW226217   5.339   0.094   2.421
 8440SOL     OW26218   1.134   3.853   3.699
 8440SOL    HW126219   1.208   3.799   3.740
 8440SOL    HW226220   1.162   3.949   3.691
 8441SOL     OW26221   3.855   5.599   1.449
 8441SOL    HW126222   3.845   5.618   1.351
 8441SOL    HW226223   3.843   5.684   1.500
 8442SOL     OW26224   2.946   3.262   0.495
 8442SOL    HW126225   2.881   3.225   0.429
 8442SOL    HW226226   2.903   3.339   0.543
 8443SOL     OW26227   0.100   2.658   1.062
 8443SOL    HW126228   0.035   2.728   1.092
 8443SOL    HW226229   0.060   2.606   0.986
 8444SOL     OW26230   4.879   2.591   3.180
 8444SOL    HW126231   4.963   2.588   3.126
 8444SOL    HW226232   4.812   2.650   3.135
 8445SOL     OW26233   3.483   5.509   2.882
 8445SOL    HW126234   3.469   5.410   2.878
 8445SOL    HW226235   3.433   5.546   2.960
 8446SOL     OW26236   6.102   3.829   3.113
 8446SOL    HW126237   6.051   3.914   3.126
 8446SOL    HW226238   6.132   3.794   3.202
 8447SOL     OW26239   5.669   4.877   1.171
 8447SOL    HW126240   5.576   4.912   1.175
 8447SOL    HW226241   5.683   4.812   1.246
 8448SOL     OW26242   1.386   4.519   5.386
 8448SOL    HW126243   1.329   4.595   5.356
 8448SOL    HW226244   1.356   4.435   5.342
 8449SOL     OW26245   1.896   0.676   5.314
 8449SOL    HW126246   1.873   0.749   5.378
 8449SOL    HW226247   1.837   0.597   5.332
 8450SOL     OW26248   1.681   5.816   0.971
 8450SOL    HW126249   1.641   5.744   1.028
 8450SOL    HW226250   1.668   5.905   1.015
 8451SOL     OW26251   2.596   4.370   1.500
 8451SOL    HW126252   2.616   4.364   1.402
 8451SOL    HW226253   2.498   4.363   1.515
 8452SOL     OW26254   6.630   5.779   2.411
 8452SOL    HW126255   6.564   5.770   2.487
 8452SOL    HW226256   6.670   5.689   2.391
 8453SOL     OW26257   0.789   4.581   5.327
 8453SOL    HW126258   0.720   4.510   5.342
 8453SOL    HW226259   0.879   4.537   5.316
 8454SOL     OW26260   1.789   6.879   5.748
 8454SOL    HW126261   1.784   6.940   5.670
 8454SOL    HW226262   1.883   6.850   5.762
 8455SOL     OW26263   6.271   2.237   0.412
 8455SOL    HW126264   6.242   2.149   0.449
 8455SOL    HW226265   6.364   2.256   0.440
 8456SOL     OW26266   6.202   4.445   3.652
 8456SOL    HW126267   6.170   4.356   3.684
 8456SOL    HW226268   6.240   4.495   3.730
 8457SOL     OW26269   5.527   6.013   6.107
 8457SOL    HW126270   5.443   6.064   6.088
 8457SOL    HW226271   5.585   6.066   6.169
 8458SOL     OW26272   0.939   1.418   1.512
 8458SOL    HW126273   0.959   1.484   1.439
 8458SOL    HW226274   0.852   1.441   1.555
 8459SOL     OW26275   2.319   4.953   2.586
 8459SOL    HW126276   2.325   4.898   2.503
 8459SOL    HW226277   2.235   4.931   2.635
 8460SOL     OW26278   3.474   1.298   1.039
 8460SOL    HW126279   3.412   1.221   1.022
 8460SOL    HW226280   3.551   1.294   0.976
 8461SOL     OW26281   5.725   4.663   3.028
 8461SOL    HW126282   5.778   4.620   2.955
 8461SOL    HW226283   5.708   4.759   3.004
 8462SOL     OW26284   1.869   3.596   0.624
 8462SOL    HW126285   1.952   3.553   0.660
 8462SOL    HW226286   1.829   3.655   0.695
 8463SOL     OW26287   0.534   6.384   1.761
 8463SOL    HW126288   0.522   6.429   1.672
 8463SOL    HW226289   0.625   6.343   1.765
 8464SOL     OW26290   0.025   3.339   0.051
 8464SOL    HW126291   0.034   3.349   6.968
 8464SOL    HW226292   6.982   3.411   0.086
 8465SOL     OW26293   6.229   4.132   0.602
 8465SOL    HW126294   6.141   4.140   0.556
 8465SOL    HW226295   6.256   4.036   0.605
 8466SOL     OW26296   0.200   1.143   4.791
 8466SOL    HW126297   0.275   1.202   4.822
 8466SOL    HW226298   0.237   1.068   4.736
 8467SOL     OW26299   3.195   1.043   0.653
 8467SOL    HW126300   3.144   1.103   0.592
 8467SOL    HW226301   3.148   1.036   0.741
 8468SOL     OW26302   6.618   3.571   2.101
 8468SOL    HW126303   6.520   3.550   2.107
 8468SOL    HW226304   6.664   3.538   2.184
 8469SOL     OW26305   3.381   2.859   5.653
 8469SOL    HW126306   3.315   2.905   5.713
 8469SOL    HW226307   3.358   2.762   5.646
 8470SOL     OW26308   2.025   5.581   1.027
 8470SOL    HW126309   2.057   5.656   0.970
 8470SOL    HW226310   2.102   5.525   1.056
 8471SOL     OW26311   4.128   2.039   3.523
 8471SOL    HW126312   4.063   2.070   3.592
 8471SOL    HW226313   4.115   2.091   3.439
 8472SOL     OW26314   6.242   1.652   6.960
 8472SOL    HW126315   6.187   1.685   6.883
 8472SOL    HW226316   6.336   1.638   6.929
 8473SOL     OW26317   4.988   5.113   5.428
 8473SOL    HW126318   5.027   5.166   5.353
 8473SOL    HW226319   4.986   5.169   5.511
 8474SOL     OW26320   3.441   4.031   6.421
 8474SOL    HW126321   3.533   3.994   6.429
 8474SOL    HW226322   3.380   3.962   6.382
 8475SOL     OW26323   0.778   1.996   2.767
 8475SOL    HW126324   0.711   1.936   2.810
 8475SOL    HW226325   0.840   1.943   2.710
 8476SOL     OW26326   6.637   0.944   2.593
 8476SOL    HW126327   6.732   0.917   2.608
 8476SOL    HW226328   6.633   1.043   2.579
 8477SOL     OW26329   5.743   6.591   1.091
 8477SOL    HW126330   5.819   6.647   1.124
 8477SOL    HW226331   5.690   6.643   1.024
 8478SOL     OW26332   2.120   6.602   6.731
 8478SOL    HW126333   2.122   6.694   6.770
 8478SOL    HW226334   2.065   6.542   6.789
 8479SOL     OW26335   1.357   2.149   0.088
 8479SOL    HW126336   1.351   2.058   0.129
 8479SOL    HW226337   1.296   2.155   0.009
 8480SOL     OW26338   3.415   4.470   1.515
 8480SOL    HW126339   3.425   4.551   1.573
 8480SOL    HW226340   3.324   4.468   1.476
 8481SOL     OW26341   5.544   3.362   2.032
 8481SOL    HW126342   5.506   3.414   1.955
 8481SOL    HW226343   5.578   3.425   2.101
 8482SOL     OW26344   5.006   0.150   5.726
 8482SOL    HW126345   5.001   0.250   5.728
 8482SOL    HW226346   5.084   0.120   5.780
 8483SOL     OW26347   4.603   5.266   4.248
 8483SOL    HW126348   4.562   5.257   4.340
 8483SOL    HW226349   4.634   5.176   4.217
 8484SOL     OW26350   5.519   6.637   5.750
 8484SOL    HW126351   5.439   6.609   5.803
 8484SOL    HW226352   5.500   6.726   5.707
 8485SOL     OW26353   3.420   0.060   5.903
 8485SOL    HW126354   3.487   0.039   5.833
 8485SOL    HW226355   3.334   0.089   5.860
 8486SOL     OW26356   4.787   3.068   5.126
 8486SOL    HW126357   4.812   3.156   5.084
 8486SOL    HW226358   4.783   3.078   5.225
 8487SOL     OW26359   0.659   1.364   5.376
 8487SOL    HW126360   0.695   1.315   5.456
 8487SOL    HW226361   0.735   1.393   5.318
 8488SOL     OW26362   4.270   5.869   3.210
 8488SOL    HW126363   4.364   5.896   3.229
 8488SOL    HW226364   4.258   5.852   3.112
 8489SOL     OW26365   6.204   2.235   1.783
 8489SOL    HW126366   6.138   2.229   1.709
 8489SOL    HW226367   6.240   2.144   1.804
 8490SOL     OW26368   4.021   0.363   6.916
 8490SOL    HW126369   3.979   0.451   6.892
 8490SOL    HW226370   4.106   0.380   6.967
 8491SOL     OW26371   2.828   6.114   1.721
 8491SOL    HW126372   2.889   6.038   1.698
 8491SOL    HW226373   2.868   6.200   1.688
 8492SOL     OW26374   5.853   6.705   3.856
 8492SOL    HW126375   5.940   6.707   3.806
 8492SOL    HW226376   5.802   6.622   3.833
 8493SOL     OW26377   4.976   0.195   5.452
 8493SOL    HW126378   4.890   0.178   5.405
 8493SOL    HW226379   4.969   0.164   5.547
 8494SOL     OW26380   0.185   3.871   2.257
 8494SOL    HW126381   0.087   3.871   2.239
 8494SOL    HW226382   0.233   3.827   2.181
 8495SOL     OW26383   4.455   5.922   4.783
 8495SOL    HW126384   4.379   5.981   4.754
 8495SOL    HW226385   4.480   5.946   4.877
 8496SOL     OW26386   3.832   2.104   2.385
 8496SOL    HW126387   3.778   2.136   2.306
 8496SOL    HW226388   3.787   2.024   2.425
 8497SOL     OW26389   6.511   0.936   3.375
 8497SOL    HW126390   6.439   0.867   3.381
 8497SOL    HW226391   6.592   0.896   3.331
 8498SOL     OW26392   5.772   6.207   5.374
 8498SOL    HW126393   5.863   6.168   5.361
 8498SOL    HW226394   5.721   6.151   5.440
 8499SOL     OW26395   6.374   0.253   6.065
 8499SOL    HW126396   6.431   0.293   5.993
 8499SOL    HW226397   6.279   0.278   6.050
 8500SOL     OW26398   0.275   0.797   5.809
 8500SOL    HW126399   0.302   0.843   5.724
 8500SOL    HW226400   0.298   0.855   5.887
 8501SOL     OW26401   3.873   6.533   5.166
 8501SOL    HW126402   3.935   6.454   5.173
 8501SOL    HW226403   3.838   6.540   5.073
 8502SOL     OW26404   6.581   2.789   0.394
 8502SOL    HW126405   6.678   2.768   0.378
 8502SOL    HW226406   6.569   2.824   0.487
 8503SOL     OW26407   4.805   2.354   6.098
 8503SOL    HW126408   4.903   2.340   6.083
 8503SOL    HW226409   4.753   2.283   6.050
 8504SOL     OW26410   1.308   1.056   3.233
 8504SOL    HW126411   1.329   1.094   3.323
 8504SOL    HW226412   1.216   1.086   3.205
 8505SOL     OW26413   6.098   1.331   2.692
 8505SOL    HW126414   6.167   1.267   2.659
 8505SOL    HW226415   6.097   1.330   2.792
 8506SOL     OW26416   2.029   1.227   4.456
 8506SOL    HW126417   1.940   1.207   4.416
 8506SOL    HW226418   2.095   1.157   4.427
 8507SOL     OW26419   4.082   5.668   0.249
 8507SOL    HW126420   4.129   5.755   0.233
 8507SOL    HW226421   4.146   5.593   0.234
 8508SOL     OW26422   3.527   0.790   5.953
 8508SOL    HW126423   3.568   0.875   5.986
 8508SOL    HW226424   3.509   0.729   6.030
 8509SOL     OW26425   4.083   2.226   2.347
 8509SOL    HW126426   3.995   2.182   2.367
 8509SOL    HW226427   4.122   2.262   2.432
 8510SOL     OW26428   0.510   2.259   5.005
 8510SOL    HW126429   0.532   2.194   5.077
 8510SOL    HW226430   0.589   2.318   4.988
 8511SOL     OW26431   5.927   1.955   4.360
 8511SOL    HW126432   5.963   2.044   4.387
 8511SOL    HW226433   5.837   1.967   4.317
 8512SOL     OW26434   2.747   6.456   6.479
 8512SOL    HW126435   2.751   6.368   6.432
 8512SOL    HW226436   2.839   6.492   6.491
 8513SOL     OW26437   3.923   5.914   7.005
 8513SOL    HW126438   3.905   5.848   0.062
 8513SOL    HW226439   3.837   5.938   6.960
 8514SOL     OW26440   4.583   5.501   4.653
 8514SOL    HW126441   4.530   5.533   4.575
 8514SOL    HW226442   4.676   5.537   4.647
 8515SOL     OW26443   5.349   2.715   1.832
 8515SOL    HW126444   5.367   2.806   1.794
 8515SOL    HW226445   5.418   2.693   1.901
 8516SOL     OW26446   6.819   2.616   1.568
 8516SOL    HW126447   6.833   2.635   1.471
 8516SOL    HW226448   6.892   2.659   1.621
 8517SOL     OW26449   0.693   3.495   4.673
 8517SOL    HW126450   0.695   3.401   4.707
 8517SOL    HW226451   0.726   3.557   4.744
 8518SOL     OW26452   3.763   5.817   1.578
 8518SOL    HW126453   3.690   5.808   1.646
 8518SOL    HW226454   3.829   5.886   1.608
 8519SOL     OW26455   3.089   5.573   3.317
 8519SOL    HW126456   3.018   5.517   3.274
 8519SOL    HW226457   3.092   5.663   3.274
 8520SOL     OW26458   3.600   5.455   0.026
 8520SOL    HW126459   3.536   5.528   0.048
 8520SOL    HW226460   3.655   5.433   0.107
 8521SOL     OW26461   0.533   1.358   3.243
 8521SOL    HW126462   0.618   1.378   3.293
 8521SOL    HW226463   0.457   1.355   3.307
 8522SOL     OW26464   2.181   5.991   4.548
 8522SOL    HW126465   2.259   5.995   4.486
 8522SOL    HW226466   2.185   5.906   4.600
 8523SOL     OW26467   2.045   5.360   6.746
 8523SOL    HW126468   2.030   5.357   6.845
 8523SOL    HW226469   2.139   5.390   6.727
 8524SOL     OW26470   2.124   1.348   6.507
 8524SOL    HW126471   2.220   1.367   6.527
 8524SOL    HW226472   2.117   1.264   6.454
 8525SOL     OW26473   5.880   4.312   4.656
 8525SOL    HW126474   5.914   4.401   4.685
 8525SOL    HW226475   5.788   4.322   4.618
 8526SOL     OW26476   6.710   3.154   1.898
 8526SOL    HW126477   6.687   3.123   1.805
 8526SOL    HW226478   6.770   3.087   1.942
 8527SOL     OW26479   5.145   1.301   5.088
 8527SOL    HW126480   5.180   1.361   5.016
 8527SOL    HW226481   5.198   1.217   5.089
 8528SOL     OW26482   5.575   7.012   0.021
 8528SOL    HW126483   5.611   6.968   0.103
 8528SOL    HW226484   5.509   0.066   0.047
 8529SOL     OW26485   6.878   0.869   4.604
 8529SOL    HW126486   6.833   0.829   4.524
 8529SOL    HW226487   6.809   0.891   4.673
 8530SOL     OW26488   1.673   5.052   5.975
 8530SOL    HW126489   1.760   5.081   6.015
 8530SOL    HW226490   1.682   4.959   5.940
 8531SOL     OW26491   3.085   5.565   2.898
 8531SOL    HW126492   2.999   5.524   2.928
 8531SOL    HW226493   3.141   5.586   2.978
 8532SOL     OW26494   1.108   3.319   6.548
 8532SOL    HW126495   1.044   3.363   6.485
 8532SOL    HW226496   1.077   3.226   6.567
 8533SOL     OW26497   3.407   0.321   6.354
 8533SOL    HW126498   3.386   0.264   6.433
 8533SOL    HW226499   3.419   0.263   6.273
 8534SOL     OW26500   3.193   2.424   0.925
 8534SOL    HW126501   3.206   2.494   0.854
 8534SOL    HW226502   3.280   2.380   0.945
 8535SOL     OW26503   0.232   2.525   5.604
 8535SOL    HW126504   0.169   2.497   5.677
 8535SOL    HW226505   0.307   2.577   5.644
 8536SOL     OW26506   6.951   0.462   6.311
 8536SOL    HW126507   6.939   0.509   6.397
 8536SOL    HW226508   6.864   0.456   6.263
 8537SOL     OW26509   3.625   6.722   3.250
 8537SOL    HW126510   3.645   6.764   3.161
 8537SOL    HW226511   3.681   6.764   3.320
 8538SOL     OW26512   4.000   1.895   5.190
 8538SOL    HW126513   4.029   1.839   5.268
 8538SOL    HW226514   3.987   1.838   5.110
 8539SOL     OW26515   0.590   3.189   2.935
 8539SOL    HW126516   0.590   3.219   3.031
 8539SOL    HW226517   0.676   3.143   2.915
 8540SOL     OW26518   4.461   5.740   6.234
 8540SOL    HW126519   4.474   5.672   6.162
 8540SOL    HW226520   4.385   5.712   6.293
 8541SOL     OW26521   3.640   5.722   6.047
 8541SOL    HW126522   3.608   5.802   6.097
 8541SOL    HW226523   3.731   5.740   6.010
 8542SOL     OW26524   1.261   5.340   4.725
 8542SOL    HW126525   1.265   5.243   4.749
 8542SOL    HW226526   1.211   5.389   4.795
 8543SOL     OW26527   3.346   1.846   5.597
 8543SOL    HW126528   3.362   1.804   5.686
 8543SOL    HW226529   3.430   1.893   5.567
 8544SOL     OW26530   4.859   3.745   5.249
 8544SOL    HW126531   4.848   3.695   5.162
 8544SOL    HW226532   4.877   3.680   5.322
 8545SOL     OW26533   1.998   0.847   6.237
 8545SOL    HW126534   1.989   0.795   6.322
 8545SOL    HW226535   1.930   0.815   6.171
 8546SOL     OW26536   2.745   1.581   4.037
 8546SOL    HW126537   2.766   1.546   4.128
 8546SOL    HW226538   2.773   1.676   4.030
 8547SOL     OW26539   5.734   4.335   6.179
 8547SOL    HW126540   5.692   4.416   6.138
 8547SOL    HW226541   5.730   4.342   6.278
 8548SOL     OW26542   1.550   4.495   3.859
 8548SOL    HW126543   1.590   4.520   3.947
 8548SOL    HW226544   1.503   4.407   3.867
 8549SOL     OW26545   2.637   0.288   3.609
 8549SOL    HW126546   2.709   0.293   3.540
 8549SOL    HW226547   2.629   0.194   3.643
 8550SOL     OW26548   0.438   3.205   5.254
 8550SOL    HW126549   0.354   3.253   5.281
 8550SOL    HW226550   0.478   3.161   5.335
 8551SOL     OW26551   3.381   1.831   4.009
 8551SOL    HW126552   3.345   1.842   3.916
 8551SOL    HW226553   3.394   1.921   4.050
 8552SOL     OW26554   4.250   1.708   2.364
 8552SOL    HW126555   4.183   1.782   2.369
 8552SOL    HW226556   4.206   1.624   2.333
 8553SOL     OW26557   5.792   2.611   0.819
 8553SOL    HW126558   5.838   2.561   0.892
 8553SOL    HW226559   5.854   2.621   0.741
 8554SOL     OW26560   0.241   0.922   6.435
 8554SOL    HW126561   0.198   1.010   6.415
 8554SOL    HW226562   0.171   0.856   6.462
 8555SOL     OW26563   3.665   1.911   3.925
 8555SOL    HW126564   3.584   1.866   3.887
 8555SOL    HW226565   3.699   1.858   4.002
 8556SOL     OW26566   1.061   3.894   6.095
 8556SOL    HW126567   1.138   3.851   6.144
 8556SOL    HW226568   1.092   3.927   6.006
 8557SOL     OW26569   6.243   6.874   0.583
 8557SOL    HW126570   6.266   6.885   0.680
 8557SOL    HW226571   6.266   6.957   0.534
 8558SOL     OW26572   2.717   6.258   3.541
 8558SOL    HW126573   2.731   6.159   3.536
 8558SOL    HW226574   2.662   6.289   3.463
 8559SOL     OW26575   1.669   3.134   3.013
 8559SOL    HW126576   1.605   3.210   3.005
 8559SOL    HW226577   1.619   3.050   3.032
 8560SOL     OW26578   3.359   4.683   1.678
 8560SOL    HW126579   3.436   4.669   1.740
 8560SOL    HW226580   3.274   4.678   1.730
 8561SOL     OW26581   3.357   1.100   2.383
 8561SOL    HW126582   3.456   1.098   2.365
 8561SOL    HW226583   3.308   1.112   2.296
 8562SOL     OW26584   5.425   3.634   6.007
 8562SOL    HW126585   5.454   3.724   5.974
 8562SOL    HW226586   5.354   3.598   5.947
 8563SOL     OW26587   6.793   4.089   3.527
 8563SOL    HW126588   6.755   4.157   3.464
 8563SOL    HW226589   6.867   4.040   3.482
 8564SOL     OW26590   3.702   6.350   6.897
 8564SOL    HW126591   3.715   6.447   6.879
 8564SOL    HW226592   3.712   6.298   6.812
 8565SOL     OW26593   0.977   5.104   0.739
 8565SOL    HW126594   0.917   5.150   0.804
 8565SOL    HW226595   1.046   5.052   0.789
 8566SOL     OW26596   2.539   0.855   3.790
 8566SOL    HW126597   2.538   0.867   3.691
 8566SOL    HW226598   2.451   0.883   3.828
 8567SOL     OW26599   1.524   3.520   0.186
 8567SOL    HW126600   1.590   3.487   0.253
 8567SOL    HW226601   1.478   3.441   0.144
 8568SOL     OW26602   5.735   6.925   6.451
 8568SOL    HW126603   5.749   6.836   6.495
 8568SOL    HW226604   5.758   6.919   6.354
 8569SOL     OW26605   4.276   1.887   6.101
 8569SOL    HW126606   4.364   1.895   6.147
 8569SOL    HW226607   4.259   1.792   6.077
 8570SOL     OW26608   1.752   2.239   4.223
 8570SOL    HW126609   1.690   2.305   4.266
 8570SOL    HW226610   1.763   2.261   4.126
 8571SOL     OW26611   1.692   0.898   3.852
 8571SOL    HW126612   1.686   0.996   3.867
 8571SOL    HW226613   1.667   0.850   3.936
 8572SOL     OW26614   2.694   3.183   6.321
 8572SOL    HW126615   2.701   3.144   6.230
 8572SOL    HW226616   2.647   3.271   6.316
 8573SOL     OW26617   1.492   6.481   5.701
 8573SOL    HW126618   1.433   6.459   5.780
 8573SOL    HW226619   1.499   6.400   5.642
 8574SOL     OW26620   6.358   2.633   5.530
 8574SOL    HW126621   6.261   2.652   5.520
 8574SOL    HW226622   6.374   2.580   5.613
 8575SOL     OW26623   1.593   6.677   4.095
 8575SOL    HW126624   1.525   6.678   4.022
 8575SOL    HW226625   1.677   6.633   4.062
 8576SOL     OW26626   1.189   4.197   4.049
 8576SOL    HW126627   1.146   4.109   4.065
 8576SOL    HW226628   1.166   4.229   3.957
 8577SOL     OW26629   1.818   1.312   1.455
 8577SOL    HW126630   1.865   1.354   1.378
 8577SOL    HW226631   1.882   1.304   1.532
 8578SOL     OW26632   1.959   0.889   5.763
 8578SOL    HW126633   1.982   0.960   5.829
 8578SOL    HW226634   2.038   0.869   5.705
 8579SOL     OW26635   2.622   0.021   2.954
 8579SOL    HW126636   2.666   6.974   3.018
 8579SOL    HW226637   2.628   7.000   2.861
 8580SOL     OW26638   1.106   0.248   2.271
 8580SOL    HW126639   1.162   0.209   2.198
 8580SOL    HW226640   1.165   0.285   2.343
 8581SOL     OW26641   3.771   2.988   3.793
 8581SOL    HW126642   3.870   2.993   3.802
 8581SOL    HW226643   3.728   3.030   3.872
 8582SOL     OW26644   5.370   5.296   6.963
 8582SOL    HW126645   5.426   5.372   6.930
 8582SOL    HW226646   5.402   5.211   6.919
 8583SOL     OW26647   3.551   7.014   2.116
 8583SOL    HW126648   3.615   7.015   2.193
 8583SOL    HW226649   3.595   0.035   2.035
 8584SOL     OW26650   5.321   2.664   6.168
 8584SOL    HW126651   5.234   2.705   6.141
 8584SOL    HW226652   5.304   2.583   6.225
 8585SOL     OW26653   4.713   2.769   3.030
 8585SOL    HW126654   4.736   2.848   3.086
 8585SOL    HW226655   4.734   2.789   2.934
 8586SOL     OW26656   5.999   6.745   5.960
 8586SOL    HW126657   5.907   6.785   5.954
 8586SOL    HW226658   6.056   6.782   5.887
 8587SOL     OW26659   6.444   6.723   1.166
 8587SOL    HW126660   6.510   6.791   1.199
 8587SOL    HW226661   6.484   6.672   1.090
 8588SOL     OW26662   1.777   2.322   5.628
 8588SOL    HW126663   1.842   2.398   5.620
 8588SOL    HW226664   1.746   2.295   5.537
 8589SOL     OW26665   6.307   3.201   6.498
 8589SOL    HW126666   6.278   3.105   6.503
 8589SOL    HW226667   6.406   3.206   6.508
 8590SOL     OW26668   1.193   1.890   2.768
 8590SOL    HW126669   1.262   1.948   2.723
 8590SOL    HW226670   1.188   1.914   2.865
 8591SOL     OW26671   0.583   4.604   6.250
 8591SOL    HW126672   0.526   4.557   6.317
 8591SOL    HW226673   0.656   4.543   6.220
 8592SOL     OW26674   0.164   2.010   4.585
 8592SOL    HW126675   0.126   2.057   4.505
 8592SOL    HW226676   0.208   2.076   4.645
 8593SOL     OW26677   6.631   0.541   0.490
 8593SOL    HW126678   6.695   0.605   0.533
 8593SOL    HW226679   6.544   0.544   0.539
 8594SOL     OW26680   6.548   2.134   0.181
 8594SOL    HW126681   6.591   2.220   0.208
 8594SOL    HW226682   6.473   2.152   0.118
 8595SOL     OW26683   5.706   6.432   1.692
 8595SOL    HW126684   5.757   6.362   1.743
 8595SOL    HW226685   5.760   6.460   1.612
 8596SOL     OW26686   0.567   2.813   5.861
 8596SOL    HW126687   0.653   2.774   5.894
 8596SOL    HW226688   0.585   2.871   5.782
 8597SOL     OW26689   6.334   2.259   5.481
 8597SOL    HW126690   6.239   2.292   5.475
 8597SOL    HW226691   6.351   2.225   5.573
 8598SOL     OW26692   6.459   0.042   5.715
 8598SOL    HW126693   6.500   0.131   5.735
 8598SOL    HW226694   6.406   0.011   5.794
 8599SOL     OW26695   6.320   4.244   5.285
 8599SOL    HW126696   6.358   4.302   5.357
 8599SOL    HW226697   6.322   4.149   5.315
 8600SOL     OW26698   3.553   3.217   1.789
 8600SOL    HW126699   3.476   3.227   1.726
 8600SOL    HW226700   3.520   3.177   1.875
 8601SOL     OW26701   4.827   4.406   1.452
 8601SOL    HW126702   4.908   4.422   1.396
 8601SOL    HW226703   4.854   4.367   1.540
 8602SOL     OW26704   1.863   6.012   5.225
 8602SOL    HW126705   1.768   6.044   5.227
 8602SOL    HW226706   1.924   6.087   5.253
 8603SOL     OW26707   0.389   1.063   7.013
 8603SOL    HW126708   0.483   1.068   6.977
 8603SOL    HW226709   0.376   0.976   0.044
 8604SOL     OW26710   1.742   6.008   6.073
 8604SOL    HW126711   1.754   5.911   6.051
 8604SOL    HW226712   1.657   6.021   6.123
 8605SOL     OW26713   6.572   5.451   3.790
 8605SOL    HW126714   6.641   5.384   3.818
 8605SOL    HW226715   6.544   5.506   3.869
 8606SOL     OW26716   0.602   0.584   6.216
 8606SOL    HW126717   0.656   0.664   6.191
 8606SOL    HW226718   0.509   0.593   6.178
 8607SOL     OW26719   3.205   2.775   1.825
 8607SOL    HW126720   3.178   2.679   1.836
 8607SOL    HW226721   3.124   2.833   1.832
 8608SOL     OW26722   1.200   5.622   2.367
 8608SOL    HW126723   1.140   5.565   2.424
 8608SOL    HW226724   1.270   5.565   2.325
 8609SOL     OW26725   5.384   2.594   3.858
 8609SOL    HW126726   5.442   2.579   3.778
 8609SOL    HW226727   5.439   2.637   3.931
 8610SOL     OW26728   6.703   5.462   2.412
 8610SOL    HW126729   6.716   5.408   2.495
 8610SOL    HW226730   6.792   5.489   2.376
 8611SOL     OW26731   1.968   1.685   5.596
 8611SOL    HW126732   1.902   1.617   5.626
 8611SOL    HW226733   1.924   1.775   5.589
 8612SOL     OW26734   3.413   2.912   6.090
 8612SOL    HW126735   3.378   2.878   6.178
 8612SOL    HW226736   3.445   2.835   6.035
 8613SOL     OW26737   3.531   3.214   3.285
 8613SOL    HW126738   3.465   3.148   3.321
 8613SOL    HW226739   3.482   3.292   3.245
 8614SOL     OW26740   0.114   3.593   3.763
 8614SOL    HW126741   0.080   3.522   3.700
 8614SOL    HW226742   0.063   3.589   3.849
 8615SOL     OW26743   4.196   0.329   5.189
 8615SOL    HW126744   4.125   0.300   5.125
 8615SOL    HW226745   4.215   0.426   5.176
 8616SOL     OW26746   6.027   3.580   5.400
 8616SOL    HW126747   6.089   3.520   5.349
 8616SOL    HW226748   5.932   3.551   5.383
 8617SOL     OW26749   0.906   0.064   4.218
 8617SOL    HW126750   0.986   0.068   4.158
 8617SOL    HW226751   0.824   0.087   4.165
 8618SOL     OW26752   6.853   4.756   0.713
 8618SOL    HW126753   6.843   4.828   0.783
 8618SOL    HW226754   6.797   4.779   0.634
 8619SOL     OW26755   5.850   4.064   6.646
 8619SOL    HW126756   5.825   4.010   6.565
 8619SOL    HW226757   5.940   4.106   6.632
 8620SOL     OW26758   0.905   6.322   3.841
 8620SOL    HW126759   0.819   6.301   3.794
 8620SOL    HW226760   0.978   6.332   3.774
 8621SOL     OW26761   6.424   3.200   1.943
 8621SOL    HW126762   6.516   3.212   1.906
 8621SOL    HW226763   6.357   3.236   1.878
 8622SOL     OW26764   0.890   5.985   1.916
 8622SOL    HW126765   0.965   5.960   1.855
 8622SOL    HW226766   0.851   6.072   1.888
 8623SOL     OW26767   1.608   2.404   3.677
 8623SOL    HW126768   1.615   2.452   3.589
 8623SOL    HW226769   1.631   2.308   3.663
 8624SOL     OW26770   3.275   3.856   6.288
 8624SOL    HW126771   3.308   3.798   6.214
 8624SOL    HW226772   3.226   3.934   6.249
 8625SOL     OW26773   4.213   3.168   6.013
 8625SOL    HW126774   4.114   3.172   6.024
 8625SOL    HW226775   4.244   3.074   6.029
 8626SOL     OW26776   5.532   1.331   0.082
 8626SOL    HW126777   5.453   1.382   0.049
 8626SOL    HW226778   5.553   1.358   0.176
 8627SOL     OW26779   6.905   0.131   2.262
 8627SOL    HW126780   6.842   0.083   2.324
 8627SOL    HW226781   6.964   0.192   2.315
 8628SOL     OW26782   1.247   6.377   0.322
 8628SOL    HW126783   1.171   6.441   0.313
 8628SOL    HW226784   1.213   6.284   0.316
 8629SOL     OW26785   6.777   1.248   4.667
 8629SOL    HW126786   6.863   1.244   4.719
 8629SOL    HW226787   6.788   1.199   4.581
 8630SOL     OW26788   5.566   3.055   2.167
 8630SOL    HW126789   5.614   3.128   2.119
 8630SOL    HW226790   5.627   3.012   2.233
 8631SOL     OW26791   1.200   5.706   0.237
 8631SOL    HW126792   1.105   5.739   0.237
 8631SOL    HW226793   1.225   5.677   0.145
 8632SOL     OW26794   5.979   6.003   3.276
 8632SOL    HW126795   6.061   6.013   3.333
 8632SOL    HW226796   5.989   5.921   3.220
 8633SOL     OW26797   6.765   3.737   5.840
 8633SOL    HW126798   6.700   3.769   5.771
 8633SOL    HW226799   6.772   3.804   5.914
 8634SOL     OW26800   4.751   4.446   0.098
 8634SOL    HW126801   4.761   4.529   0.044
 8634SOL    HW226802   4.656   4.436   0.128
 8635SOL     OW26803   5.281   1.456   0.009
 8635SOL    HW126804   5.293   1.533   0.072
 8635SOL    HW226805   5.292   1.489   6.931
 8636SOL     OW26806   4.572   5.888   0.225
 8636SOL    HW126807   4.473   5.873   0.213
 8636SOL    HW226808   4.611   5.810   0.274
 8637SOL     OW26809   2.892   2.971   0.921
 8637SOL    HW126810   2.897   3.008   1.014
 8637SOL    HW226811   2.980   2.930   0.897
 8638SOL     OW26812   4.663   2.160   4.241
 8638SOL    HW126813   4.595   2.216   4.193
 8638SOL    HW226814   4.693   2.086   4.182
 8639SOL     OW26815   4.110   4.213   0.371
 8639SOL    HW126816   4.024   4.232   0.324
 8639SOL    HW226817   4.115   4.116   0.394
 8640SOL     OW26818   2.935   2.818   6.891
 8640SOL    HW126819   2.995   2.749   6.932
 8640SOL    HW226820   2.884   2.866   6.963
 8641SOL     OW26821   2.982   5.156   3.116
 8641SOL    HW126822   2.923   5.096   3.063
 8641SOL    HW226823   3.074   5.116   3.122
 8642SOL     OW26824   2.530   6.427   2.764
 8642SOL    HW126825   2.488   6.368   2.833
 8642SOL    HW226826   2.463   6.493   2.731
 8643SOL     OW26827   3.689   6.288   1.238
 8643SOL    HW126828   3.618   6.354   1.215
 8643SOL    HW226829   3.743   6.266   1.157
 8644SOL     OW26830   5.375   2.225   6.865
 8644SOL    HW126831   5.465   2.215   6.909
 8644SOL    HW226832   5.371   2.168   6.783
 8645SOL     OW26833   4.466   5.237   2.821
 8645SOL    HW126834   4.411   5.273   2.897
 8645SOL    HW226835   4.562   5.234   2.849
 8646SOL     OW26836   6.139   1.793   3.639
 8646SOL    HW126837   6.047   1.770   3.605
 8646SOL    HW226838   6.141   1.889   3.666
 8647SOL     OW26839   1.704   4.534   1.904
 8647SOL    HW126840   1.668   4.575   1.820
 8647SOL    HW226841   1.785   4.479   1.882
 8648SOL     OW26842   6.080   5.739   6.126
 8648SOL    HW126843   6.048   5.822   6.080
 8648SOL    HW226844   6.069   5.661   6.066
 8649SOL     OW26845   5.478   2.864   2.498
 8649SOL    HW126846   5.495   2.787   2.437
 8649SOL    HW226847   5.503   2.839   2.591
 8650SOL     OW26848   1.111   1.247   4.806
 8650SOL    HW126849   1.139   1.154   4.783
 8650SOL    HW226850   1.158   1.312   4.746
 8651SOL     OW26851   4.751   1.195   1.343
 8651SOL    HW126852   4.700   1.109   1.343
 8651SOL    HW226853   4.704   1.262   1.285
 8652SOL     OW26854   6.341   2.970   4.598
 8652SOL    HW126855   6.298   2.881   4.615
 8652SOL    HW226856   6.271   3.038   4.579
 8653SOL     OW26857   4.360   0.940   6.522
 8653SOL    HW126858   4.375   1.038   6.534
 8653SOL    HW226859   4.323   0.922   6.431
 8654SOL     OW26860   6.481   4.728   3.629
 8654SOL    HW126861   6.568   4.693   3.593
 8654SOL    HW226862   6.464   4.689   3.719
 8655SOL     OW26863   1.568   6.967   4.645
 8655SOL    HW126864   1.515   0.032   4.672
 8655SOL    HW226865   1.617   6.986   4.560
 8656SOL     OW26866   3.557   6.479   0.097
 8656SOL    HW126867   3.597   6.451   0.184
 8656SOL    HW226868   3.605   6.433   0.022
 8657SOL     OW26869   2.911   1.917   2.586
 8657SOL    HW126870   2.822   1.932   2.543
 8657SOL    HW226871   2.982   1.964   2.534
 8658SOL     OW26872   5.890   3.889   0.869
 8658SOL    HW126873   5.942   3.820   0.820
 8658SOL    HW226874   5.793   3.880   0.846
 8659SOL     OW26875   3.107   6.599   3.301
 8659SOL    HW126876   3.175   6.645   3.359
 8659SOL    HW226877   3.050   6.668   3.255
 8660SOL     OW26878   6.642   4.393   0.768
 8660SOL    HW126879   6.681   4.338   0.842
 8660SOL    HW226880   6.574   4.455   0.806
 8661SOL     OW26881   6.149   2.697   1.068
 8661SOL    HW126882   6.109   2.782   1.034
 8661SOL    HW226883   6.176   2.640   0.990
 8662SOL     OW26884   1.744   2.704   2.303
 8662SOL    HW126885   1.691   2.780   2.265
 8662SOL    HW226886   1.771   2.726   2.397
 8663SOL     OW26887   3.227   5.824   1.667
 8663SOL    HW126888   3.288   5.756   1.708
 8663SOL    HW226889   3.177   5.782   1.591
 8664SOL     OW26890   3.232   5.956   4.566
 8664SOL    HW126891   3.265   5.913   4.651
 8664SOL    HW226892   3.264   6.050   4.562
 8665SOL     OW26893   0.618   2.936   6.182
 8665SOL    HW126894   0.573   2.905   6.099
 8665SOL    HW226895   0.645   3.032   6.172
 8666SOL     OW26896   4.112   0.096   2.503
 8666SOL    HW126897   4.039   0.080   2.570
 8666SOL    HW226898   4.196   0.054   2.535
 8667SOL     OW26899   4.375   2.064   1.777
 8667SOL    HW126900   4.287   2.108   1.757
 8667SOL    HW226901   4.403   2.008   1.699
 8668SOL     OW26902   3.375   1.789   3.470
 8668SOL    HW126903   3.290   1.793   3.417
 8668SOL    HW226904   3.453   1.803   3.409
 8669SOL     OW26905   0.161   5.955   6.320
 8669SOL    HW126906   0.095   5.973   6.393
 8669SOL    HW226907   0.158   6.029   6.253
 8670SOL     OW26908   6.908   4.859   5.071
 8670SOL    HW126909   6.861   4.780   5.110
 8670SOL    HW226910   7.007   4.845   5.077
 8671SOL     OW26911   0.102   3.670   3.284
 8671SOL    HW126912   0.031   3.652   3.216
 8671SOL    HW226913   0.076   3.750   3.339
 8672SOL     OW26914   6.434   1.243   1.967
 8672SOL    HW126915   6.499   1.174   1.998
 8672SOL    HW226916   6.484   1.319   1.924
 8673SOL     OW26917   0.280   0.784   2.127
 8673SOL    HW126918   0.228   0.724   2.065
 8673SOL    HW226919   0.371   0.746   2.141
 8674SOL     OW26920   0.345   2.535   4.139
 8674SOL    HW126921   0.327   2.519   4.236
 8674SOL    HW226922   0.279   2.483   4.084
 8675SOL     OW26923   5.793   2.183   4.479
 8675SOL    HW126924   5.729   2.258   4.499
 8675SOL    HW226925   5.761   2.100   4.524
 8676SOL     OW26926   5.308   2.807   1.088
 8676SOL    HW126927   5.386   2.745   1.094
 8676SOL    HW226928   5.250   2.780   1.011
 8677SOL     OW26929   3.046   1.600   6.723
 8677SOL    HW126930   2.951   1.630   6.725
 8677SOL    HW226931   3.094   1.643   6.647
 8678SOL     OW26932   2.516   1.755   0.345
 8678SOL    HW126933   2.606   1.789   0.319
 8678SOL    HW226934   2.483   1.693   0.273
 8679SOL     OW26935   1.977   1.925   6.787
 8679SOL    HW126936   2.029   1.965   6.711
 8679SOL    HW226937   2.034   1.925   6.869
 8680SOL     OW26938   7.003   6.948   1.265
 8680SOL    HW126939   6.995   7.007   1.345
 8680SOL    HW226940   6.978   6.999   1.183
 8681SOL     OW26941   5.485   5.885   0.968
 8681SOL    HW126942   5.582   5.885   0.995
 8681SOL    HW226943   5.432   5.832   1.034
 8682SOL     OW26944   1.616   2.132   1.747
 8682SOL    HW126945   1.522   2.165   1.755
 8682SOL    HW226946   1.632   2.101   1.653
 8683SOL     OW26947   2.520   5.304   4.292
 8683SOL    HW126948   2.525   5.204   4.293
 8683SOL    HW226949   2.428   5.333   4.267
 8684SOL     OW26950   2.324   4.480   4.022
 8684SOL    HW126951   2.350   4.431   3.940
 8684SOL    HW226952   2.318   4.416   4.099
 8685SOL     OW26953   4.436   3.217   5.326
 8685SOL    HW126954   4.347   3.258   5.306
 8685SOL    HW226955   4.424   3.126   5.365
 8686SOL     OW26956   0.626   5.064   2.216
 8686SOL    HW126957   0.553   5.108   2.165
 8686SOL    HW226958   0.588   5.018   2.296
 8687SOL     OW26959   5.455   3.353   5.631
 8687SOL    HW126960   5.443   3.274   5.571
 8687SOL    HW226961   5.545   3.394   5.614
 8688SOL     OW26962   1.303   3.264   4.274
 8688SOL    HW126963   1.242   3.343   4.272
 8688SOL    HW226964   1.258   3.186   4.230
 8689SOL     OW26965   5.051   3.704   1.277
 8689SOL    HW126966   5.030   3.629   1.214
 8689SOL    HW226967   5.107   3.772   1.230
 8690SOL     OW26968   1.036   2.762   2.041
 8690SOL    HW126969   1.121   2.805   2.011
 8690SOL    HW226970   0.976   2.832   2.081
 8691SOL     OW26971   3.938   1.228   6.988
 8691SOL    HW126972   3.931   1.152   6.924
 8691SOL    HW226973   4.000   1.202   0.047
 8692SOL     OW26974   5.392   2.204   4.609
 8692SOL    HW126975   5.327   2.135   4.642
 8692SOL    HW226976   5.462   2.219   4.678
 8693SOL     OW26977   0.826   0.472   4.959
 8693SOL    HW126978   0.820   0.480   5.058
 8693SOL    HW226979   0.918   0.499   4.929
 8694SOL     OW26980   3.495   3.599   6.314
 8694SOL    HW126981   3.519   3.609   6.217
 8694SOL    HW226982   3.515   3.685   6.361
 8695SOL     OW26983   3.924   4.159   1.041
 8695SOL    HW126984   3.904   4.080   1.099
 8695SOL    HW226985   3.945   4.128   0.949
 8696SOL     OW26986   2.401   4.177   6.590
 8696SOL    HW126987   2.446   4.117   6.655
 8696SOL    HW226988   2.458   4.257   6.573
 8697SOL     OW26989   1.083   3.093   4.564
 8697SOL    HW126990   1.176   3.084   4.599
 8697SOL    HW226991   1.087   3.125   4.469
 8698SOL     OW26992   5.483   4.545   6.637
 8698SOL    HW126993   5.538   4.602   6.576
 8698SOL    HW226994   5.395   4.526   6.595
 8699SOL     OW26995   2.254   1.791   1.895
 8699SOL    HW126996   2.221   1.802   1.801
 8699SOL    HW226997   2.256   1.879   1.941
 8700SOL     OW26998   0.475   2.541   4.845
 8700SOL    HW126999   0.526   2.569   4.926
 8700SOL    HW227000   0.422   2.618   4.810
 8701SOL     OW27001   2.739   3.197   0.297
 8701SOL    HW127002   2.788   3.113   0.274
 8701SOL    HW227003   2.643   3.175   0.314
 8702SOL     OW27004   5.187   4.424   0.774
 8702SOL    HW127005   5.192   4.430   0.674
 8702SOL    HW227006   5.263   4.369   0.807
 8703SOL     OW27007   2.391   5.301   0.905
 8703SOL    HW127008   2.408   5.398   0.888
 8703SOL    HW227009   2.322   5.267   0.841
 8704SOL     OW27010   6.533   1.613   3.932
 8704SOL    HW127011   6.618   1.615   3.985
 8704SOL    HW227012   6.458   1.647   3.989
 8705SOL     OW27013   3.649   2.275   0.494
 8705SOL    HW127014   3.714   2.199   0.487
 8705SOL    HW227015   3.698   2.361   0.501
 8706SOL     OW27016   5.064   2.924   5.058
 8706SOL    HW127017   4.991   2.984   5.092
 8706SOL    HW227018   5.041   2.829   5.077
 8707SOL     OW27019   1.840   0.481   3.641
 8707SOL    HW127020   1.827   0.392   3.596
 8707SOL    HW227021   1.816   0.554   3.578
 8708SOL     OW27022   5.598   2.383   0.410
 8708SOL    HW127023   5.559   2.475   0.418
 8708SOL    HW227024   5.523   2.317   0.399
 8709SOL     OW27025   5.984   5.849   4.037
 8709SOL    HW127026   5.974   5.948   4.049
 8709SOL    HW227027   6.001   5.807   4.126
 8710SOL     OW27028   2.351   2.588   3.518
 8710SOL    HW127029   2.328   2.508   3.463
 8710SOL    HW227030   2.427   2.565   3.579
 8711SOL     OW27031   0.998   2.494   2.177
 8711SOL    HW127032   0.911   2.449   2.157
 8711SOL    HW227033   1.011   2.571   2.114
 8712SOL     OW27034   1.082   3.907   4.083
 8712SOL    HW127035   0.985   3.882   4.076
 8712SOL    HW227036   1.099   3.950   4.172
 8713SOL     OW27037   0.579   4.651   4.335
 8713SOL    HW127038   0.596   4.683   4.429
 8713SOL    HW227039   0.485   4.619   4.327
 8714SOL     OW27040   1.405   3.748   6.628
 8714SOL    HW127041   1.363   3.838   6.635
 8714SOL    HW227042   1.342   3.685   6.583
 8715SOL     OW27043   2.275   4.872   1.092
 8715SOL    HW127044   2.297   4.897   1.187
 8715SOL    HW227045   2.220   4.945   1.051
 8716SOL     OW27046   5.022   6.820   3.037
 8716SOL    HW127047   5.030   6.856   2.944
 8716SOL    HW227048   4.991   6.726   3.033
 8717SOL     OW27049   4.496   1.868   6.974
 8717SOL    HW127050   4.405   1.900   7.001
 8717SOL    HW227051   4.494   1.838   6.879
 8718SOL     OW27052   2.526   5.623   5.920
 8718SOL    HW127053   2.475   5.628   6.006
 8718SOL    HW227054   2.462   5.627   5.843
 8719SOL     OW27055   3.083   2.074   4.678
 8719SOL    HW127056   3.027   2.108   4.755
 8719SOL    HW227057   3.035   2.093   4.592
 8720SOL     OW27058   7.014   6.872   4.964
 8720SOL    HW127059   6.991   6.944   4.899
 8720SOL    HW227060   0.093   6.882   4.993
 8721SOL     OW27061   0.291   0.552   1.773
 8721SOL    HW127062   0.327   0.486   1.839
 8721SOL    HW227063   0.362   0.574   1.705
 8722SOL     OW27064   3.803   1.092   0.439
 8722SOL    HW127065   3.786   1.036   0.520
 8722SOL    HW227066   3.900   1.114   0.433
 8723SOL     OW27067   3.337   6.390   3.170
 8723SOL    HW127068   3.375   6.455   3.235
 8723SOL    HW227069   3.278   6.438   3.105
 8724SOL     OW27070   5.721   7.003   5.288
 8724SOL    HW127071   5.644   0.042   5.257
 8724SOL    HW227072   5.699   6.961   5.376
 8725SOL     OW27073   6.843   0.779   2.675
 8725SOL    HW127074   6.751   0.764   2.711
 8725SOL    HW227075   6.858   0.720   2.596
 8726SOL     OW27076   0.074   0.199   1.056
 8726SOL    HW127077   0.030   0.141   0.988
 8726SOL    HW227078   0.093   0.289   1.016
 8727SOL     OW27079   5.117   5.071   5.860
 8727SOL    HW127080   5.095   5.046   5.955
 8727SOL    HW227081   5.103   4.992   5.801
 8728SOL     OW27082   4.968   6.781   4.117
 8728SOL    HW127083   4.978   6.756   4.214
 8728SOL    HW227084   4.908   6.860   4.109
 8729SOL     OW27085   5.609   5.711   5.949
 8729SOL    HW127086   5.675   5.785   5.938
 8729SOL    HW227087   5.538   5.740   6.014
 8730SOL     OW27088   4.004   4.688   1.665
 8730SOL    HW127089   3.950   4.609   1.638
 8730SOL    HW227090   4.041   4.673   1.757
 8731SOL     OW27091   0.044   2.727   4.054
 8731SOL    HW127092   0.112   2.722   3.981
 8731SOL    HW227093   0.084   2.692   4.139
 8732SOL     OW27094   5.178   6.635   5.801
 8732SOL    HW127095   5.197   6.539   5.781
 8732SOL    HW227096   5.165   6.646   5.899
 8733SOL     OW27097   5.751   3.849   1.984
 8733SOL    HW127098   5.819   3.808   1.923
 8733SOL    HW227099   5.754   3.948   1.976
 8734SOL     OW27100   0.159   6.373   1.710
 8734SOL    HW127101   0.238   6.434   1.701
 8734SOL    HW227102   0.171   6.294   1.650
 8735SOL     OW27103   1.604   1.841   0.036
 8735SOL    HW127104   1.647   1.905   6.989
 8735SOL    HW227105   1.638   1.857   0.129
 8736SOL     OW27106   0.350   6.262   3.550
 8736SOL    HW127107   0.317   6.173   3.519
 8736SOL    HW227108   0.378   6.255   3.646
 8737SOL     OW27109   0.540   5.601   6.450
 8737SOL    HW127110   0.543   5.679   6.512
 8737SOL    HW227111   0.465   5.541   6.477
 8738SOL     OW27112   1.524   2.283   2.218
 8738SOL    HW127113   1.530   2.185   2.202
 8738SOL    HW227114   1.579   2.332   2.151
 8739SOL     OW27115   4.688   5.314   3.538
 8739SOL    HW127116   4.654   5.343   3.627
 8739SOL    HW227117   4.780   5.277   3.547
 8740SOL     OW27118   1.820   0.687   3.439
 8740SOL    HW127119   1.787   0.629   3.364
 8740SOL    HW227120   1.920   0.694   3.434
 8741SOL     OW27121   1.837   2.632   3.116
 8741SOL    HW127122   1.885   2.581   3.045
 8741SOL    HW227123   1.841   2.730   3.095
 8742SOL     OW27124   1.689   3.192   0.562
 8742SOL    HW127125   1.606   3.246   0.573
 8742SOL    HW227126   1.671   3.097   0.588
 8743SOL     OW27127   2.171   2.845   0.305
 8743SOL    HW127128   2.237   2.920   0.315
 8743SOL    HW227129   2.090   2.864   0.359
 8744SOL     OW27130   3.091   3.998   5.686
 8744SOL    HW127131   3.034   3.975   5.607
 8744SOL    HW227132   3.084   3.925   5.755
 8745SOL     OW27133   5.325   0.831   6.739
 8745SOL    HW127134   5.399   0.794   6.682
 8745SOL    HW227135   5.265   0.888   6.683
 8746SOL     OW27136   4.366   4.616   4.397
 8746SOL    HW127137   4.327   4.529   4.429
 8746SOL    HW227138   4.419   4.656   4.471
 8747SOL     OW27139   0.043   6.732   1.548
 8747SOL    HW127140   0.005   6.821   1.573
 8747SOL    HW227141   0.013   6.663   1.613
 8748SOL     OW27142   5.825   1.762   5.016
 8748SOL    HW127143   5.798   1.731   4.925
 8748SOL    HW227144   5.792   1.697   5.085
 8749SOL     OW27145   1.871   1.549   4.143
 8749SOL    HW127146   1.894   1.473   4.083
 8749SOL    HW227147   1.931   1.627   4.123
 8750SOL     OW27148   4.090   3.749   2.316
 8750SOL    HW127149   4.096   3.755   2.217
 8750SOL    HW227150   4.118   3.658   2.346
 8751SOL     OW27151   1.545   6.649   6.660
 8751SOL    HW127152   1.495   6.569   6.626
 8751SOL    HW227153   1.589   6.625   6.747
 8752SOL     OW27154   1.648   2.514   6.582
 8752SOL    HW127155   1.579   2.551   6.643
 8752SOL    HW227156   1.739   2.539   6.617
 8753SOL     OW27157   2.181   1.842   0.951
 8753SOL    HW127158   2.131   1.929   0.940
 8753SOL    HW227159   2.278   1.861   0.968
 8754SOL     OW27160   1.799   6.330   6.869
 8754SOL    HW127161   1.704   6.301   6.885
 8754SOL    HW227162   1.837   6.366   6.954
 8755SOL     OW27163   6.596   1.440   1.861
 8755SOL    HW127164   6.655   1.389   1.798
 8755SOL    HW227165   6.651   1.483   1.932
 8756SOL     OW27166   1.743   1.292   2.413
 8756SOL    HW127167   1.774   1.201   2.389
 8756SOL    HW227168   1.644   1.298   2.402
 8757SOL     OW27169   5.324   5.538   5.684
 8757SOL    HW127170   5.227   5.560   5.686
 8757SOL    HW227171   5.341   5.470   5.612
 8758SOL     OW27172   3.912   4.878   6.238
 8758SOL    HW127173   3.981   4.937   6.281
 8758SOL    HW227174   3.839   4.935   6.200
 8759SOL     OW27175   6.561   0.967   1.393
 8759SOL    HW127176   6.633   1.004   1.334
 8759SOL    HW227177   6.518   0.889   1.349
 8760SOL     OW27178   1.328   2.204   4.420
 8760SOL    HW127179   1.396   2.203   4.347
 8760SOL    HW227180   1.267   2.282   4.408
 8761SOL     OW27181   5.057   2.498   4.321
 8761SOL    HW127182   5.144   2.450   4.334
 8761SOL    HW227183   5.045   2.567   4.392
 8762SOL     OW27184   3.866   6.319   2.278
 8762SOL    HW127185   3.907   6.407   2.255
 8762SOL    HW227186   3.774   6.334   2.315
 8763SOL     OW27187   0.107   1.796   5.457
 8763SOL    HW127188   0.173   1.735   5.502
 8763SOL    HW227189   0.100   1.881   5.508
 8764SOL     OW27190   2.094   5.573   5.885
 8764SOL    HW127191   2.056   5.659   5.849
 8764SOL    HW227192   2.020   5.507   5.898
 8765SOL     OW27193   4.644   0.421   3.657
 8765SOL    HW127194   4.544   0.420   3.653
 8765SOL    HW227195   4.679   0.329   3.637
 8766SOL     OW27196   6.599   0.634   4.965
 8766SOL    HW127197   6.509   0.671   4.983
 8766SOL    HW227198   6.615   0.632   4.866
 8767SOL     OW27199   1.896   1.057   4.837
 8767SOL    HW127200   1.845   1.077   4.920
 8767SOL    HW227201   1.841   1.001   4.775
 8768SOL     OW27202   0.214   2.314   0.815
 8768SOL    HW127203   0.285   2.377   0.848
 8768SOL    HW227204   0.140   2.309   0.881
 8769SOL     OW27205   0.018   0.088   0.180
 8769SOL    HW127206   0.115   0.113   0.187
 8769SOL    HW227207   7.016   0.052   0.089
 8770SOL     OW27208   4.535   1.762   0.722
 8770SOL    HW127209   4.596   1.690   0.755
 8770SOL    HW227210   4.588   1.833   0.677
 8771SOL     OW27211   1.290   2.409   6.772
 8771SOL    HW127212   1.348   2.404   6.853
 8771SOL    HW227213   1.219   2.339   6.778
 8772SOL     OW27214   6.858   6.940   3.616
 8772SOL    HW127215   6.775   6.991   3.640
 8772SOL    HW227216   6.901   6.906   3.699
 8773SOL     OW27217   6.147   1.545   4.241
 8773SOL    HW127218   6.152   1.567   4.144
 8773SOL    HW227219   6.093   1.614   4.289
 8774SOL     OW27220   0.776   2.365   6.462
 8774SOL    HW127221   0.842   2.408   6.400
 8774SOL    HW227222   0.723   2.296   6.412
 8775SOL     OW27223   4.263   2.035   2.475
 8775SOL    HW127224   4.227   2.125   2.497
 8775SOL    HW227225   4.190   1.977   2.440
 8776SOL     OW27226   6.192   3.234   1.064
 8776SOL    HW127227   6.147   3.266   1.147
 8776SOL    HW227228   6.127   3.236   0.988
 8777SOL     OW27229   6.699   2.350   4.057
 8777SOL    HW127230   6.663   2.259   4.038
 8777SOL    HW227231   6.799   2.348   4.051
 8778SOL     OW27232   1.601   4.615   5.514
 8778SOL    HW127233   1.534   4.580   5.448
 8778SOL    HW227234   1.587   4.714   5.526
 8779SOL     OW27235   3.426   6.442   3.658
 8779SOL    HW127236   3.329   6.424   3.674
 8779SOL    HW227237   3.439   6.472   3.563
 8780SOL     OW27238   0.959   3.157   4.300
 8780SOL    HW127239   0.969   3.115   4.210
 8780SOL    HW227240   0.903   3.098   4.358
 8781SOL     OW27241   3.993   0.926   2.307
 8781SOL    HW127242   3.897   0.912   2.283
 8781SOL    HW227243   4.015   0.870   2.387
 8782SOL     OW27244   0.464   2.716   0.023
 8782SOL    HW127245   0.495   2.734   6.945
 8782SOL    HW227246   0.544   2.706   0.082
 8783SOL     OW27247   3.413   4.220   6.613
 8783SOL    HW127248   3.478   4.184   6.680
 8783SOL    HW227249   3.404   4.156   6.537
 8784SOL     OW27250   4.341   2.167   5.942
 8784SOL    HW127251   4.341   2.084   5.997
 8784SOL    HW227252   4.424   2.171   5.887
 8785SOL     OW27253   6.348   7.001   5.947
 8785SOL    HW127254   6.384   0.062   5.997
 8785SOL    HW227255   6.304   6.937   6.010
 8786SOL     OW27256   4.953   2.249   2.980
 8786SOL    HW127257   4.857   2.251   3.009
 8786SOL    HW227258   4.986   2.342   2.969
 8787SOL     OW27259   2.906   5.605   2.384
 8787SOL    HW127260   2.991   5.568   2.423
 8787SOL    HW227261   2.928   5.683   2.325
 8788SOL     OW27262   6.623   0.204   3.467
 8788SOL    HW127263   6.604   0.132   3.534
 8788SOL    HW227264   6.576   0.183   3.381
 8789SOL     OW27265   2.266   3.706   0.310
 8789SOL    HW127266   2.271   3.640   0.235
 8789SOL    HW227267   2.185   3.764   0.297
 8790SOL     OW27268   5.258   3.173   5.232
 8790SOL    HW127269   5.172   3.215   5.262
 8790SOL    HW227270   5.243   3.122   5.147
 8791SOL     OW27271   3.857   6.723   5.380
 8791SOL    HW127272   3.831   6.634   5.345
 8791SOL    HW227273   3.933   6.760   5.326
 8792SOL     OW27274   5.052   4.151   0.937
 8792SOL    HW127275   4.993   4.156   0.857
 8792SOL    HW227276   5.144   4.183   0.914
 8793SOL     OW27277   6.335   0.744   5.053
 8793SOL    HW127278   6.354   0.833   5.093
 8793SOL    HW227279   6.242   0.716   5.075
 8794SOL     OW27280   1.196   3.285   2.871
 8794SOL    HW127281   1.256   3.361   2.898
 8794SOL    HW227282   1.225   3.251   2.781
 8795SOL     OW27283   1.966   0.471   6.221
 8795SOL    HW127284   1.876   0.473   6.265
 8795SOL    HW227285   1.973   0.389   6.163
 8796SOL     OW27286   5.876   4.839   3.557
 8796SOL    HW127287   5.957   4.791   3.525
 8796SOL    HW227288   5.803   4.773   3.577
 8797SOL     OW27289   5.820   5.399   6.069
 8797SOL    HW127290   5.865   5.349   6.143
 8797SOL    HW227291   5.791   5.489   6.102
 8798SOL     OW27292   2.069   4.934   0.274
 8798SOL    HW127293   2.148   4.975   0.229
 8798SOL    HW227294   2.004   4.903   0.205
 8799SOL     OW27295   0.811   6.004   2.396
 8799SOL    HW127296   0.816   5.913   2.435
 8799SOL    HW227297   0.719   6.020   2.360
 8800SOL     OW27298   6.831   6.578   4.774
 8800SOL    HW127299   6.907   6.515   4.760
 8800SOL    HW227300   6.757   6.556   4.710
 8801SOL     OW27301   5.643   2.760   6.117
 8801SOL    HW127302   5.687   2.819   6.186
 8801SOL    HW227303   5.601   2.817   6.047
 8802SOL     OW27304   1.311   6.815   6.852
 8802SOL    HW127305   1.367   6.786   6.774
 8802SOL    HW227306   1.321   6.914   6.865
 8803SOL     OW27307   4.565   5.419   5.140
 8803SOL    HW127308   4.554   5.322   5.117
 8803SOL    HW227309   4.618   5.465   5.069
 8804SOL     OW27310   2.339   6.083   1.268
 8804SOL    HW127311   2.325   5.986   1.251
 8804SOL    HW227312   2.407   6.119   1.204
 8805SOL     OW27313   5.190   5.276   1.058
 8805SOL    HW127314   5.091   5.258   1.061
 8805SOL    HW227315   5.218   5.319   1.144
 8806SOL     OW27316   1.851   1.314   2.009
 8806SOL    HW127317   1.862   1.369   1.927
 8806SOL    HW227318   1.862   1.372   2.090
 8807SOL     OW27319   5.195   1.193   1.755
 8807SOL    HW127320   5.285   1.219   1.722
 8807SOL    HW227321   5.146   1.144   1.683
 8808SOL     OW27322   1.683   1.445   1.165
 8808SOL    HW127323   1.753   1.504   1.206
 8808SOL    HW227324   1.662   1.477   1.072
 8809SOL     OW27325   1.337   3.550   2.925
 8809SOL    HW127326   1.405   3.514   2.861
 8809SOL    HW227327   1.373   3.546   3.018
 8810SOL     OW27328   6.411   2.399   3.410
 8810SOL    HW127329   6.393   2.495   3.433
 8810SOL    HW227330   6.508   2.379   3.425
 8811SOL     OW27331   3.547   6.019   2.628
 8811SOL    HW127332   3.520   6.062   2.542
 8811SOL    HW227333   3.560   5.921   2.613
 8812SOL     OW27334   5.680   0.848   0.416
 8812SOL    HW127335   5.747   0.882   0.350
 8812SOL    HW227336   5.594   0.899   0.406
 8813SOL     OW27337   1.597   2.729   1.191
 8813SOL    HW127338   1.612   2.721   1.092
 8813SOL    HW227339   1.551   2.647   1.224
 8814SOL     OW27340   5.760   0.376   4.478
 8814SOL    HW127341   5.848   0.409   4.513
 8814SOL    HW227342   5.760   0.381   4.378
 8815SOL     OW27343   4.822   0.927   1.035
 8815SOL    HW127344   4.791   0.857   0.972
 8815SOL    HW227345   4.760   0.932   1.113
 8816SOL     OW27346   0.441   1.492   2.478
 8816SOL    HW127347   0.448   1.566   2.411
 8816SOL    HW227348   0.370   1.427   2.449
 8817SOL     OW27349   0.834   2.267   4.159
 8817SOL    HW127350   0.880   2.276   4.247
 8817SOL    HW227351   0.745   2.312   4.163
 8818SOL     OW27352   1.271   5.735   6.485
 8818SOL    HW127353   1.291   5.710   6.579
 8818SOL    HW227354   1.347   5.789   6.448
 8819SOL     OW27355   5.881   6.126   6.852
 8819SOL    HW127356   5.912   6.157   6.762
 8819SOL    HW227357   5.808   6.187   6.885
 8820SOL     OW27358   3.807   6.561   5.834
 8820SOL    HW127359   3.754   6.642   5.859
 8820SOL    HW227360   3.863   6.581   5.753
 8821SOL     OW27361   1.832   5.038   5.479
 8821SOL    HW127362   1.843   5.012   5.575
 8821SOL    HW227363   1.833   5.138   5.472
 8822SOL     OW27364   0.102   0.991   5.208
 8822SOL    HW127365   0.030   0.958   5.269
 8822SOL    HW227366   0.065   0.999   5.115
 8823SOL     OW27367   4.474   2.459   3.283
 8823SOL    HW127368   4.481   2.519   3.203
 8823SOL    HW227369   4.535   2.493   3.356
 8824SOL     OW27370   1.124   0.666   3.441
 8824SOL    HW127371   1.159   0.738   3.381
 8824SOL    HW227372   1.084   0.707   3.523
 8825SOL     OW27373   1.297   6.513   6.890
 8825SOL    HW127374   1.336   6.484   6.978
 8825SOL    HW227375   1.301   6.613   6.883
 8826SOL     OW27376   1.119   2.626   6.702
 8826SOL    HW127377   1.022   2.600   6.707
 8826SOL    HW227378   1.173   2.558   6.751
 8827SOL     OW27379   5.316   6.030   4.199
 8827SOL    HW127380   5.286   5.997   4.109
 8827SOL    HW227381   5.257   6.105   4.228
 8828SOL     OW27382   5.172   2.549   5.821
 8828SOL    HW127383   5.126   2.626   5.864
 8828SOL    HW227384   5.126   2.464   5.846
 8829SOL     OW27385   6.224   1.021   2.975
 8829SOL    HW127386   6.204   1.095   3.038
 8829SOL    HW227387   6.163   1.027   2.895
 8830SOL     OW27388   2.510   1.947   3.051
 8830SOL    HW127389   2.518   1.975   2.955
 8830SOL    HW227390   2.413   1.940   3.075
 8831SOL     OW27391   0.853   2.613   2.429
 8831SOL    HW127392   0.884   2.544   2.363
 8831SOL    HW227393   0.754   2.610   2.437
 8832SOL     OW27394   6.356   0.149   5.248
 8832SOL    HW127395   6.347   0.107   5.338
 8832SOL    HW227396   6.452   0.149   5.221
 8833SOL     OW27397   4.904   2.582   1.289
 8833SOL    HW127398   4.976   2.516   1.308
 8833SOL    HW227399   4.944   2.667   1.255
 8834SOL     OW27400   6.453   4.140   5.626
 8834SOL    HW127401   6.396   4.206   5.577
 8834SOL    HW227402   6.396   4.086   5.688
 8835SOL     OW27403   6.372   1.303   5.269
 8835SOL    HW127404   6.405   1.376   5.209
 8835SOL    HW227405   6.340   1.226   5.213
 8836SOL     OW27406   4.469   1.547   7.000
 8836SOL    HW127407   4.446   1.627   0.038
 8836SOL    HW227408   4.402   1.475   0.001
 8837SOL     OW27409   5.857   5.474   0.814
 8837SOL    HW127410   5.941   5.475   0.760
 8837SOL    HW227411   5.858   5.396   0.876
 8838SOL     OW27412   1.018   3.097   1.721
 8838SOL    HW127413   0.945   3.062   1.779
 8838SOL    HW227414   1.010   3.197   1.714
 8839SOL     OW27415   4.758   4.685   1.833
 8839SOL    HW127416   4.744   4.590   1.861
 8839SOL    HW227417   4.697   4.744   1.887
 8840SOL     OW27418   0.321   6.700   1.503
 8840SOL    HW127419   0.227   6.684   1.535
 8840SOL    HW227420   0.341   6.798   1.507
 8841SOL     OW27421   5.109   2.158   0.452
 8841SOL    HW127422   5.170   2.083   0.478
 8841SOL    HW227423   5.087   2.150   0.355
 8842SOL     OW27424   3.112   3.083   3.391
 8842SOL    HW127425   3.164   3.021   3.451
 8842SOL    HW227426   3.153   3.174   3.393
 8843SOL     OW27427   2.509   6.088   5.269
 8843SOL    HW127428   2.585   6.087   5.333
 8843SOL    HW227429   2.496   6.181   5.233
 8844SOL     OW27430   3.970   2.647   5.359
 8844SOL    HW127431   4.046   2.612   5.304
 8844SOL    HW227432   3.987   2.744   5.381
 8845SOL     OW27433   0.335   3.924   2.490
 8845SOL    HW127434   0.289   3.900   2.405
 8845SOL    HW227435   0.398   4.000   2.474
 8846SOL     OW27436   5.516   5.196   3.987
 8846SOL    HW127437   5.466   5.248   4.056
 8846SOL    HW227438   5.527   5.102   4.019
 8847SOL     OW27439   1.006   3.269   3.522
 8847SOL    HW127440   0.929   3.325   3.491
 8847SOL    HW227441   1.085   3.328   3.538
 8848SOL     OW27442   6.112   2.718   1.538
 8848SOL    HW127443   6.027   2.687   1.495
 8848SOL    HW227444   6.095   2.735   1.635
 8849SOL     OW27445   3.617   5.467   4.551
 8849SOL    HW127446   3.679   5.455   4.628
 8849SOL    HW227447   3.559   5.386   4.540
 8850SOL     OW27448   4.808   1.731   1.022
 8850SOL    HW127449   4.867   1.689   1.090
 8850SOL    HW227450   4.760   1.809   1.063
 8851SOL     OW27451   6.436   5.052   3.185
 8851SOL    HW127452   6.506   4.997   3.230
 8851SOL    HW227453   6.474   5.142   3.161
 8852SOL     OW27454   5.944   4.551   4.776
 8852SOL    HW127455   5.994   4.564   4.861
 8852SOL    HW227456   5.942   4.637   4.725
 8853SOL     OW27457   4.530   1.661   4.243
 8853SOL    HW127458   4.563   1.742   4.293
 8853SOL    HW227459   4.608   1.602   4.221
 8854SOL     OW27460   2.697   0.535   6.582
 8854SOL    HW127461   2.647   0.492   6.657
 8854SOL    HW227462   2.632   0.565   6.512
 8855SOL     OW27463   6.658   4.526   6.121
 8855SOL    HW127464   6.593   4.499   6.192
 8855SOL    HW227465   6.751   4.507   6.152
 8856SOL     OW27466   5.219   1.856   5.715
 8856SOL    HW127467   5.238   1.794   5.790
 8856SOL    HW227468   5.301   1.911   5.697
 8857SOL     OW27469   1.623   3.371   4.372
 8857SOL    HW127470   1.525   3.356   4.356
 8857SOL    HW227471   1.636   3.416   4.460
 8858SOL     OW27472   1.484   3.279   5.376
 8858SOL    HW127473   1.536   3.355   5.414
 8858SOL    HW227474   1.397   3.271   5.422
 8859SOL     OW27475   3.034   5.232   4.994
 8859SOL    HW127476   2.959   5.202   5.054
 8859SOL    HW227477   3.117   5.182   5.019
 8860SOL     OW27478   2.156   1.017   1.860
 8860SOL    HW127479   2.182   0.920   1.856
 8860SOL    HW227480   2.195   1.059   1.942
 8861SOL     OW27481   2.286   0.957   0.136
 8861SOL    HW127482   2.289   0.859   0.157
 8861SOL    HW227483   2.218   1.001   0.194
 8862SOL     OW27484   0.325   3.697   3.924
 8862SOL    HW127485   0.391   3.622   3.916
 8862SOL    HW227486   0.240   3.672   3.878
 8863SOL     OW27487   1.734   5.483   5.358
 8863SOL    HW127488   1.796   5.561   5.349
 8863SOL    HW227489   1.654   5.497   5.299
 8864SOL     OW27490   2.069   4.091   5.098
 8864SOL    HW127491   2.039   4.011   5.150
 8864SOL    HW227492   2.153   4.070   5.049
 8865SOL     OW27493   3.094   1.965   5.843
 8865SOL    HW127494   3.077   1.958   5.745
 8865SOL    HW227495   3.079   2.060   5.872
 8866SOL     OW27496   5.666   0.232   5.449
 8866SOL    HW127497   5.679   0.148   5.397
 8866SOL    HW227498   5.628   0.303   5.389
 8867SOL     OW27499   5.191   0.786   2.700
 8867SOL    HW127500   5.246   0.716   2.746
 8867SOL    HW227501   5.109   0.743   2.661
 8868SOL     OW27502   6.288   2.750   0.341
 8868SOL    HW127503   6.375   2.775   0.385
 8868SOL    HW227504   6.299   2.663   0.292
 8869SOL     OW27505   1.406   1.885   4.242
 8869SOL    HW127506   1.462   1.841   4.313
 8869SOL    HW227507   1.466   1.931   4.177
 8870SOL     OW27508   3.639   6.460   1.671
 8870SOL    HW127509   3.723   6.495   1.714
 8870SOL    HW227510   3.662   6.387   1.607
 8871SOL     OW27511   0.944   2.387   3.913
 8871SOL    HW127512   0.911   2.374   4.006
 8871SOL    HW227513   0.903   2.470   3.874
 8872SOL     OW27514   1.247   1.351   2.600
 8872SOL    HW127515   1.178   1.297   2.553
 8872SOL    HW227516   1.205   1.400   2.676
 8873SOL     OW27517   0.231   5.845   4.902
 8873SOL    HW127518   0.132   5.861   4.907
 8873SOL    HW227519   0.250   5.748   4.917
 8874SOL     OW27520   0.865   1.014   5.839
 8874SOL    HW127521   0.902   1.054   5.755
 8874SOL    HW227522   0.936   0.958   5.883
 8875SOL     OW27523   1.325   0.693   4.031
 8875SOL    HW127524   1.414   0.740   4.035
 8875SOL    HW227525   1.323   0.633   3.951
 8876SOL     OW27526   3.179   1.081   4.321
 8876SOL    HW127527   3.214   0.995   4.283
 8876SOL    HW227528   3.087   1.098   4.284
 8877SOL     OW27529   2.300   6.453   6.008
 8877SOL    HW127530   2.357   6.389   5.956
 8877SOL    HW227531   2.211   6.462   5.964
 8878SOL     OW27532   5.612   4.218   5.804
 8878SOL    HW127533   5.660   4.305   5.811
 8878SOL    HW227534   5.594   4.197   5.708
 8879SOL     OW27535   6.136   5.692   4.579
 8879SOL    HW127536   6.144   5.719   4.674
 8879SOL    HW227537   6.225   5.700   4.534
 8880SOL     OW27538   1.156   0.104   4.765
 8880SOL    HW127539   1.082   0.171   4.772
 8880SOL    HW227540   1.241   0.151   4.739
 8881SOL     OW27541   6.377   1.479   2.095
 8881SOL    HW127542   6.377   1.382   2.069
 8881SOL    HW227543   6.333   1.533   2.023
 8882SOL     OW27544   5.323   1.697   0.127
 8882SOL    HW127545   5.408   1.718   0.174
 8882SOL    HW227546   5.250   1.756   0.161
 8883SOL     OW27547   6.105   1.300   5.591
 8883SOL    HW127548   6.049   1.377   5.620
 8883SOL    HW227549   6.051   1.237   5.535
 8884SOL     OW27550   0.534   1.585   6.674
 8884SOL    HW127551   0.562   1.506   6.619
 8884SOL    HW227552   0.455   1.629   6.632
 8885SOL     OW27553   5.780   3.902   1.527
 8885SOL    HW127554   5.680   3.892   1.528
 8885SOL    HW227555   5.816   3.879   1.617
 8886SOL     OW27556   3.221   6.142   6.166
 8886SOL    HW127557   3.309   6.188   6.182
 8886SOL    HW227558   3.150   6.186   6.221
 8887SOL     OW27559   1.633   1.216   0.469
 8887SOL    HW127560   1.710   1.187   0.525
 8887SOL    HW227561   1.550   1.219   0.524
 8888SOL     OW27562   1.973   2.138   3.040
 8888SOL    HW127563   1.898   2.193   3.078
 8888SOL    HW227564   1.940   2.091   2.958
 8889SOL     OW27565   3.286   0.861   5.705
 8889SOL    HW127566   3.303   0.868   5.607
 8889SOL    HW227567   3.314   0.771   5.738
 8890SOL     OW27568   6.146   5.700   3.376
 8890SOL    HW127569   6.049   5.724   3.378
 8890SOL    HW227570   6.184   5.709   3.468
 8891SOL     OW27571   3.697   2.105   6.242
 8891SOL    HW127572   3.615   2.131   6.294
 8891SOL    HW227573   3.671   2.078   6.149
 8892SOL     OW27574   0.791   0.690   3.283
 8892SOL    HW127575   0.759   0.651   3.370
 8892SOL    HW227576   0.839   0.775   3.301
 8893SOL     OW27577   0.238   0.669   0.844
 8893SOL    HW127578   0.171   0.636   0.777
 8893SOL    HW227579   0.330   0.648   0.813
 8894SOL     OW27580   5.145   2.692   5.363
 8894SOL    HW127581   5.099   2.649   5.285
 8894SOL    HW227582   5.138   2.633   5.443
 8895SOL     OW27583   1.167   1.311   3.456
 8895SOL    HW127584   1.182   1.217   3.488
 8895SOL    HW227585   1.141   1.369   3.533
 8896SOL     OW27586   1.506   3.732   4.442
 8896SOL    HW127587   1.509   3.729   4.342
 8896SOL    HW227588   1.414   3.705   4.473
 8897SOL     OW27589   1.080   2.230   1.681
 8897SOL    HW127590   1.065   2.251   1.584
 8897SOL    HW227591   1.061   2.312   1.736
 8898SOL     OW27592   0.807   2.367   5.417
 8898SOL    HW127593   0.875   2.384   5.346
 8898SOL    HW227594   0.715   2.373   5.377
 8899SOL     OW27595   4.312   6.721   3.523
 8899SOL    HW127596   4.309   6.817   3.552
 8899SOL    HW227597   4.295   6.717   3.424
 8900SOL     OW27598   6.537   1.587   3.455
 8900SOL    HW127599   6.442   1.588   3.488
 8900SOL    HW227600   6.596   1.634   3.521
 8901SOL     OW27601   0.789   6.939   2.278
 8901SOL    HW127602   0.843   6.855   2.266
 8901SOL    HW227603   0.700   6.927   2.233
 8902SOL     OW27604   4.223   6.609   5.878
 8902SOL    HW127605   4.182   6.556   5.804
 8902SOL    HW227606   4.151   6.663   5.924
 8903SOL     OW27607   6.718   1.272   3.143
 8903SOL    HW127608   6.655   1.346   3.121
 8903SOL    HW227609   6.800   1.310   3.186
 8904SOL     OW27610   2.019   4.218   4.223
 8904SOL    HW127611   2.064   4.132   4.200
 8904SOL    HW227612   2.089   4.289   4.236
 8905SOL     OW27613   2.053   4.399   4.769
 8905SOL    HW127614   2.066   4.422   4.673
 8905SOL    HW227615   2.112   4.321   4.792
 8906SOL     OW27616   1.584   5.002   4.116
 8906SOL    HW127617   1.562   5.098   4.102
 8906SOL    HW227618   1.525   4.946   4.058
 8907SOL     OW27619   3.801   3.029   6.612
 8907SOL    HW127620   3.817   3.126   6.634
 8907SOL    HW227621   3.710   3.003   6.645
 8908SOL     OW27622   0.764   3.458   2.988
 8908SOL    HW127623   0.780   3.522   2.912
 8908SOL    HW227624   0.776   3.364   2.956
 8909SOL     OW27625   3.539   6.778   4.663
 8909SOL    HW127626   3.477   6.709   4.626
 8909SOL    HW227627   3.500   6.816   4.747
 8910SOL     OW27628   4.441   2.751   6.868
 8910SOL    HW127629   4.523   2.807   6.851
 8910SOL    HW227630   4.415   2.705   6.784
 8911SOL     OW27631   5.340   3.605   4.281
 8911SOL    HW127632   5.311   3.655   4.362
 8911SOL    HW227633   5.352   3.668   4.205
 8912SOL     OW27634   3.699   0.685   0.490
 8912SOL    HW127635   3.757   0.613   0.528
 8912SOL    HW227636   3.642   0.647   0.417
 8913SOL     OW27637   4.149   3.926   1.279
 8913SOL    HW127638   4.197   3.840   1.298
 8913SOL    HW227639   4.175   3.958   1.188
 8914SOL     OW27640   5.601   4.058   3.218
 8914SOL    HW127641   5.526   4.044   3.153
 8914SOL    HW227642   5.580   4.136   3.276
 8915SOL     OW27643   1.254   5.576   1.887
 8915SOL    HW127644   1.195   5.594   1.966
 8915SOL    HW227645   1.350   5.581   1.915
 8916SOL     OW27646   5.529   2.625   1.068
 8916SOL    HW127647   5.611   2.682   1.070
 8916SOL    HW227648   5.525   2.575   0.982
 8917SOL     OW27649   5.857   3.903   6.174
 8917SOL    HW127650   5.860   3.916   6.075
 8917SOL    HW227651   5.938   3.944   6.216
 8918SOL     OW27652   5.371   4.429   5.418
 8918SOL    HW127653   5.355   4.477   5.332
 8918SOL    HW227654   5.454   4.466   5.462
 8919SOL     OW27655   1.992   3.118   1.032
 8919SOL    HW127656   1.990   3.041   1.095
 8919SOL    HW227657   1.905   3.167   1.036
 8920SOL     OW27658   5.918   5.801   5.682
 8920SOL    HW127659   5.851   5.741   5.725
 8920SOL    HW227660   5.992   5.820   5.747
 8921SOL     OW27661   0.349   5.616   3.331
 8921SOL    HW127662   0.394   5.580   3.413
 8921SOL    HW227663   0.398   5.696   3.298
 8922SOL     OW27664   0.701   2.704   0.252
 8922SOL    HW127665   0.763   2.626   0.267
 8922SOL    HW227666   0.744   2.788   0.286
 8923SOL     OW27667   2.178   5.419   3.714
 8923SOL    HW127668   2.168   5.328   3.754
 8923SOL    HW227669   2.258   5.465   3.752
 8924SOL     OW27670   2.089   6.281   4.563
 8924SOL    HW127671   2.004   6.298   4.613
 8924SOL    HW227672   2.114   6.185   4.573
 8925SOL     OW27673   4.430   5.560   1.198
 8925SOL    HW127674   4.497   5.634   1.206
 8925SOL    HW227675   4.413   5.521   1.289
 8926SOL     OW27676   5.065   6.670   0.467
 8926SOL    HW127677   4.968   6.654   0.449
 8926SOL    HW227678   5.120   6.621   0.400
 8927SOL     OW27679   2.899   1.885   4.996
 8927SOL    HW127680   2.907   1.927   4.906
 8927SOL    HW227681   2.944   1.943   5.064
 8928SOL     OW27682   2.298   0.092   5.337
 8928SOL    HW127683   2.332   0.067   5.246
 8928SOL    HW227684   2.345   0.174   5.368
 8929SOL     OW27685   4.696   4.464   3.087
 8929SOL    HW127686   4.729   4.478   3.181
 8929SOL    HW227687   4.749   4.521   3.024
 8930SOL     OW27688   0.409   5.768   5.309
 8930SOL    HW127689   0.501   5.802   5.329
 8930SOL    HW227690   0.414   5.673   5.279
 8931SOL     OW27691   5.425   0.799   2.243
 8931SOL    HW127692   5.432   0.839   2.335
 8931SOL    HW227693   5.516   0.768   2.214
 8932SOL     OW27694   3.765   0.950   6.485
 8932SOL    HW127695   3.726   0.954   6.577
 8932SOL    HW227696   3.850   0.898   6.487
 8933SOL     OW27697   2.007   0.347   5.397
 8933SOL    HW127698   1.940   0.341   5.471
 8933SOL    HW227699   1.968   0.307   5.314
 8934SOL     OW27700   2.632   6.344   3.779
 8934SOL    HW127701   2.636   6.280   3.856
 8934SOL    HW227702   2.670   6.300   3.697
 8935SOL     OW27703   5.471   2.164   2.069
 8935SOL    HW127704   5.475   2.248   2.015
 8935SOL    HW227705   5.398   2.105   2.035
 8936SOL     OW27706   0.855   4.032   2.619
 8936SOL    HW127707   0.834   4.026   2.716
 8936SOL    HW227708   0.934   3.975   2.597
 8937SOL     OW27709   4.027   5.996   5.267
 8937SOL    HW127710   3.993   6.076   5.217
 8937SOL    HW227711   3.991   5.912   5.224
 8938SOL     OW27712   4.633   6.379   2.572
 8938SOL    HW127713   4.687   6.388   2.488
 8938SOL    HW227714   4.690   6.338   2.643
 8939SOL     OW27715   6.781   2.986   5.523
 8939SOL    HW127716   6.721   3.024   5.594
 8939SOL    HW227717   6.745   3.010   5.433
 8940SOL     OW27718   6.380   3.583   2.643
 8940SOL    HW127719   6.406   3.523   2.719
 8940SOL    HW227720   6.347   3.528   2.567
 8941SOL     OW27721   5.651   2.180   3.583
 8941SOL    HW127722   5.703   2.265   3.590
 8941SOL    HW227723   5.684   2.128   3.504
 8942SOL     OW27724   5.228   6.165   4.597
 8942SOL    HW127725   5.225   6.204   4.505
 8942SOL    HW227726   5.310   6.197   4.644
 8943SOL     OW27727   4.587   3.550   0.554
 8943SOL    HW127728   4.652   3.510   0.618
 8943SOL    HW227729   4.636   3.583   0.473
 8944SOL     OW27730   4.579   5.818   5.724
 8944SOL    HW127731   4.646   5.833   5.652
 8944SOL    HW227732   4.516   5.745   5.697
 8945SOL     OW27733   6.660   4.359   2.259
 8945SOL    HW127734   6.695   4.343   2.166
 8945SOL    HW227735   6.722   4.317   2.325
 8946SOL     OW27736   3.854   2.135   3.682
 8946SOL    HW127737   3.920   2.136   3.757
 8946SOL    HW227738   3.764   2.107   3.717
 8947SOL     OW27739   3.314   5.254   0.893
 8947SOL    HW127740   3.230   5.202   0.906
 8947SOL    HW227741   3.325   5.320   0.968
 8948SOL     OW27742   5.733   6.826   3.062
 8948SOL    HW127743   5.689   6.738   3.079
 8948SOL    HW227744   5.744   6.875   3.149
 8949SOL     OW27745   4.075   6.327   0.826
 8949SOL    HW127746   4.173   6.324   0.808
 8949SOL    HW227747   4.025   6.324   0.740
 8950SOL     OW27748   3.509   3.508   3.974
 8950SOL    HW127749   3.409   3.516   3.969
 8950SOL    HW227750   3.550   3.554   3.896
 8951SOL     OW27751   0.549   1.281   3.576
 8951SOL    HW127752   0.648   1.295   3.579
 8951SOL    HW227753   0.525   1.199   3.628
 8952SOL     OW27754   1.479   4.015   4.220
 8952SOL    HW127755   1.429   4.101   4.214
 8952SOL    HW227756   1.480   3.982   4.315
 8953SOL     OW27757   1.515   5.500   0.395
 8953SOL    HW127758   1.442   5.523   0.459
 8953SOL    HW227759   1.588   5.451   0.442
 8954SOL     OW27760   2.168   4.111   5.525
 8954SOL    HW127761   2.199   4.078   5.615
 8954SOL    HW227762   2.121   4.199   5.536
 8955SOL     OW27763   6.612   2.414   6.166
 8955SOL    HW127764   6.674   2.394   6.242
 8955SOL    HW227765   6.657   2.391   6.080
 8956SOL     OW27766   0.733   6.279   0.880
 8956SOL    HW127767   0.792   6.199   0.894
 8956SOL    HW227768   0.761   6.327   0.797
 8957SOL     OW27769   0.477   0.333   3.728
 8957SOL    HW127770   0.409   0.363   3.795
 8957SOL    HW227771   0.536   0.264   3.768
 8958SOL     OW27772   6.903   2.680   4.442
 8958SOL    HW127773   6.906   2.779   4.431
 8958SOL    HW227774   6.945   2.636   4.362
 8959SOL     OW27775   5.674   1.014   3.639
 8959SOL    HW127776   5.759   0.990   3.591
 8959SOL    HW227777   5.607   1.047   3.573
 8960SOL     OW27778   3.937   6.077   2.104
 8960SOL    HW127779   3.943   6.024   2.189
 8960SOL    HW227780   3.872   6.152   2.116
 8961SOL     OW27781   2.345   2.562   5.568
 8961SOL    HW127782   2.390   2.498   5.630
 8961SOL    HW227783   2.411   2.598   5.502
 8962SOL     OW27784   6.731   5.904   0.994
 8962SOL    HW127785   6.693   5.838   0.930
 8962SOL    HW227786   6.672   5.984   0.998
 8963SOL     OW27787   2.338   5.348   5.829
 8963SOL    HW127788   2.345   5.444   5.803
 8963SOL    HW227789   2.311   5.294   5.749
 8964SOL     OW27790   0.881   3.522   4.224
 8964SOL    HW127791   0.842   3.452   4.283
 8964SOL    HW227792   0.979   3.506   4.213
 8965SOL     OW27793   3.119   6.795   6.337
 8965SOL    HW127794   3.064   6.791   6.421
 8965SOL    HW227795   3.202   6.741   6.350
 8966SOL     OW27796   4.801   6.494   5.153
 8966SOL    HW127797   4.743   6.533   5.082
 8966SOL    HW227798   4.757   6.412   5.190
 8967SOL     OW27799   1.725   6.991   2.943
 8967SOL    HW127800   1.778   0.007   2.865
 8967SOL    HW227801   1.628   6.989   2.918
 8968SOL     OW27802   2.540   5.713   2.579
 8968SOL    HW127803   2.615   5.648   2.592
 8968SOL    HW227804   2.464   5.668   2.533
 8969SOL     OW27805   6.728   1.014   1.196
 8969SOL    HW127806   6.707   1.082   1.126
 8969SOL    HW227807   6.731   0.923   1.155
 8970SOL     OW27808   2.649   2.412   4.659
 8970SOL    HW127809   2.704   2.369   4.730
 8970SOL    HW227810   2.580   2.470   4.701
 8971SOL     OW27811   3.231   5.933   1.055
 8971SOL    HW127812   3.176   5.971   1.129
 8971SOL    HW227813   3.321   5.907   1.090
 8972SOL     OW27814   0.067   4.049   6.872
 8972SOL    HW127815   0.000   4.110   6.916
 8972SOL    HW227816   0.131   4.104   6.818
 8973SOL     OW27817   2.792   2.010   3.408
 8973SOL    HW127818   2.775   1.987   3.312
 8973SOL    HW227819   2.706   2.039   3.450
 8974SOL     OW27820   0.889   5.114   5.479
 8974SOL    HW127821   0.939   5.063   5.408
 8974SOL    HW227822   0.953   5.172   5.529
 8975SOL     OW27823   0.926   3.870   6.436
 8975SOL    HW127824   0.959   3.862   6.530
 8975SOL    HW227825   0.917   3.966   6.411
 8976SOL     OW27826   5.502   6.866   1.328
 8976SOL    HW127827   5.539   6.774   1.342
 8976SOL    HW227828   5.423   6.880   1.387
 8977SOL     OW27829   0.630   5.029   6.480
 8977SOL    HW127830   0.654   5.106   6.539
 8977SOL    HW227831   0.531   5.014   6.483
 8978SOL     OW27832   6.776   5.052   4.884
 8978SOL    HW127833   6.684   5.016   4.877
 8978SOL    HW227834   6.837   4.982   4.921
 8979SOL     OW27835   1.988   4.791   3.027
 8979SOL    HW127836   1.894   4.824   3.023
 8979SOL    HW227837   2.050   4.868   3.043
 8980SOL     OW27838   5.067   1.147   6.839
 8980SOL    HW127839   4.970   1.137   6.816
 8980SOL    HW227840   5.122   1.130   6.758
 8981SOL     OW27841   3.644   2.341   6.589
 8981SOL    HW127842   3.621   2.411   6.657
 8981SOL    HW227843   3.644   2.251   6.632
 8982SOL     OW27844   0.151   0.719   3.561
 8982SOL    HW127845   0.225   0.743   3.498
 8982SOL    HW227846   0.167   0.628   3.599
 8983SOL     OW27847   1.388   6.528   2.158
 8983SOL    HW127848   1.328   6.457   2.195
 8983SOL    HW227849   1.452   6.558   2.229
 8984SOL     OW27850   6.155   1.018   3.642
 8984SOL    HW127851   6.254   1.009   3.657
 8984SOL    HW227852   6.123   1.102   3.686
 8985SOL     OW27853   4.984   0.586   0.496
 8985SOL    HW127854   4.953   0.651   0.427
 8985SOL    HW227855   4.946   0.495   0.475
 8986SOL     OW27856   1.116   0.341   6.062
 8986SOL    HW127857   1.151   0.292   5.983
 8986SOL    HW227858   1.080   0.430   6.033
 8987SOL     OW27859   3.477   6.612   2.838
 8987SOL    HW127860   3.429   6.561   2.767
 8987SOL    HW227861   3.482   6.708   2.813
 8988SOL     OW27862   2.075   6.522   0.908
 8988SOL    HW127863   2.095   6.440   0.855
 8988SOL    HW227864   1.991   6.565   0.874
 8989SOL     OW27865   6.320   1.396   2.498
 8989SOL    HW127866   6.360   1.408   2.589
 8989SOL    HW227867   6.294   1.485   2.461
 8990SOL     OW27868   3.830   1.967   3.129
 8990SOL    HW127869   3.750   1.979   3.187
 8990SOL    HW227870   3.910   1.949   3.186
 8991SOL     OW27871   1.751   1.825   1.097
 8991SOL    HW127872   1.842   1.854   1.128
 8991SOL    HW227873   1.756   1.795   1.002
 8992SOL     OW27874   1.001   5.618   5.362
 8992SOL    HW127875   0.929   5.587   5.300
 8992SOL    HW227876   1.088   5.620   5.313
 8993SOL     OW27877   5.311   4.298   3.799
 8993SOL    HW127878   5.326   4.236   3.876
 8993SOL    HW227879   5.305   4.245   3.715
 8994SOL     OW27880   1.529   6.356   2.752
 8994SOL    HW127881   1.506   6.311   2.838
 8994SOL    HW227882   1.449   6.358   2.693
 8995SOL     OW27883   1.802   3.958   3.747
 8995SOL    HW127884   1.759   4.030   3.693
 8995SOL    HW227885   1.823   3.993   3.838
 8996SOL     OW27886   2.839   4.097   1.568
 8996SOL    HW127887   2.936   4.120   1.578
 8996SOL    HW227888   2.783   4.172   1.604
 8997SOL     OW27889   4.162   1.176   4.760
 8997SOL    HW127890   4.148   1.173   4.859
 8997SOL    HW227891   4.189   1.085   4.727
 8998SOL     OW27892   1.368   1.370   6.233
 8998SOL    HW127893   1.295   1.385   6.300
 8998SOL    HW227894   1.440   1.438   6.247
 8999SOL     OW27895   6.347   2.927   5.145
 8999SOL    HW127896   6.414   2.881   5.202
 8999SOL    HW227897   6.362   2.905   5.049
 9000SOL     OW27898   4.083   5.044   1.173
 9000SOL    HW127899   4.116   4.986   1.248
 9000SOL    HW227900   4.161   5.078   1.120
 9001SOL     OW27901   0.741   3.223   4.005
 9001SOL    HW127902   0.760   3.299   3.943
 9001SOL    HW227903   0.820   3.207   4.064
 9002SOL     OW27904   4.713   2.680   6.423
 9002SOL    HW127905   4.764   2.691   6.338
 9002SOL    HW227906   4.617   2.664   6.403
 9003SOL     OW27907   0.662   3.750   0.131
 9003SOL    HW127908   0.652   3.703   0.219
 9003SOL    HW227909   0.576   3.794   0.107
 9004SOL     OW27910   4.867   5.707   0.552
 9004SOL    HW127911   4.861   5.795   0.504
 9004SOL    HW227912   4.920   5.719   0.636
 9005SOL     OW27913   4.873   4.109   4.212
 9005SOL    HW127914   4.903   4.190   4.263
 9005SOL    HW227915   4.898   4.027   4.264
 9006SOL     OW27916   3.501   6.158   2.379
 9006SOL    HW127917   3.403   6.177   2.369
 9006SOL    HW227918   3.551   6.244   2.391
 9007SOL     OW27919   1.930   6.980   5.278
 9007SOL    HW127920   1.983   6.939   5.204
 9007SOL    HW227921   1.992   7.009   5.351
 9008SOL     OW27922   6.809   4.437   1.501
 9008SOL    HW127923   6.880   4.368   1.495
 9008SOL    HW227924   6.829   4.500   1.576
 9009SOL     OW27925   3.838   0.157   6.903
 9009SOL    HW127926   3.902   0.234   6.903
 9009SOL    HW227927   3.890   0.071   6.899
 9010SOL     OW27928   6.852   6.281   4.910
 9010SOL    HW127929   6.869   6.226   4.829
 9010SOL    HW227930   6.842   6.222   4.990
 9011SOL     OW27931   4.625   2.639   2.399
 9011SOL    HW127932   4.570   2.611   2.320
 9011SOL    HW227933   4.686   2.714   2.373
 9012SOL     OW27934   3.917   4.833   2.183
 9012SOL    HW127935   3.909   4.802   2.278
 9012SOL    HW227936   3.967   4.765   2.130
 9013SOL     OW27937   3.282   6.551   0.952
 9013SOL    HW127938   3.310   6.464   0.993
 9013SOL    HW227939   3.314   6.627   1.008
 9014SOL     OW27940   1.837   1.785   2.372
 9014SOL    HW127941   1.913   1.804   2.311
 9014SOL    HW227942   1.869   1.728   2.448
 9015SOL     OW27943   6.327   2.008   4.589
 9015SOL    HW127944   6.361   2.096   4.622
 9015SOL    HW227945   6.398   1.962   4.537
 9016SOL     OW27946   0.189   4.765   6.925
 9016SOL    HW127947   0.099   4.737   6.958
 9016SOL    HW227948   0.185   4.859   6.891
 9017SOL     OW27949   6.229   2.719   2.392
 9017SOL    HW127950   6.171   2.648   2.353
 9017SOL    HW227951   6.258   2.782   2.320
 9018SOL     OW27952   5.347   2.139   6.599
 9018SOL    HW127953   5.252   2.111   6.590
 9018SOL    HW227954   5.393   2.130   6.511
 9019SOL     OW27955   1.671   5.989   0.403
 9019SOL    HW127956   1.678   5.908   0.345
 9019SOL    HW227957   1.728   6.062   0.366
 9020SOL     OW27958   0.792   5.233   4.682
 9020SOL    HW127959   0.786   5.311   4.620
 9020SOL    HW227960   0.865   5.250   4.749
 9021SOL     OW27961   7.011   5.190   4.852
 9021SOL    HW127962   6.938   5.124   4.873
 9021SOL    HW227963   6.973   5.282   4.850
 9022SOL     OW27964   1.040   6.964   5.963
 9022SOL    HW127965   1.002   7.005   6.045
 9022SOL    HW227966   1.004   6.871   5.952
 9023SOL     OW27967   4.019   3.767   3.816
 9023SOL    HW127968   3.956   3.688   3.816
 9023SOL    HW227969   4.082   3.758   3.893
 9024SOL     OW27970   1.586   0.163   0.533
 9024SOL    HW127971   1.591   0.066   0.506
 9024SOL    HW227972   1.602   0.220   0.453
 9025SOL     OW27973   0.408   2.473   0.951
 9025SOL    HW127974   0.392   2.572   0.958
 9025SOL    HW227975   0.412   2.434   1.043
 9026SOL     OW27976   2.932   4.494   5.937
 9026SOL    HW127977   2.994   4.569   5.956
 9026SOL    HW227978   2.839   4.529   5.926
 9027SOL     OW27979   0.987   3.385   1.698
 9027SOL    HW127980   1.076   3.427   1.717
 9027SOL    HW227981   0.968   3.392   1.600
 9028SOL     OW27982   1.708   3.903   4.851
 9028SOL    HW127983   1.672   3.979   4.905
 9028SOL    HW227984   1.802   3.923   4.824
 9029SOL     OW27985   5.127   5.218   3.115
 9029SOL    HW127986   5.087   5.153   3.179
 9029SOL    HW227987   5.087   5.206   3.025
 9030SOL     OW27988   5.018   2.690   2.381
 9030SOL    HW127989   5.012   2.672   2.479
 9030SOL    HW227990   4.927   2.709   2.345
 9031SOL     OW27991   2.505   0.860   2.610
 9031SOL    HW127992   2.450   0.857   2.526
 9031SOL    HW227993   2.466   0.797   2.677
 9032SOL     OW27994   0.305   4.010   2.944
 9032SOL    HW127995   0.301   4.058   2.856
 9032SOL    HW227996   0.389   3.956   2.948
 9033SOL     OW27997   0.869   3.068   2.516
 9033SOL    HW127998   0.905   3.161   2.506
 9033SOL    HW227999   0.786   3.069   2.572
 9034SOL     OW28000   1.062   6.918   0.435
 9034SOL    HW128001   0.972   6.958   0.452
 9034SOL    HW228002   1.062   6.822   0.465
 9035SOL     OW28003   5.933   1.438   4.461
 9035SOL    HW128004   5.848   1.436   4.408
 9035SOL    HW228005   5.985   1.521   4.438
 9036SOL     OW28006   0.122   1.605   4.148
 9036SOL    HW128007   0.171   1.519   4.155
 9036SOL    HW228008   0.124   1.653   4.236
 9037SOL     OW28009   2.898   4.236   6.038
 9037SOL    HW128010   2.896   4.332   6.010
 9037SOL    HW228011   2.818   4.189   6.002
 9038SOL     OW28012   3.940   5.844   5.767
 9038SOL    HW128013   3.976   5.882   5.852
 9038SOL    HW228014   3.846   5.811   5.782
 9039SOL     OW28015   2.495   4.921   0.351
 9039SOL    HW128016   2.492   4.916   0.251
 9039SOL    HW228017   2.408   4.890   0.388
 9040SOL     OW28018   3.311   1.646   2.591
 9040SOL    HW128019   3.300   1.668   2.494
 9040SOL    HW228020   3.251   1.705   2.646
 9041SOL     OW28021   2.370   2.734   5.147
 9041SOL    HW128022   2.309   2.752   5.224
 9041SOL    HW228023   2.376   2.815   5.089
 9042SOL     OW28024   1.398   5.242   2.550
 9042SOL    HW128025   1.443   5.320   2.507
 9042SOL    HW228026   1.366   5.269   2.641
 9043SOL     OW28027   0.321   1.670   6.901
 9043SOL    HW128028   0.308   1.584   6.852
 9043SOL    HW228029   0.399   1.661   6.963
 9044SOL     OW28030   0.883   4.111   1.218
 9044SOL    HW128031   0.837   4.071   1.297
 9044SOL    HW228032   0.858   4.061   1.136
 9045SOL     OW28033   1.726   4.716   4.687
 9045SOL    HW128034   1.722   4.623   4.649
 9045SOL    HW228035   1.678   4.717   4.775
 9046SOL     OW28036   4.107   4.500   5.728
 9046SOL    HW128037   4.036   4.445   5.772
 9046SOL    HW228038   4.073   4.594   5.718
 9047SOL     OW28039   0.834   5.152   3.893
 9047SOL    HW128040   0.843   5.227   3.959
 9047SOL    HW228041   0.876   5.069   3.931
 9048SOL     OW28042   1.110   1.827   5.700
 9048SOL    HW128043   1.173   1.849   5.625
 9048SOL    HW228044   1.041   1.899   5.707
 9049SOL     OW28045   4.403   5.394   5.693
 9049SOL    HW128046   4.392   5.435   5.602
 9049SOL    HW228047   4.492   5.419   5.730
 9050SOL     OW28048   0.151   3.643   6.862
 9050SOL    HW128049   0.203   3.728   6.871
 9050SOL    HW228050   0.093   3.630   6.942
 9051SOL     OW28051   0.129   5.718   6.162
 9051SOL    HW128052   0.151   5.797   6.220
 9051SOL    HW228053   0.038   5.685   6.185
 9052SOL     OW28054   2.288   4.837   4.453
 9052SOL    HW128055   2.327   4.873   4.538
 9052SOL    HW228056   2.362   4.807   4.392
 9053SOL     OW28057   1.073   0.386   2.701
 9053SOL    HW128058   1.156   0.364   2.651
 9053SOL    HW228059   0.999   0.405   2.637
 9054SOL     OW28060   1.355   6.881   2.142
 9054SOL    HW128061   1.309   6.966   2.115
 9054SOL    HW228062   1.416   6.851   2.069
 9055SOL     OW28063   1.388   2.819   5.335
 9055SOL    HW128064   1.437   2.865   5.410
 9055SOL    HW228065   1.414   2.860   5.248
 9056SOL     OW28066   5.256   2.256   1.673
 9056SOL    HW128067   5.284   2.346   1.638
 9056SOL    HW228068   5.221   2.266   1.766
 9057SOL     OW28069   3.674   6.812   5.873
 9057SOL    HW128070   3.627   6.883   5.821
 9057SOL    HW228071   3.623   6.792   5.957
 9058SOL     OW28072   2.086   2.898   4.090
 9058SOL    HW128073   2.122   2.937   4.005
 9058SOL    HW228074   2.104   2.800   4.093
 9059SOL     OW28075   0.327   0.558   2.399
 9059SOL    HW128076   0.280   0.574   2.486
 9059SOL    HW228077   0.384   0.637   2.377
 9060SOL     OW28078   0.423   4.867   0.356
 9060SOL    HW128079   0.497   4.802   0.371
 9060SOL    HW228080   0.443   4.922   0.275
 9061SOL     OW28081   3.708   4.961   2.665
 9061SOL    HW128082   3.666   5.052   2.658
 9061SOL    HW228083   3.786   4.956   2.602
 9062SOL     OW28084   0.224   6.333   2.605
 9062SOL    HW128085   0.264   6.417   2.642
 9062SOL    HW228086   0.164   6.356   2.529
 9063SOL     OW28087   5.968   6.463   0.784
 9063SOL    HW128088   6.021   6.446   0.867
 9063SOL    HW228089   5.979   6.387   0.721
 9064SOL     OW28090   1.442   6.177   2.947
 9064SOL    HW128091   1.367   6.139   2.894
 9064SOL    HW228092   1.431   6.151   3.043
 9065SOL     OW28093   3.226   4.168   6.849
 9065SOL    HW128094   3.267   4.191   6.938
 9065SOL    HW228095   3.274   4.218   6.777
 9066SOL     OW28096   5.329   5.154   3.356
 9066SOL    HW128097   5.332   5.254   3.348
 9066SOL    HW228098   5.235   5.123   3.346
 9067SOL     OW28099   1.598   0.415   3.916
 9067SOL    HW128100   1.550   0.327   3.911
 9067SOL    HW228101   1.599   0.458   3.826
 9068SOL     OW28102   5.553   0.530   5.024
 9068SOL    HW128103   5.577   0.482   4.940
 9068SOL    HW228104   5.600   0.618   5.026
 9069SOL     OW28105   4.625   2.586   1.407
 9069SOL    HW128106   4.712   2.631   1.382
 9069SOL    HW228107   4.569   2.575   1.325
 9070SOL     OW28108   0.853   0.805   6.561
 9070SOL    HW128109   0.876   0.877   6.627
 9070SOL    HW228110   0.755   0.810   6.541
 9071SOL     OW28111   5.973   2.860   0.210
 9071SOL    HW128112   5.953   2.929   0.279
 9071SOL    HW228113   5.996   2.905   0.124
 9072SOL     OW28114   6.165   0.894   1.985
 9072SOL    HW128115   6.231   0.883   1.910
 9072SOL    HW228116   6.173   0.987   2.023
 9073SOL     OW28117   4.841   2.606   6.177
 9073SOL    HW128118   4.826   2.680   6.112
 9073SOL    HW228119   4.839   2.518   6.129
 9074SOL     OW28120   2.184   0.289   3.154
 9074SOL    HW128121   2.230   0.203   3.178
 9074SOL    HW228122   2.235   0.335   3.081
 9075SOL     OW28123   4.963   5.515   1.224
 9075SOL    HW128124   4.997   5.546   1.135
 9075SOL    HW228125   5.024   5.550   1.296
 9076SOL     OW28126   0.947   6.758   2.734
 9076SOL    HW128127   0.909   6.805   2.654
 9076SOL    HW228128   0.874   6.739   2.799
 9077SOL     OW28129   6.156   0.948   6.595
 9077SOL    HW128130   6.076   0.933   6.536
 9077SOL    HW228131   6.126   0.967   6.688
 9078SOL     OW28132   5.328   6.535   6.710
 9078SOL    HW128133   5.252   6.558   6.771
 9078SOL    HW228134   5.298   6.544   6.615
 9079SOL     OW28135   2.473   1.727   6.325
 9079SOL    HW128136   2.556   1.687   6.365
 9079SOL    HW228137   2.443   1.804   6.382
 9080SOL     OW28138   6.495   4.930   0.595
 9080SOL    HW128139   6.519   4.914   0.690
 9080SOL    HW228140   6.414   4.876   0.571
 9081SOL     OW28141   5.071   1.515   6.280
 9081SOL    HW128142   5.066   1.425   6.239
 9081SOL    HW228143   5.165   1.532   6.312
 9082SOL     OW28144   2.961   4.336   6.575
 9082SOL    HW128145   2.936   4.353   6.480
 9082SOL    HW228146   2.890   4.280   6.618
 9083SOL     OW28147   3.737   0.583   1.086
 9083SOL    HW128148   3.738   0.626   0.996
 9083SOL    HW228149   3.665   0.622   1.142
 9084SOL     OW28150   6.799   4.512   4.890
 9084SOL    HW128151   6.857   4.543   4.815
 9084SOL    HW228152   6.729   4.581   4.909
 9085SOL     OW28153   3.409   5.006   2.063
 9085SOL    HW128154   3.470   4.930   2.084
 9085SOL    HW228155   3.326   4.971   2.019
 9086SOL     OW28156   0.178   1.354   0.419
 9086SOL    HW128157   0.161   1.307   0.506
 9086SOL    HW228158   0.171   1.453   0.434
 9087SOL     OW28159   4.911   1.331   0.303
 9087SOL    HW128160   4.924   1.355   0.207
 9087SOL    HW228161   4.989   1.363   0.356
 9088SOL     OW28162   5.219   6.580   0.704
 9088SOL    HW128163   5.316   6.602   0.710
 9088SOL    HW228164   5.178   6.629   0.627
 9089SOL     OW28165   4.591   5.397   3.131
 9089SOL    HW128166   4.554   5.317   3.177
 9089SOL    HW228167   4.574   5.478   3.187
 9090SOL     OW28168   6.503   4.842   4.728
 9090SOL    HW128169   6.491   4.907   4.803
 9090SOL    HW228170   6.413   4.814   4.694
 9091SOL     OW28171   1.925   2.097   1.925
 9091SOL    HW128172   1.903   2.121   2.020
 9091SOL    HW228173   1.984   2.167   1.885
 9092SOL     OW28174   3.249   1.688   5.280
 9092SOL    HW128175   3.239   1.714   5.184
 9092SOL    HW228176   3.328   1.627   5.290
 9093SOL     OW28177   1.708   3.877   0.568
 9093SOL    HW128178   1.611   3.852   0.572
 9093SOL    HW228179   1.756   3.840   0.647
 9094SOL     OW28180   0.247   2.661   6.597
 9094SOL    HW128181   0.334   2.659   6.547
 9094SOL    HW228182   0.247   2.740   6.659
 9095SOL     OW28183   2.653   2.136   0.636
 9095SOL    HW128184   2.680   2.040   0.621
 9095SOL    HW228185   2.584   2.162   0.569
 9096SOL     OW28186   6.792   4.227   2.929
 9096SOL    HW128187   6.786   4.128   2.921
 9096SOL    HW228188   6.848   4.264   2.855
 9097SOL     OW28189   6.436   5.967   5.913
 9097SOL    HW128190   6.359   6.025   5.940
 9097SOL    HW228191   6.499   5.958   5.990
 9098SOL     OW28192   3.456   3.456   5.406
 9098SOL    HW128193   3.504   3.479   5.491
 9098SOL    HW228194   3.385   3.388   5.426
 9099SOL     OW28195   2.201   2.435   6.179
 9099SOL    HW128196   2.285   2.484   6.201
 9099SOL    HW228197   2.224   2.353   6.127
 9100SOL     OW28198   1.532   2.248   1.044
 9100SOL    HW128199   1.629   2.263   1.027
 9100SOL    HW228200   1.518   2.155   1.077
 9101SOL     OW28201   2.682   2.266   0.289
 9101SOL    HW128202   2.648   2.290   0.379
 9101SOL    HW228203   2.651   2.174   0.265
 9102SOL     OW28204   4.406   6.100   2.624
 9102SOL    HW128205   4.493   6.056   2.602
 9102SOL    HW228206   4.422   6.192   2.658
 9103SOL     OW28207   1.652   4.242   6.422
 9103SOL    HW128208   1.615   4.200   6.339
 9103SOL    HW228209   1.738   4.198   6.446
 9104SOL     OW28210   4.664   6.458   3.238
 9104SOL    HW128211   4.672   6.416   3.147
 9104SOL    HW228212   4.601   6.536   3.232
 9105SOL     OW28213   3.078   2.258   5.948
 9105SOL    HW128214   2.985   2.285   5.975
 9105SOL    HW228215   3.127   2.338   5.914
 9106SOL     OW28216   6.859   5.337   1.208
 9106SOL    HW128217   6.839   5.435   1.202
 9106SOL    HW228218   6.933   5.322   1.274
 9107SOL     OW28219   4.482   6.712   6.682
 9107SOL    HW128220   4.561   6.661   6.716
 9107SOL    HW228221   4.495   6.734   6.585
 9108SOL     OW28222   3.575   5.695   0.923
 9108SOL    HW128223   3.519   5.650   0.853
 9108SOL    HW228224   3.668   5.705   0.889
 9109SOL     OW28225   3.528   1.937   4.534
 9109SOL    HW128226   3.605   1.876   4.515
 9109SOL    HW228227   3.517   1.946   4.633
 9110SOL     OW28228   0.106   4.126   3.694
 9110SOL    HW128229   0.077   4.041   3.738
 9110SOL    HW228230   0.028   4.190   3.691
 9111SOL     OW28231   3.579   4.430   1.723
 9111SOL    HW128232   3.586   4.518   1.771
 9111SOL    HW228233   3.515   4.438   1.647
 9112SOL     OW28234   1.163   6.686   2.164
 9112SOL    HW128235   1.249   6.640   2.140
 9112SOL    HW228236   1.180   6.783   2.179
 9113SOL     OW28237   2.393   6.412   0.892
 9113SOL    HW128238   2.329   6.382   0.822
 9113SOL    HW228239   2.485   6.416   0.854
 9114SOL     OW28240   2.929   3.858   1.623
 9114SOL    HW128241   2.874   3.939   1.606
 9114SOL    HW228242   3.023   3.884   1.643
 9115SOL     OW28243   1.293   4.745   3.797
 9115SOL    HW128244   1.210   4.752   3.853
 9115SOL    HW228245   1.288   4.663   3.740
 9116SOL     OW28246   3.566   2.518   6.787
 9116SOL    HW128247   3.614   2.607   6.789
 9116SOL    HW228248   3.469   2.533   6.802
 9117SOL     OW28249   1.190   2.401   0.237
 9117SOL    HW128250   1.234   2.329   0.291
 9117SOL    HW228251   1.173   2.367   0.145
 9118SOL     OW28252   0.776   7.016   1.863
 9118SOL    HW128253   0.684   7.005   1.826
 9118SOL    HW228254   0.780   0.083   1.918
 9119SOL     OW28255   6.039   0.214   0.454
 9119SOL    HW128256   5.942   0.227   0.473
 9119SOL    HW228257   6.091   0.293   0.487
 9120SOL     OW28258   6.355   0.058   6.736
 9120SOL    HW128259   6.296   6.994   6.751
 9120SOL    HW228260   6.368   0.106   6.822
 9121SOL     OW28261   1.478   1.032   6.211
 9121SOL    HW128262   1.452   1.079   6.126
 9121SOL    HW228263   1.429   1.073   6.288
 9122SOL     OW28264   0.180   3.279   1.497
 9122SOL    HW128265   0.227   3.235   1.573
 9122SOL    HW228266   0.181   3.378   1.510
 9123SOL     OW28267   1.541   7.009   5.876
 9123SOL    HW128268   1.552   0.041   5.963
 9123SOL    HW228269   1.572   6.915   5.886
 9124SOL     OW28270   0.402   4.078   4.824
 9124SOL    HW128271   0.333   4.043   4.887
 9124SOL    HW228272   0.436   4.003   4.767
 9125SOL     OW28273   4.915   6.367   1.435
 9125SOL    HW128274   4.849   6.354   1.360
 9125SOL    HW228275   4.976   6.443   1.412
 9126SOL     OW28276   5.628   0.696   3.303
 9126SOL    HW128277   5.723   0.698   3.271
 9126SOL    HW228278   5.608   0.606   3.342
 9127SOL     OW28279   6.242   4.958   6.141
 9127SOL    HW128280   6.299   4.963   6.059
 9127SOL    HW228281   6.270   5.030   6.205
 9128SOL     OW28282   4.808   3.098   5.420
 9128SOL    HW128283   4.906   3.120   5.419
 9128SOL    HW228284   4.757   3.176   5.456
 9129SOL     OW28285   3.141   0.804   0.504
 9129SOL    HW128286   3.154   0.810   0.405
 9129SOL    HW228287   3.188   0.880   0.548
 9130SOL     OW28288   5.737   5.359   1.388
 9130SOL    HW128289   5.696   5.314   1.467
 9130SOL    HW228290   5.665   5.386   1.324
 9131SOL     OW28291   0.676   5.043   3.553
 9131SOL    HW128292   0.629   5.058   3.640
 9131SOL    HW228293   0.774   5.044   3.567
 9132SOL     OW28294   1.264   2.975   4.322
 9132SOL    HW128295   1.284   3.022   4.408
 9132SOL    HW228296   1.247   2.878   4.340
 9133SOL     OW28297   1.189   4.939   0.874
 9133SOL    HW128298   1.156   4.869   0.938
 9133SOL    HW228299   1.255   4.899   0.811
 9134SOL     OW28300   3.100   5.314   6.258
 9134SOL    HW128301   3.190   5.303   6.216
 9134SOL    HW228302   3.064   5.225   6.284
 9135SOL     OW28303   0.991   0.302   2.950
 9135SOL    HW128304   1.003   0.311   2.851
 9135SOL    HW228305   0.975   0.393   2.989
 9136SOL     OW28306   3.407   5.018   5.701
 9136SOL    HW128307   3.446   4.946   5.758
 9136SOL    HW228308   3.316   5.042   5.734
 9137SOL     OW28309   3.673   0.289   3.084
 9137SOL    HW128310   3.663   0.212   3.021
 9137SOL    HW228311   3.685   0.373   3.032
 9138SOL     OW28312   3.359   4.588   1.201
 9138SOL    HW128313   3.427   4.588   1.274
 9138SOL    HW228314   3.388   4.648   1.127
 9139SOL     OW28315   4.394   0.827   5.555
 9139SOL    HW128316   4.366   0.752   5.615
 9139SOL    HW228317   4.494   0.832   5.553
 9140SOL     OW28318   6.359   2.247   3.758
 9140SOL    HW128319   6.365   2.249   3.858
 9140SOL    HW228320   6.403   2.165   3.724
 9141SOL     OW28321   5.100   1.310   5.475
 9141SOL    HW128322   5.120   1.320   5.572
 9141SOL    HW228323   5.077   1.400   5.436
 9142SOL     OW28324   2.086   3.132   0.261
 9142SOL    HW128325   2.030   3.168   0.336
 9142SOL    HW228326   2.028   3.086   0.194
 9143SOL     OW28327   6.858   4.247   0.410
 9143SOL    HW128328   6.935   4.222   0.469
 9143SOL    HW228329   6.853   4.184   0.333
 9144SOL     OW28330   1.122   5.926   3.981
 9144SOL    HW128331   1.045   5.967   4.030
 9144SOL    HW228332   1.097   5.835   3.949
 9145SOL     OW28333   1.903   3.123   6.912
 9145SOL    HW128334   1.886   3.120   7.011
 9145SOL    HW228335   1.841   3.187   6.869
 9146SOL     OW28336   1.123   1.930   1.628
 9146SOL    HW128337   1.093   1.879   1.708
 9146SOL    HW228338   1.085   2.023   1.631
 9147SOL     OW28339   4.111   5.494   6.538
 9147SOL    HW128340   4.097   5.407   6.585
 9147SOL    HW228341   4.162   5.478   6.453
 9148SOL     OW28342   3.446   4.946   2.774
 9148SOL    HW128343   3.366   4.923   2.718
 9148SOL    HW228344   3.523   4.889   2.745
 9149SOL     OW28345   6.223   3.407   5.193
 9149SOL    HW128346   6.132   3.390   5.156
 9149SOL    HW228347   6.275   3.322   5.195
 9150SOL     OW28348   3.605   1.309   2.760
 9150SOL    HW128349   3.638   1.272   2.847
 9150SOL    HW228350   3.540   1.245   2.719
 9151SOL     OW28351   6.304   2.869   2.198
 9151SOL    HW128352   6.396   2.863   2.158
 9151SOL    HW228353   6.238   2.889   2.125
 9152SOL     OW28354   1.848   4.829   2.511
 9152SOL    HW128355   1.783   4.897   2.477
 9152SOL    HW228356   1.917   4.873   2.568
 9153SOL     OW28357   2.294   2.886   0.656
 9153SOL    HW128358   2.393   2.870   0.649
 9153SOL    HW228359   2.272   2.974   0.615
 9154SOL     OW28360   0.817   4.925   0.638
 9154SOL    HW128361   0.731   4.974   0.624
 9154SOL    HW228362   0.889   4.990   0.660
 9155SOL     OW28363   1.975   4.831   6.971
 9155SOL    HW128364   1.910   4.907   6.971
 9155SOL    HW228365   1.944   4.760   6.908
 9156SOL     OW28366   4.947   2.569   2.004
 9156SOL    HW128367   4.878   2.568   1.933
 9156SOL    HW228368   4.909   2.608   2.088
 9157SOL     OW28369   5.422   3.800   5.655
 9157SOL    HW128370   5.383   3.872   5.597
 9157SOL    HW228371   5.431   3.834   5.749
 9158SOL     OW28372   0.653   4.637   3.497
 9158SOL    HW128373   0.583   4.581   3.540
 9158SOL    HW228374   0.707   4.581   3.434
 9159SOL     OW28375   0.173   5.685   1.692
 9159SOL    HW128376   0.157   5.754   1.621
 9159SOL    HW228377   0.123   5.710   1.775
 9160SOL     OW28378   0.863   6.508   0.689
 9160SOL    HW128379   0.904   6.545   0.772
 9160SOL    HW228380   0.906   6.549   0.608
 9161SOL     OW28381   5.315   2.941   2.131
 9161SOL    HW128382   5.284   2.920   2.039
 9161SOL    HW228383   5.411   2.969   2.129
 9162SOL     OW28384   5.817   2.395   3.633
 9162SOL    HW128385   5.852   2.404   3.726
 9162SOL    HW228386   5.886   2.426   3.568
 9163SOL     OW28387   3.823   0.554   5.076
 9163SOL    HW128388   3.806   0.548   4.977
 9163SOL    HW228389   3.916   0.523   5.095
 9164SOL     OW28390   2.806   0.827   0.907
 9164SOL    HW128391   2.899   0.790   0.903
 9164SOL    HW228392   2.765   0.802   0.995
 9165SOL     OW28393   5.265   5.820   1.110
 9165SOL    HW128394   5.269   5.918   1.132
 9165SOL    HW228395   5.239   5.769   1.192
 9166SOL     OW28396   3.193   4.840   1.030
 9166SOL    HW128397   3.277   4.791   1.007
 9166SOL    HW228398   3.115   4.777   1.028
 9167SOL     OW28399   0.494   3.639   4.534
 9167SOL    HW128400   0.489   3.739   4.537
 9167SOL    HW228401   0.580   3.609   4.577
 9168SOL     OW28402   4.323   0.683   0.580
 9168SOL    HW128403   4.239   0.629   0.586
 9168SOL    HW228404   4.299   0.780   0.569
 9169SOL     OW28405   0.666   6.834   3.717
 9169SOL    HW128406   0.692   6.787   3.801
 9169SOL    HW228407   0.602   6.907   3.738
 9170SOL     OW28408   6.271   5.643   0.212
 9170SOL    HW128409   6.277   5.739   0.186
 9170SOL    HW228410   6.180   5.608   0.190
 9171SOL     OW28411   4.079   5.983   4.259
 9171SOL    HW128412   4.139   6.059   4.284
 9171SOL    HW228413   3.986   6.018   4.244
 9172SOL     OW28414   2.083   1.759   4.116
 9172SOL    HW128415   2.155   1.804   4.063
 9172SOL    HW228416   2.092   1.784   4.212
 9173SOL     OW28417   6.758   5.090   5.197
 9173SOL    HW128418   6.796   5.023   5.133
 9173SOL    HW228419   6.718   5.043   5.276
 9174SOL     OW28420   0.323   5.320   6.477
 9174SOL    HW128421   0.293   5.415   6.464
 9174SOL    HW228422   0.262   5.259   6.428
 9175SOL     OW28423   1.773   6.020   6.431
 9175SOL    HW128424   1.814   6.051   6.345
 9175SOL    HW228425   1.842   6.022   6.503
 9176SOL     OW28426   1.543   2.624   5.927
 9176SOL    HW128427   1.631   2.667   5.907
 9176SOL    HW228428   1.473   2.663   5.868
 9177SOL     OW28429   1.820   4.200   2.796
 9177SOL    HW128430   1.795   4.105   2.814
 9177SOL    HW228431   1.789   4.226   2.705
 9178SOL     OW28432   1.525   4.052   6.938
 9178SOL    HW128433   1.476   3.983   6.886
 9178SOL    HW228434   1.557   4.012   0.008
 9179SOL     OW28435   3.043   4.364   5.334
 9179SOL    HW128436   2.965   4.303   5.350
 9179SOL    HW228437   3.017   4.435   5.268
 9180SOL     OW28438   5.094   1.357   1.970
 9180SOL    HW128439   5.144   1.376   2.054
 9180SOL    HW228440   5.146   1.292   1.914
 9181SOL     OW28441   3.621   1.164   2.442
 9181SOL    HW128442   3.645   1.259   2.419
 9181SOL    HW228443   3.595   1.159   2.538
 9182SOL     OW28444   2.215   6.918   1.339
 9182SOL    HW128445   2.214   6.905   1.240
 9182SOL    HW228446   2.181   7.009   1.361
 9183SOL     OW28447   5.372   5.051   5.452
 9183SOL    HW128448   5.408   4.988   5.383
 9183SOL    HW228449   5.297   5.104   5.412
 9184SOL     OW28450   4.876   0.131   0.013
 9184SOL    HW128451   4.792   0.175   0.047
 9184SOL    HW228452   4.865   0.032   0.015
 9185SOL     OW28453   5.264   1.435   4.915
 9185SOL    HW128454   5.221   1.476   4.834
 9185SOL    HW228455   5.355   1.475   4.928
 9186SOL     OW28456   4.837   1.014   6.112
 9186SOL    HW128457   4.915   1.025   6.173
 9186SOL    HW228458   4.870   1.004   6.018
 9187SOL     OW28459   2.317   6.319   3.277
 9187SOL    HW128460   2.295   6.416   3.272
 9187SOL    HW228461   2.250   6.266   3.224
 9188SOL     OW28462   3.073   5.126   0.651
 9188SOL    HW128463   2.975   5.128   0.671
 9188SOL    HW228464   3.125   5.126   0.736
 9189SOL     OW28465   5.502   4.445   1.944
 9189SOL    HW128466   5.443   4.435   1.864
 9189SOL    HW228467   5.453   4.414   2.026
 9190SOL     OW28468   1.343   5.900   6.821
 9190SOL    HW128469   1.282   5.925   6.746
 9190SOL    HW228470   1.314   5.947   6.905
 9191SOL     OW28471   6.215   0.656   6.260
 9191SOL    HW128472   6.202   0.576   6.318
 9191SOL    HW228473   6.249   0.627   6.170
 9192SOL     OW28474   1.358   3.553   4.723
 9192SOL    HW128475   1.424   3.490   4.684
 9192SOL    HW228476   1.385   3.575   4.817
 9193SOL     OW28477   4.116   3.964   0.468
 9193SOL    HW128478   4.126   3.879   0.416
 9193SOL    HW228479   4.206   3.993   0.502
 9194SOL     OW28480   3.029   0.478   4.306
 9194SOL    HW128481   2.933   0.468   4.282
 9194SOL    HW228482   3.084   0.480   4.223
 9195SOL     OW28483   1.602   1.481   3.832
 9195SOL    HW128484   1.660   1.452   3.757
 9195SOL    HW228485   1.655   1.482   3.917
 9196SOL     OW28486   5.100   1.211   5.742
 9196SOL    HW128487   5.097   1.264   5.827
 9196SOL    HW228488   5.195   1.183   5.724
 9197SOL     OW28489   2.853   3.757   0.580
 9197SOL    HW128490   2.948   3.763   0.613
 9197SOL    HW228491   2.849   3.787   0.485
 9198SOL     OW28492   1.010   4.280   5.059
 9198SOL    HW128493   0.956   4.232   5.127
 9198SOL    HW228494   1.092   4.228   5.038
 9199SOL     OW28495   6.487   4.991   4.961
 9199SOL    HW128496   6.398   5.023   4.994
 9199SOL    HW228497   6.534   4.942   5.034
 9200SOL     OW28498   3.025   6.847   0.695
 9200SOL    HW128499   2.945   6.787   0.688
 9200SOL    HW228500   3.031   6.904   0.614
 9201SOL     OW28501   2.253   4.625   1.017
 9201SOL    HW128502   2.196   4.576   1.083
 9201SOL    HW228503   2.262   4.721   1.045
 9202SOL     OW28504   2.755   1.156   3.695
 9202SOL    HW128505   2.790   1.249   3.688
 9202SOL    HW228506   2.686   1.151   3.767
 9203SOL     OW28507   6.800   6.245   1.274
 9203SOL    HW128508   6.859   6.308   1.224
 9203SOL    HW228509   6.834   6.234   1.367
 9204SOL     OW28510   5.535   0.421   5.270
 9204SOL    HW128511   5.533   0.435   5.171
 9204SOL    HW228512   5.461   0.474   5.312
 9205SOL     OW28513   6.974   5.274   2.589
 9205SOL    HW128514   7.005   5.285   2.495
 9205SOL    HW228515   6.876   5.254   2.590
 9206SOL     OW28516   3.939   0.445   0.291
 9206SOL    HW128517   3.919   0.456   0.389
 9206SOL    HW228518   4.035   0.466   0.275
 9207SOL     OW28519   5.413   5.770   6.129
 9207SOL    HW128520   5.431   5.693   6.191
 9207SOL    HW228521   5.439   5.855   6.173
 9208SOL     OW28522   1.179   3.570   2.233
 9208SOL    HW128523   1.093   3.611   2.202
 9208SOL    HW228524   1.191   3.481   2.190
 9209SOL     OW28525   2.456   6.106   6.613
 9209SOL    HW128526   2.414   6.185   6.567
 9209SOL    HW228527   2.459   6.124   6.712
 9210SOL     OW28528   6.431   0.180   4.132
 9210SOL    HW128529   6.369   0.113   4.171
 9210SOL    HW228530   6.379   0.253   4.089
 9211SOL     OW28531   1.095   1.515   3.031
 9211SOL    HW128532   1.044   1.458   3.096
 9211SOL    HW228533   1.180   1.468   3.007
 9212SOL     OW28534   4.454   4.897   4.788
 9212SOL    HW128535   4.390   4.930   4.858
 9212SOL    HW228536   4.447   4.797   4.782
 9213SOL     OW28537   6.215   3.832   0.613
 9213SOL    HW128538   6.301   3.800   0.651
 9213SOL    HW228539   6.140   3.774   0.647
 9214SOL     OW28540   0.039   5.444   0.670
 9214SOL    HW128541   0.018   5.421   0.575
 9214SOL    HW228542   0.089   5.368   0.713
 9215SOL     OW28543   0.884   1.448   0.755
 9215SOL    HW128544   0.803   1.483   0.803
 9215SOL    HW228545   0.887   1.349   0.764
 9216SOL     OW28546   1.566   6.939   4.174
 9216SOL    HW128547   1.514   6.859   4.202
 9216SOL    HW228548   1.632   6.913   4.104
 9217SOL     OW28549   0.296   2.107   0.996
 9217SOL    HW128550   0.360   2.037   0.966
 9217SOL    HW228551   0.288   2.178   0.925
 9218SOL     OW28552   2.410   1.232   1.293
 9218SOL    HW128553   2.492   1.284   1.267
 9218SOL    HW228554   2.333   1.263   1.238
 9219SOL     OW28555   6.297   1.278   0.669
 9219SOL    HW128556   6.355   1.356   0.689
 9219SOL    HW228557   6.204   1.309   0.650
 9220SOL     OW28558   3.722   6.441   0.313
 9220SOL    HW128559   3.742   6.525   0.363
 9220SOL    HW228560   3.734   6.362   0.374
 9221SOL     OW28561   2.619   4.714   4.848
 9221SOL    HW128562   2.702   4.674   4.887
 9221SOL    HW228563   2.539   4.679   4.896
 9222SOL     OW28564   3.111   2.210   0.307
 9222SOL    HW128565   3.122   2.213   0.207
 9222SOL    HW228566   3.036   2.269   0.334
 9223SOL     OW28567   2.725   3.116   5.324
 9223SOL    HW128568   2.796   3.081   5.262
 9223SOL    HW228569   2.635   3.091   5.289
 9224SOL     OW28570   2.428   4.622   5.011
 9224SOL    HW128571   2.356   4.610   5.080
 9224SOL    HW228572   2.505   4.671   5.052
 9225SOL     OW28573   1.385   6.146   6.526
 9225SOL    HW128574   1.301   6.093   6.517
 9225SOL    HW228575   1.463   6.084   6.529
 9226SOL     OW28576   4.645   6.339   0.910
 9226SOL    HW128577   4.635   6.374   0.817
 9226SOL    HW228578   4.604   6.248   0.916
 9227SOL     OW28579   1.021   6.217   1.601
 9227SOL    HW128580   1.042   6.148   1.671
 9227SOL    HW228581   1.002   6.171   1.514
 9228SOL     OW28582   0.848   6.054   6.410
 9228SOL    HW128583   0.943   6.047   6.378
 9228SOL    HW228584   0.843   6.023   6.505
 9229SOL     OW28585   1.232   5.604   5.200
 9229SOL    HW128586   1.218   5.573   5.106
 9229SOL    HW228587   1.330   5.614   5.217
 9230SOL     OW28588   5.035   1.746   3.268
 9230SOL    HW128589   5.127   1.712   3.250
 9230SOL    HW228590   5.001   1.795   3.187
 9231SOL     OW28591   2.225   3.041   3.592
 9231SOL    HW128592   2.251   2.965   3.532
 9231SOL    HW228593   2.273   3.124   3.564
 9232SOL     OW28594   4.124   5.662   1.337
 9232SOL    HW128595   4.109   5.576   1.386
 9232SOL    HW228596   4.049   5.676   1.272
 9233SOL     OW28597   6.488   4.250   0.501
 9233SOL    HW128598   6.479   4.347   0.523
 9233SOL    HW228599   6.402   4.203   0.520
 9234SOL     OW28600   1.380   6.097   3.678
 9234SOL    HW128601   1.298   6.098   3.622
 9234SOL    HW228602   1.461   6.097   3.618
 9235SOL     OW28603   0.881   2.952   3.267
 9235SOL    HW128604   0.905   2.945   3.170
 9235SOL    HW228605   0.801   2.894   3.286
 9236SOL     OW28606   3.536   2.693   6.369
 9236SOL    HW128607   3.450   2.649   6.341
 9236SOL    HW228608   3.515   2.780   6.414
 9237SOL     OW28609   1.715   3.950   2.871
 9237SOL    HW128610   1.662   3.965   2.788
 9237SOL    HW228611   1.652   3.935   2.948
 9238SOL     OW28612   4.380   3.951   6.614
 9238SOL    HW128613   4.339   4.009   6.685
 9238SOL    HW228614   4.407   4.007   6.536
 9239SOL     OW28615   2.162   3.213   6.663
 9239SOL    HW128616   2.171   3.309   6.636
 9239SOL    HW228617   2.179   3.204   6.762
 9240SOL     OW28618   4.641   0.655   2.357
 9240SOL    HW128619   4.601   0.566   2.382
 9240SOL    HW228620   4.709   0.681   2.426
 9241SOL     OW28621   0.601   6.053   5.103
 9241SOL    HW128622   0.632   5.971   5.152
 9241SOL    HW228623   0.667   6.077   5.032
 9242SOL     OW28624   4.934   6.937   1.838
 9242SOL    HW128625   4.840   6.946   1.872
 9242SOL    HW228626   4.997   6.941   1.915
 9243SOL     OW28627   5.427   0.230   4.425
 9243SOL    HW128628   5.334   0.267   4.424
 9243SOL    HW228629   5.445   0.190   4.515
 9244SOL     OW28630   3.535   6.567   0.595
 9244SOL    HW128631   3.442   6.575   0.630
 9244SOL    HW228632   3.561   6.652   0.549
 9245SOL     OW28633   0.325   6.847   1.843
 9245SOL    HW128634   0.237   6.801   1.835
 9245SOL    HW228635   0.390   6.787   1.890
 9246SOL     OW28636   6.298   5.439   3.681
 9246SOL    HW128637   6.252   5.361   3.638
 9246SOL    HW228638   6.387   5.411   3.716
 9247SOL     OW28639   0.768   0.752   2.843
 9247SOL    HW128640   0.848   0.755   2.783
 9247SOL    HW228641   0.695   0.809   2.805
 9248SOL     OW28642   4.659   1.703   6.251
 9248SOL    HW128643   4.707   1.671   6.333
 9248SOL    HW228644   4.640   1.625   6.191
 9249SOL     OW28645   3.960   6.516   4.081
 9249SOL    HW128646   3.968   6.538   3.984
 9249SOL    HW228647   4.017   6.437   4.102
 9250SOL     OW28648   4.808   3.900   3.307
 9250SOL    HW128649   4.821   3.840   3.228
 9250SOL    HW228650   4.849   3.857   3.388
 9251SOL     OW28651   4.056   1.906   2.338
 9251SOL    HW128652   4.042   1.913   2.239
 9251SOL    HW228653   3.995   1.971   2.385
 9252SOL     OW28654   1.368   6.803   4.722
 9252SOL    HW128655   1.271   6.826   4.713
 9252SOL    HW228656   1.424   6.884   4.702
 9253SOL     OW28657   1.280   6.852   6.122
 9253SOL    HW128658   1.283   6.811   6.030
 9253SOL    HW228659   1.312   6.947   6.117
 9254SOL     OW28660   4.556   2.366   0.687
 9254SOL    HW128661   4.584   2.462   0.690
 9254SOL    HW228662   4.539   2.339   0.592
 9255SOL     OW28663   0.000   4.917   0.407
 9255SOL    HW128664   6.937   4.862   0.432
 9255SOL    HW228665   7.014   5.004   0.457
 9256SOL     OW28666   3.994   5.399   2.812
 9256SOL    HW128667   4.044   5.352   2.884
 9256SOL    HW228668   4.033   5.375   2.723
 9257SOL     OW28669   0.563   3.584   0.696
 9257SOL    HW128670   0.630   3.641   0.647
 9257SOL    HW228671   0.586   3.583   0.793
 9258SOL     OW28672   3.415   2.879   4.886
 9258SOL    HW128673   3.350   2.954   4.899
 9258SOL    HW228674   3.382   2.798   4.935
 9259SOL     OW28675   1.978   2.515   0.701
 9259SOL    HW128676   2.037   2.589   0.668
 9259SOL    HW228677   2.032   2.453   0.759
 9260SOL     OW28678   6.638   3.794   0.467
 9260SOL    HW128679   6.635   3.893   0.478
 9260SOL    HW228680   6.648   3.770   0.371
 9261SOL     OW28681   2.414   6.771   5.804
 9261SOL    HW128682   2.441   6.866   5.786
 9261SOL    HW228683   2.495   6.713   5.803
 9262SOL     OW28684   6.215   6.868   6.837
 9262SOL    HW128685   6.264   6.781   6.839
 9262SOL    HW228686   6.153   6.870   6.759
 9263SOL     OW28687   5.727   3.650   2.795
 9263SOL    HW128688   5.697   3.601   2.876
 9263SOL    HW228689   5.735   3.748   2.817
 9264SOL     OW28690   5.818   2.220   0.422
 9264SOL    HW128691   5.844   2.210   0.325
 9264SOL    HW228692   5.743   2.285   0.429
 9265SOL     OW28693   1.913   1.552   5.313
 9265SOL    HW128694   1.909   1.591   5.405
 9265SOL    HW228695   1.935   1.623   5.247
 9266SOL     OW28696   2.854   0.016   2.680
 9266SOL    HW128697   2.789   6.958   2.668
 9266SOL    HW228698   2.940   6.996   2.717
 9267SOL     OW28699   2.965   4.982   6.017
 9267SOL    HW128700   2.928   5.000   6.108
 9267SOL    HW228701   2.901   5.018   5.948
 9268SOL     OW28702   1.045   1.119   3.115
 9268SOL    HW128703   1.002   1.102   3.026
 9268SOL    HW228704   0.997   1.193   3.161
 9269SOL     OW28705   4.037   1.480   5.324
 9269SOL    HW128706   3.994   1.437   5.245
 9269SOL    HW228707   4.095   1.414   5.371
 9270SOL     OW28708   2.243   0.445   5.328
 9270SOL    HW128709   2.326   0.400   5.362
 9270SOL    HW228710   2.163   0.394   5.360
 9271SOL     OW28711   0.339   5.442   5.262
 9271SOL    HW128712   0.362   5.369   5.198
 9271SOL    HW228713   0.289   5.404   5.340
 9272SOL     OW28714   2.437   5.110   6.974
 9272SOL    HW128715   2.403   5.063   6.892
 9272SOL    HW228716   2.497   5.185   6.946
 9273SOL     OW28717   3.343   5.332   6.132
 9273SOL    HW128718   3.330   5.429   6.151
 9273SOL    HW228719   3.389   5.321   6.044
 9274SOL     OW28720   4.919   1.451   1.720
 9274SOL    HW128721   4.933   1.391   1.799
 9274SOL    HW228722   4.843   1.513   1.739
 9275SOL     OW28723   6.704   0.439   6.170
 9275SOL    HW128724   6.662   0.363   6.221
 9275SOL    HW228725   6.669   0.440   6.076
 9276SOL     OW28726   4.818   0.206   4.213
 9276SOL    HW128727   4.877   0.218   4.292
 9276SOL    HW228728   4.757   0.285   4.203
 9277SOL     OW28729   5.387   2.688   6.785
 9277SOL    HW128730   5.349   2.764   6.733
 9277SOL    HW228731   5.313   2.634   6.824
 9278SOL     OW28732   1.476   2.459   1.242
 9278SOL    HW128733   1.516   2.418   1.161
 9278SOL    HW228734   1.429   2.389   1.296
 9279SOL     OW28735   2.213   0.124   0.600
 9279SOL    HW128736   2.193   0.044   0.658
 9279SOL    HW228737   2.128   0.162   0.565
 9280SOL     OW28738   1.845   0.628   2.058
 9280SOL    HW128739   1.753   0.665   2.044
 9280SOL    HW228740   1.913   0.698   2.038
 9281SOL     OW28741   2.093   2.481   0.079
 9281SOL    HW128742   2.160   2.501   0.150
 9281SOL    HW228743   2.053   2.391   0.095
 9282SOL     OW28744   3.996   1.166   6.139
 9282SOL    HW128745   4.085   1.135   6.104
 9282SOL    HW228746   4.002   1.262   6.165
 9283SOL     OW28747   5.232   2.452   3.224
 9283SOL    HW128748   5.306   2.392   3.194
 9283SOL    HW228749   5.181   2.408   3.297
 9284SOL     OW28750   3.855   3.893   1.761
 9284SOL    HW128751   3.943   3.894   1.807
 9284SOL    HW228752   3.869   3.882   1.662
 9285SOL     OW28753   6.455   2.581   6.904
 9285SOL    HW128754   6.390   2.641   6.858
 9285SOL    HW228755   6.516   2.540   6.837
 9286SOL     OW28756   5.813   5.293   4.208
 9286SOL    HW128757   5.734   5.351   4.186
 9286SOL    HW228758   5.793   5.198   4.183
 9287SOL     OW28759   3.126   0.078   2.482
 9287SOL    HW128760   3.215   0.088   2.527
 9287SOL    HW228761   3.082   0.167   2.477
 9288SOL     OW28762   4.310   1.992   6.773
 9288SOL    HW128763   4.223   1.955   6.740
 9288SOL    HW228764   4.385   1.946   6.726
 9289SOL     OW28765   5.365   3.598   3.276
 9289SOL    HW128766   5.404   3.576   3.187
 9289SOL    HW228767   5.426   3.663   3.323
 9290SOL     OW28768   3.990   2.205   4.255
 9290SOL    HW128769   3.983   2.226   4.352
 9290SOL    HW228770   4.077   2.238   4.219
 9291SOL     OW28771   0.923   2.879   4.979
 9291SOL    HW128772   1.015   2.895   5.015
 9291SOL    HW228773   0.887   2.793   5.015
 9292SOL     OW28774   1.176   4.037   6.951
 9292SOL    HW128775   1.146   4.065   0.027
 9292SOL    HW228776   1.159   3.940   6.939
 9293SOL     OW28777   5.356   3.562   6.530
 9293SOL    HW128778   5.442   3.517   6.555
 9293SOL    HW228779   5.340   3.549   6.432
 9294SOL     OW28780   5.483   5.560   6.893
 9294SOL    HW128781   5.531   5.562   6.981
 9294SOL    HW228782   5.547   5.580   6.820
 9295SOL     OW28783   4.839   2.920   3.242
 9295SOL    HW128784   4.838   3.004   3.295
 9295SOL    HW228785   4.814   2.843   3.301
 9296SOL     OW28786   5.881   0.346   4.960
 9296SOL    HW128787   5.919   0.303   5.041
 9296SOL    HW228788   5.817   0.283   4.915
 9297SOL     OW28789   0.402   0.250   1.814
 9297SOL    HW128790   0.305   0.239   1.838
 9297SOL    HW228791   0.444   0.317   1.874
 9298SOL     OW28792   0.279   6.422   4.408
 9298SOL    HW128793   0.184   6.437   4.382
 9298SOL    HW228794   0.285   6.343   4.469
 9299SOL     OW28795   1.548   2.571   4.847
 9299SOL    HW128796   1.459   2.616   4.859
 9299SOL    HW228797   1.614   2.636   4.812
 9300SOL     OW28798   5.778   4.379   3.874
 9300SOL    HW128799   5.691   4.429   3.877
 9300SOL    HW228800   5.786   4.332   3.787
 9301SOL     OW28801   6.762   5.093   1.416
 9301SOL    HW128802   6.842   5.101   1.356
 9301SOL    HW228803   6.792   5.067   1.507
 9302SOL     OW28804   1.399   2.308   2.451
 9302SOL    HW128805   1.447   2.280   2.368
 9302SOL    HW228806   1.318   2.361   2.427
 9303SOL     OW28807   4.831   4.374   0.591
 9303SOL    HW128808   4.841   4.472   0.608
 9303SOL    HW228809   4.800   4.329   0.675
 9304SOL     OW28810   4.888   3.914   0.526
 9304SOL    HW128811   4.916   3.827   0.485
 9304SOL    HW228812   4.788   3.917   0.532
 9305SOL     OW28813   4.558   4.162   1.659
 9305SOL    HW128814   4.583   4.212   1.576
 9305SOL    HW228815   4.489   4.213   1.710
 9306SOL     OW28816   0.187   6.010   2.990
 9306SOL    HW128817   0.222   6.103   3.006
 9306SOL    HW228818   0.258   5.943   3.011
 9307SOL     OW28819   2.232   0.907   6.030
 9307SOL    HW128820   2.301   0.854   6.078
 9307SOL    HW228821   2.147   0.909   6.083
 9308SOL     OW28822   0.430   2.567   0.561
 9308SOL    HW128823   0.375   2.485   0.547
 9308SOL    HW228824   0.379   2.633   0.616
 9309SOL     OW28825   4.671   2.857   6.788
 9309SOL    HW128826   4.702   2.770   6.750
 9309SOL    HW228827   4.627   2.911   6.717
 9310SOL     OW28828   3.912   6.706   1.106
 9310SOL    HW128829   3.936   6.609   1.100
 9310SOL    HW228830   3.889   6.729   1.201
 9311SOL     OW28831   0.061   3.095   1.646
 9311SOL    HW128832   0.039   3.133   1.556
 9311SOL    HW228833   0.039   3.163   1.717
 9312SOL     OW28834   1.481   4.068   4.503
 9312SOL    HW128835   1.553   4.135   4.518
 9312SOL    HW228836   1.425   4.060   4.585
 9313SOL     OW28837   6.414   0.443   2.871
 9313SOL    HW128838   6.476   0.380   2.917
 9313SOL    HW228839   6.408   0.528   2.923
 9314SOL     OW28840   0.130   3.891   0.143
 9314SOL    HW128841   0.143   3.876   0.241
 9314SOL    HW228842   0.091   3.808   0.102
 9315SOL     OW28843   0.299   5.546   6.066
 9315SOL    HW128844   0.239   5.622   6.092
 9315SOL    HW228845   0.393   5.567   6.092
 9316SOL     OW28846   2.749   4.957   4.608
 9316SOL    HW128847   2.692   5.034   4.637
 9316SOL    HW228848   2.845   4.976   4.630
 9317SOL     OW28849   4.092   4.030   5.496
 9317SOL    HW128850   4.035   3.961   5.540
 9317SOL    HW228851   4.079   4.026   5.397
 9318SOL     OW28852   6.999   6.867   6.067
 9318SOL    HW128853   0.082   6.864   6.056
 9318SOL    HW228854   6.959   6.925   5.996
 9319SOL     OW28855   6.287   3.772   4.371
 9319SOL    HW128856   6.216   3.705   4.347
 9319SOL    HW228857   6.324   3.749   4.461
 9320SOL     OW28858   3.858   2.906   5.518
 9320SOL    HW128859   3.783   2.843   5.542
 9320SOL    HW228860   3.820   2.995   5.496
 9321SOL     OW28861   5.153   0.313   4.242
 9321SOL    HW128862   5.123   0.394   4.190
 9321SOL    HW228863   5.224   0.265   4.190
 9322SOL     OW28864   1.012   6.110   1.306
 9322SOL    HW128865   1.023   6.195   1.253
 9322SOL    HW228866   0.937   6.056   1.268
 9323SOL     OW28867   0.806   1.253   5.959
 9323SOL    HW128868   0.760   1.243   6.047
 9323SOL    HW228869   0.828   1.162   5.923
 9324SOL     OW28870   1.160   5.243   6.927
 9324SOL    HW128871   1.192   5.287   6.843
 9324SOL    HW228872   1.239   5.221   6.985
 9325SOL     OW28873   0.762   2.938   6.773
 9325SOL    HW128874   0.682   2.994   6.796
 9325SOL    HW228875   0.733   2.864   6.712
 9326SOL     OW28876   2.300   5.923   1.627
 9326SOL    HW128877   2.381   5.962   1.671
 9326SOL    HW228878   2.255   5.994   1.573
 9327SOL     OW28879   1.752   2.121   4.639
 9327SOL    HW128880   1.714   2.191   4.700
 9327SOL    HW228881   1.694   2.111   4.559
 9328SOL     OW28882   2.133   1.504   1.916
 9328SOL    HW128883   2.129   1.604   1.919
 9328SOL    HW228884   2.193   1.476   1.841
 9329SOL     OW28885   1.125   3.868   1.386
 9329SOL    HW128886   1.185   3.946   1.404
 9329SOL    HW228887   1.110   3.858   1.288
 9330SOL     OW28888   5.339   6.019   6.729
 9330SOL    HW128889   5.323   6.091   6.661
 9330SOL    HW228890   5.351   6.059   6.819
 9331SOL     OW28891   1.095   1.155   0.453
 9331SOL    HW128892   1.102   1.136   0.551
 9331SOL    HW228893   1.181   1.192   0.419
 9332SOL     OW28894   3.570   4.035   5.221
 9332SOL    HW128895   3.667   4.030   5.199
 9332SOL    HW228896   3.518   4.053   5.137
 9333SOL     OW28897   5.391   6.398   1.224
 9333SOL    HW128898   5.429   6.306   1.214
 9333SOL    HW228899   5.362   6.431   1.134
 9334SOL     OW28900   2.107   6.565   4.971
 9334SOL    HW128901   2.071   6.472   4.957
 9334SOL    HW228902   2.068   6.603   5.054
 9335SOL     OW28903   0.793   1.718   2.491
 9335SOL    HW128904   0.857   1.776   2.540
 9335SOL    HW228905   0.787   1.629   2.536
 9336SOL     OW28906   3.204   0.176   5.047
 9336SOL    HW128907   3.117   0.152   5.091
 9336SOL    HW228908   3.277   0.120   5.085
 9337SOL     OW28909   4.880   6.495   3.416
 9337SOL    HW128910   4.873   6.464   3.511
 9337SOL    HW228911   4.789   6.517   3.381
 9338SOL     OW28912   2.461   6.519   2.256
 9338SOL    HW128913   2.401   6.449   2.218
 9338SOL    HW228914   2.429   6.609   2.226
 9339SOL     OW28915   3.696   5.422   2.028
 9339SOL    HW128916   3.741   5.511   2.028
 9339SOL    HW228917   3.634   5.417   1.949
 9340SOL     OW28918   6.913   2.738   6.880
 9340SOL    HW128919   7.006   2.713   6.906
 9340SOL    HW228920   6.887   2.689   6.796
 9341SOL     OW28921   0.765   4.101   5.884
 9341SOL    HW128922   0.738   4.115   5.979
 9341SOL    HW228923   0.809   4.011   5.875
 9342SOL     OW28924   1.715   0.390   0.137
 9342SOL    HW128925   1.668   0.423   0.220
 9342SOL    HW228926   1.688   0.446   0.059
 9343SOL     OW28927   6.227   6.564   3.311
 9343SOL    HW128928   6.147   6.543   3.367
 9343SOL    HW228929   6.199   6.576   3.216
 9344SOL     OW28930   5.002   6.152   0.834
 9344SOL    HW128931   4.963   6.153   0.926
 9344SOL    HW228932   5.087   6.205   0.833
 9345SOL     OW28933   0.741   2.120   0.688
 9345SOL    HW128934   0.822   2.064   0.668
 9345SOL    HW228935   0.728   2.187   0.615
 9346SOL     OW28936   6.298   0.243   0.883
 9346SOL    HW128937   6.296   0.148   0.854
 9346SOL    HW228938   6.267   0.251   0.978
 9347SOL     OW28939   1.986   6.376   2.492
 9347SOL    HW128940   1.992   6.472   2.519
 9347SOL    HW228941   2.000   6.368   2.393
 9348SOL     OW28942   2.828   5.065   0.199
 9348SOL    HW128943   2.789   4.976   0.178
 9348SOL    HW228944   2.924   5.055   0.225
 9349SOL     OW28945   1.219   6.381   2.657
 9349SOL    HW128946   1.204   6.299   2.601
 9349SOL    HW228947   1.189   6.462   2.606
 9350SOL     OW28948   0.445   3.207   5.622
 9350SOL    HW128949   0.531   3.167   5.592
 9350SOL    HW228950   0.372   3.139   5.615
 9351SOL     OW28951   3.008   6.621   0.146
 9351SOL    HW128952   3.095   6.574   0.129
 9351SOL    HW228953   2.995   6.692   0.077
 9352SOL     OW28954   2.809   5.051   5.783
 9352SOL    HW128955   2.731   5.081   5.727
 9352SOL    HW228956   2.848   4.968   5.743
 9353SOL     OW28957   6.765   0.382   0.770
 9353SOL    HW128958   6.823   0.415   0.695
 9353SOL    HW228959   6.769   0.282   0.773
 9354SOL     OW28960   1.069   1.180   5.715
 9354SOL    HW128961   1.019   1.193   5.630
 9354SOL    HW228962   1.133   1.255   5.728
 9355SOL     OW28963   0.875   1.486   5.584
 9355SOL    HW128964   0.961   1.460   5.540
 9355SOL    HW228965   0.861   1.584   5.575
 9356SOL     OW28966   3.620   0.736   3.861
 9356SOL    HW128967   3.693   0.738   3.793
 9356SOL    HW228968   3.659   0.739   3.953
 9357SOL     OW28969   2.208   2.638   0.653
 9357SOL    HW128970   2.234   2.735   0.663
 9357SOL    HW228971   2.291   2.582   0.650
 9358SOL     OW28972   1.388   2.085   0.646
 9358SOL    HW128973   1.444   2.168   0.638
 9358SOL    HW228974   1.371   2.065   0.742
 9359SOL     OW28975   0.647   0.628   5.826
 9359SOL    HW128976   0.559   0.607   5.869
 9359SOL    HW228977   0.654   0.727   5.810
 9360SOL     OW28978   6.693   0.072   5.442
 9360SOL    HW128979   6.744   0.011   5.503
 9360SOL    HW228980   6.606   0.030   5.417
 9361SOL     OW28981   2.212   5.609   4.525
 9361SOL    HW128982   2.128   5.561   4.548
 9361SOL    HW228983   2.257   5.640   4.609
 9362SOL     OW28984   1.798   0.487   2.377
 9362SOL    HW128985   1.724   0.525   2.322
 9362SOL    HW228986   1.766   0.405   2.425
 9363SOL     OW28987   1.846   2.461   2.261
 9363SOL    HW128988   1.936   2.487   2.227
 9363SOL    HW228989   1.791   2.543   2.277
 9364SOL     OW28990   0.553   2.033   6.737
 9364SOL    HW128991   0.491   2.042   6.658
 9364SOL    HW228992   0.590   1.941   6.739
 9365SOL     OW28993   2.776   0.960   5.043
 9365SOL    HW128994   2.812   1.053   5.048
 9365SOL    HW228995   2.676   0.964   5.037
 9366SOL     OW28996   3.234   6.263   2.309
 9366SOL    HW128997   3.139   6.295   2.310
 9366SOL    HW228998   3.293   6.336   2.273
 9367SOL     OW28999   6.881   0.089   1.541
 9367SOL    HW129000   6.817   0.087   1.618
 9367SOL    HW229001   6.974   0.072   1.574
 9368SOL     OW29002   2.103   0.727   3.437
 9368SOL    HW129003   2.177   0.677   3.394
 9368SOL    HW229004   2.140   0.799   3.495
 9369SOL     OW29005   3.663   5.112   0.821
 9369SOL    HW129006   3.693   5.193   0.771
 9369SOL    HW229007   3.739   5.078   0.878
 9370SOL     OW29008   4.605   2.711   5.092
 9370SOL    HW129009   4.661   2.697   5.174
 9370SOL    HW229010   4.602   2.627   5.039
 9371SOL     OW29011   4.103   5.030   0.326
 9371SOL    HW129012   4.108   4.955   0.260
 9371SOL    HW229013   4.178   5.095   0.309
 9372SOL     OW29014   5.158   0.015   0.698
 9372SOL    HW129015   5.134   7.006   0.791
 9372SOL    HW229016   5.237   0.076   0.699
 9373SOL     OW29017   0.331   1.807   1.539
 9373SOL    HW129018   0.378   1.758   1.465
 9373SOL    HW229019   0.243   1.842   1.506
 9374SOL     OW29020   6.749   5.078   6.145
 9374SOL    HW129021   6.824   5.143   6.129
 9374SOL    HW229022   6.696   5.066   6.061
 9375SOL     OW29023   1.684   1.260   6.834
 9375SOL    HW129024   1.781   1.260   6.810
 9375SOL    HW229025   1.629   1.246   6.752
 9376SOL     OW29026   3.467   3.870   0.674
 9376SOL    HW129027   3.497   3.847   0.581
 9376SOL    HW229028   3.492   3.796   0.736
 9377SOL     OW29029   0.685   1.119   3.342
 9377SOL    HW129030   0.633   1.058   3.282
 9377SOL    HW229031   0.622   1.183   3.385
 9378SOL     OW29032   4.107   1.150   5.302
 9378SOL    HW129033   4.153   1.061   5.311
 9378SOL    HW229034   4.023   1.150   5.356
 9379SOL     OW29035   3.780   6.874   4.763
 9379SOL    HW129036   3.706   6.808   4.750
 9379SOL    HW229037   3.755   6.960   4.717
 9380SOL     OW29038   5.171   6.264   1.362
 9380SOL    HW129039   5.101   6.297   1.426
 9380SOL    HW229040   5.217   6.343   1.321
 9381SOL     OW29041   4.570   1.542   4.873
 9381SOL    HW129042   4.637   1.478   4.910
 9381SOL    HW229043   4.554   1.521   4.777
 9382SOL     OW29044   2.976   5.584   6.394
 9382SOL    HW129045   2.887   5.571   6.439
 9382SOL    HW229046   2.999   5.501   6.343
 9383SOL     OW29047   5.722   4.060   1.041
 9383SOL    HW129048   5.783   3.984   1.064
 9383SOL    HW229049   5.680   4.043   0.952
 9384SOL     OW29050   4.263   0.401   0.855
 9384SOL    HW129051   4.353   0.419   0.814
 9384SOL    HW229052   4.248   0.303   0.862
 9385SOL     OW29053   4.269   2.248   4.112
 9385SOL    HW129054   4.284   2.238   4.013
 9385SOL    HW229055   4.335   2.314   4.148
 9386SOL     OW29056   5.711   0.298   0.810
 9386SOL    HW129057   5.768   0.371   0.846
 9386SOL    HW229058   5.756   0.210   0.826
 9387SOL     OW29059   3.284   2.353   6.775
 9387SOL    HW129060   3.186   2.341   6.761
 9387SOL    HW229061   3.330   2.264   6.772
 9388SOL     OW29062   2.039   6.209   5.265
 9388SOL    HW129063   2.111   6.188   5.331
 9388SOL    HW229064   2.080   6.232   5.177
 9389SOL     OW29065   2.100   3.732   1.920
 9389SOL    HW129066   2.142   3.642   1.931
 9389SOL    HW229067   2.117   3.766   1.827
 9390SOL     OW29068   6.084   5.358   4.351
 9390SOL    HW129069   6.058   5.401   4.437
 9390SOL    HW229070   6.005   5.352   4.291
 9391SOL     OW29071   0.359   5.100   4.208
 9391SOL    HW129072   0.408   5.171   4.259
 9391SOL    HW229073   0.298   5.050   4.270
 9392SOL     OW29074   2.911   5.230   2.724
 9392SOL    HW129075   2.866   5.159   2.670
 9392SOL    HW229076   3.009   5.210   2.730
 9393SOL     OW29077   2.033   5.197   0.285
 9393SOL    HW129078   2.039   5.099   0.307
 9393SOL    HW229079   2.113   5.223   0.231
 9394SOL     OW29080   4.603   0.221   0.077
 9394SOL    HW129081   4.595   0.321   0.073
 9394SOL    HW229082   4.590   0.183   7.001
 9395SOL     OW29083   0.694   1.126   1.242
 9395SOL    HW129084   0.783   1.121   1.196
 9395SOL    HW229085   0.701   1.083   1.332
 9396SOL     OW29086   1.059   1.090   6.556
 9396SOL    HW129087   1.083   1.043   6.641
 9396SOL    HW229088   1.137   1.090   6.494
 9397SOL     OW29089   3.344   1.638   5.801
 9397SOL    HW129090   3.256   1.594   5.784
 9397SOL    HW229091   3.331   1.715   5.864
 9398SOL     OW29092   6.807   2.993   6.797
 9398SOL    HW129093   6.767   3.045   6.873
 9398SOL    HW229094   6.840   2.905   6.831
 9399SOL     OW29095   1.292   2.682   4.888
 9399SOL    HW129096   1.299   2.765   4.943
 9399SOL    HW229097   1.196   2.664   4.866
 9400SOL     OW29098   5.643   1.265   1.059
 9400SOL    HW129099   5.737   1.257   1.026
 9400SOL    HW229100   5.643   1.307   1.150
 9401SOL     OW29101   6.676   1.891   3.737
 9401SOL    HW129102   6.670   1.798   3.773
 9401SOL    HW229103   6.742   1.893   3.662
 9402SOL     OW29104   3.863   5.754   5.482
 9402SOL    HW129105   3.779   5.706   5.457
 9402SOL    HW229106   3.858   5.784   5.578
 9403SOL     OW29107   5.718   2.017   0.855
 9403SOL    HW129108   5.751   1.942   0.913
 9403SOL    HW229109   5.619   2.024   0.863
 9404SOL     OW29110   2.802   2.711   0.636
 9404SOL    HW129111   2.870   2.638   0.633
 9404SOL    HW229112   2.724   2.681   0.691
 9405SOL     OW29113   5.917   5.419   5.313
 9405SOL    HW129114   5.831   5.460   5.284
 9405SOL    HW229115   5.919   5.409   5.412
 9406SOL     OW29116   1.694   1.128   0.878
 9406SOL    HW129117   1.723   1.169   0.791
 9406SOL    HW229118   1.619   1.064   0.861
 9407SOL     OW29119   1.756   4.442   4.639
 9407SOL    HW129120   1.846   4.443   4.684
 9407SOL    HW229121   1.767   4.407   4.546
 9408SOL     OW29122   5.774   5.037   3.761
 9408SOL    HW129123   5.785   4.959   3.699
 9408SOL    HW229124   5.747   5.117   3.708
 9409SOL     OW29125   5.780   4.864   1.536
 9409SOL    HW129126   5.790   4.959   1.508
 9409SOL    HW229127   5.807   4.804   1.461
 9410SOL     OW29128   4.502   0.481   0.783
 9410SOL    HW129129   4.580   0.437   0.827
 9410SOL    HW229130   4.527   0.574   0.757
 9411SOL     OW29131   3.813   3.864   4.858
 9411SOL    HW129132   3.758   3.891   4.779
 9411SOL    HW229133   3.762   3.799   4.914
 9412SOL     OW29134   3.939   6.869   1.825
 9412SOL    HW129135   3.963   6.886   1.920
 9412SOL    HW229136   4.022   6.845   1.774
 9413SOL     OW29137   4.017   5.129   3.319
 9413SOL    HW129138   3.939   5.124   3.382
 9413SOL    HW229139   4.067   5.042   3.322
 9414SOL     OW29140   2.132   0.765   2.553
 9414SOL    HW129141   2.204   0.730   2.614
 9414SOL    HW229142   2.144   0.863   2.540
 9415SOL     OW29143   4.737   1.188   0.775
 9415SOL    HW129144   4.698   1.104   0.811
 9415SOL    HW229145   4.819   1.212   0.828
 9416SOL     OW29146   6.583   4.754   6.025
 9416SOL    HW129147   6.628   4.669   6.053
 9416SOL    HW229148   6.484   4.742   6.025
 9417SOL     OW29149   4.158   6.246   3.177
 9417SOL    HW129150   4.165   6.188   3.258
 9417SOL    HW229151   4.110   6.197   3.105
 9418SOL     OW29152   2.503   2.109   5.082
 9418SOL    HW129153   2.447   2.054   5.021
 9418SOL    HW229154   2.468   2.103   5.176
 9419SOL     OW29155   2.845   2.328   6.095
 9419SOL    HW129156   2.809   2.281   6.014
 9419SOL    HW229157   2.769   2.365   6.148
 9420SOL     OW29158   4.844   3.423   5.911
 9420SOL    HW129159   4.849   3.521   5.888
 9420SOL    HW229160   4.809   3.372   5.833
 9421SOL     OW29161   3.949   6.818   6.968
 9421SOL    HW129162   3.979   6.824   0.047
 9421SOL    HW229163   3.998   6.887   6.913
 9422SOL     OW29164   1.818   6.410   6.028
 9422SOL    HW129165   1.855   6.487   5.976
 9422SOL    HW229166   1.797   6.335   5.965
 9423SOL     OW29167   5.295   4.791   1.025
 9423SOL    HW129168   5.314   4.693   1.028
 9423SOL    HW229169   5.198   4.807   1.042
 9424SOL     OW29170   5.754   6.463   3.664
 9424SOL    HW129171   5.743   6.550   3.616
 9424SOL    HW229172   5.796   6.396   3.603
 9425SOL     OW29173   0.358   5.745   1.134
 9425SOL    HW129174   0.333   5.686   1.211
 9425SOL    HW229175   0.390   5.688   1.058
 9426SOL     OW29176   5.102   1.570   5.955
 9426SOL    HW129177   5.101   1.475   5.986
 9426SOL    HW229178   5.026   1.620   5.996
 9427SOL     OW29179   2.984   5.819   1.814
 9427SOL    HW129180   3.076   5.828   1.777
 9427SOL    HW229181   2.984   5.847   1.910
 9428SOL     OW29182   6.949   6.344   4.519
 9428SOL    HW129183   6.963   6.439   4.546
 9428SOL    HW229184   6.968   6.333   4.422
 9429SOL     OW29185   3.132   2.077   4.044
 9429SOL    HW129186   3.215   2.060   4.098
 9429SOL    HW229187   3.154   2.138   3.968
 9430SOL     OW29188   1.294   0.274   3.708
 9430SOL    HW129189   1.255   0.296   3.619
 9430SOL    HW229190   1.251   0.191   3.744
 9431SOL     OW29191   1.390   4.989   5.057
 9431SOL    HW129192   1.424   4.974   5.150
 9431SOL    HW229193   1.437   4.927   4.994
 9432SOL     OW29194   6.665   1.948   3.022
 9432SOL    HW129195   6.750   1.997   3.000
 9432SOL    HW229196   6.609   1.939   2.940
 9433SOL     OW29197   3.934   5.535   1.700
 9433SOL    HW129198   3.921   5.583   1.613
 9433SOL    HW229199   3.980   5.595   1.765
 9434SOL     OW29200   5.120   5.908   4.857
 9434SOL    HW129201   5.070   5.907   4.770
 9434SOL    HW229202   5.217   5.921   4.838
 9435SOL     OW29203   6.901   3.876   6.743
 9435SOL    HW129204   6.977   3.898   6.804
 9435SOL    HW229205   6.818   3.924   6.774
 9436SOL     OW29206   2.932   2.238   2.654
 9436SOL    HW129207   2.865   2.183   2.604
 9436SOL    HW229208   3.004   2.268   2.591
 9437SOL     OW29209   4.470   1.402   3.967
 9437SOL    HW129210   4.435   1.471   3.904
 9437SOL    HW229211   4.541   1.443   4.025
 9438SOL     OW29212   4.783   0.189   3.184
 9438SOL    HW129213   4.851   0.245   3.136
 9438SOL    HW229214   4.717   0.248   3.231
 9439SOL     OW29215   1.203   5.097   1.097
 9439SOL    HW129216   1.188   5.036   1.019
 9439SOL    HW229217   1.158   5.184   1.081
 9440SOL     OW29218   1.789   5.333   4.334
 9440SOL    HW129219   1.737   5.283   4.403
 9440SOL    HW229220   1.751   5.425   4.324
 9441SOL     OW29221   6.579   6.102   4.805
 9441SOL    HW129222   6.651   6.033   4.806
 9441SOL    HW229223   6.499   6.067   4.853
 9442SOL     OW29224   6.958   2.856   1.144
 9442SOL    HW129225   6.859   2.863   1.135
 9442SOL    HW229226   7.000   2.941   1.111
 9443SOL     OW29227   1.221   4.911   1.293
 9443SOL    HW129228   1.215   4.999   1.246
 9443SOL    HW229229   1.150   4.905   1.363
 9444SOL     OW29230   2.073   6.121   5.830
 9444SOL    HW129231   2.018   6.050   5.785
 9444SOL    HW229232   2.101   6.089   5.920
 9445SOL     OW29233   1.085   1.386   4.002
 9445SOL    HW129234   1.006   1.362   4.058
 9445SOL    HW229235   1.166   1.395   4.060
 9446SOL     OW29236   4.985   5.487   3.433
 9446SOL    HW129237   5.009   5.405   3.486
 9446SOL    HW229238   4.888   5.505   3.443
 9447SOL     OW29239   5.870   5.130   2.101
 9447SOL    HW129240   5.825   5.061   2.158
 9447SOL    HW229241   5.863   5.219   2.146
 9448SOL     OW29242   5.054   2.986   0.056
 9448SOL    HW129243   4.955   2.987   0.045
 9448SOL    HW229244   5.084   2.893   0.079
 9449SOL     OW29245   4.080   6.991   3.460
 9449SOL    HW129246   3.990   0.015   3.446
 9449SOL    HW229247   4.072   6.891   3.462
 9450SOL     OW29248   0.411   0.484   2.033
 9450SOL    HW129249   0.469   0.551   2.080
 9450SOL    HW229250   0.332   0.462   2.090
 9451SOL     OW29251   4.432   5.057   0.375
 9451SOL    HW129252   4.418   5.153   0.400
 9451SOL    HW229253   4.436   5.001   0.458
 9452SOL     OW29254   5.957   2.427   6.078
 9452SOL    HW129255   5.984   2.509   6.130
 9452SOL    HW229256   5.941   2.351   6.141
 9453SOL     OW29257   6.287   4.856   2.995
 9453SOL    HW129258   6.291   4.955   2.979
 9453SOL    HW229259   6.374   4.824   3.031
 9454SOL     OW29260   5.619   5.572   0.915
 9454SOL    HW129261   5.575   5.624   0.842
 9454SOL    HW229262   5.701   5.528   0.880
 9455SOL     OW29263   4.452   1.067   1.498
 9455SOL    HW129264   4.518   1.117   1.554
 9455SOL    HW229265   4.491   0.980   1.469
 9456SOL     OW29266   7.007   2.690   2.179
 9456SOL    HW129267   6.976   2.618   2.117
 9456SOL    HW229268   6.941   2.700   2.254
 9457SOL     OW29269   6.483   6.256   4.587
 9457SOL    HW129270   6.511   6.177   4.641
 9457SOL    HW229271   6.391   6.285   4.615
 9458SOL     OW29272   0.353   4.256   6.843
 9458SOL    HW129273   0.398   4.173   6.876
 9458SOL    HW229274   0.416   4.334   6.851
 9459SOL     OW29275   6.390   4.617   5.202
 9459SOL    HW129276   6.342   4.639   5.288
 9459SOL    HW229277   6.468   4.559   5.222
 9460SOL     OW29278   2.134   3.074   3.011
 9460SOL    HW129279   2.115   3.169   3.032
 9460SOL    HW229280   2.116   3.017   3.092
 9461SOL     OW29281   1.264   1.438   1.104
 9461SOL    HW129282   1.202   1.462   1.029
 9461SOL    HW229283   1.213   1.392   1.176
 9462SOL     OW29284   0.084   1.028   5.642
 9462SOL    HW129285   0.163   0.975   5.611
 9462SOL    HW229286   0.006   0.968   5.656
 9463SOL     OW29287   0.689   4.913   0.890
 9463SOL    HW129288   0.692   5.013   0.888
 9463SOL    HW229289   0.744   4.876   0.816
 9464SOL     OW29290   0.995   0.814   1.954
 9464SOL    HW129291   0.998   0.743   1.883
 9464SOL    HW229292   0.968   0.901   1.913
 9465SOL     OW29293   1.112   5.745   6.944
 9465SOL    HW129294   1.202   5.762   6.905
 9465SOL    HW229295   1.088   5.649   6.930
 9466SOL     OW29296   3.940   4.305   5.519
 9466SOL    HW129297   4.016   4.239   5.520
 9466SOL    HW229298   3.902   4.309   5.427
 9467SOL     OW29299   1.615   3.940   1.584
 9467SOL    HW129300   1.649   3.944   1.679
 9467SOL    HW229301   1.593   3.845   1.561
 9468SOL     OW29302   6.705   2.154   1.082
 9468SOL    HW129303   6.755   2.114   1.159
 9468SOL    HW229304   6.709   2.254   1.089
 9469SOL     OW29305   5.782   6.401   2.200
 9469SOL    HW129306   5.762   6.496   2.173
 9469SOL    HW229307   5.837   6.357   2.129
 9470SOL     OW29308   3.667   3.547   1.002
 9470SOL    HW129309   3.763   3.571   1.014
 9470SOL    HW229310   3.632   3.590   0.918
 9471SOL     OW29311   6.901   3.097   4.859
 9471SOL    HW129312   6.942   3.183   4.830
 9471SOL    HW229313   6.969   3.024   4.853
 9472SOL     OW29314   2.070   4.481   5.801
 9472SOL    HW129315   2.017   4.398   5.784
 9472SOL    HW229316   2.062   4.542   5.722
 9473SOL     OW29317   2.874   3.499   1.686
 9473SOL    HW129318   2.912   3.565   1.751
 9473SOL    HW229319   2.803   3.543   1.631
 9474SOL     OW29320   5.981   4.166   0.954
 9474SOL    HW129321   6.070   4.120   0.964
 9474SOL    HW229322   5.912   4.098   0.929
 9475SOL     OW29323   6.350   3.367   6.709
 9475SOL    HW129324   6.435   3.344   6.756
 9475SOL    HW229325   6.336   3.305   6.632
 9476SOL     OW29326   3.931   3.621   1.088
 9476SOL    HW129327   4.027   3.645   1.100
 9476SOL    HW229328   3.886   3.618   1.177
 9477SOL     OW29329   0.926   5.718   1.036
 9477SOL    HW129330   0.849   5.777   1.059
 9477SOL    HW229331   1.008   5.751   1.082
 9478SOL     OW29332   0.522   3.511   5.362
 9478SOL    HW129333   0.428   3.494   5.332
 9478SOL    HW229334   0.585   3.457   5.306
 9479SOL     OW29335   4.211   0.869   2.101
 9479SOL    HW129336   4.145   0.883   2.175
 9479SOL    HW229337   4.262   0.954   2.087
 9480SOL     OW29338   5.544   0.848   1.292
 9480SOL    HW129339   5.484   0.786   1.243
 9480SOL    HW229340   5.494   0.932   1.316
 9481SOL     OW29341   4.829   0.205   3.885
 9481SOL    HW129342   4.895   0.149   3.834
 9481SOL    HW229343   4.854   0.206   3.982
 9482SOL     OW29344   5.745   4.301   6.440
 9482SOL    HW129345   5.836   4.259   6.436
 9482SOL    HW229346   5.692   4.259   6.513
 9483SOL     OW29347   5.562   4.859   0.430
 9483SOL    HW129348   5.496   4.911   0.376
 9483SOL    HW229349   5.606   4.790   0.373
 9484SOL     OW29350   1.264   5.512   3.883
 9484SOL    HW129351   1.362   5.516   3.869
 9484SOL    HW229352   1.238   5.420   3.911
 9485SOL     OW29353   6.660   1.445   5.707
 9485SOL    HW129354   6.576   1.411   5.749
 9485SOL    HW229355   6.683   1.387   5.628
 9486SOL     OW29356   6.280   5.464   6.173
 9486SOL    HW129357   6.318   5.543   6.220
 9486SOL    HW229358   6.352   5.420   6.119
 9487SOL     OW29359   2.891   3.416   4.131
 9487SOL    HW129360   2.976   3.426   4.079
 9487SOL    HW229361   2.820   3.378   4.072
 9488SOL     OW29362   1.087   0.957   2.598
 9488SOL    HW129363   1.077   1.034   2.535
 9488SOL    HW229364   1.139   0.884   2.554
 9489SOL     OW29365   0.125   4.431   6.884
 9489SOL    HW129366   0.213   4.400   6.849
 9489SOL    HW229367   0.121   4.416   6.982
 9490SOL     OW29368   5.540   4.225   4.993
 9490SOL    HW129369   5.605   4.296   5.020
 9490SOL    HW229370   5.582   4.135   5.005
 9491SOL     OW29371   4.978   0.016   2.320
 9491SOL    HW129372   5.032   0.031   2.402
 9491SOL    HW229373   4.960   0.104   2.276
 9492SOL     OW29374   4.914   2.979   3.962
 9492SOL    HW129375   4.830   2.964   3.910
 9492SOL    HW229376   4.991   2.938   3.913
 9493SOL     OW29377   2.507   6.611   3.129
 9493SOL    HW129378   2.532   6.584   3.035
 9493SOL    HW229379   2.577   6.578   3.192
 9494SOL     OW29380   4.652   2.270   2.395
 9494SOL    HW129381   4.582   2.324   2.442
 9494SOL    HW229382   4.715   2.331   2.346
 9495SOL     OW29383   6.192   2.557   0.827
 9495SOL    HW129384   6.099   2.529   0.802
 9495SOL    HW229385   6.256   2.527   0.757
 9496SOL     OW29386   6.458   3.072   0.381
 9496SOL    HW129387   6.508   2.985   0.378
 9496SOL    HW229388   6.516   3.143   0.421
 9497SOL     OW29389   6.066   4.617   5.022
 9497SOL    HW129390   6.139   4.682   5.039
 9497SOL    HW229391   6.088   4.529   5.065
 9498SOL     OW29392   0.981   6.227   5.903
 9498SOL    HW129393   0.967   6.303   5.967
 9498SOL    HW229394   0.950   6.142   5.944
 9499SOL     OW29395   5.588   6.449   3.344
 9499SOL    HW129396   5.535   6.490   3.418
 9499SOL    HW229397   5.649   6.378   3.382
 9500SOL     OW29398   2.438   1.714   0.593
 9500SOL    HW129399   2.522   1.681   0.637
 9500SOL    HW229400   2.459   1.749   0.502
 9501SOL     OW29401   1.709   3.342   4.872
 9501SOL    HW129402   1.663   3.326   4.960
 9501SOL    HW229403   1.787   3.280   4.864
 9502SOL     OW29404   5.538   4.489   3.787
 9502SOL    HW129405   5.496   4.544   3.859
 9502SOL    HW229406   5.467   4.437   3.739
 9503SOL     OW29407   6.712   0.539   0.236
 9503SOL    HW129408   6.699   0.537   0.335
 9503SOL    HW229409   6.707   0.634   0.204
 9504SOL     OW29410   6.219   4.728   2.753
 9504SOL    HW129411   6.246   4.765   2.842
 9504SOL    HW229412   6.163   4.647   2.766
 9505SOL     OW29413   5.003   2.913   0.372
 9505SOL    HW129414   5.031   2.922   0.276
 9505SOL    HW229415   4.929   2.847   0.379
 9506SOL     OW29416   3.857   1.219   1.617
 9506SOL    HW129417   3.913   1.154   1.668
 9506SOL    HW229418   3.884   1.217   1.520
 9507SOL     OW29419   0.124   5.977   1.519
 9507SOL    HW129420   0.111   6.016   1.610
 9507SOL    HW229421   0.196   6.027   1.471
 9508SOL     OW29422   5.049   1.570   2.284
 9508SOL    HW129423   5.110   1.492   2.273
 9508SOL    HW229424   5.099   1.646   2.328
 9509SOL     OW29425   5.757   1.450   3.919
 9509SOL    HW129426   5.690   1.423   3.849
 9509SOL    HW229427   5.757   1.382   3.992
 9510SOL     OW29428   1.538   3.448   2.382
 9510SOL    HW129429   1.542   3.429   2.284
 9510SOL    HW229430   1.493   3.536   2.397
 9511SOL     OW29431   0.893   1.182   0.719
 9511SOL    HW129432   0.969   1.143   0.667
 9511SOL    HW229433   0.917   1.186   0.816
 9512SOL     OW29434   6.356   2.632   1.464
 9512SOL    HW129435   6.264   2.669   1.480
 9512SOL    HW229436   6.387   2.584   1.545
 9513SOL     OW29437   4.907   3.609   4.519
 9513SOL    HW129438   4.969   3.546   4.565
 9513SOL    HW229439   4.919   3.601   4.420
 9514SOL     OW29440   3.735   3.293   1.420
 9514SOL    HW129441   3.698   3.384   1.438
 9514SOL    HW229442   3.807   3.299   1.351
 9515SOL     OW29443   6.178   6.513   2.800
 9515SOL    HW129444   6.089   6.504   2.845
 9515SOL    HW229445   6.245   6.456   2.847
 9516SOL     OW29446   1.467   2.479   6.970
 9516SOL    HW129447   1.528   2.558   6.976
 9516SOL    HW229448   1.517   2.396   6.996
 9517SOL     OW29449   0.458   6.692   2.029
 9517SOL    HW129450   0.492   6.765   2.088
 9517SOL    HW229451   0.515   6.611   2.039
 9518SOL     OW29452   6.232   6.797   0.976
 9518SOL    HW129453   6.221   6.703   0.942
 9518SOL    HW229454   6.294   6.797   1.054
 9519SOL     OW29455   1.322   2.766   5.762
 9519SOL    HW129456   1.277   2.685   5.726
 9519SOL    HW229457   1.275   2.796   5.846
 9520SOL     OW29458   3.983   6.582   2.297
 9520SOL    HW129459   4.027   6.537   2.375
 9520SOL    HW229460   4.053   6.611   2.231
 9521SOL     OW29461   5.631   4.937   2.975
 9521SOL    HW129462   5.675   5.024   3.001
 9521SOL    HW229463   5.538   4.935   3.013
 9522SOL     OW29464   3.723   5.004   5.409
 9522SOL    HW129465   3.811   5.005   5.457
 9522SOL    HW229466   3.664   4.935   5.450
 9523SOL     OW29467   1.117   6.598   4.541
 9523SOL    HW129468   1.211   6.565   4.553
 9523SOL    HW229469   1.112   6.694   4.569
 9524SOL     OW29470   6.151   3.401   0.426
 9524SOL    HW129471   6.179   3.327   0.365
 9524SOL    HW229472   6.057   3.428   0.405
 9525SOL     OW29473   4.409   0.388   4.420
 9525SOL    HW129474   4.318   0.398   4.380
 9525SOL    HW229475   4.428   0.292   4.436
 9526SOL     OW29476   4.688   5.137   0.570
 9526SOL    HW129477   4.753   5.066   0.597
 9526SOL    HW229478   4.609   5.135   0.631
 9527SOL     OW29479   0.005   1.055   0.230
 9527SOL    HW129480   0.101   1.045   0.257
 9527SOL    HW229481   6.984   1.139   0.268
 9528SOL     OW29482   5.468   1.089   2.388
 9528SOL    HW129483   5.408   1.131   2.321
 9528SOL    HW229484   5.427   1.003   2.421
 9529SOL     OW29485   1.269   2.520   5.655
 9529SOL    HW129486   1.357   2.483   5.626
 9529SOL    HW229487   1.209   2.528   5.576
 9530SOL     OW29488   2.548   1.416   3.657
 9530SOL    HW129489   2.485   1.344   3.629
 9530SOL    HW229490   2.499   1.485   3.709
 9531SOL     OW29491   2.434   6.531   3.902
 9531SOL    HW129492   2.523   6.521   3.859
 9531SOL    HW229493   2.396   6.621   3.879
 9532SOL     OW29494   3.524   1.470   1.524
 9532SOL    HW129495   3.588   1.461   1.448
 9532SOL    HW229496   3.564   1.431   1.607
 9533SOL     OW29497   0.181   1.310   4.156
 9533SOL    HW129498   0.086   1.303   4.124
 9533SOL    HW229499   0.232   1.230   4.125
 9534SOL     OW29500   5.087   1.126   3.977
 9534SOL    HW129501   5.022   1.068   3.928
 9534SOL    HW229502   5.054   1.144   4.069
 9535SOL     OW29503   3.065   1.390   4.726
 9535SOL    HW129504   3.097   1.295   4.728
 9535SOL    HW229505   2.968   1.392   4.704
 9536SOL     OW29506   2.061   5.684   6.794
 9536SOL    HW129507   2.097   5.749   6.861
 9536SOL    HW229508   2.101   5.704   6.704
 9537SOL     OW29509   2.321   0.653   0.135
 9537SOL    HW129510   2.391   0.681   0.070
 9537SOL    HW229511   2.240   0.620   0.086
 9538SOL     OW29512   5.901   3.853   3.363
 9538SOL    HW129513   5.840   3.818   3.434
 9538SOL    HW229514   5.989   3.807   3.369
 9539SOL     OW29515   1.204   2.770   0.248
 9539SOL    HW129516   1.125   2.750   0.190
 9539SOL    HW229517   1.264   2.690   0.251
 9540SOL     OW29518   5.987   3.221   5.279
 9540SOL    HW129519   5.972   3.288   5.206
 9540SOL    HW229520   6.007   3.131   5.239
 9541SOL     OW29521   6.279   2.266   2.686
 9541SOL    HW129522   6.289   2.181   2.634
 9541SOL    HW229523   6.184   2.297   2.681
 9542SOL     OW29524   4.959   3.345   4.243
 9542SOL    HW129525   4.909   3.321   4.159
 9542SOL    HW229526   5.056   3.355   4.222
 9543SOL     OW29527   3.946   2.268   0.148
 9543SOL    HW129528   3.922   2.343   0.209
 9543SOL    HW229529   4.030   2.224   0.180
 9544SOL     OW29530   4.821   7.012   1.177
 9544SOL    HW129531   4.742   0.007   1.117
 9544SOL    HW229532   4.882   6.941   1.140
 9545SOL     OW29533   1.006   0.604   4.055
 9545SOL    HW129534   0.953   0.658   3.990
 9545SOL    HW229535   1.103   0.608   4.029
 9546SOL     OW29536   3.008   4.233   1.732
 9546SOL    HW129537   3.054   4.268   1.650
 9546SOL    HW229538   2.963   4.309   1.779
 9547SOL     OW29539   5.573   6.752   2.306
 9547SOL    HW129540   5.669   6.724   2.313
 9547SOL    HW229541   5.568   6.852   2.299
 9548SOL     OW29542   6.305   6.953   1.739
 9548SOL    HW129543   6.312   6.865   1.691
 9548SOL    HW229544   6.395   6.996   1.744
 9549SOL     OW29545   1.826   6.146   0.199
 9549SOL    HW129546   1.891   6.219   0.223
 9549SOL    HW229547   1.876   6.062   0.177
 9550SOL     OW29548   1.697   0.834   0.497
 9550SOL    HW129549   1.655   0.750   0.531
 9550SOL    HW229550   1.633   0.881   0.436
 9551SOL     OW29551   1.438   5.691   4.417
 9551SOL    HW129552   1.403   5.669   4.326
 9551SOL    HW229553   1.471   5.608   4.461
 9552SOL     OW29554   6.726   5.357   2.906
 9552SOL    HW129555   6.700   5.443   2.949
 9552SOL    HW229556   6.650   5.324   2.850
 9553SOL     OW29557   5.298   4.921   6.661
 9553SOL    HW129558   5.200   4.919   6.680
 9553SOL    HW229559   5.319   5.000   6.603
 9554SOL     OW29560   1.860   2.700   1.548
 9554SOL    HW129561   1.824   2.734   1.461
 9554SOL    HW229562   1.796   2.636   1.589
 9555SOL     OW29563   0.287   2.324   6.540
 9555SOL    HW129564   0.366   2.383   6.554
 9555SOL    HW229565   0.252   2.337   6.447
 9556SOL     OW29566   5.804   1.234   1.598
 9556SOL    HW129567   5.785   1.136   1.607
 9556SOL    HW229568   5.729   1.286   1.639
 9557SOL     OW29569   4.929   1.975   1.091
 9557SOL    HW129570   4.833   1.995   1.072
 9557SOL    HW229571   4.941   1.876   1.105
 9558SOL     OW29572   6.713   4.232   1.696
 9558SOL    HW129573   6.719   4.320   1.649
 9558SOL    HW229574   6.767   4.164   1.648
 9559SOL     OW29575   6.970   4.924   3.451
 9559SOL    HW129576   6.962   4.989   3.374
 9559SOL    HW229577   0.003   4.843   3.420
 9560SOL     OW29578   3.762   2.263   5.691
 9560SOL    HW129579   3.833   2.290   5.626
 9560SOL    HW229580   3.781   2.304   5.780
 9561SOL     OW29581   3.300   5.183   6.579
 9561SOL    HW129582   3.222   5.123   6.593
 9561SOL    HW229583   3.364   5.173   6.656
 9562SOL     OW29584   6.232   5.297   3.920
 9562SOL    HW129585   6.246   5.381   3.869
 9562SOL    HW229586   6.188   5.317   4.008
 9563SOL     OW29587   0.720   1.305   5.688
 9563SOL    HW129588   0.740   1.287   5.784
 9563SOL    HW229589   0.786   1.371   5.652
 9564SOL     OW29590   6.918   0.265   5.777
 9564SOL    HW129591   6.948   0.247   5.870
 9564SOL    HW229592   6.935   0.361   5.755
 9565SOL     OW29593   2.772   5.568   5.170
 9565SOL    HW129594   2.809   5.481   5.203
 9565SOL    HW229595   2.725   5.615   5.245
 9566SOL     OW29596   2.272   5.933   5.254
 9566SOL    HW129597   2.294   5.858   5.317
 9566SOL    HW229598   2.328   6.013   5.276
 9567SOL     OW29599   5.586   5.802   3.258
 9567SOL    HW129600   5.682   5.777   3.251
 9567SOL    HW229601   5.577   5.901   3.264
 9568SOL     OW29602   6.207   3.385   4.625
 9568SOL    HW129603   6.218   3.322   4.549
 9568SOL    HW229604   6.297   3.411   4.660
 9569SOL     OW29605   5.376   0.728   0.844
 9569SOL    HW129606   5.276   0.738   0.844
 9569SOL    HW229607   5.418   0.811   0.807
 9570SOL     OW29608   0.217   3.443   6.138
 9570SOL    HW129609   0.204   3.515   6.070
 9570SOL    HW229610   0.307   3.453   6.180
 9571SOL     OW29611   3.417   1.601   0.899
 9571SOL    HW129612   3.390   1.638   0.988
 9571SOL    HW229613   3.491   1.658   0.861
 9572SOL     OW29614   0.742   3.326   0.710
 9572SOL    HW129615   0.752   3.372   0.622
 9572SOL    HW229616   0.721   3.229   0.694
 9573SOL     OW29617   4.691   2.116   1.791
 9573SOL    HW129618   4.718   2.027   1.754
 9573SOL    HW229619   4.592   2.117   1.807
 9574SOL     OW29620   1.797   1.346   3.689
 9574SOL    HW129621   1.880   1.364   3.636
 9574SOL    HW229622   1.749   1.267   3.650
 9575SOL     OW29623   3.162   1.811   2.732
 9575SOL    HW129624   3.177   1.903   2.769
 9575SOL    HW229625   3.076   1.809   2.681
 9576SOL     OW29626   4.742   2.788   5.960
 9576SOL    HW129627   4.677   2.855   5.995
 9576SOL    HW229628   4.696   2.727   5.896
 9577SOL     OW29629   0.430   5.839   3.584
 9577SOL    HW129630   0.491   5.866   3.658
 9577SOL    HW229631   0.444   5.742   3.563
 9578SOL     OW29632   6.548   4.418   1.378
 9578SOL    HW129633   6.611   4.431   1.454
 9578SOL    HW229634   6.482   4.493   1.376
 9579SOL     OW29635   1.412   4.812   2.553
 9579SOL    HW129636   1.435   4.806   2.456
 9579SOL    HW229637   1.444   4.899   2.590
 9580SOL     OW29638   4.077   3.652   4.957
 9580SOL    HW129639   4.100   3.642   4.860
 9580SOL    HW229640   4.015   3.730   4.968
 9581SOL     OW29641   0.725   0.158   6.761
 9581SOL    HW129642   0.687   0.250   6.776
 9581SOL    HW229643   0.818   0.166   6.726
 9582SOL     OW29644   4.348   5.416   3.017
 9582SOL    HW129645   4.440   5.386   3.040
 9582SOL    HW229646   4.295   5.428   3.101
 9583SOL     OW29647   1.546   5.073   2.719
 9583SOL    HW129648   1.491   5.149   2.685
 9583SOL    HW229649   1.500   5.032   2.798
 9584SOL     OW29650   5.343   4.969   0.241
 9584SOL    HW129651   5.340   4.939   0.146
 9584SOL    HW229652   5.277   4.917   0.294
 9585SOL     OW29653   5.674   1.225   2.490
 9585SOL    HW129654   5.762   1.186   2.464
 9585SOL    HW229655   5.601   1.185   2.434
 9586SOL     OW29656   3.908   4.801   2.473
 9586SOL    HW129657   3.944   4.880   2.522
 9586SOL    HW229658   3.937   4.717   2.518
 9587SOL     OW29659   4.120   6.637   1.801
 9587SOL    HW129660   4.156   6.721   1.759
 9587SOL    HW229661   4.145   6.558   1.745
 9588SOL     OW29662   5.858   1.398   3.363
 9588SOL    HW129663   5.864   1.426   3.459
 9588SOL    HW229664   5.940   1.431   3.315
 9589SOL     OW29665   4.210   2.140   4.777
 9589SOL    HW129666   4.125   2.189   4.798
 9589SOL    HW229667   4.209   2.051   4.823
 9590SOL     OW29668   0.031   4.692   5.360
 9590SOL    HW129669   0.057   4.711   5.265
 9590SOL    HW229670   0.095   4.739   5.422
 9591SOL     OW29671   6.909   4.630   2.193
 9591SOL    HW129672   6.864   4.658   2.109
 9591SOL    HW229673   6.840   4.611   2.263
 9592SOL     OW29674   3.883   5.202   1.044
 9592SOL    HW129675   3.844   5.233   1.131
 9592SOL    HW229676   3.953   5.132   1.062
 9593SOL     OW29677   2.198   2.944   3.847
 9593SOL    HW129678   2.193   2.981   3.754
 9593SOL    HW229679   2.228   2.849   3.845
 9594SOL     OW29680   5.792   0.338   0.505
 9594SOL    HW129681   5.752   0.370   0.591
 9594SOL    HW229682   5.852   0.408   0.468
 9595SOL     OW29683   2.185   4.637   5.158
 9595SOL    HW129684   2.186   4.641   5.258
 9595SOL    HW229685   2.124   4.563   5.129
 9596SOL     OW29686   5.340   4.686   2.195
 9596SOL    HW129687   5.365   4.692   2.098
 9596SOL    HW229688   5.423   4.677   2.250
 9597SOL     OW29689   1.687   4.116   2.043
 9597SOL    HW129690   1.786   4.133   2.046
 9597SOL    HW229691   1.638   4.202   2.038
 9598SOL     OW29692   0.424   6.316   5.415
 9598SOL    HW129693   0.452   6.220   5.405
 9598SOL    HW229694   0.499   6.369   5.454
 9599SOL     OW29695   4.189   2.149   5.675
 9599SOL    HW129696   4.191   2.158   5.774
 9599SOL    HW229697   4.140   2.066   5.650
 9600SOL     OW29698   1.553   5.443   6.894
 9600SOL    HW129699   1.533   5.428   6.991
 9600SOL    HW229700   1.574   5.355   6.851
 9601SOL     OW29701   0.871   0.215   4.771
 9601SOL    HW129702   0.890   0.209   4.673
 9601SOL    HW229703   0.778   0.183   4.789
 9602SOL     OW29704   1.134   5.906   6.193
 9602SOL    HW129705   1.139   5.903   6.093
 9602SOL    HW229706   1.077   5.831   6.226
 9603SOL     OW29707   1.377   5.126   1.736
 9603SOL    HW129708   1.433   5.164   1.662
 9603SOL    HW229709   1.354   5.031   1.714
 9604SOL     OW29710   6.139   0.344   5.967
 9604SOL    HW129711   6.105   0.430   5.927
 9604SOL    HW229712   6.114   0.268   5.907
 9605SOL     OW29713   3.426   4.983   0.465
 9605SOL    HW129714   3.380   4.896   0.486
 9605SOL    HW229715   3.398   5.052   0.532
 9606SOL     OW29716   6.832   1.549   4.640
 9606SOL    HW129717   6.903   1.480   4.623
 9606SOL    HW229718   6.744   1.514   4.606
 9607SOL     OW29719   6.593   3.243   3.535
 9607SOL    HW129720   6.619   3.222   3.630
 9607SOL    HW229721   6.566   3.339   3.528
 9608SOL     OW29722   6.060   0.972   1.484
 9608SOL    HW129723   6.010   0.930   1.560
 9608SOL    HW229724   6.000   0.985   1.406
 9609SOL     OW29725   0.974   2.252   3.516
 9609SOL    HW129726   0.878   2.226   3.505
 9609SOL    HW229727   1.006   2.298   3.433
 9610SOL     OW29728   5.419   1.405   5.842
 9610SOL    HW129729   5.364   1.332   5.802
 9610SOL    HW229730   5.414   1.486   5.783
 9611SOL     OW29731   5.183   5.122   1.652
 9611SOL    HW129732   5.267   5.091   1.696
 9611SOL    HW229733   5.120   5.157   1.721
 9612SOL     OW29734   4.908   3.791   3.536
 9612SOL    HW129735   4.919   3.879   3.581
 9612SOL    HW229736   4.902   3.719   3.605
 9613SOL     OW29737   4.372   1.643   4.668
 9613SOL    HW129738   4.405   1.691   4.749
 9613SOL    HW229739   4.273   1.655   4.661
 9614SOL     OW29740   3.389   2.533   0.214
 9614SOL    HW129741   3.408   2.437   0.193
 9614SOL    HW229742   3.296   2.540   0.252
 9615SOL     OW29743   6.352   6.212   3.569
 9615SOL    HW129744   6.418   6.137   3.577
 9615SOL    HW229745   6.393   6.286   3.515
 9616SOL     OW29746   0.385   2.322   1.177
 9616SOL    HW129747   0.337   2.295   1.260
 9616SOL    HW229748   0.379   2.249   1.109
 9617SOL     OW29749   1.137   3.475   3.834
 9617SOL    HW129750   1.212   3.510   3.890
 9617SOL    HW229751   1.063   3.543   3.831
 9618SOL     OW29752   5.391   4.012   1.760
 9618SOL    HW129753   5.405   3.975   1.852
 9618SOL    HW229754   5.478   4.013   1.711
 9619SOL     OW29755   1.452   1.235   1.042
 9619SOL    HW129756   1.534   1.250   0.986
 9619SOL    HW229757   1.399   1.320   1.047
 9620SOL     OW29758   3.271   1.359   6.005
 9620SOL    HW129759   3.305   1.267   6.023
 9620SOL    HW229760   3.315   1.424   6.066
 9621SOL     OW29761   6.902   0.404   0.503
 9621SOL    HW129762   6.877   0.308   0.515
 9621SOL    HW229763   6.947   0.416   0.415
 9622SOL     OW29764   6.380   0.229   4.721
 9622SOL    HW129765   6.348   0.261   4.632
 9622SOL    HW229766   6.362   0.298   4.790
 9623SOL     OW29767   2.298   5.602   6.102
 9623SOL    HW129768   2.275   5.554   6.187
 9623SOL    HW229769   2.245   5.562   6.027
 9624SOL     OW29770   4.117   5.025   6.322
 9624SOL    HW129771   4.100   5.122   6.304
 9624SOL    HW229772   4.156   5.015   6.414
 9625SOL     OW29773   5.226   3.815   6.315
 9625SOL    HW129774   5.145   3.819   6.373
 9625SOL    HW229775   5.253   3.720   6.300
 9626SOL     OW29776   3.115   2.630   7.007
 9626SOL    HW129777   3.040   2.566   0.009
 9626SOL    HW229778   3.182   2.624   0.065
 9627SOL     OW29779   6.987   5.365   0.410
 9627SOL    HW129780   6.998   5.285   0.469
 9627SOL    HW229781   0.044   5.367   0.342
 9628SOL     OW29782   6.069   1.580   5.487
 9628SOL    HW129783   5.989   1.554   5.542
 9628SOL    HW229784   6.146   1.600   5.548
 9629SOL     OW29785   0.485   5.866   3.947
 9629SOL    HW129786   0.494   5.966   3.957
 9629SOL    HW229787   0.549   5.834   3.877
 9630SOL     OW29788   6.106   0.319   5.470
 9630SOL    HW129789   6.171   0.315   5.546
 9630SOL    HW229790   6.146   0.372   5.395
 9631SOL     OW29791   4.202   6.225   0.104
 9631SOL    HW129792   4.263   6.222   0.183
 9631SOL    HW229793   4.256   6.232   0.021
 9632SOL     OW29794   2.693   5.871   2.927
 9632SOL    HW129795   2.602   5.845   2.895
 9632SOL    HW229796   2.711   5.828   3.015
 9633SOL     OW29797   2.161   3.128   5.659
 9633SOL    HW129798   2.132   3.158   5.750
 9633SOL    HW229799   2.110   3.046   5.634
 9634SOL     OW29800   5.650   4.689   3.304
 9634SOL    HW129801   5.670   4.780   3.339
 9634SOL    HW229802   5.652   4.691   3.204
 9635SOL     OW29803   0.901   5.342   4.084
 9635SOL    HW129804   0.895   5.385   4.174
 9635SOL    HW229805   0.997   5.338   4.055
 9636SOL     OW29806   4.928   3.595   3.716
 9636SOL    HW129807   4.904   3.498   3.710
 9636SOL    HW229808   5.008   3.606   3.774
 9637SOL     OW29809   3.526   2.227   6.378
 9637SOL    HW129810   3.492   2.266   6.292
 9637SOL    HW229811   3.530   2.298   6.448
 9638SOL     OW29812   1.280   4.152   6.305
 9638SOL    HW129813   1.197   4.151   6.249
 9638SOL    HW229814   1.264   4.206   6.388
 9639SOL     OW29815   5.637   2.757   1.482
 9639SOL    HW129816   5.686   2.797   1.405
 9639SOL    HW229817   5.574   2.687   1.449
 9640SOL     OW29818   3.029   6.411   3.467
 9640SOL    HW129819   2.931   6.399   3.449
 9640SOL    HW229820   3.065   6.484   3.410
 9641SOL     OW29821   0.973   2.630   4.383
 9641SOL    HW129822   0.874   2.621   4.376
 9641SOL    HW229823   0.996   2.707   4.442
 9642SOL     OW29824   0.765   3.033   4.490
 9642SOL    HW129825   0.775   2.943   4.447
 9642SOL    HW229826   0.695   3.085   4.442
 9643SOL     OW29827   6.438   5.715   4.804
 9643SOL    HW129828   6.514   5.746   4.747
 9643SOL    HW229829   6.354   5.760   4.775
 9644SOL     OW29830   0.939   5.011   3.598
 9644SOL    HW129831   0.981   5.006   3.508
 9644SOL    HW229832   0.994   5.072   3.657
 9645SOL     OW29833   0.347   4.853   0.645
 9645SOL    HW129834   0.247   4.845   0.642
 9645SOL    HW229835   0.383   4.858   0.552
 9646SOL     OW29836   2.275   5.333   0.556
 9646SOL    HW129837   2.182   5.306   0.581
 9646SOL    HW229838   2.279   5.432   0.545
 9647SOL     OW29839   5.130   6.980   2.609
 9647SOL    HW129840   5.119   0.034   2.680
 9647SOL    HW229841   5.174   0.004   2.529
 9648SOL     OW29842   3.943   2.199   0.736
 9648SOL    HW129843   3.951   2.211   0.637
 9648SOL    HW229844   4.011   2.132   0.767
 9649SOL     OW29845   0.177   5.314   0.220
 9649SOL    HW129846   0.174   5.218   0.191
 9649SOL    HW229847   0.269   5.350   0.209
 9650SOL     OW29848   0.033   5.207   5.514
 9650SOL    HW129849   7.010   5.255   5.436
 9650SOL    HW229850   6.978   5.187   5.581
 9651SOL     OW29851   3.823   1.185   0.861
 9651SOL    HW129852   3.881   1.206   0.782
 9651SOL    HW229853   3.867   1.218   0.944
 9652SOL     OW29854   0.644   4.103   0.054
 9652SOL    HW129855   0.573   4.033   0.047
 9652SOL    HW229856   0.612   4.186   0.009
 9653SOL     OW29857   5.944   3.807   4.684
 9653SOL    HW129858   5.857   3.840   4.720
 9653SOL    HW229859   6.018   3.831   4.747
 9654SOL     OW29860   3.761   3.288   4.508
 9654SOL    HW129861   3.708   3.369   4.483
 9654SOL    HW229862   3.698   3.216   4.539
 9655SOL     OW29863   4.573   0.789   0.433
 9655SOL    HW129864   4.496   0.727   0.450
 9655SOL    HW229865   4.557   0.875   0.481
 9656SOL     OW29866   5.426   4.889   4.872
 9656SOL    HW129867   5.500   4.955   4.885
 9656SOL    HW229868   5.377   4.877   4.958
 9657SOL     OW29869   4.991   5.062   2.610
 9657SOL    HW129870   5.006   4.964   2.597
 9657SOL    HW229871   4.953   5.101   2.526
 9658SOL     OW29872   5.145   1.332   2.682
 9658SOL    HW129873   5.142   1.249   2.626
 9658SOL    HW229874   5.073   1.395   2.652
 9659SOL     OW29875   4.411   3.462   0.371
 9659SOL    HW129876   4.467   3.494   0.448
 9659SOL    HW229877   4.426   3.364   0.358
 9660SOL     OW29878   2.676   0.251   1.759
 9660SOL    HW129879   2.651   0.316   1.830
 9660SOL    HW229880   2.602   0.186   1.745
 9661SOL     OW29881   3.604   3.869   2.213
 9661SOL    HW129882   3.695   3.909   2.223
 9661SOL    HW229883   3.547   3.931   2.158
 9662SOL     OW29884   4.081   0.656   4.961
 9662SOL    HW129885   4.150   0.667   5.033
 9662SOL    HW229886   3.997   0.704   4.987
 9663SOL     OW29887   1.109   5.635   2.103
 9663SOL    HW129888   1.085   5.726   2.139
 9663SOL    HW229889   1.133   5.575   2.180
 9664SOL     OW29890   1.575   4.830   2.315
 9664SOL    HW129891   1.535   4.834   2.223
 9664SOL    HW229892   1.588   4.923   2.349
 9665SOL     OW29893   6.064   3.839   6.795
 9665SOL    HW129894   5.968   3.813   6.786
 9665SOL    HW229895   6.122   3.759   6.782
 9666SOL     OW29896   5.352   4.295   1.456
 9666SOL    HW129897   5.305   4.340   1.380
 9666SOL    HW229898   5.400   4.214   1.422
 9667SOL     OW29899   5.831   6.049   0.327
 9667SOL    HW129900   5.778   6.101   0.395
 9667SOL    HW229901   5.887   5.981   0.374
 9668SOL     OW29902   2.280   0.441   0.819
 9668SOL    HW129903   2.242   0.431   0.727
 9668SOL    HW229904   2.307   0.536   0.834
 9669SOL     OW29905   3.500   0.391   1.000
 9669SOL    HW129906   3.511   0.296   1.028
 9669SOL    HW229907   3.587   0.426   0.965
 9670SOL     OW29908   0.463   0.286   2.731
 9670SOL    HW129909   0.403   0.252   2.803
 9670SOL    HW229910   0.407   0.328   2.659
 9671SOL     OW29911   0.841   5.909   6.629
 9671SOL    HW129912   0.858   5.927   6.726
 9671SOL    HW229913   0.898   5.833   6.599
 9672SOL     OW29914   0.012   4.171   4.459
 9672SOL    HW129915   6.971   4.097   4.493
 9672SOL    HW229916   0.108   4.143   4.460
 9673SOL     OW29917   2.036   2.905   5.545
 9673SOL    HW129918   1.937   2.893   5.551
 9673SOL    HW229919   2.073   2.839   5.479
 9674SOL     OW29920   1.541   0.540   3.636
 9674SOL    HW129921   1.634   0.554   3.669
 9674SOL    HW229922   1.539   0.550   3.536
 9675SOL     OW29923   6.709   4.092   6.164
 9675SOL    HW129924   6.768   4.025   6.119
 9675SOL    HW229925   6.740   4.107   6.257
 9676SOL     OW29926   0.841   2.839   6.305
 9676SOL    HW129927   0.919   2.901   6.299
 9676SOL    HW229928   0.759   2.886   6.273
 9677SOL     OW29929   0.576   4.839   3.081
 9677SOL    HW129930   0.574   4.855   3.180
 9677SOL    HW229931   0.661   4.874   3.043
 9678SOL     OW29932   4.754   3.171   6.762
 9678SOL    HW129933   4.851   3.173   6.739
 9678SOL    HW229934   4.730   3.256   6.809
 9679SOL     OW29935   1.616   1.417   4.325
 9679SOL    HW129936   1.554   1.407   4.402
 9679SOL    HW229937   1.686   1.485   4.346
 9680SOL     OW29938   4.417   6.340   2.760
 9680SOL    HW129939   4.464   6.396   2.691
 9680SOL    HW229940   4.485   6.291   2.815
 9681SOL     OW29941   0.706   2.566   1.033
 9681SOL    HW129942   0.650   2.534   1.110
 9681SOL    HW229943   0.667   2.533   0.947
 9682SOL     OW29944   4.142   6.489   5.652
 9682SOL    HW129945   4.181   6.471   5.562
 9682SOL    HW229946   4.072   6.421   5.672
 9683SOL     OW29947   2.997   5.915   3.852
 9683SOL    HW129948   3.027   5.860   3.775
 9683SOL    HW229949   2.897   5.925   3.850
 9684SOL     OW29950   1.558   2.597   6.215
 9684SOL    HW129951   1.558   2.620   6.117
 9684SOL    HW229952   1.613   2.515   6.230
 9685SOL     OW29953   3.695   4.737   1.607
 9685SOL    HW129954   3.792   4.755   1.624
 9685SOL    HW229955   3.644   4.746   1.693
 9686SOL     OW29956   0.956   2.093   6.255
 9686SOL    HW129957   0.865   2.132   6.268
 9686SOL    HW229958   1.023   2.145   6.307
 9687SOL     OW29959   5.886   0.523   4.110
 9687SOL    HW129960   5.918   0.598   4.167
 9687SOL    HW229961   5.800   0.487   4.147
 9688SOL     OW29962   0.774   5.098   2.447
 9688SOL    HW129963   0.728   5.048   2.520
 9688SOL    HW229964   0.862   5.055   2.427
 9689SOL     OW29965   1.958   5.807   0.847
 9689SOL    HW129966   2.024   5.848   0.910
 9689SOL    HW229967   1.867   5.806   0.889
 9690SOL     OW29968   6.024   4.432   4.015
 9690SOL    HW129969   6.001   4.399   4.107
 9690SOL    HW229970   5.944   4.422   3.955
 9691SOL     OW29971   4.079   3.962   1.902
 9691SOL    HW129972   4.146   4.007   1.842
 9691SOL    HW229973   4.126   3.899   1.964
 9692SOL     OW29974   6.537   5.485   0.217
 9692SOL    HW129975   6.446   5.523   0.233
 9692SOL    HW229976   6.535   5.386   0.229
 9693SOL     OW29977   4.480   3.705   6.605
 9693SOL    HW129978   4.466   3.804   6.601
 9693SOL    HW229979   4.397   3.658   6.576
 9694SOL     OW29980   2.734   6.000   1.303
 9694SOL    HW129981   2.773   6.070   1.363
 9694SOL    HW229982   2.731   5.913   1.352
 9695SOL     OW29983   1.821   2.781   3.573
 9695SOL    HW129984   1.889   2.824   3.514
 9695SOL    HW229985   1.734   2.773   3.524
 9696SOL     OW29986   4.713   4.346   3.581
 9696SOL    HW129987   4.717   4.287   3.500
 9696SOL    HW229988   4.734   4.291   3.662
 9697SOL     OW29989   7.011   6.932   2.654
 9697SOL    HW129990   6.948   7.009   2.641
 9697SOL    HW229991   0.049   6.920   2.571
 9698SOL     OW29992   0.153   2.487   1.297
 9698SOL    HW129993   0.202   2.530   1.373
 9698SOL    HW229994   0.217   2.468   1.223
 9699SOL     OW29995   1.779   0.030   2.185
 9699SOL    HW129996   1.763   6.958   2.139
 9699SOL    HW229997   1.783   0.015   2.284
 9700SOL     OW29998   6.226   0.528   5.764
 9700SOL    HW129999   6.247   0.440   5.720
 9700SOL    HW230000   6.282   0.599   5.721
 9701SOL     OW30001   5.850   3.736   6.561
 9701SOL    HW130002   5.946   3.763   6.550
 9701SOL    HW230003   5.792   3.793   6.503
 9702SOL     OW30004   2.917   3.685   1.903
 9702SOL    HW130005   2.923   3.730   1.993
 9702SOL    HW230006   2.908   3.754   1.832
 9703SOL     OW30007   6.534   4.397   3.603
 9703SOL    HW130008   6.463   4.438   3.545
 9703SOL    HW230009   6.617   4.453   3.599
 9704SOL     OW30010   1.034   4.999   1.967
 9704SOL    HW130011   1.131   5.008   1.990
 9704SOL    HW230012   0.982   5.071   2.012
 9705SOL     OW30013   0.017   3.562   5.324
 9705SOL    HW130014   0.010   3.643   5.267
 9705SOL    HW230015   0.030   3.589   5.420
 9706SOL     OW30016   0.116   6.866   2.424
 9706SOL    HW130017   0.090   6.862   2.327
 9706SOL    HW230018   0.210   6.897   2.432
 9707SOL     OW30019   0.981   4.557   1.334
 9707SOL    HW130020   0.962   4.515   1.245
 9707SOL    HW230021   0.904   4.540   1.396
 9708SOL     OW30022   3.052   0.835   2.012
 9708SOL    HW130023   3.039   0.917   1.956
 9708SOL    HW230024   3.032   0.856   2.107
 9709SOL     OW30025   3.711   1.711   2.024
 9709SOL    HW130026   3.682   1.739   2.116
 9709SOL    HW230027   3.646   1.747   1.957
 9710SOL     OW30028   4.990   4.835   4.278
 9710SOL    HW130029   5.004   4.793   4.368
 9710SOL    HW230030   5.056   4.796   4.214
 9711SOL     OW30031   3.336   0.231   6.631
 9711SOL    HW130032   3.258   0.286   6.661
 9711SOL    HW230033   3.336   0.144   6.680
 9712SOL     OW30034   4.652   6.796   5.645
 9712SOL    HW130035   4.584   6.739   5.692
 9712SOL    HW230036   4.605   6.855   5.579
 9713SOL     OW30037   0.322   0.596   2.911
 9713SOL    HW130038   0.286   0.667   2.972
 9713SOL    HW230039   0.422   0.605   2.905
 9714SOL     OW30040   2.289   2.681   3.811
 9714SOL    HW130041   2.271   2.611   3.742
 9714SOL    HW230042   2.385   2.680   3.836
 9715SOL     OW30043   0.392   2.065   6.522
 9715SOL    HW130044   0.329   1.992   6.496
 9715SOL    HW230045   0.348   2.154   6.511
 9716SOL     OW30046   1.273   6.104   0.947
 9716SOL    HW130047   1.331   6.101   1.028
 9716SOL    HW230048   1.262   6.199   0.917
 9717SOL     OW30049   4.533   2.080   6.379
 9717SOL    HW130050   4.514   2.174   6.409
 9717SOL    HW230051   4.451   2.025   6.391
 9718SOL     OW30052   2.959   2.727   6.585
 9718SOL    HW130053   2.949   2.826   6.574
 9718SOL    HW230054   2.983   2.707   6.680
 9719SOL     OW30055   4.934   0.386   6.068
 9719SOL    HW130056   4.973   0.389   6.160
 9719SOL    HW230057   4.869   0.310   6.062
 9720SOL     OW30058   2.453   2.506   1.801
 9720SOL    HW130059   2.448   2.442   1.877
 9720SOL    HW230060   2.375   2.493   1.740
 9721SOL     OW30061   0.510   2.123   1.405
 9721SOL    HW130062   0.511   2.073   1.492
 9721SOL    HW230063   0.418   2.160   1.390
 9722SOL     OW30064   3.470   2.658   6.031
 9722SOL    HW130065   3.467   2.584   5.964
 9722SOL    HW230066   3.421   2.631   6.114
 9723SOL     OW30067   5.673   1.426   4.356
 9723SOL    HW130068   5.671   1.359   4.430
 9723SOL    HW230069   5.608   1.400   4.285
 9724SOL     OW30070   1.512   5.521   1.651
 9724SOL    HW130071   1.412   5.524   1.655
 9724SOL    HW230072   1.543   5.427   1.635
 9725SOL     OW30073   5.586   5.228   5.091
 9725SOL    HW130074   5.612   5.324   5.079
 9725SOL    HW230075   5.587   5.206   5.188
 9726SOL     OW30076   6.700   6.960   3.125
 9726SOL    HW130077   6.634   6.902   3.076
 9726SOL    HW230078   6.771   6.902   3.164
 9727SOL     OW30079   6.814   3.168   0.817
 9727SOL    HW130080   6.857   3.258   0.809
 9727SOL    HW230081   6.805   3.127   0.726
 9728SOL     OW30082   5.202   2.082   5.130
 9728SOL    HW130083   5.185   2.168   5.080
 9728SOL    HW230084   5.177   2.094   5.226
 9729SOL     OW30085   6.739   3.614   2.654
 9729SOL    HW130086   6.656   3.602   2.598
 9729SOL    HW230087   6.778   3.704   2.636
 9730SOL     OW30088   0.498   6.239   3.141
 9730SOL    HW130089   0.581   6.223   3.195
 9730SOL    HW230090   0.436   6.299   3.191
 9731SOL     OW30091   6.327   1.300   1.362
 9731SOL    HW130092   6.414   1.312   1.313
 9731SOL    HW230093   6.346   1.281   1.458
 9732SOL     OW30094   6.869   2.958   2.908
 9732SOL    HW130095   6.868   2.859   2.895
 9732SOL    HW230096   6.938   2.982   2.976
 9733SOL     OW30097   4.974   5.966   0.161
 9733SOL    HW130098   5.053   5.992   0.104
 9733SOL    HW230099   4.966   5.867   0.163
 9734SOL     OW30100   4.130   3.742   0.302
 9734SOL    HW130101   4.119   3.687   0.219
 9734SOL    HW230102   4.225   3.738   0.332
 9735SOL     OW30103   0.946   1.910   0.201
 9735SOL    HW130104   0.857   1.921   0.244
 9735SOL    HW230105   1.017   1.949   0.260
 9736SOL     OW30106   5.667   2.520   6.246
 9736SOL    HW130107   5.752   2.520   6.298
 9736SOL    HW230108   5.656   2.608   6.200
 9737SOL     OW30109   5.220   3.552   5.145
 9737SOL    HW130110   5.247   3.628   5.086
 9737SOL    HW230111   5.299   3.493   5.161
 9738SOL     OW30112   2.602   6.322   1.586
 9738SOL    HW130113   2.553   6.236   1.592
 9738SOL    HW230114   2.575   6.382   1.662
 9739SOL     OW30115   5.310   6.085   1.188
 9739SOL    HW130116   5.408   6.104   1.186
 9739SOL    HW230117   5.266   6.137   1.261
 9740SOL     OW30118   6.849   0.158   0.640
 9740SOL    HW130119   6.775   0.117   0.586
 9740SOL    HW230120   6.937   0.135   0.599
 9741SOL     OW30121   2.406   2.536   2.774
 9741SOL    HW130122   2.474   2.472   2.738
 9741SOL    HW230123   2.395   2.522   2.872
 9742SOL     OW30124   5.094   6.921   6.830
 9742SOL    HW130125   5.183   6.900   6.870
 9742SOL    HW230126   5.104   6.997   6.766
 9743SOL     OW30127   5.789   3.693   4.401
 9743SOL    HW130128   5.800   3.745   4.485
 9743SOL    HW230129   5.695   3.660   4.394
 9744SOL     OW30130   1.683   2.906   1.923
 9744SOL    HW130131   1.612   2.917   1.854
 9744SOL    HW230132   1.642   2.915   2.014
 9745SOL     OW30133   1.440   0.208   5.729
 9745SOL    HW130134   1.492   0.123   5.740
 9745SOL    HW230135   1.485   0.265   5.660
 9746SOL     OW30136   3.660   5.804   5.756
 9746SOL    HW130137   3.620   5.751   5.681
 9746SOL    HW230138   3.595   5.810   5.831
 9747SOL     OW30139   4.478   1.463   3.618
 9747SOL    HW130140   4.537   1.534   3.580
 9747SOL    HW230141   4.417   1.503   3.686
 9748SOL     OW30142   0.735   1.840   1.941
 9748SOL    HW130143   0.651   1.872   1.986
 9748SOL    HW230144   0.722   1.842   1.842
 9749SOL     OW30145   6.495   0.259   1.663
 9749SOL    HW130146   6.428   0.259   1.737
 9749SOL    HW230147   6.448   0.245   1.575
 9750SOL     OW30148   5.703   2.867   4.553
 9750SOL    HW130149   5.777   2.837   4.493
 9750SOL    HW230150   5.622   2.889   4.499
 9751SOL     OW30151   2.981   4.848   0.655
 9751SOL    HW130152   2.885   4.876   0.642
 9751SOL    HW230153   3.041   4.919   0.620
 9752SOL     OW30154   4.775   4.328   1.069
 9752SOL    HW130155   4.793   4.254   1.133
 9752SOL    HW230156   4.712   4.394   1.110
 9753SOL     OW30157   5.900   6.339   2.706
 9753SOL    HW130158   5.900   6.243   2.737
 9753SOL    HW230159   5.925   6.398   2.782
 9754SOL     OW30160   3.800   1.225   2.101
 9754SOL    HW130161   3.736   1.151   2.081
 9754SOL    HW230162   3.893   1.194   2.082
 9755SOL     OW30163   3.720   4.467   1.122
 9755SOL    HW130164   3.731   4.559   1.161
 9755SOL    HW230165   3.655   4.415   1.177
 9756SOL     OW30166   4.628   0.474   0.025
 9756SOL    HW130167   4.722   0.475   0.061
 9756SOL    HW230168   4.597   0.567   0.009
 9757SOL     OW30169   5.239   4.281   4.198
 9757SOL    HW130170   5.182   4.275   4.116
 9757SOL    HW230171   5.331   4.310   4.173
 9758SOL     OW30172   3.213   0.927   1.099
 9758SOL    HW130173   3.229   0.833   1.130
 9758SOL    HW230174   3.196   0.985   1.178
 9759SOL     OW30175   6.423   1.171   0.419
 9759SOL    HW130176   6.460   1.110   0.489
 9759SOL    HW230177   6.356   1.232   0.461
 9760SOL     OW30178   5.006   0.805   5.531
 9760SOL    HW130179   5.026   0.899   5.504
 9760SOL    HW230180   5.019   0.795   5.629
 9761SOL     OW30181   0.799   2.730   1.558
 9761SOL    HW130182   0.714   2.704   1.511
 9761SOL    HW230183   0.876   2.720   1.496
 9762SOL     OW30184   3.719   1.398   5.501
 9762SOL    HW130185   3.649   1.470   5.500
 9762SOL    HW230186   3.756   1.387   5.409
 9763SOL     OW30187   6.291   2.141   0.944
 9763SOL    HW130188   6.266   2.232   0.976
 9763SOL    HW230189   6.336   2.091   1.017
 9764SOL     OW30190   6.909   2.853   3.310
 9764SOL    HW130191   6.974   2.808   3.249
 9764SOL    HW230192   6.832   2.792   3.329
 9765SOL     OW30193   6.868   2.139   0.721
 9765SOL    HW130194   6.941   2.085   0.764
 9765SOL    HW230195   6.786   2.084   0.712
 9766SOL     OW30196   0.874   3.229   2.873
 9766SOL    HW130197   0.879   3.237   2.773
 9766SOL    HW230198   0.959   3.189   2.907
 9767SOL     OW30199   4.109   1.623   4.604
 9767SOL    HW130200   4.032   1.679   4.633
 9767SOL    HW230201   4.091   1.585   4.513
 9768SOL     OW30202   4.560   3.467   6.689
 9768SOL    HW130203   4.533   3.555   6.649
 9768SOL    HW230204   4.555   3.396   6.619
 9769SOL     OW30205   3.274   0.557   5.791
 9769SOL    HW130206   3.331   0.490   5.838
 9769SOL    HW230207   3.212   0.600   5.857
 9770SOL     OW30208   1.971   3.443   4.913
 9770SOL    HW130209   1.965   3.488   4.823
 9770SOL    HW230210   1.880   3.433   4.951
 9771SOL     OW30211   3.743   0.465   1.630
 9771SOL    HW130212   3.798   0.541   1.664
 9771SOL    HW230213   3.699   0.419   1.708
 9772SOL     OW30214   0.634   0.969   1.459
 9772SOL    HW130215   0.665   0.920   1.540
 9772SOL    HW230216   0.564   1.035   1.485
 9773SOL     OW30217   4.188   6.486   2.797
 9773SOL    HW130218   4.193   6.537   2.711
 9773SOL    HW230219   4.278   6.447   2.818
 9774SOL     OW30220   1.294   5.170   5.233
 9774SOL    HW130221   1.305   5.122   5.146
 9774SOL    HW230222   1.367   5.238   5.243
 9775SOL     OW30223   1.372   1.508   3.398
 9775SOL    HW130224   1.304   1.434   3.393
 9775SOL    HW230225   1.385   1.536   3.493
 9776SOL     OW30226   0.656   5.724   1.332
 9776SOL    HW130227   0.576   5.692   1.384
 9776SOL    HW230228   0.679   5.656   1.262
 9777SOL     OW30229   4.855   2.299   5.113
 9777SOL    HW130230   4.839   2.335   5.205
 9777SOL    HW230231   4.848   2.199   5.115
 9778SOL     OW30232   1.867   3.234   2.854
 9778SOL    HW130233   1.802   3.249   2.780
 9778SOL    HW230234   1.818   3.209   2.937
 9779SOL     OW30235   1.937   0.993   2.724
 9779SOL    HW130236   2.029   1.009   2.689
 9779SOL    HW230237   1.935   0.908   2.777
 9780SOL     OW30238   1.628   2.061   1.477
 9780SOL    HW130239   1.622   2.059   1.378
 9780SOL    HW230240   1.561   1.996   1.516
 9781SOL     OW30241   1.549   1.350   2.015
 9781SOL    HW130242   1.647   1.330   2.015
 9781SOL    HW230243   1.513   1.342   2.108
 9782SOL     OW30244   0.664   2.476   6.912
 9782SOL    HW130245   0.565   2.462   6.910
 9782SOL    HW230246   0.711   2.388   6.913
 9783SOL     OW30247   5.202   1.103   2.257
 9783SOL    HW130248   5.230   1.075   2.165
 9783SOL    HW230249   5.134   1.038   2.292
 9784SOL     OW30250   2.535   1.361   0.475
 9784SOL    HW130251   2.499   1.271   0.499
 9784SOL    HW230252   2.524   1.376   0.377
 9785SOL     OW30253   1.856   3.620   4.324
 9785SOL    HW130254   1.954   3.607   4.343
 9785SOL    HW230255   1.832   3.716   4.342
 9786SOL     OW30256   3.074   4.261   0.166
 9786SOL    HW130257   3.009   4.309   0.107
 9786SOL    HW230258   3.073   4.163   0.144
 9787SOL     OW30259   2.700   3.535   1.183
 9787SOL    HW130260   2.762   3.609   1.208
 9787SOL    HW230261   2.606   3.560   1.208
 9788SOL     OW30262   2.449   0.103   3.905
 9788SOL    HW130263   2.540   0.140   3.921
 9788SOL    HW230264   2.442   0.012   3.947
 9789SOL     OW30265   4.036   1.768   7.010
 9789SOL    HW130266   4.018   1.694   0.057
 9789SOL    HW230267   4.072   1.847   0.044
 9790SOL     OW30268   4.569   5.715   5.139
 9790SOL    HW130269   4.563   5.655   5.219
 9790SOL    HW230270   4.504   5.684   5.069
 9791SOL     OW30271   0.546   0.964   0.984
 9791SOL    HW130272   0.569   1.058   1.010
 9791SOL    HW230273   0.607   0.933   0.911
 9792SOL     OW30274   3.013   3.624   0.076
 9792SOL    HW130275   2.951   3.575   0.138
 9792SOL    HW230276   2.960   3.672   0.006
 9793SOL     OW30277   5.338   0.849   1.821
 9793SOL    HW130278   5.353   0.757   1.858
 9793SOL    HW230279   5.270   0.897   1.877
 9794SOL     OW30280   4.241   5.849   5.358
 9794SOL    HW130281   4.160   5.906   5.366
 9794SOL    HW230282   4.323   5.906   5.361
 9795SOL     OW30283   1.900   4.284   3.372
 9795SOL    HW130284   1.930   4.219   3.303
 9795SOL    HW230285   1.977   4.339   3.403
 9796SOL     OW30286   4.091   3.356   4.973
 9796SOL    HW130287   4.172   3.312   4.935
 9796SOL    HW230288   4.103   3.455   4.970
 9797SOL     OW30289   3.864   5.178   0.384
 9797SOL    HW130290   3.941   5.155   0.325
 9797SOL    HW230291   3.815   5.095   0.408
 9798SOL     OW30292   0.663   4.083   6.146
 9798SOL    HW130293   0.704   3.996   6.175
 9798SOL    HW230294   0.658   4.145   6.224
 9799SOL     OW30295   3.427   0.121   6.171
 9799SOL    HW130296   3.437   0.096   6.074
 9799SOL    HW230297   3.342   0.082   6.207
 9800SOL     OW30298   0.235   4.311   4.701
 9800SOL    HW130299   0.158   4.272   4.651
 9800SOL    HW230300   0.289   4.237   4.742
 9801SOL     OW30301   3.892   6.829   1.377
 9801SOL    HW130302   3.888   6.913   1.323
 9801SOL    HW230303   3.985   6.816   1.412
 9802SOL     OW30304   3.923   2.448   0.369
 9802SOL    HW130305   3.990   2.498   0.423
 9802SOL    HW230306   3.833   2.489   0.381
 9803SOL     OW30307   2.427   3.938   0.369
 9803SOL    HW130308   2.517   3.911   0.405
 9803SOL    HW230309   2.377   3.856   0.340
 9804SOL     OW30310   0.965   3.831   2.939
 9804SOL    HW130311   0.936   3.921   2.905
 9804SOL    HW230312   1.017   3.843   3.024
 9805SOL     OW30313   6.891   4.453   5.267
 9805SOL    HW130314   6.968   4.473   5.327
 9805SOL    HW230315   6.833   4.534   5.258
 9806SOL     OW30316   3.508   1.321   0.208
 9806SOL    HW130317   3.474   1.415   0.197
 9806SOL    HW230318   3.566   1.298   0.130
 9807SOL     OW30319   3.747   3.656   4.628
 9807SOL    HW130320   3.696   3.741   4.639
 9807SOL    HW230321   3.717   3.610   4.545
 9808SOL     OW30322   2.675   6.489   2.409
 9808SOL    HW130323   2.593   6.519   2.360
 9808SOL    HW230324   2.654   6.409   2.465
 9809SOL     OW30325   6.927   3.442   0.780
 9809SOL    HW130326   6.937   3.494   0.865
 9809SOL    HW230327   0.001   3.429   0.738
 9810SOL     OW30328   4.096   3.023   1.368
 9810SOL    HW130329   4.045   2.962   1.428
 9810SOL    HW230330   4.138   2.970   1.294
 9811SOL     OW30331   5.023   3.469   3.952
 9811SOL    HW130332   4.950   3.401   3.957
 9811SOL    HW230333   5.092   3.449   4.022
 9812SOL     OW30334   3.264   5.460   6.538
 9812SOL    HW130335   3.246   5.362   6.535
 9812SOL    HW230336   3.297   5.491   6.449
 9813SOL     OW30337   4.651   0.585   1.911
 9813SOL    HW130338   4.649   0.538   1.822
 9813SOL    HW230339   4.611   0.525   1.981
 9814SOL     OW30340   6.691   1.498   6.627
 9814SOL    HW130341   6.666   1.590   6.599
 9814SOL    HW230342   6.759   1.461   6.564
 9815SOL     OW30343   5.132   2.409   4.623
 9815SOL    HW130344   5.145   2.380   4.528
 9815SOL    HW230345   5.221   2.420   4.667
 9816SOL     OW30346   3.824   0.776   0.231
 9816SOL    HW130347   3.766   0.695   0.219
 9816SOL    HW230348   3.807   0.815   0.322
 9817SOL     OW30349   6.363   0.179   1.433
 9817SOL    HW130350   6.436   0.112   1.417
 9817SOL    HW230351   6.284   0.156   1.378
 9818SOL     OW30352   4.062   2.172   5.104
 9818SOL    HW130353   4.117   2.088   5.107
 9818SOL    HW230354   4.112   2.243   5.055
 9819SOL     OW30355   2.541   0.402   1.929
 9819SOL    HW130356   2.470   0.428   1.864
 9819SOL    HW230357   2.501   0.345   2.001
 9820SOL     OW30358   4.106   2.726   0.169
 9820SOL    HW130359   4.020   2.680   0.148
 9820SOL    HW230360   4.144   2.765   0.085
 9821SOL     OW30361   0.752   6.528   6.650
 9821SOL    HW130362   0.760   6.435   6.614
 9821SOL    HW230363   0.798   6.533   6.739
 9822SOL     OW30364   0.110   1.807   2.283
 9822SOL    HW130365   0.056   1.843   2.359
 9822SOL    HW230366   0.052   1.750   2.225
 9823SOL     OW30367   3.134   6.581   2.491
 9823SOL    HW130368   3.101   6.524   2.416
 9823SOL    HW230369   3.152   6.674   2.458
 9824SOL     OW30370   2.251   3.900   5.368
 9824SOL    HW130371   2.209   3.967   5.430
 9824SOL    HW230372   2.300   3.948   5.295
 9825SOL     OW30373   4.476   4.557   5.466
 9825SOL    HW130374   4.415   4.636   5.466
 9825SOL    HW230375   4.568   4.586   5.490
 9826SOL     OW30376   6.213   0.479   5.286
 9826SOL    HW130377   6.177   0.532   5.209
 9826SOL    HW230378   6.302   0.517   5.312
 9827SOL     OW30379   1.048   5.642   4.769
 9827SOL    HW130380   1.110   5.649   4.691
 9827SOL    HW230381   0.958   5.612   4.738
 9828SOL     OW30382   2.455   1.299   0.217
 9828SOL    HW130383   2.457   1.240   0.136
 9828SOL    HW230384   2.360   1.319   0.241
 9829SOL     OW30385   3.150   4.299   1.481
 9829SOL    HW130386   3.224   4.236   1.457
 9829SOL    HW230387   3.129   4.358   1.403
 9830SOL     OW30388   5.886   1.132   1.302
 9830SOL    HW130389   5.961   1.197   1.286
 9830SOL    HW230390   5.818   1.174   1.361
 9831SOL     OW30391   0.034   5.774   1.141
 9831SOL    HW130392   0.055   5.683   1.106
 9831SOL    HW230393   0.045   5.775   1.241
 9832SOL     OW30394   3.113   3.727   1.445
 9832SOL    HW130395   3.181   3.800   1.446
 9832SOL    HW230396   3.051   3.738   1.522
 9833SOL     OW30397   5.160   4.489   0.494
 9833SOL    HW130398   5.149   4.435   0.411
 9833SOL    HW230399   5.234   4.556   0.481
 9834SOL     OW30400   1.891   3.235   3.899
 9834SOL    HW130401   1.840   3.220   3.983
 9834SOL    HW230402   1.963   3.303   3.915
 9835SOL     OW30403   4.938   2.206   4.576
 9835SOL    HW130404   4.906   2.167   4.663
 9835SOL    HW230405   5.012   2.271   4.594
 9836SOL     OW30406   5.427   5.208   1.219
 9836SOL    HW130407   5.398   5.115   1.240
 9836SOL    HW230408   5.480   5.208   1.135
 9837SOL     OW30409   2.357   5.316   5.324
 9837SOL    HW130410   2.350   5.355   5.232
 9837SOL    HW230411   2.398   5.225   5.319
 9838SOL     OW30412   6.981   6.632   5.064
 9838SOL    HW130413   6.993   6.722   5.020
 9838SOL    HW230414   0.053   6.585   5.067
 9839SOL     OW30415   5.714   2.990   3.055
 9839SOL    HW130416   5.633   3.036   3.090
 9839SOL    HW230417   5.770   3.056   3.004
 9840SOL     OW30418   5.940   6.947   0.603
 9840SOL    HW130419   5.952   6.850   0.625
 9840SOL    HW230420   6.024   6.982   0.560
 9841SOL     OW30421   1.738   3.001   4.149
 9841SOL    HW130422   1.688   2.943   4.213
 9841SOL    HW230423   1.819   2.953   4.116
 9842SOL     OW30424   3.131   3.076   4.269
 9842SOL    HW130425   3.118   3.167   4.307
 9842SOL    HW230426   3.159   3.013   4.343
 9843SOL     OW30427   6.287   4.438   3.381
 9843SOL    HW130428   6.257   4.449   3.476
 9843SOL    HW230429   6.251   4.353   3.344
 9844SOL     OW30430   4.293   0.331   1.929
 9844SOL    HW130431   4.264   0.421   1.964
 9844SOL    HW230432   4.291   0.331   1.829
 9845SOL     OW30433   0.927   1.853   4.409
 9845SOL    HW130434   0.996   1.869   4.340
 9845SOL    HW230435   0.863   1.929   4.411
 9846SOL     OW30436   2.996   3.326   4.371
 9846SOL    HW130437   2.952   3.373   4.447
 9846SOL    HW230438   2.945   3.343   4.287
 9847SOL     OW30439   2.241   4.359   4.256
 9847SOL    HW130440   2.223   4.456   4.273
 9847SOL    HW230441   2.318   4.329   4.312
 9848SOL     OW30442   0.037   4.516   0.208
 9848SOL    HW130443   0.083   4.582   0.268
 9848SOL    HW230444   0.058   4.423   0.238
 9849SOL     OW30445   6.555   5.989   5.467
 9849SOL    HW130446   6.580   6.084   5.485
 9849SOL    HW230447   6.638   5.935   5.451
 9850SOL     OW30448   5.334   6.736   3.705
 9850SOL    HW130449   5.237   6.758   3.693
 9850SOL    HW230450   5.390   6.814   3.674
 9851SOL     OW30451   5.522   2.468   5.000
 9851SOL    HW130452   5.602   2.527   5.015
 9851SOL    HW230453   5.447   2.500   5.057
 9852SOL     OW30454   5.323   2.108   3.908
 9852SOL    HW130455   5.254   2.156   3.963
 9852SOL    HW230456   5.284   2.023   3.873
 9853SOL     OW30457   0.114   5.272   1.039
 9853SOL    HW130458   0.099   5.192   0.981
 9853SOL    HW230459   0.080   5.253   1.131
 9854SOL     OW30460   3.301   6.639   4.352
 9854SOL    HW130461   3.202   6.624   4.347
 9854SOL    HW230462   3.325   6.720   4.298
 9855SOL     OW30463   2.194   4.386   0.884
 9855SOL    HW130464   2.103   4.420   0.861
 9855SOL    HW230465   2.236   4.446   0.952
 9856SOL     OW30466   3.734   3.272   1.091
 9856SOL    HW130467   3.653   3.278   1.149
 9856SOL    HW230468   3.747   3.360   1.044
 9857SOL     OW30469   6.175   4.619   3.112
 9857SOL    HW130470   6.167   4.602   3.210
 9857SOL    HW230471   6.221   4.706   3.097
 9858SOL     OW30472   3.296   1.394   1.374
 9858SOL    HW130473   3.288   1.453   1.294
 9858SOL    HW230474   3.382   1.415   1.422
 9859SOL     OW30475   0.503   6.470   1.491
 9859SOL    HW130476   0.516   6.429   1.401
 9859SOL    HW230477   0.437   6.544   1.484
 9860SOL     OW30478   1.004   1.049   2.856
 9860SOL    HW130479   0.995   1.146   2.830
 9860SOL    HW230480   1.033   0.997   2.776
 9861SOL     OW30481   2.123   6.271   3.509
 9861SOL    HW130482   2.158   6.318   3.591
 9861SOL    HW230483   2.194   6.210   3.473
 9862SOL     OW30484   0.250   1.951   0.709
 9862SOL    HW130485   0.199   1.913   0.631
 9862SOL    HW230486   0.307   2.027   0.678
 9863SOL     OW30487   4.731   0.618   0.655
 9863SOL    HW130488   4.695   0.674   0.581
 9863SOL    HW230489   4.824   0.588   0.631
 9864SOL     OW30490   3.623   5.626   3.827
 9864SOL    HW130491   3.582   5.535   3.831
 9864SOL    HW230492   3.678   5.634   3.743
 9865SOL     OW30493   1.681   3.564   3.935
 9865SOL    HW130494   1.766   3.517   3.958
 9865SOL    HW230495   1.633   3.588   4.020
 9866SOL     OW30496   2.919   4.893   3.285
 9866SOL    HW130497   3.019   4.892   3.290
 9866SOL    HW230498   2.884   4.977   3.326
 9867SOL     OW30499   3.595   6.415   5.936
 9867SOL    HW130500   3.594   6.421   6.036
 9867SOL    HW230501   3.673   6.465   5.900
 9868SOL     OW30502   1.246   5.246   5.994
 9868SOL    HW130503   1.188   5.167   6.015
 9868SOL    HW230504   1.213   5.325   6.045
 9869SOL     OW30505   0.807   4.910   2.988
 9869SOL    HW130506   0.859   4.972   2.928
 9869SOL    HW230507   0.862   4.828   3.006
 9870SOL     OW30508   4.366   5.511   1.868
 9870SOL    HW130509   4.412   5.489   1.954
 9870SOL    HW230510   4.400   5.598   1.833
 9871SOL     OW30511   2.427   2.877   5.889
 9871SOL    HW130512   2.344   2.850   5.842
 9871SOL    HW230513   2.409   2.881   5.988
 9872SOL     OW30514   1.426   3.838   2.980
 9872SOL    HW130515   1.362   3.824   2.904
 9872SOL    HW230516   1.439   3.751   3.029
 9873SOL     OW30517   2.281   2.339   1.477
 9873SOL    HW130518   2.307   2.369   1.385
 9873SOL    HW230519   2.352   2.278   1.513
 9874SOL     OW30520   1.060   4.059   4.364
 9874SOL    HW130521   1.070   4.157   4.379
 9874SOL    HW230522   0.978   4.026   4.411
 9875SOL     OW30523   1.460   1.518   3.150
 9875SOL    HW130524   1.399   1.454   3.103
 9875SOL    HW230525   1.434   1.523   3.246
 9876SOL     OW30526   6.506   6.012   2.294
 9876SOL    HW130527   6.561   5.929   2.306
 9876SOL    HW230528   6.410   5.986   2.283
 9877SOL     OW30529   3.989   0.544   1.278
 9877SOL    HW130530   3.959   0.453   1.306
 9877SOL    HW230531   4.002   0.545   1.178
 9878SOL     OW30532   6.447   1.507   5.096
 9878SOL    HW130533   6.539   1.522   5.134
 9878SOL    HW230534   6.454   1.499   4.997
 9879SOL     OW30535   5.306   5.354   5.475
 9879SOL    HW130536   5.255   5.337   5.390
 9879SOL    HW230537   5.399   5.318   5.466
 9880SOL     OW30538   1.106   2.827   3.665
 9880SOL    HW130539   1.071   2.876   3.585
 9880SOL    HW230540   1.046   2.750   3.685
 9881SOL     OW30541   0.290   1.494   6.002
 9881SOL    HW130542   0.279   1.434   6.081
 9881SOL    HW230543   0.338   1.445   5.930
 9882SOL     OW30544   1.762   2.484   3.455
 9882SOL    HW130545   1.852   2.518   3.427
 9882SOL    HW230546   1.699   2.561   3.464
 9883SOL     OW30547   2.806   1.590   2.533
 9883SOL    HW130548   2.863   1.670   2.552
 9883SOL    HW230549   2.819   1.522   2.605
 9884SOL     OW30550   2.969   0.307   3.756
 9884SOL    HW130551   3.034   0.359   3.701
 9884SOL    HW230552   3.017   0.232   3.801
 9885SOL     OW30553   6.650   2.606   4.927
 9885SOL    HW130554   6.731   2.576   4.876
 9885SOL    HW230555   6.613   2.690   4.885
 9886SOL     OW30556   0.053   3.103   2.066
 9886SOL    HW130557   0.081   3.083   2.159
 9886SOL    HW230558   0.101   3.044   2.002
 9887SOL     OW30559   4.404   5.996   5.893
 9887SOL    HW130560   4.457   5.947   5.824
 9887SOL    HW230561   4.373   6.083   5.855
 9888SOL     OW30562   6.619   5.306   5.116
 9888SOL    HW130563   6.584   5.345   5.201
 9888SOL    HW230564   6.678   5.228   5.137
 9889SOL     OW30565   0.721   5.663   0.694
 9889SOL    HW130566   0.649   5.732   0.691
 9889SOL    HW230567   0.801   5.696   0.646
 9890SOL     OW30568   0.754   2.829   0.973
 9890SOL    HW130569   0.749   2.736   1.009
 9890SOL    HW230570   0.665   2.872   0.980
 9891SOL     OW30571   4.966   0.889   2.408
 9891SOL    HW130572   4.883   0.946   2.410
 9891SOL    HW230573   4.946   0.803   2.362
 9892SOL     OW30574   1.198   0.435   6.346
 9892SOL    HW130575   1.140   0.514   6.361
 9892SOL    HW230576   1.162   0.379   6.272
 9893SOL     OW30577   2.189   1.308   0.284
 9893SOL    HW130578   2.150   1.399   0.296
 9893SOL    HW230579   2.125   1.251   0.232
 9894SOL     OW30580   2.110   0.856   1.537
 9894SOL    HW130581   2.117   0.806   1.623
 9894SOL    HW230582   2.059   0.940   1.551
 9895SOL     OW30583   4.333   2.567   5.512
 9895SOL    HW130584   4.350   2.595   5.418
 9895SOL    HW230585   4.302   2.646   5.565
 9896SOL     OW30586   6.496   6.686   5.829
 9896SOL    HW130587   6.536   6.603   5.791
 9896SOL    HW230588   6.488   6.677   5.928
 9897SOL     OW30589   5.841   5.049   5.385
 9897SOL    HW130590   5.865   5.080   5.293
 9897SOL    HW230591   5.750   5.083   5.408
 9898SOL     OW30592   2.465   0.113   6.783
 9898SOL    HW130593   2.502   0.206   6.781
 9898SOL    HW230594   2.440   0.085   6.690
 9899SOL     OW30595   0.201   4.675   0.404
 9899SOL    HW130596   0.173   4.690   0.499
 9899SOL    HW230597   0.274   4.740   0.380
 9900SOL     OW30598   2.392   4.899   3.465
 9900SOL    HW130599   2.403   4.822   3.403
 9900SOL    HW230600   2.323   4.876   3.535
 9901SOL     OW30601   1.910   3.318   5.478
 9901SOL    HW130602   1.862   3.334   5.392
 9901SOL    HW230603   1.981   3.248   5.465
 9902SOL     OW30604   2.913   4.286   1.170
 9902SOL    HW130605   2.907   4.385   1.183
 9902SOL    HW230606   2.828   4.252   1.132
 9903SOL     OW30607   5.651   1.231   5.333
 9903SOL    HW130608   5.554   1.254   5.326
 9903SOL    HW230609   5.681   1.183   5.251
 9904SOL     OW30610   6.143   1.625   0.427
 9904SOL    HW130611   6.168   1.700   0.367
 9904SOL    HW230612   6.150   1.654   0.523
 9905SOL     OW30613   5.046   0.172   0.252
 9905SOL    HW130614   4.991   0.140   0.174
 9905SOL    HW230615   5.064   0.095   0.312
 9906SOL     OW30616   3.061   3.485   5.197
 9906SOL    HW130617   2.975   3.511   5.155
 9906SOL    HW230618   3.045   3.415   5.267
 9907SOL     OW30619   1.819   6.270   1.637
 9907SOL    HW130620   1.770   6.186   1.659
 9907SOL    HW230621   1.850   6.267   1.542
 9908SOL     OW30622   5.471   3.586   1.838
 9908SOL    HW130623   5.385   3.620   1.875
 9908SOL    HW230624   5.475   3.606   1.740
 9909SOL     OW30625   1.548   0.262   4.398
 9909SOL    HW130626   1.567   0.331   4.329
 9909SOL    HW230627   1.461   0.282   4.442
 9910SOL     OW30628   0.325   4.538   4.368
 9910SOL    HW130629   0.288   4.630   4.383
 9910SOL    HW230630   0.262   4.486   4.310
 9911SOL     OW30631   2.761   6.713   2.236
 9911SOL    HW130632   2.756   6.619   2.270
 9911SOL    HW230633   2.850   6.729   2.195
 9912SOL     OW30634   4.659   0.870   5.502
 9912SOL    HW130635   4.723   0.877   5.579
 9912SOL    HW230636   4.666   0.953   5.446
 9913SOL     OW30637   5.266   2.859   0.491
 9913SOL    HW130638   5.183   2.871   0.436
 9913SOL    HW230639   5.339   2.915   0.453
 9914SOL     OW30640   0.040   3.345   4.503
 9914SOL    HW130641   0.106   3.419   4.491
 9914SOL    HW230642   0.063   3.269   4.443
 9915SOL     OW30643   4.527   1.227   3.741
 9915SOL    HW130644   4.510   1.293   3.668
 9915SOL    HW230645   4.488   1.262   3.826
 9916SOL     OW30646   1.519   2.907   1.691
 9916SOL    HW130647   1.458   2.832   1.666
 9916SOL    HW230648   1.543   2.959   1.608
 9917SOL     OW30649   6.307   4.564   5.752
 9917SOL    HW130650   6.220   4.588   5.797
 9917SOL    HW230651   6.327   4.633   5.682
 9918SOL     OW30652   4.870   3.001   2.464
 9918SOL    HW130653   4.961   2.961   2.478
 9918SOL    HW230654   4.859   3.026   2.368
 9919SOL     OW30655   5.249   5.525   0.230
 9919SOL    HW130656   5.237   5.436   0.273
 9919SOL    HW230657   5.238   5.597   0.298
 9920SOL     OW30658   4.775   1.039   2.482
 9920SOL    HW130659   4.766   1.035   2.582
 9920SOL    HW230660   4.684   1.052   2.441
 9921SOL     OW30661   4.189   4.906   6.059
 9921SOL    HW130662   4.113   4.844   6.039
 9921SOL    HW230663   4.182   4.940   6.152
 9922SOL     OW30664   0.229   6.253   1.156
 9922SOL    HW130665   0.231   6.161   1.118
 9922SOL    HW230666   0.291   6.312   1.103
 9923SOL     OW30667   6.454   4.306   0.226
 9923SOL    HW130668   6.378   4.254   0.188
 9923SOL    HW230669   6.461   4.288   0.324
 9924SOL     OW30670   1.432   4.646   4.422
 9924SOL    HW130671   1.440   4.548   4.441
 9924SOL    HW230672   1.515   4.678   4.376
 9925SOL     OW30673   4.616   2.702   3.936
 9925SOL    HW130674   4.607   2.796   3.901
 9925SOL    HW230675   4.641   2.705   4.032
 9926SOL     OW30676   3.716   5.113   1.527
 9926SOL    HW130677   3.659   5.037   1.497
 9926SOL    HW230678   3.707   5.124   1.626
 9927SOL     OW30679   5.231   0.496   4.021
 9927SOL    HW130680   5.189   0.530   3.937
 9927SOL    HW230681   5.306   0.433   3.998
 9928SOL     OW30682   5.178   4.319   2.423
 9928SOL    HW130683   5.163   4.415   2.397
 9928SOL    HW230684   5.142   4.259   2.352
 9929SOL     OW30685   0.904   4.123   3.371
 9929SOL    HW130686   0.990   4.173   3.358
 9929SOL    HW230687   0.909   4.066   3.453
 9930SOL     OW30688   5.319   0.603   2.868
 9930SOL    HW130689   5.361   0.638   2.952
 9930SOL    HW230690   5.331   0.504   2.863
 9931SOL     OW30691   1.522   5.568   5.562
 9931SOL    HW130692   1.474   5.484   5.536
 9931SOL    HW230693   1.591   5.547   5.632
 9932SOL     OW30694   0.306   5.787   4.420
 9932SOL    HW130695   0.255   5.869   4.393
 9932SOL    HW230696   0.296   5.717   4.350
 9933SOL     OW30697   6.416   6.710   2.687
 9933SOL    HW130698   6.349   6.639   2.708
 9933SOL    HW230699   6.495   6.669   2.643
 9934SOL     OW30700   0.088   2.586   4.600
 9934SOL    HW130701   0.168   2.642   4.618
 9934SOL    HW230702   0.023   2.637   4.544
 9935SOL     OW30703   2.222   0.463   5.723
 9935SOL    HW130704   2.170   0.411   5.656
 9935SOL    HW230705   2.275   0.534   5.677
 9936SOL     OW30706   1.813   4.535   3.769
 9936SOL    HW130707   1.719   4.501   3.772
 9936SOL    HW230708   1.833   4.585   3.853
 9937SOL     OW30709   6.492   2.496   5.812
 9937SOL    HW130710   6.413   2.477   5.871
 9937SOL    HW230711   6.528   2.409   5.777
 9938SOL     OW30712   6.561   5.972   2.863
 9938SOL    HW130713   6.588   6.058   2.819
 9938SOL    HW230714   6.465   5.953   2.842
 9939SOL     OW30715   3.277   2.927   3.607
 9939SOL    HW130716   3.332   2.897   3.529
 9939SOL    HW230717   3.282   2.858   3.679
 9940SOL     OW30718   0.275   0.925   0.957
 9940SOL    HW130719   0.373   0.942   0.962
 9940SOL    HW230720   0.259   0.838   0.911
 9941SOL     OW30721   3.485   5.676   5.228
 9941SOL    HW130722   3.527   5.629   5.151
 9941SOL    HW230723   3.483   5.774   5.210
 9942SOL     OW30724   2.710   6.191   4.003
 9942SOL    HW130725   2.663   6.148   4.080
 9942SOL    HW230726   2.774   6.125   3.962
 9943SOL     OW30727   0.663   6.410   4.734
 9943SOL    HW130728   0.702   6.497   4.762
 9943SOL    HW230729   0.623   6.418   4.643
 9944SOL     OW30730   1.804   4.513   5.993
 9944SOL    HW130731   1.903   4.530   5.994
 9944SOL    HW230732   1.770   4.518   5.899
 9945SOL     OW30733   0.222   5.550   6.408
 9945SOL    HW130734   0.198   5.578   6.315
 9945SOL    HW230735   0.251   5.630   6.460
 9946SOL     OW30736   5.470   0.344   3.938
 9946SOL    HW130737   5.533   0.267   3.929
 9946SOL    HW230738   5.522   0.429   3.933
 9947SOL     OW30739   6.172   4.233   3.877
 9947SOL    HW130740   6.140   4.296   3.948
 9947SOL    HW230741   6.178   4.141   3.914
 9948SOL     OW30742   5.351   4.187   3.525
 9948SOL    HW130743   5.338   4.090   3.504
 9948SOL    HW230744   5.406   4.229   3.453
 9949SOL     OW30745   6.226   4.854   1.900
 9949SOL    HW130746   6.231   4.768   1.950
 9949SOL    HW230747   6.138   4.861   1.853
 9950SOL     OW30748   3.964   6.261   0.252
 9950SOL    HW130749   3.932   6.356   0.253
 9950SOL    HW230750   4.056   6.257   0.215
 9951SOL     OW30751   5.775   2.917   2.721
 9951SOL    HW130752   5.692   2.879   2.680
 9951SOL    HW230753   5.805   2.858   2.796
 9952SOL     OW30754   0.684   4.842   6.152
 9952SOL    HW130755   0.655   4.762   6.205
 9952SOL    HW230756   0.743   4.812   6.076
 9953SOL     OW30757   5.577   3.256   3.712
 9953SOL    HW130758   5.673   3.234   3.730
 9953SOL    HW230759   5.569   3.352   3.687
 9954SOL     OW30760   5.116   0.888   4.799
 9954SOL    HW130761   5.132   0.961   4.732
 9954SOL    HW230762   5.022   0.895   4.834
 9955SOL     OW30763   0.733   4.974   4.794
 9955SOL    HW130764   0.807   4.909   4.814
 9955SOL    HW230765   0.772   5.057   4.755
 9956SOL     OW30766   0.671   5.892   0.195
 9956SOL    HW130767   0.607   5.846   0.255
 9956SOL    HW230768   0.644   5.987   0.183
 9957SOL     OW30769   5.703   5.625   2.265
 9957SOL    HW130770   5.706   5.725   2.262
 9957SOL    HW230771   5.764   5.591   2.336
 9958SOL     OW30772   3.101   4.315   0.584
 9958SOL    HW130773   3.162   4.283   0.512
 9958SOL    HW230774   3.155   4.351   0.661
 9959SOL     OW30775   3.572   4.228   1.138
 9959SOL    HW130776   3.596   4.131   1.138
 9959SOL    HW230777   3.550   4.257   1.045
 9960SOL     OW30778   0.958   1.043   2.204
 9960SOL    HW130779   1.028   0.971   2.211
 9960SOL    HW230780   0.999   1.131   2.228
 9961SOL     OW30781   1.717   4.242   4.424
 9961SOL    HW130782   1.727   4.233   4.325
 9961SOL    HW230783   1.759   4.164   4.470
 9962SOL     OW30784   6.222   6.374   4.747
 9962SOL    HW130785   6.211   6.398   4.843
 9962SOL    HW230786   6.244   6.456   4.694
 9963SOL     OW30787   3.374   2.347   0.504
 9963SOL    HW130788   3.320   2.332   0.422
 9963SOL    HW230789   3.471   2.335   0.483
 9964SOL     OW30790   5.536   6.505   4.502
 9964SOL    HW130791   5.560   6.563   4.580
 9964SOL    HW230792   5.437   6.490   4.501
 9965SOL     OW30793   4.682   0.151   1.813
 9965SOL    HW130794   4.675   0.147   1.714
 9965SOL    HW230795   4.688   0.058   1.850
 9966SOL     OW30796   6.630   1.323   2.610
 9966SOL    HW130797   6.691   1.386   2.563
 9966SOL    HW230798   6.557   1.374   2.656
 9967SOL     OW30799   0.909   5.392   0.447
 9967SOL    HW130800   0.837   5.325   0.431
 9967SOL    HW230801   0.996   5.355   0.415
 9968SOL     OW30802   3.474   2.989   2.951
 9968SOL    HW130803   3.448   2.945   2.865
 9968SOL    HW230804   3.401   2.978   3.018
 9969SOL     OW30805   1.479   3.217   0.923
 9969SOL    HW130806   1.405   3.209   0.990
 9969SOL    HW230807   1.474   3.306   0.879
 9970SOL     OW30808   6.805   4.245   2.586
 9970SOL    HW130809   6.782   4.148   2.597
 9970SOL    HW230810   6.725   4.301   2.609
 9971SOL     OW30811   2.655   0.047   6.964
 9971SOL    HW130812   2.720   0.121   6.948
 9971SOL    HW230813   2.571   0.064   6.912
 9972SOL     OW30814   6.765   4.989   1.707
 9972SOL    HW130815   6.731   4.895   1.697
 9972SOL    HW230816   6.700   5.042   1.760
 9973SOL     OW30817   5.058   6.501   4.029
 9973SOL    HW130818   5.046   6.600   4.026
 9973SOL    HW230819   5.134   6.474   3.970
 9974SOL     OW30820   2.785   1.083   4.053
 9974SOL    HW130821   2.690   1.066   4.077
 9974SOL    HW230822   2.816   1.012   3.989
 9975SOL     OW30823   6.423   3.913   1.463
 9975SOL    HW130824   6.458   4.000   1.429
 9975SOL    HW230825   6.349   3.882   1.404
 9976SOL     OW30826   2.944   6.301   4.586
 9976SOL    HW130827   2.883   6.319   4.509
 9976SOL    HW230828   2.957   6.202   4.596
 9977SOL     OW30829   6.603   4.792   3.939
 9977SOL    HW130830   6.565   4.824   4.025
 9977SOL    HW230831   6.534   4.742   3.887
 9978SOL     OW30832   6.930   3.120   4.257
 9978SOL    HW130833   6.959   3.055   4.186
 9978SOL    HW230834   7.003   3.129   4.325
 9979SOL     OW30835   1.190   3.371   5.243
 9979SOL    HW130836   1.216   3.345   5.336
 9979SOL    HW230837   1.187   3.471   5.236
 9980SOL     OW30838   3.079   6.489   5.593
 9980SOL    HW130839   3.103   6.583   5.573
 9980SOL    HW230840   3.001   6.462   5.537
 9981SOL     OW30841   3.339   1.684   3.185
 9981SOL    HW130842   3.346   1.608   3.249
 9981SOL    HW230843   3.291   1.653   3.102
 9982SOL     OW30844   6.090   6.920   2.562
 9982SOL    HW130845   6.135   6.977   2.493
 9982SOL    HW230846   5.991   6.919   2.545
 9983SOL     OW30847   6.826   0.762   1.116
 9983SOL    HW130848   6.915   0.761   1.071
 9983SOL    HW230849   6.769   0.688   1.079
 9984SOL     OW30850   3.217   0.492   6.734
 9984SOL    HW130851   3.206   0.509   6.832
 9984SOL    HW230852   3.130   0.511   6.687
 9985SOL     OW30853   1.780   1.997   0.643
 9985SOL    HW130854   1.714   2.001   0.568
 9985SOL    HW230855   1.785   1.903   0.679
 9986SOL     OW30856   5.068   4.032   5.032
 9986SOL    HW130857   4.978   4.039   4.990
 9986SOL    HW230858   5.094   3.936   5.041
 9987SOL     OW30859   0.233   4.238   5.106
 9987SOL    HW130860   0.219   4.154   5.054
 9987SOL    HW230861   0.205   4.223   5.201
 9988SOL     OW30862   6.343   1.238   4.072
 9988SOL    HW130863   6.252   1.280   4.069
 9988SOL    HW230864   6.406   1.298   4.121
 9989SOL     OW30865   1.652   2.560   5.116
 9989SOL    HW130866   1.591   2.522   5.047
 9989SOL    HW230867   1.609   2.554   5.206
 9990SOL     OW30868   0.965   4.364   1.141
 9990SOL    HW130869   0.937   4.282   1.192
 9990SOL    HW230870   0.913   4.369   1.055
 9991SOL     OW30871   3.853   2.197   3.412
 9991SOL    HW130872   3.869   2.188   3.510
 9991SOL    HW230873   3.763   2.162   3.389
 9992SOL     OW30874   6.473   4.781   6.430
 9992SOL    HW130875   6.404   4.709   6.440
 9992SOL    HW230876   6.562   4.748   6.462
 9993SOL     OW30877   1.242   1.123   1.837
 9993SOL    HW130878   1.312   1.060   1.803
 9993SOL    HW230879   1.275   1.217   1.830
 9994SOL     OW30880   5.852   4.494   3.324
 9994SOL    HW130881   5.763   4.540   3.314
 9994SOL    HW230882   5.855   4.415   3.263
 9995SOL     OW30883   5.246   1.816   4.403
 9995SOL    HW130884   5.345   1.799   4.405
 9995SOL    HW230885   5.227   1.895   4.345
 9996SOL     OW30886   3.197   3.011   1.120
 9996SOL    HW130887   3.175   2.931   1.065
 9996SOL    HW230888   3.271   3.063   1.076
 9997SOL     OW30889   2.589   0.838   4.461
 9997SOL    HW130890   2.538   0.915   4.420
 9997SOL    HW230891   2.685   0.843   4.433
 9998SOL     OW30892   6.191   6.375   5.408
 9998SOL    HW130893   6.127   6.428   5.463
 9998SOL    HW230894   6.157   6.369   5.314
 9999SOL     OW30895   0.543   0.742   5.184
 9999SOL    HW130896   0.541   0.680   5.263
 9999SOL    HW230897   0.495   0.826   5.208
10000SOL     OW30898   6.554   4.854   0.861
10000SOL    HW130899   6.462   4.853   0.902
10000SOL    HW230900   6.590   4.761   0.861
10001SOL     OW30901   3.547   0.518   3.707
10001SOL    HW130902   3.628   0.459   3.707
10001SOL    HW230903   3.569   0.604   3.753
10002SOL     OW30904   1.364   2.242   1.753
10002SOL    HW130905   1.272   2.223   1.718
10002SOL    HW230906   1.357   2.284   1.844
10003SOL     OW30907   5.384   3.557   1.167
10003SOL    HW130908   5.407   3.502   1.247
10003SOL    HW230909   5.285   3.565   1.159
10004SOL     OW30910   6.050   3.640   4.297
10004SOL    HW130911   6.069   3.542   4.306
10004SOL    HW230912   5.958   3.659   4.333
10005SOL     OW30913   4.567   6.769   3.192
10005SOL    HW130914   4.533   6.791   3.283
10005SOL    HW230915   4.658   6.810   3.179
10006SOL     OW30916   5.423   2.617   4.431
10006SOL    HW130917   5.458   2.637   4.339
10006SOL    HW230918   5.353   2.685   4.456
10007SOL     OW30919   4.881   5.668   3.769
10007SOL    HW130920   4.943   5.618   3.708
10007SOL    HW230921   4.834   5.739   3.717
10008SOL     OW30922   2.382   6.501   4.254
10008SOL    HW130923   2.421   6.408   4.256
10008SOL    HW230924   2.404   6.548   4.340
10009SOL     OW30925   2.422   4.231   1.776
10009SOL    HW130926   2.400   4.262   1.684
10009SOL    HW230927   2.459   4.307   1.830
10010SOL     OW30928   5.281   0.521   5.375
10010SOL    HW130929   5.182   0.532   5.382
10010SOL    HW230930   5.321   0.527   5.467
10011SOL     OW30931   6.080   6.701   3.718
10011SOL    HW130932   6.140   6.773   3.684
10011SOL    HW230933   6.120   6.659   3.799
10012SOL     OW30934   4.741   1.713   5.032
10012SOL    HW130935   4.749   1.693   5.129
10012SOL    HW230936   4.694   1.638   4.985
10013SOL     OW30937   1.683   0.743   1.304
10013SOL    HW130938   1.675   0.827   1.249
10013SOL    HW230939   1.605   0.683   1.284
10014SOL     OW30940   1.356   4.832   5.777
10014SOL    HW130941   1.391   4.879   5.696
10014SOL    HW230942   1.275   4.880   5.811
10015SOL     OW30943   2.454   5.606   6.473
10015SOL    HW130944   2.404   5.543   6.413
10015SOL    HW230945   2.425   5.700   6.455
10016SOL     OW30946   2.485   1.412   4.967
10016SOL    HW130947   2.579   1.401   4.934
10016SOL    HW230948   2.429   1.335   4.934
10017SOL     OW30949   6.392   1.918   3.134
10017SOL    HW130950   6.306   1.912   3.082
10017SOL    HW230951   6.469   1.900   3.072
10018SOL     OW30952   4.221   6.936   6.231
10018SOL    HW130953   4.156   6.908   6.302
10018SOL    HW230954   4.175   6.936   6.142
10019SOL     OW30955   0.362   0.882   3.443
10019SOL    HW130956   0.396   0.893   3.349
10019SOL    HW230957   0.440   0.872   3.505
10020SOL     OW30958   1.264   3.877   0.428
10020SOL    HW130959   1.200   3.867   0.352
10020SOL    HW230960   1.349   3.919   0.396
10021SOL     OW30961   5.054   2.824   1.232
10021SOL    HW130962   5.075   2.787   1.323
10021SOL    HW230963   5.137   2.826   1.177
10022SOL     OW30964   2.551   1.127   5.976
10022SOL    HW130965   2.577   1.033   5.997
10022SOL    HW230966   2.471   1.127   5.915
10023SOL     OW30967   0.870   2.948   0.272
10023SOL    HW130968   0.952   2.981   0.319
10023SOL    HW230969   0.895   2.910   0.183
10024SOL     OW30970   0.760   3.737   2.302
10024SOL    HW130971   0.723   3.824   2.336
10024SOL    HW230972   0.726   3.720   2.210
10025SOL     OW30973   1.565   1.562   0.904
10025SOL    HW130974   1.527   1.618   0.978
10025SOL    HW230975   1.491   1.534   0.842
10026SOL     OW30976   5.942   0.733   4.279
10026SOL    HW130977   5.942   0.681   4.364
10026SOL    HW230978   6.036   0.753   4.252
10027SOL     OW30979   6.112   2.744   6.027
10027SOL    HW130980   6.098   2.728   6.125
10027SOL    HW230981   6.181   2.815   6.015
10028SOL     OW30982   1.264   1.923   1.207
10028SOL    HW130983   1.172   1.925   1.170
10028SOL    HW230984   1.273   1.845   1.269
10029SOL     OW30985   3.649   1.435   4.676
10029SOL    HW130986   3.743   1.405   4.662
10029SOL    HW230987   3.586   1.363   4.647
10030SOL     OW30988   0.729   1.235   1.604
10030SOL    HW130989   0.819   1.237   1.560
10030SOL    HW230990   0.700   1.140   1.617
10031SOL     OW30991   0.533   5.223   3.025
10031SOL    HW130992   0.619   5.244   3.071
10031SOL    HW230993   0.456   5.254   3.082
10032SOL     OW30994   3.788   2.153   5.081
10032SOL    HW130995   3.883   2.153   5.114
10032SOL    HW230996   3.783   2.107   4.993
10033SOL     OW30997   6.305   3.036   4.072
10033SOL    HW130998   6.335   3.003   4.162
10033SOL    HW230999   6.205   3.040   4.070
10034SOL     OW31000   3.990   6.688   6.037
10034SOL    HW131001   4.026   6.635   6.113
10034SOL    HW231002   3.926   6.632   5.984
10035SOL     OW31003   0.228   6.101   4.186
10035SOL    HW131004   0.187   6.046   4.259
10035SOL    HW231005   0.326   6.081   4.180
10036SOL     OW31006   6.388   6.991   0.189
10036SOL    HW131007   6.301   6.965   0.149
10036SOL    HW231008   6.375   0.001   0.285
10037SOL     OW31009   6.882   0.456   1.406
10037SOL    HW131010   6.946   0.390   1.368
10037SOL    HW231011   6.791   0.415   1.410
10038SOL     OW31012   5.700   0.010   1.437
10038SOL    HW131013   5.755   7.003   1.357
10038SOL    HW231014   5.628   6.959   1.450
10039SOL     OW31015   3.680   0.854   3.040
10039SOL    HW131016   3.736   0.924   2.996
10039SOL    HW231017   3.737   0.774   3.059
10040SOL     OW31018   0.909   1.607   0.532
10040SOL    HW131019   0.902   1.550   0.614
10040SOL    HW231020   0.878   1.700   0.554
10041SOL     OW31021   0.646   6.456   0.018
10041SOL    HW131022   0.590   6.531   0.053
10041SOL    HW231023   0.590   6.397   6.976
10042SOL     OW31024   6.351   1.812   4.341
10042SOL    HW131025   6.380   1.866   4.262
10042SOL    HW231026   6.291   1.738   4.311
10043SOL     OW31027   2.341   3.206   5.362
10043SOL    HW131028   2.248   3.171   5.367
10043SOL    HW231029   2.397   3.142   5.309
10044SOL     OW31030   3.973   0.851   6.045
10044SOL    HW131031   3.936   0.796   6.120
10044SOL    HW231032   3.935   0.819   5.958
10045SOL     OW31033   2.587   0.216   1.386
10045SOL    HW131034   2.685   0.205   1.369
10045SOL    HW231035   2.564   0.179   1.475
10046SOL     OW31036   0.865   6.533   6.902
10046SOL    HW131037   0.934   6.606   6.907
10046SOL    HW231038   0.796   6.547   6.973
10047SOL     OW31039   1.767   4.283   1.235
10047SOL    HW131040   1.691   4.323   1.185
10047SOL    HW231041   1.736   4.203   1.285
10048SOL     OW31042   6.641   3.270   1.057
10048SOL    HW131043   6.715   3.210   1.028
10048SOL    HW231044   6.568   3.268   0.989
10049SOL     OW31045   6.581   1.935   4.495
10049SOL    HW131046   6.601   2.012   4.434
10049SOL    HW231047   6.666   1.900   4.534
10050SOL     OW31048   0.373   1.837   5.787
10050SOL    HW131049   0.435   1.789   5.848
10050SOL    HW231050   0.317   1.900   5.840
10051SOL     OW31051   1.569   0.563   2.218
10051SOL    HW131052   1.519   0.506   2.282
10051SOL    HW231053   1.542   0.658   2.229
10052SOL     OW31054   0.721   6.996   4.423
10052SOL    HW131055   0.801   0.002   4.368
10052SOL    HW231056   0.669   0.063   4.442
10053SOL     OW31057   5.802   5.410   1.979
10053SOL    HW131058   5.771   5.344   2.047
10053SOL    HW231059   5.897   5.392   1.955
10054SOL     OW31060   4.794   4.618   3.578
10054SOL    HW131061   4.744   4.546   3.625
10054SOL    HW231062   4.798   4.699   3.636
10055SOL     OW31063   1.970   1.579   6.804
10055SOL    HW131064   1.949   1.671   6.837
10055SOL    HW231065   1.951   1.573   6.706
10056SOL     OW31066   4.827   3.090   4.624
10056SOL    HW131067   4.836   3.103   4.525
10056SOL    HW231068   4.852   2.996   4.648
10057SOL     OW31069   5.965   4.114   4.828
10057SOL    HW131070   5.943   4.182   4.758
10057SOL    HW231071   6.036   4.052   4.794
10058SOL     OW31072   5.697   3.849   4.137
10058SOL    HW131073   5.743   3.766   4.107
10058SOL    HW231074   5.602   3.848   4.106
10059SOL     OW31075   5.285   6.400   6.094
10059SOL    HW131076   5.286   6.375   6.191
10059SOL    HW231077   5.319   6.324   6.039
10060SOL     OW31078   3.491   1.259   1.938
10060SOL    HW131079   3.480   1.347   1.985
10060SOL    HW231080   3.564   1.267   1.870
10061SOL     OW31081   4.174   0.175   3.236
10061SOL    HW131082   4.168   0.110   3.160
10061SOL    HW231083   4.088   0.177   3.286
10062SOL     OW31084   6.274   6.738   4.246
10062SOL    HW131085   6.202   6.807   4.259
10062SOL    HW231086   6.335   6.766   4.172
10063SOL     OW31087   4.214   2.298   2.572
10063SOL    HW131088   4.307   2.332   2.560
10063SOL    HW231089   4.174   2.339   2.655
10064SOL     OW31090   2.103   6.251   2.240
10064SOL    HW131091   2.100   6.173   2.177
10064SOL    HW231092   2.184   6.242   2.299
10065SOL     OW31093   6.605   1.824   1.110
10065SOL    HW131094   6.701   1.854   1.103
10065SOL    HW231095   6.545   1.903   1.099
10066SOL     OW31096   5.780   4.341   3.567
10066SOL    HW131097   5.800   4.420   3.509
10066SOL    HW231098   5.845   4.268   3.548
10067SOL     OW31099   5.474   3.462   5.283
10067SOL    HW131100   5.475   3.367   5.315
10067SOL    HW231101   5.493   3.523   5.359
10068SOL     OW31102   2.141   4.559   2.960
10068SOL    HW131103   2.092   4.475   2.936
10068SOL    HW231104   2.075   4.632   2.977
10069SOL     OW31105   3.078   5.467   1.012
10069SOL    HW131106   3.022   5.408   0.954
10069SOL    HW231107   3.165   5.422   1.030
10070SOL     OW31108   5.243   0.393   6.969
10070SOL    HW131109   5.310   0.319   6.980
10070SOL    HW231110   5.278   0.460   6.904
10071SOL     OW31111   5.230   1.556   4.637
10071SOL    HW131112   5.319   1.582   4.674
10071SOL    HW231113   5.241   1.530   4.541
10072SOL     OW31114   5.731   3.175   1.960
10072SOL    HW131115   5.685   3.144   1.877
10072SOL    HW231116   5.691   3.261   1.991
10073SOL     OW31117   5.625   5.631   5.480
10073SOL    HW131118   5.525   5.639   5.476
10073SOL    HW231119   5.661   5.613   5.389
10074SOL     OW31120   2.065   4.544   1.206
10074SOL    HW131121   2.078   4.632   1.251
10074SOL    HW231122   2.039   4.475   1.273
10075SOL     OW31123   0.639   3.519   1.688
10075SOL    HW131124   0.643   3.476   1.779
10075SOL    HW231125   0.650   3.449   1.618
10076SOL     OW31126   6.160   4.858   3.860
10076SOL    HW131127   6.252   4.874   3.895
10076SOL    HW231128   6.157   4.879   3.762
10077SOL     OW31129   4.426   3.907   6.924
10077SOL    HW131130   4.356   3.963   6.881
10077SOL    HW231131   4.482   3.965   6.984
10078SOL     OW31132   5.780   6.282   3.442
10078SOL    HW131133   5.735   6.195   3.463
10078SOL    HW231134   5.869   6.264   3.402
10079SOL     OW31135   5.989   4.889   3.139
10079SOL    HW131136   6.063   4.942   3.182
10079SOL    HW231137   6.008   4.791   3.148
10080SOL     OW31138   5.157   2.878   4.441
10080SOL    HW131139   5.097   2.879   4.361
10080SOL    HW231140   5.115   2.824   4.514
10081SOL     OW31141   1.522   5.160   0.840
10081SOL    HW131142   1.437   5.157   0.893
10081SOL    HW231143   1.500   5.161   0.742
10082SOL     OW31144   6.639   4.295   1.977
10082SOL    HW131145   6.590   4.225   2.028
10082SOL    HW231146   6.687   4.254   1.900
10083SOL     OW31147   3.107   5.597   2.590
10083SOL    HW131148   3.096   5.603   2.689
10083SOL    HW231149   3.123   5.688   2.552
10084SOL     OW31150   1.755   3.867   4.377
10084SOL    HW131151   1.666   3.840   4.414
10084SOL    HW231152   1.804   3.922   4.446
10085SOL     OW31153   3.390   6.685   1.850
10085SOL    HW131154   3.452   6.693   1.928
10085SOL    HW231155   3.441   6.696   1.765
10086SOL     OW31156   2.480   1.164   2.983
10086SOL    HW131157   2.507   1.240   3.041
10086SOL    HW231158   2.453   1.087   3.041
10087SOL     OW31159   1.202   5.443   6.768
10087SOL    HW131160   1.109   5.465   6.737
10087SOL    HW231161   1.261   5.522   6.756
10088SOL     OW31162   5.277   1.828   0.874
10088SOL    HW131163   5.210   1.863   0.809
10088SOL    HW231164   5.353   1.892   0.882
10089SOL     OW31165   3.558   6.942   3.463
10089SOL    HW131166   3.601   6.852   3.461
10089SOL    HW231167   3.490   6.945   3.536
10090SOL     OW31168   3.434   6.187   2.994
10090SOL    HW131169   3.396   6.231   3.076
10090SOL    HW231170   3.534   6.192   2.997
10091SOL     OW31171   4.582   6.031   3.493
10091SOL    HW131172   4.599   6.111   3.550
10091SOL    HW231173   4.515   5.972   3.538
10092SOL     OW31174   6.155   1.179   2.087
10092SOL    HW131175   6.238   1.188   2.032
10092SOL    HW231176   6.083   1.238   2.049
10093SOL     OW31177   4.303   4.201   6.097
10093SOL    HW131178   4.329   4.124   6.039
10093SOL    HW231179   4.303   4.285   6.043
10094SOL     OW31180   4.319   3.125   0.081
10094SOL    HW131181   4.286   3.044   0.033
10094SOL    HW231182   4.310   3.205   0.023
10095SOL     OW31183   4.378   2.677   5.267
10095SOL    HW131184   4.320   2.604   5.233
10095SOL    HW231185   4.460   2.684   5.211
10096SOL     OW31186   6.025   4.707   1.598
10096SOL    HW131187   5.943   4.705   1.540
10096SOL    HW231188   6.089   4.636   1.568
10097SOL     OW31189   0.568   0.444   1.013
10097SOL    HW131190   0.522   0.461   1.100
10097SOL    HW231191   0.656   0.491   1.012
10098SOL     OW31192   3.834   4.751   0.556
10098SOL    HW131193   3.766   4.736   0.628
10098SOL    HW231194   3.806   4.828   0.499
10099SOL     OW31195   0.204   6.390   3.033
10099SOL    HW131196   0.225   6.380   3.130
10099SOL    HW231197   0.289   6.403   2.982
10100SOL     OW31198   5.766   5.586   3.944
10100SOL    HW131199   5.863   5.580   3.923
10100SOL    HW231200   5.743   5.680   3.969
10101SOL     OW31201   6.886   2.249   6.170
10101SOL    HW131202   6.893   2.152   6.147
10101SOL    HW231203   6.820   2.262   6.243
10102SOL     OW31204   6.780   5.295   3.873
10102SOL    HW131205   6.798   5.200   3.847
10102SOL    HW231206   6.853   5.327   3.932
10103SOL     OW31207   0.590   0.679   6.620
10103SOL    HW131208   0.633   0.621   6.690
10103SOL    HW231209   0.520   0.626   6.572
10104SOL     OW31210   2.991   1.618   4.446
10104SOL    HW131211   3.008   1.645   4.541
10104SOL    HW231212   3.071   1.642   4.390
10105SOL     OW31213   3.594   1.506   4.379
10105SOL    HW131214   3.503   1.499   4.418
10105SOL    HW231215   3.587   1.530   4.282
10106SOL     OW31216   6.975   3.603   1.974
10106SOL    HW131217   0.019   3.553   2.036
10106SOL    HW231218   6.897   3.545   1.950
10107SOL     OW31219   4.789   5.761   4.944
10107SOL    HW131220   4.833   5.851   4.946
10107SOL    HW231221   4.693   5.770   4.967
10108SOL     OW31222   3.451   2.054   4.783
10108SOL    HW131223   3.460   2.140   4.733
10108SOL    HW231224   3.360   2.050   4.826
10109SOL     OW31225   1.505   2.931   0.911
10109SOL    HW131226   1.519   3.028   0.928
10109SOL    HW231227   1.581   2.895   0.856
10110SOL     OW31228   6.388   6.095   1.931
10110SOL    HW131229   6.442   6.122   1.851
10110SOL    HW231230   6.428   6.136   2.013
10111SOL     OW31231   6.434   2.402   1.709
10111SOL    HW131232   6.492   2.334   1.665
10111SOL    HW231233   6.347   2.359   1.736
10112SOL     OW31234   0.071   3.193   3.668
10112SOL    HW131235   6.988   3.189   3.665
10112SOL    HW231236   0.100   3.224   3.759
10113SOL     OW31237   6.842   6.608   5.871
10113SOL    HW131238   6.925   6.628   5.820
10113SOL    HW231239   6.861   6.613   5.969
10114SOL     OW31240   6.143   4.183   1.429
10114SOL    HW131241   6.061   4.146   1.387
10114SOL    HW231242   6.177   4.118   1.497
10115SOL     OW31243   2.598   1.795   6.701
10115SOL    HW131244   2.532   1.870   6.710
10115SOL    HW231245   2.650   1.807   6.616
10116SOL     OW31246   1.205   0.205   5.848
10116SOL    HW131247   1.164   0.113   5.850
10116SOL    HW231248   1.302   0.197   5.825
10117SOL     OW31249   0.861   4.436   0.887
10117SOL    HW131250   0.802   4.512   0.914
10117SOL    HW231251   0.853   4.422   0.788
10118SOL     OW31252   3.860   5.600   3.313
10118SOL    HW131253   3.840   5.541   3.235
10118SOL    HW231254   3.821   5.691   3.297
10119SOL     OW31255   5.736   5.570   6.759
10119SOL    HW131256   5.749   5.491   6.818
10119SOL    HW231257   5.801   5.642   6.783
10120SOL     OW31258   2.294   2.342   2.341
10120SOL    HW131259   2.303   2.243   2.330
10120SOL    HW231260   2.269   2.363   2.435
10121SOL     OW31261   6.344   5.846   2.022
10121SOL    HW131262   6.351   5.944   2.004
10121SOL    HW231263   6.290   5.832   2.106
10122SOL     OW31264   1.835   6.881   4.127
10122SOL    HW131265   1.883   6.956   4.080
10122SOL    HW231266   1.880   6.794   4.105
10123SOL     OW31267   5.937   6.311   6.630
10123SOL    HW131268   6.031   6.306   6.597
10123SOL    HW231269   5.923   6.397   6.679
10124SOL     OW31270   0.325   4.760   3.459
10124SOL    HW131271   0.347   4.801   3.548
10124SOL    HW231272   0.374   4.810   3.387
10125SOL     OW31273   2.218   2.399   4.196
10125SOL    HW131274   2.201   2.487   4.151
10125SOL    HW231275   2.142   2.337   4.177
10126SOL     OW31276   6.911   6.134   4.697
10126SOL    HW131277   6.892   6.056   4.636
10126SOL    HW231278   6.944   6.211   4.643
10127SOL     OW31279   2.625   0.549   4.943
10127SOL    HW131280   2.634   0.561   4.844
10127SOL    HW231281   2.716   0.538   4.984
10128SOL     OW31282   3.357   0.663   0.605
10128SOL    HW131283   3.306   0.656   0.691
10128SOL    HW231284   3.302   0.711   0.537
10129SOL     OW31285   6.817   2.296   5.677
10129SOL    HW131286   6.890   2.364   5.667
10129SOL    HW231287   6.747   2.313   5.607
10130SOL     OW31288   0.638   2.894   3.411
10130SOL    HW131289   0.677   2.852   3.493
10130SOL    HW231290   0.555   2.943   3.436
10131SOL     OW31291   2.600   0.627   4.686
10131SOL    HW131292   2.646   0.670   4.608
10131SOL    HW231293   2.501   0.625   4.670
10132SOL     OW31294   5.872   0.921   1.926
10132SOL    HW131295   5.858   0.977   2.007
10132SOL    HW231296   5.966   0.887   1.924
10133SOL     OW31297   4.789   5.357   1.362
10133SOL    HW131298   4.851   5.409   1.303
10133SOL    HW231299   4.727   5.303   1.306
10134SOL     OW31300   6.278   1.062   2.628
10134SOL    HW131301   6.344   1.121   2.673
10134SOL    HW231302   6.322   1.015   2.552
10135SOL     OW31303   5.870   6.677   3.317
10135SOL    HW131304   5.925   6.754   3.284
10135SOL    HW231305   5.820   6.637   3.240
10136SOL     OW31306   5.242   0.175   3.055
10136SOL    HW131307   5.267   0.229   3.135
10136SOL    HW231308   5.227   0.080   3.083
10137SOL     OW31309   5.978   5.627   2.117
10137SOL    HW131310   5.888   5.586   2.136
10137SOL    HW231311   6.037   5.559   2.074
10138SOL     OW31312   0.253   1.465   1.655
10138SOL    HW131313   0.319   1.449   1.582
10138SOL    HW231314   0.171   1.409   1.639
10139SOL     OW31315   4.291   2.228   0.515
10139SOL    HW131316   4.278   2.143   0.568
10139SOL    HW231317   4.218   2.293   0.538
10140SOL     OW31318   6.037   6.521   3.490
10140SOL    HW131319   5.960   6.565   3.443
10140SOL    HW231320   6.062   6.574   3.571
10141SOL     OW31321   0.750   1.771   5.633
10141SOL    HW131322   0.775   1.818   5.548
10141SOL    HW231323   0.719   1.839   5.700
10142SOL     OW31324   3.913   5.982   1.819
10142SOL    HW131325   3.821   5.965   1.856
10142SOL    HW231326   3.964   6.039   1.884
10143SOL     OW31327   0.629   3.343   6.431
10143SOL    HW131328   0.661   3.433   6.402
10143SOL    HW231329   0.646   3.333   6.529
10144SOL     OW31330   4.759   0.096   2.838
10144SOL    HW131331   4.733   0.171   2.777
10144SOL    HW231332   4.844   0.120   2.885
10145SOL     OW31333   6.139   1.141   5.048
10145SOL    HW131334   6.055   1.115   5.001
10145SOL    HW231335   6.132   1.235   5.081
10146SOL     OW31336   1.902   1.223   5.636
10146SOL    HW131337   1.922   1.141   5.582
10146SOL    HW231338   1.830   1.275   5.591
10147SOL     OW31339   4.070   4.498   6.837
10147SOL    HW131340   4.163   4.490   6.873
10147SOL    HW231341   4.049   4.419   6.780
10148SOL     OW31342   6.522   5.744   6.381
10148SOL    HW131343   6.426   5.716   6.374
10148SOL    HW231344   6.527   5.841   6.406
10149SOL     OW31345   3.472   2.922   4.613
10149SOL    HW131346   3.448   2.895   4.706
10149SOL    HW231347   3.572   2.922   4.604
10150SOL     OW31348   6.670   4.021   6.829
10150SOL    HW131349   6.628   4.071   6.753
10150SOL    HW231350   6.603   4.010   6.902
10151SOL     OW31351   0.426   0.170   6.920
10151SOL    HW131352   0.511   0.209   6.883
10151SOL    HW231353   0.359   0.243   6.932
10152SOL     OW31354   3.273   6.929   4.248
10152SOL    HW131355   3.253   6.991   4.324
10152SOL    HW231356   3.188   6.892   4.211
10153SOL     OW31357   4.052   4.518   0.185
10153SOL    HW131358   4.011   4.498   0.274
10153SOL    HW231359   3.991   4.485   0.113
10154SOL     OW31360   4.479   5.085   6.252
10154SOL    HW131361   4.533   5.162   6.288
10154SOL    HW231362   4.527   5.045   6.174
10155SOL     OW31363   4.816   2.816   4.664
10155SOL    HW131364   4.785   2.821   4.760
10155SOL    HW231365   4.741   2.781   4.607
10156SOL     OW31366   3.101   1.970   6.717
10156SOL    HW131367   3.141   1.906   6.651
10156SOL    HW231368   3.033   1.922   6.772
10157SOL     OW31369   0.345   5.532   2.548
10157SOL    HW131370   0.436   5.571   2.539
10157SOL    HW231371   0.277   5.605   2.549
10158SOL     OW31372   0.478   4.685   6.011
10158SOL    HW131373   0.519   4.664   6.100
10158SOL    HW231374   0.549   4.711   5.947
10159SOL     OW31375   4.203   3.004   1.711
10159SOL    HW131376   4.194   2.940   1.635
10159SOL    HW231377   4.117   3.010   1.761
10160SOL     OW31378   6.870   4.729   2.574
10160SOL    HW131379   6.800   4.686   2.517
10160SOL    HW231380   6.846   4.824   2.590
10161SOL     OW31381   6.766   2.680   0.086
10161SOL    HW131382   6.845   2.701   0.028
10161SOL    HW231383   6.701   2.756   0.083
10162SOL     OW31384   1.936   2.107   2.453
10162SOL    HW131385   1.978   2.039   2.513
10162SOL    HW231386   1.948   2.199   2.492
10163SOL     OW31387   4.207   5.374   4.438
10163SOL    HW131388   4.230   5.277   4.429
10163SOL    HW231389   4.140   5.398   4.368
10164SOL     OW31390   0.368   1.838   3.450
10164SOL    HW131391   0.439   1.786   3.497
10164SOL    HW231392   0.407   1.882   3.369
10165SOL     OW31393   1.968   3.013   3.460
10165SOL    HW131394   1.899   3.040   3.527
10165SOL    HW231395   2.059   3.015   3.502
10166SOL     OW31396   3.511   6.414   4.290
10166SOL    HW131397   3.515   6.314   4.298
10166SOL    HW231398   3.417   6.445   4.298
10167SOL     OW31399   3.511   2.045   0.279
10167SOL    HW131400   3.511   2.073   0.375
10167SOL    HW231401   3.479   1.950   0.271
10168SOL     OW31402   0.314   1.207   6.609
10168SOL    HW131403   0.264   1.271   6.551
10168SOL    HW231404   0.263   1.121   6.616
10169SOL     OW31405   4.761   4.723   2.578
10169SOL    HW131406   4.833   4.655   2.592
10169SOL    HW231407   4.764   4.790   2.652
10170SOL     OW31408   4.414   6.988   0.125
10170SOL    HW131409   4.470   0.029   0.065
10170SOL    HW231410   4.319   0.004   0.122
10171SOL     OW31411   1.257   4.962   2.845
10171SOL    HW131412   1.285   4.942   2.938
10171SOL    HW231413   1.199   4.888   2.811
10172SOL     OW31414   0.147   0.061   3.392
10172SOL    HW131415   0.073   0.092   3.451
10172SOL    HW231416   0.205   0.139   3.368
10173SOL     OW31417   4.824   2.628   3.734
10173SOL    HW131418   4.773   2.581   3.806
10173SOL    HW231419   4.909   2.578   3.715
10174SOL     OW31420   3.914   5.940   1.121
10174SOL    HW131421   3.952   6.011   1.180
10174SOL    HW231422   3.819   5.964   1.098
10175SOL     OW31423   6.546   6.974   4.533
10175SOL    HW131424   6.534   0.053   4.508
10175SOL    HW231425   6.638   6.960   4.570
10176SOL     OW31426   0.029   1.644   4.829
10176SOL    HW131427   6.996   1.635   4.743
10176SOL    HW231428   6.998   1.593   4.901
10177SOL     OW31429   3.059   0.437   4.808
10177SOL    HW131430   3.123   0.363   4.832
10177SOL    HW231431   3.062   0.507   4.878
10178SOL     OW31432   5.940   1.371   2.049
10178SOL    HW131433   5.928   1.456   1.998
10178SOL    HW231434   5.902   1.382   2.141
10179SOL     OW31435   6.952   6.044   1.044
10179SOL    HW131436   6.891   5.965   1.050
10179SOL    HW231437   6.926   6.112   1.113
10180SOL     OW31438   2.274   0.145   6.080
10180SOL    HW131439   2.270   0.074   6.010
10180SOL    HW231440   2.369   0.173   6.095
10181SOL     OW31441   0.057   4.262   2.527
10181SOL    HW131442   6.975   4.266   2.546
10181SOL    HW231443   0.092   4.354   2.508
10182SOL     OW31444   2.691   6.852   6.418
10182SOL    HW131445   2.611   6.822   6.367
10182SOL    HW231446   2.669   6.855   6.516
10183SOL     OW31447   3.772   6.249   6.636
10183SOL    HW131448   3.728   6.176   6.585
10183SOL    HW231449   3.866   6.222   6.659
10184SOL     OW31450   5.333   2.842   4.102
10184SOL    HW131451   5.315   2.937   4.127
10184SOL    HW231452   5.431   2.827   4.094
10185SOL     OW31453   2.730   4.764   1.748
10185SOL    HW131454   2.750   4.724   1.837
10185SOL    HW231455   2.754   4.700   1.675
10186SOL     OW31456   3.568   3.109   2.045
10186SOL    HW131457   3.571   3.009   2.047
10186SOL    HW231458   3.566   3.144   2.139
10187SOL     OW31459   1.631   3.447   4.635
10187SOL    HW131460   1.670   3.410   4.720
10187SOL    HW231461   1.642   3.547   4.635
10188SOL     OW31462   2.692   6.837   0.106
10188SOL    HW131463   2.678   6.930   0.071
10188SOL    HW231464   2.660   6.771   0.038
10189SOL     OW31465   1.425   1.589   5.376
10189SOL    HW131466   1.477   1.631   5.449
10189SOL    HW231467   1.365   1.657   5.334
10190SOL     OW31468   2.642   4.132   1.126
10190SOL    HW131469   2.619   4.211   1.069
10190SOL    HW231470   2.620   4.047   1.077
10191SOL     OW31471   6.561   0.402   6.805
10191SOL    HW131472   6.472   0.395   6.760
10191SOL    HW231473   6.547   0.414   6.903
10192SOL     OW31474   3.002   0.904   3.900
10192SOL    HW131475   2.915   0.873   3.862
10192SOL    HW231476   3.078   0.858   3.852
10193SOL     OW31477   3.533   3.346   4.243
10193SOL    HW131478   3.489   3.258   4.230
10193SOL    HW231479   3.570   3.378   4.156
10194SOL     OW31480   3.110   6.138   3.472
10194SOL    HW131481   3.207   6.117   3.483
10194SOL    HW231482   3.095   6.236   3.488
10195SOL     OW31483   5.481   6.560   1.776
10195SOL    HW131484   5.562   6.505   1.758
10195SOL    HW231485   5.438   6.587   1.690
10196SOL     OW31486   4.744   4.673   4.576
10196SOL    HW131487   4.670   4.610   4.599
10196SOL    HW231488   4.708   4.747   4.519
10197SOL     OW31489   5.840   1.973   2.311
10197SOL    HW131490   5.805   2.032   2.239
10197SOL    HW231491   5.768   1.911   2.343
10198SOL     OW31492   3.469   1.477   2.131
10198SOL    HW131493   3.484   1.573   2.156
10198SOL    HW231494   3.389   1.442   2.180
10199SOL     OW31495   1.403   1.774   6.868
10199SOL    HW131496   1.452   1.802   6.951
10199SOL    HW231497   1.465   1.723   6.808
10200SOL     OW31498   4.161   6.874   4.016
10200SOL    HW131499   4.238   6.930   4.047
10200SOL    HW231500   4.115   6.834   4.095
10201SOL     OW31501   0.463   5.016   2.459
10201SOL    HW131502   0.373   4.978   2.440
10201SOL    HW231503   0.453   5.110   2.493
10202SOL     OW31504   1.607   3.218   3.588
10202SOL    HW131505   1.698   3.192   3.620
10202SOL    HW231506   1.562   3.139   3.547
10203SOL     OW31507   6.591   2.463   1.443
10203SOL    HW131508   6.654   2.498   1.512
10203SOL    HW231509   6.518   2.529   1.427
10204SOL     OW31510   1.389   5.973   3.939
10204SOL    HW131511   1.397   6.007   3.845
10204SOL    HW231512   1.293   5.952   3.958
10205SOL     OW31513   3.523   6.698   1.606
10205SOL    HW131514   3.575   6.747   1.536
10205SOL    HW231515   3.568   6.611   1.626
10206SOL     OW31516   5.986   5.807   6.467
10206SOL    HW131517   5.919   5.875   6.498
10206SOL    HW231518   5.978   5.795   6.368
10207SOL     OW31519   3.102   1.439   2.050
10207SOL    HW131520   3.023   1.441   1.989
10207SOL    HW231521   3.182   1.405   2.000
10208SOL     OW31522   1.165   2.256   6.316
10208SOL    HW131523   1.211   2.239   6.229
10208SOL    HW231524   1.229   2.297   6.381
10209SOL     OW31525   3.967   6.603   0.578
10209SOL    HW131526   3.972   6.504   0.570
10209SOL    HW231527   4.059   6.640   0.593
10210SOL     OW31528   4.142   6.445   6.588
10210SOL    HW131529   4.128   6.420   6.684
10210SOL    HW231530   4.198   6.528   6.583
10211SOL     OW31531   3.641   4.936   4.530
10211SOL    HW131532   3.631   4.844   4.492
10211SOL    HW231533   3.639   4.931   4.630
10212SOL     OW31534   6.547   5.632   5.579
10212SOL    HW131535   6.624   5.641   5.516
10212SOL    HW231536   6.514   5.723   5.605
10213SOL     OW31537   3.391   0.260   4.736
10213SOL    HW131538   3.478   0.262   4.685
10213SOL    HW231539   3.323   0.314   4.687
10214SOL     OW31540   0.017   0.097   0.445
10214SOL    HW131541   7.010   0.121   0.351
10214SOL    HW231542   0.097   0.036   0.445
10215SOL     OW31543   4.555   2.286   0.057
10215SOL    HW131544   4.625   2.357   0.065
10215SOL    HW231545   4.536   2.247   0.147
10216SOL     OW31546   4.981   0.214   2.934
10216SOL    HW131547   4.953   0.309   2.919
10216SOL    HW231548   5.077   0.213   2.964
10217SOL     OW31549   2.598   1.826   5.987
10217SOL    HW131550   2.606   1.801   5.890
10217SOL    HW231551   2.505   1.856   6.006
10218SOL     OW31552   3.645   0.645   5.742
10218SOL    HW131553   3.743   0.665   5.733
10218SOL    HW231554   3.605   0.702   5.814
10219SOL     OW31555   6.643   5.266   1.061
10219SOL    HW131556   6.682   5.269   0.969
10219SOL    HW231557   6.717   5.277   1.128
10220SOL     OW31558   4.430   2.614   6.634
10220SOL    HW131559   4.394   2.662   6.554
10220SOL    HW231560   4.399   2.518   6.632
10221SOL     OW31561   1.807   0.318   4.572
10221SOL    HW131562   1.773   0.273   4.655
10221SOL    HW231563   1.736   0.317   4.502
10222SOL     OW31564   2.652   5.052   5.410
10222SOL    HW131565   2.574   5.057   5.347
10222SOL    HW231566   2.737   5.070   5.360
10223SOL     OW31567   2.558   5.877   5.601
10223SOL    HW131568   2.496   5.947   5.636
10223SOL    HW231569   2.602   5.830   5.678
10224SOL     OW31570   4.050   5.651   5.305
10224SOL    HW131571   3.984   5.693   5.367
10224SOL    HW231572   4.133   5.706   5.302
10225SOL     OW31573   4.929   0.999   5.218
10225SOL    HW131574   4.991   1.019   5.294
10225SOL    HW231575   4.899   1.085   5.177
10226SOL     OW31576   6.391   2.384   6.614
10226SOL    HW131577   6.484   2.391   6.650
10226SOL    HW231578   6.332   2.345   6.684
10227SOL     OW31579   4.721   5.047   5.237
10227SOL    HW131580   4.707   5.124   5.299
10227SOL    HW231581   4.810   5.005   5.255
10228SOL     OW31582   1.032   2.733   1.377
10228SOL    HW131583   1.023   2.736   1.277
10228SOL    HW231584   1.125   2.705   1.401
10229SOL     OW31585   2.727   0.544   2.085
10229SOL    HW131586   2.657   0.488   2.042
10229SOL    HW231587   2.725   0.636   2.046
10230SOL     OW31588   5.369   0.050   3.459
10230SOL    HW131589   5.391   0.119   3.528
10230SOL    HW231590   5.320   0.094   3.383
10231SOL     OW31591   5.353   0.236   4.696
10231SOL    HW131592   5.301   0.306   4.648
10231SOL    HW231593   5.294   0.158   4.716
10232SOL     OW31594   4.070   1.896   2.742
10232SOL    HW131595   4.090   1.816   2.686
10232SOL    HW231596   3.972   1.918   2.735
10233SOL     OW31597   5.079   6.834   4.820
10233SOL    HW131598   5.152   6.785   4.867
10233SOL    HW231599   5.098   6.932   4.824
10234SOL     OW31600   3.454   4.070   0.916
10234SOL    HW131601   3.354   4.074   0.912
10234SOL    HW231602   3.484   4.047   1.009
10235SOL     OW31603   5.080   6.509   6.896
10235SOL    HW131604   5.040   6.425   6.858
10235SOL    HW231605   5.028   6.537   6.976
10236SOL     OW31606   0.995   5.210   1.307
10236SOL    HW131607   1.058   5.234   1.382
10236SOL    HW231608   1.028   5.128   1.260
10237SOL     OW31609   5.656   2.293   2.268
10237SOL    HW131610   5.577   2.239   2.238
10237SOL    HW231611   5.679   2.359   2.197
10238SOL     OW31612   4.887   4.760   6.036
10238SOL    HW131613   4.963   4.715   6.084
10238SOL    HW231614   4.803   4.709   6.053
10239SOL     OW31615   5.604   4.172   3.691
10239SOL    HW131616   5.514   4.179   3.648
10239SOL    HW231617   5.666   4.239   3.650
10240SOL     OW31618   5.320   3.542   2.309
10240SOL    HW131619   5.354   3.478   2.240
10240SOL    HW231620   5.396   3.595   2.346
10241SOL     OW31621   1.266   2.395   2.883
10241SOL    HW131622   1.185   2.408   2.826
10241SOL    HW231623   1.346   2.382   2.824
10242SOL     OW31624   0.988   5.740   6.498
10242SOL    HW131625   0.997   5.644   6.525
10242SOL    HW231626   1.079   5.780   6.488
10243SOL     OW31627   6.719   6.183   3.400
10243SOL    HW131628   6.797   6.126   3.378
10243SOL    HW231629   6.697   6.242   3.322
10244SOL     OW31630   2.546   6.206   0.380
10244SOL    HW131631   2.544   6.274   0.307
10244SOL    HW231632   2.640   6.184   0.404
10245SOL     OW31633   4.185   3.363   0.763
10245SOL    HW131634   4.105   3.382   0.706
10245SOL    HW231635   4.155   3.314   0.845
10246SOL     OW31636   3.563   3.734   4.934
10246SOL    HW131637   3.559   3.643   4.893
10246SOL    HW231638   3.471   3.772   4.941
10247SOL     OW31639   0.966   5.501   6.645
10247SOL    HW131640   0.872   5.531   6.657
10247SOL    HW231641   0.969   5.401   6.641
10248SOL     OW31642   5.726   6.700   3.527
10248SOL    HW131643   5.646   6.746   3.488
10248SOL    HW231644   5.802   6.705   3.463
10249SOL     OW31645   4.319   1.589   5.852
10249SOL    HW131646   4.331   1.574   5.754
10249SOL    HW231647   4.382   1.661   5.883
10250SOL     OW31648   4.476   5.370   1.000
10250SOL    HW131649   4.468   5.427   1.082
10250SOL    HW231650   4.553   5.402   0.945
10251SOL     OW31651   4.175   4.446   1.184
10251SOL    HW131652   4.165   4.546   1.186
10251SOL    HW231653   4.256   4.422   1.130
10252SOL     OW31654   0.042   4.250   0.636
10252SOL    HW131655   0.121   4.288   0.588
10252SOL    HW231656   7.005   4.325   0.675
10253SOL     OW31657   5.516   3.634   0.214
10253SOL    HW131658   5.522   3.683   0.301
10253SOL    HW231659   5.515   3.699   0.138
10254SOL     OW31660   3.597   2.030   5.766
10254SOL    HW131661   3.664   2.105   5.757
10254SOL    HW231662   3.555   2.012   5.678
10255SOL     OW31663   2.644   4.700   3.787
10255SOL    HW131664   2.609   4.667   3.699
10255SOL    HW231665   2.743   4.692   3.789
10256SOL     OW31666   5.632   4.339   0.261
10256SOL    HW131667   5.712   4.381   0.218
10256SOL    HW231668   5.616   4.383   0.350
10257SOL     OW31669   1.537   4.300   4.815
10257SOL    HW131670   1.586   4.335   4.736
10257SOL    HW231671   1.439   4.307   4.799
10258SOL     OW31672   3.689   1.401   2.292
10258SOL    HW131673   3.604   1.430   2.249
10258SOL    HW231674   3.742   1.347   2.226
10259SOL     OW31675   5.511   3.059   3.413
10259SOL    HW131676   5.607   3.070   3.440
10259SOL    HW231677   5.454   3.120   3.468
10260SOL     OW31678   0.231   6.072   2.298
10260SOL    HW131679   0.151   6.092   2.242
10260SOL    HW231680   0.218   6.111   2.389
10261SOL     OW31681   1.698   0.243   2.506
10261SOL    HW131682   1.654   0.283   2.586
10261SOL    HW231683   1.630   0.223   2.436
10262SOL     OW31684   6.426   6.431   3.429
10262SOL    HW131685   6.343   6.484   3.410
10262SOL    HW231686   6.503   6.493   3.439
10263SOL     OW31687   6.711   3.846   4.807
10263SOL    HW131688   6.802   3.888   4.807
10263SOL    HW231689   6.642   3.917   4.795
10264SOL     OW31690   0.623   0.166   1.113
10264SOL    HW131691   0.527   0.193   1.118
10264SOL    HW231692   0.646   0.107   1.191
10265SOL     OW31693   5.238   2.276   4.409
10265SOL    HW131694   5.299   2.247   4.483
10265SOL    HW231695   5.172   2.204   4.390
10266SOL     OW31696   3.172   3.756   0.259
10266SOL    HW131697   3.149   3.683   0.196
10266SOL    HW231698   3.193   3.717   0.349
10267SOL     OW31699   6.664   0.773   6.190
10267SOL    HW131700   6.685   0.789   6.286
10267SOL    HW231701   6.647   0.676   6.174
10268SOL     OW31702   6.741   4.668   0.225
10268SOL    HW131703   6.817   4.712   0.176
10268SOL    HW231704   6.777   4.608   0.296
10269SOL     OW31705   3.492   1.567   5.513
10269SOL    HW131706   3.539   1.646   5.474
10269SOL    HW231707   3.453   1.592   5.601
10270SOL     OW31708   3.379   6.100   3.897
10270SOL    HW131709   3.460   6.159   3.891
10270SOL    HW231710   3.407   6.004   3.891
10271SOL     OW31711   1.108   4.712   0.995
10271SOL    HW131712   1.146   4.631   0.950
10271SOL    HW231713   1.036   4.683   1.058
10272SOL     OW31714   1.156   3.478   4.205
10272SOL    HW131715   1.168   3.561   4.258
10272SOL    HW231716   1.194   3.491   4.114
10273SOL     OW31717   4.518   0.601   4.330
10273SOL    HW131718   4.460   0.682   4.336
10273SOL    HW231719   4.466   0.521   4.361
10274SOL     OW31720   1.841   4.479   6.564
10274SOL    HW131721   1.743   4.472   6.584
10274SOL    HW231722   1.855   4.549   6.494
10275SOL     OW31723   6.946   5.773   1.854
10275SOL    HW131724   7.005   5.792   1.933
10275SOL    HW231725   6.853   5.804   1.874
10276SOL     OW31726   2.963   6.960   0.461
10276SOL    HW131727   2.874   6.936   0.424
10276SOL    HW231728   3.025   6.985   0.386
10277SOL     OW31729   6.022   5.886   2.095
10277SOL    HW131730   5.940   5.931   2.058
10277SOL    HW231731   5.999   5.793   2.123
10278SOL     OW31732   6.216   1.207   4.766
10278SOL    HW131733   6.313   1.184   4.771
10278SOL    HW231734   6.162   1.124   4.765
10279SOL     OW31735   3.754   6.846   4.087
10279SOL    HW131736   3.699   6.763   4.088
10279SOL    HW231737   3.845   6.827   4.124
10280SOL     OW31738   2.826   2.375   6.777
10280SOL    HW131739   2.850   2.391   6.872
10280SOL    HW231740   2.904   2.335   6.729
10281SOL     OW31741   4.107   1.040   4.417
10281SOL    HW131742   4.145   0.948   4.406
10281SOL    HW231743   4.074   1.050   4.511
10282SOL     OW31744   1.558   3.305   3.891
10282SOL    HW131745   1.577   3.269   3.800
10282SOL    HW231746   1.598   3.396   3.900
10283SOL     OW31747   1.921   5.871   0.120
10283SOL    HW131748   1.910   5.775   0.146
10283SOL    HW231749   2.015   5.887   0.090
10284SOL     OW31750   5.660   2.507   0.153
10284SOL    HW131751   5.641   2.451   0.233
10284SOL    HW231752   5.577   2.558   0.128
10285SOL     OW31753   5.132   1.374   0.469
10285SOL    HW131754   5.156   1.279   0.454
10285SOL    HW231755   5.213   1.425   0.498
10286SOL     OW31756   2.666   6.599   3.653
10286SOL    HW131757   2.673   6.509   3.696
10286SOL    HW231758   2.734   6.660   3.693
10287SOL     OW31759   1.965   4.452   2.155
10287SOL    HW131760   1.995   4.543   2.184
10287SOL    HW231761   1.977   4.443   2.056
10288SOL     OW31762   4.825   0.033   4.541
10288SOL    HW131763   4.847   6.955   4.566
10288SOL    HW231764   4.901   0.073   4.490
10289SOL     OW31765   2.612   1.664   2.840
10289SOL    HW131766   2.606   1.748   2.786
10289SOL    HW231767   2.596   1.585   2.781
10290SOL     OW31768   3.307   3.926   3.000
10290SOL    HW131769   3.270   3.853   3.058
10290SOL    HW231770   3.372   3.887   2.935
10291SOL     OW31771   4.108   0.449   3.466
10291SOL    HW131772   4.056   0.370   3.434
10291SOL    HW231773   4.100   0.457   3.565
10292SOL     OW31774   6.956   2.956   4.544
10292SOL    HW131775   6.926   3.051   4.553
10292SOL    HW231776   6.962   2.914   4.635
10293SOL     OW31777   1.715   5.341   3.399
10293SOL    HW131778   1.629   5.347   3.449
10293SOL    HW231779   1.788   5.384   3.453
10294SOL     OW31780   6.205   0.817   3.142
10294SOL    HW131781   6.234   0.898   3.091
10294SOL    HW231782   6.120   0.782   3.102
10295SOL     OW31783   1.488   4.237   3.656
10295SOL    HW131784   1.456   4.317   3.606
10295SOL    HW231785   1.583   4.217   3.630
10296SOL     OW31786   0.163   3.326   1.127
10296SOL    HW131787   0.121   3.258   1.187
10296SOL    HW231788   0.092   3.386   1.090
10297SOL     OW31789   3.843   4.474   6.014
10297SOL    HW131790   3.864   4.381   6.045
10297SOL    HW231791   3.827   4.473   5.916
10298SOL     OW31792   5.682   3.263   2.720
10298SOL    HW131793   5.671   3.171   2.757
10298SOL    HW231794   5.603   3.285   2.662
10299SOL     OW31795   3.777   5.216   2.888
10299SOL    HW131796   3.792   5.251   2.796
10299SOL    HW231797   3.852   5.155   2.913
10300SOL     OW31798   0.190   6.030   2.593
10300SOL    HW131799   0.156   6.005   2.683
10300SOL    HW231800   0.250   6.110   2.601
10301SOL     OW31801   4.415   0.774   1.785
10301SOL    HW131802   4.379   0.697   1.837
10301SOL    HW231803   4.491   0.816   1.835
10302SOL     OW31804   6.940   4.602   3.348
10302SOL    HW131805   6.934   4.540   3.269
10302SOL    HW231806   0.014   4.594   3.389
10303SOL     OW31807   4.734   3.542   1.007
10303SOL    HW131808   4.643   3.551   1.048
10303SOL    HW231809   4.802   3.530   1.079
10304SOL     OW31810   5.929   6.428   4.520
10304SOL    HW131811   5.913   6.497   4.449
10304SOL    HW231812   5.979   6.470   4.596
10305SOL     OW31813   0.747   5.256   1.198
10305SOL    HW131814   0.678   5.186   1.220
10305SOL    HW231815   0.834   5.231   1.238
10306SOL     OW31816   4.811   3.667   6.469
10306SOL    HW131817   4.747   3.713   6.407
10306SOL    HW231818   4.888   3.727   6.486
10307SOL     OW31819   2.433   2.587   5.997
10307SOL    HW131820   2.420   2.543   6.085
10307SOL    HW231821   2.405   2.683   6.003
10308SOL     OW31822   2.803   4.743   4.220
10308SOL    HW131823   2.793   4.676   4.294
10308SOL    HW231824   2.734   4.725   4.150
10309SOL     OW31825   6.339   6.085   4.012
10309SOL    HW131826   6.278   6.158   4.044
10309SOL    HW231827   6.410   6.124   3.953
10310SOL     OW31828   4.083   3.690   4.333
10310SOL    HW131829   4.087   3.739   4.420
10310SOL    HW231830   4.052   3.596   4.348
10311SOL     OW31831   1.872   0.857   0.708
10311SOL    HW131832   1.814   0.840   0.628
10311SOL    HW231833   1.875   0.775   0.765
10312SOL     OW31834   3.246   4.218   0.369
10312SOL    HW131835   3.172   4.249   0.309
10312SOL    HW231836   3.334   4.234   0.325
10313SOL     OW31837   6.325   5.809   3.203
10313SOL    HW131838   6.364   5.890   3.247
10313SOL    HW231839   6.248   5.775   3.256
10314SOL     OW31840   6.672   5.645   5.100
10314SOL    HW131841   6.689   5.566   5.042
10314SOL    HW231842   6.594   5.627   5.159
10315SOL     OW31843   4.391   5.516   5.345
10315SOL    HW131844   4.304   5.468   5.336
10315SOL    HW231845   4.451   5.492   5.269
10316SOL     OW31846   0.223   2.660   3.858
10316SOL    HW131847   0.221   2.562   3.879
10316SOL    HW231848   0.190   2.675   3.765
10317SOL     OW31849   6.184   3.917   6.010
10317SOL    HW131850   6.200   3.972   5.928
10317SOL    HW231851   6.148   3.828   5.985
10318SOL     OW31852   5.083   4.578   2.298
10318SOL    HW131853   5.003   4.631   2.270
10318SOL    HW231854   5.163   4.638   2.301
10319SOL     OW31855   6.055   6.433   3.878
10319SOL    HW131856   6.050   6.357   3.814
10319SOL    HW231857   6.144   6.478   3.871
10320SOL     OW31858   3.139   6.634   1.509
10320SOL    HW131859   3.131   6.702   1.582
10320SOL    HW231860   3.206   6.564   1.535
10321SOL     OW31861   4.870   6.592   5.617
10321SOL    HW131862   4.837   6.535   5.541
10321SOL    HW231863   4.808   6.670   5.629
10322SOL     OW31864   0.133   1.722   6.038
10322SOL    HW131865   0.057   1.753   5.981
10322SOL    HW231866   0.155   1.627   6.015
10323SOL     OW31867   0.049   1.912   5.211
10323SOL    HW131868   0.120   1.978   5.235
10323SOL    HW231869   0.041   1.845   5.284
10324SOL     OW31870   2.833   3.745   5.436
10324SOL    HW131871   2.747   3.708   5.472
10324SOL    HW231872   2.829   3.845   5.438
10325SOL     OW31873   0.380   2.936   3.892
10325SOL    HW131874   0.289   2.923   3.853
10325SOL    HW231875   0.449   2.928   3.820
10326SOL     OW31876   6.260   0.819   0.725
10326SOL    HW131877   6.177   0.780   0.684
10326SOL    HW231878   6.246   0.830   0.824
10327SOL     OW31879   6.677   2.027   3.965
10327SOL    HW131880   6.600   1.986   4.013
10327SOL    HW231881   6.678   1.995   3.870
10328SOL     OW31882   0.244   3.384   1.838
10328SOL    HW131883   0.268   3.421   1.928
10328SOL    HW231884   0.150   3.349   1.840
10329SOL     OW31885   1.953   5.924   2.523
10329SOL    HW131886   1.871   5.940   2.467
10329SOL    HW231887   1.968   6.003   2.583
10330SOL     OW31888   4.299   3.229   0.575
10330SOL    HW131889   4.279   3.293   0.649
10330SOL    HW231890   4.263   3.266   0.489
10331SOL     OW31891   4.871   1.738   4.039
10331SOL    HW131892   4.784   1.786   4.028
10331SOL    HW231893   4.892   1.688   3.955
10332SOL     OW31894   1.904   2.875   6.666
10332SOL    HW131895   1.814   2.917   6.675
10332SOL    HW231896   1.961   2.901   6.744
10333SOL     OW31897   6.819   4.237   5.670
10333SOL    HW131898   6.832   4.334   5.653
10333SOL    HW231899   6.766   4.197   5.595
10334SOL     OW31900   0.350   5.105   5.974
10334SOL    HW131901   0.319   5.190   6.017
10334SOL    HW231902   0.450   5.100   5.979
10335SOL     OW31903   2.633   5.099   2.932
10335SOL    HW131904   2.712   5.053   2.972
10335SOL    HW231905   2.655   5.132   2.840
10336SOL     OW31906   4.069   0.484   2.976
10336SOL    HW131907   4.101   0.505   2.884
10336SOL    HW231908   4.144   0.498   3.042
10337SOL     OW31909   1.853   3.234   6.005
10337SOL    HW131910   1.846   3.276   5.914
10337SOL    HW231911   1.823   3.299   6.074
10338SOL     OW31912   2.335   4.205   3.175
10338SOL    HW131913   2.272   4.199   3.252
10338SOL    HW231914   2.293   4.162   3.094
10339SOL     OW31915   3.460   6.676   6.797
10339SOL    HW131916   3.529   6.719   6.855
10339SOL    HW231917   3.506   6.620   6.727
10340SOL     OW31918   1.974   5.809   0.573
10340SOL    HW131919   1.997   5.899   0.537
10340SOL    HW231920   1.991   5.807   0.671
10341SOL     OW31921   0.229   2.467   1.965
10341SOL    HW131922   0.219   2.566   1.965
10341SOL    HW231923   0.326   2.443   1.959
10342SOL     OW31924   3.212   4.858   4.027
10342SOL    HW131925   3.130   4.857   3.970
10342SOL    HW231926   3.211   4.779   4.089
10343SOL     OW31927   2.701   2.318   4.389
10343SOL    HW131928   2.702   2.373   4.472
10343SOL    HW231929   2.608   2.287   4.371
10344SOL     OW31930   5.062   4.452   1.280
10344SOL    HW131931   5.074   4.459   1.181
10344SOL    HW231932   5.102   4.532   1.324
10345SOL     OW31933   2.681   2.041   6.154
10345SOL    HW131934   2.635   1.956   6.126
10345SOL    HW231935   2.775   2.041   6.118
10346SOL     OW31936   6.736   4.814   6.507
10346SOL    HW131937   6.799   4.848   6.577
10346SOL    HW231938   6.783   4.810   6.419
10347SOL     OW31939   3.660   6.419   2.420
10347SOL    HW131940   3.709   6.435   2.506
10347SOL    HW231941   3.650   6.506   2.371
10348SOL     OW31942   0.385   2.817   4.131
10348SOL    HW131943   0.371   2.718   4.123
10348SOL    HW231944   0.389   2.858   4.040
10349SOL     OW31945   6.515   1.388   0.082
10349SOL    HW131946   6.556   1.426   7.015
10349SOL    HW231947   6.429   1.436   0.101
10350SOL     OW31948   1.887   5.516   3.795
10350SOL    HW131949   1.968   5.462   3.816
10350SOL    HW231950   1.857   5.564   3.877
10351SOL     OW31951   4.110   5.620   5.739
10351SOL    HW131952   4.188   5.674   5.707
10351SOL    HW231953   4.028   5.677   5.736
10352SOL     OW31954   0.826   1.563   2.045
10352SOL    HW131955   0.850   1.509   1.964
10352SOL    HW231956   0.773   1.643   2.016
10353SOL     OW31957   5.253   2.718   3.502
10353SOL    HW131958   5.268   2.790   3.570
10353SOL    HW231959   5.330   2.717   3.438
10354SOL     OW31960   6.831   2.091   2.012
10354SOL    HW131961   6.781   2.094   1.926
10354SOL    HW231962   6.919   2.138   2.001
10355SOL     OW31963   6.648   1.753   0.717
10355SOL    HW131964   6.651   1.659   0.686
10355SOL    HW231965   6.610   1.811   0.645
10356SOL     OW31966   6.343   2.560   6.215
10356SOL    HW131967   6.374   2.533   6.124
10356SOL    HW231968   6.321   2.479   6.268
10357SOL     OW31969   0.640   6.531   6.374
10357SOL    HW131970   0.547   6.494   6.369
10357SOL    HW231971   0.695   6.474   6.435
10358SOL     OW31972   0.196   3.602   4.156
10358SOL    HW131973   0.220   3.648   4.070
10358SOL    HW231974   0.280   3.584   4.208
10359SOL     OW31975   0.615   2.817   2.133
10359SOL    HW131976   0.678   2.801   2.209
10359SOL    HW231977   0.566   2.733   2.112
10360SOL     OW31978   5.590   4.537   1.240
10360SOL    HW131979   5.543   4.449   1.237
10360SOL    HW231980   5.605   4.569   1.147
10361SOL     OW31981   5.674   1.973   4.246
10361SOL    HW131982   5.675   1.984   4.146
10361SOL    HW231983   5.634   2.054   4.288
10362SOL     OW31984   6.741   6.452   2.345
10362SOL    HW131985   6.789   6.465   2.258
10362SOL    HW231986   6.642   6.457   2.329
10363SOL     OW31987   4.564   5.311   6.412
10363SOL    HW131988   4.653   5.299   6.367
10363SOL    HW231989   4.569   5.273   6.504
10364SOL     OW31990   6.551   5.240   1.370
10364SOL    HW131991   6.627   5.179   1.393
10364SOL    HW231992   6.587   5.325   1.333
10365SOL     OW31993   6.327   6.181   6.689
10365SOL    HW131994   6.415   6.140   6.713
10365SOL    HW231995   6.290   6.135   6.608
10366SOL     OW31996   2.227   0.289   3.414
10366SOL    HW131997   2.181   0.302   3.326
10366SOL    HW231998   2.322   0.318   3.407
10367SOL     OW31999   3.741   6.125   2.779
10367SOL    HW132000   3.820   6.065   2.768
10367SOL    HW232001   3.665   6.091   2.724
10368SOL     OW32002   1.311   5.926   1.871
10368SOL    HW132003   1.406   5.894   1.869
10368SOL    HW232004   1.301   5.997   1.941
10369SOL     OW32005   3.007   1.220   5.437
10369SOL    HW132006   3.066   1.189   5.362
10369SOL    HW232007   3.063   1.253   5.512
10370SOL     OW32008   2.424   2.047   6.792
10370SOL    HW132009   2.360   1.970   6.795
10370SOL    HW232010   2.387   2.118   6.733
10371SOL     OW32011   3.502   5.414   2.589
10371SOL    HW132012   3.541   5.329   2.624
10371SOL    HW232013   3.563   5.490   2.612
10372SOL     OW32014   1.041   6.338   1.156
10372SOL    HW132015   1.107   6.411   1.172
10372SOL    HW232016   1.039   6.316   1.058
10373SOL     OW32017   6.781   0.937   5.278
10373SOL    HW132018   6.839   0.997   5.334
10373SOL    HW232019   6.707   0.901   5.335
10374SOL     OW32020   1.770   5.506   1.929
10374SOL    HW132021   1.820   5.536   2.011
10374SOL    HW232022   1.805   5.417   1.900
10375SOL     OW32023   2.333   5.276   6.592
10375SOL    HW132024   2.419   5.278   6.541
10375SOL    HW232025   2.260   5.314   6.537
10376SOL     OW32026   1.911   5.120   3.421
10376SOL    HW132027   1.905   5.027   3.457
10376SOL    HW232028   1.819   5.153   3.398
10377SOL     OW32029   3.140   1.130   4.017
10377SOL    HW132030   3.090   1.061   3.964
10377SOL    HW232031   3.074   1.192   4.060
10378SOL     OW32032   6.813   6.765   5.248
10378SOL    HW132033   6.834   6.769   5.346
10378SOL    HW232034   6.895   6.742   5.197
10379SOL     OW32035   0.339   5.372   3.207
10379SOL    HW132036   0.257   5.379   3.150
10379SOL    HW232037   0.366   5.463   3.238
10380SOL     OW32038   3.210   1.425   3.931
10380SOL    HW132039   3.114   1.423   3.960
10380SOL    HW232040   3.269   1.421   4.011
10381SOL     OW32041   2.031   6.686   4.036
10381SOL    HW132042   2.098   6.612   4.047
10381SOL    HW232043   2.075   6.773   4.057
10382SOL     OW32044   3.423   5.767   2.813
10382SOL    HW132045   3.441   5.670   2.829
10382SOL    HW232046   3.484   5.800   2.741
10383SOL     OW32047   0.534   6.679   0.110
10383SOL    HW132048   0.475   6.738   0.055
10383SOL    HW232049   0.579   6.734   0.180
10384SOL     OW32050   5.575   5.232   0.994
10384SOL    HW132051   5.507   5.267   0.930
10384SOL    HW232052   5.666   5.243   0.955
10385SOL     OW32053   3.623   4.205   6.801
10385SOL    HW132054   3.665   4.131   6.854
10385SOL    HW232055   3.686   4.234   6.729
10386SOL     OW32056   6.884   0.362   1.832
10386SOL    HW132057   6.867   0.416   1.915
10386SOL    HW232058   6.884   0.422   1.752
10387SOL     OW32059   5.259   0.579   2.402
10387SOL    HW132060   5.227   0.672   2.421
10387SOL    HW232061   5.341   0.583   2.344
10388SOL     OW32062   0.792   6.636   4.727
10388SOL    HW132063   0.854   6.661   4.801
10388SOL    HW232064   0.808   6.696   4.648
10389SOL     OW32065   0.517   3.832   1.086
10389SOL    HW132066   0.466   3.916   1.100
10389SOL    HW232067   0.534   3.787   1.174
10390SOL     OW32068   1.338   2.477   2.190
10390SOL    HW132069   1.284   2.490   2.273
10390SOL    HW232070   1.407   2.407   2.206
10391SOL     OW32071   6.307   0.407   3.509
10391SOL    HW132072   6.406   0.392   3.506
10391SOL    HW232073   6.275   0.433   3.417
10392SOL     OW32074   5.553   3.056   4.197
10392SOL    HW132075   5.521   3.019   4.284
10392SOL    HW232076   5.644   3.021   4.177
10393SOL     OW32077   1.811   2.497   1.219
10393SOL    HW132078   1.911   2.503   1.219
10393SOL    HW232079   1.784   2.406   1.187
10394SOL     OW32080   2.675   5.552   4.222
10394SOL    HW132081   2.668   5.453   4.214
10394SOL    HW232082   2.758   5.584   4.177
10395SOL     OW32083   0.858   1.440   1.086
10395SOL    HW132084   0.845   1.490   1.172
10395SOL    HW232085   0.777   1.382   1.069
10396SOL     OW32086   3.258   1.980   5.280
10396SOL    HW132087   3.270   1.882   5.291
10396SOL    HW232088   3.166   1.999   5.245
10397SOL     OW32089   4.365   0.899   3.832
10397SOL    HW132090   4.409   0.933   3.750
10397SOL    HW232091   4.330   0.976   3.886
10398SOL     OW32092   4.557   2.417   2.788
10398SOL    HW132093   4.586   2.482   2.718
10398SOL    HW232094   4.624   2.342   2.793
10399SOL     OW32095   0.802   2.937   1.773
10399SOL    HW132096   0.808   2.874   1.696
10399SOL    HW232097   0.710   2.935   1.811
10400SOL     OW32098   1.436   6.733   0.372
10400SOL    HW132099   1.397   6.749   0.281
10400SOL    HW232100   1.371   6.681   0.427
10401SOL     OW32101   6.343   1.011   5.165
10401SOL    HW132102   6.294   0.994   5.251
10401SOL    HW232103   6.281   1.051   5.099
10402SOL     OW32104   6.326   4.280   5.851
10402SOL    HW132105   6.322   4.379   5.864
10402SOL    HW232106   6.416   4.254   5.816
10403SOL     OW32107   3.544   0.079   1.720
10403SOL    HW132108   3.572   0.167   1.758
10403SOL    HW232109   3.581   0.005   1.776
10404SOL     OW32110   0.737   5.430   5.756
10404SOL    HW132111   0.708   5.334   5.757
10404SOL    HW232112   0.666   5.485   5.712
10405SOL     OW32113   7.004   0.913   7.001
10405SOL    HW132114   0.051   0.986   6.976
10405SOL    HW232115   6.961   0.935   0.072
10406SOL     OW32116   1.821   5.182   1.284
10406SOL    HW132117   1.837   5.269   1.331
10406SOL    HW232118   1.781   5.200   1.194
10407SOL     OW32119   2.061   6.320   0.515
10407SOL    HW132120   1.972   6.337   0.557
10407SOL    HW232121   2.122   6.397   0.532
10408SOL     OW32122   4.367   0.754   6.705
10408SOL    HW132123   4.362   0.822   6.632
10408SOL    HW232124   4.446   0.773   6.763
10409SOL     OW32125   6.503   3.784   0.716
10409SOL    HW132126   6.535   3.701   0.762
10409SOL    HW232127   6.543   3.788   0.624
10410SOL     OW32128   4.057   0.023   0.701
10410SOL    HW132129   4.033   6.952   0.743
10410SOL    HW232130   4.114   0.076   0.764
10411SOL     OW32131   1.552   5.291   4.075
10411SOL    HW132132   1.573   5.269   3.979
10411SOL    HW232133   1.638   5.299   4.126
10412SOL     OW32134   4.917   0.484   1.944
10412SOL    HW132135   4.953   0.454   1.855
10412SOL    HW232136   4.833   0.536   1.930
10413SOL     OW32137   6.122   3.392   1.991
10413SOL    HW132138   6.086   3.350   2.074
10413SOL    HW232139   6.141   3.321   1.923
10414SOL     OW32140   5.030   3.945   3.861
10414SOL    HW132141   5.027   4.032   3.910
10414SOL    HW232142   4.949   3.937   3.803
10415SOL     OW32143   0.754   0.748   6.919
10415SOL    HW132144   0.726   0.842   6.897
10415SOL    HW232145   0.673   0.696   6.947
10416SOL     OW32146   4.991   2.669   2.666
10416SOL    HW132147   5.019   2.765   2.670
10416SOL    HW232148   4.949   2.643   2.753
10417SOL     OW32149   1.853   3.841   2.379
10417SOL    HW132150   1.857   3.934   2.415
10417SOL    HW232151   1.944   3.813   2.347
10418SOL     OW32152   1.398   5.715   6.055
10418SOL    HW132153   1.441   5.745   6.140
10418SOL    HW232154   1.398   5.615   6.052
10419SOL     OW32155   1.346   0.858   6.027
10419SOL    HW132156   1.389   0.898   6.107
10419SOL    HW232157   1.416   0.834   5.959
10420SOL     OW32158   0.780   3.425   2.261
10420SOL    HW132159   0.845   3.454   2.191
10420SOL    HW232160   0.829   3.381   2.336
10421SOL     OW32161   1.024   2.406   2.736
10421SOL    HW132162   0.968   2.332   2.698
10421SOL    HW232163   1.000   2.492   2.691
10422SOL     OW32164   5.890   1.922   0.138
10422SOL    HW132165   5.892   1.888   0.231
10422SOL    HW232166   5.844   1.856   0.079
10423SOL     OW32167   4.439   5.624   2.554
10423SOL    HW132168   4.383   5.655   2.631
10423SOL    HW232169   4.433   5.692   2.480
10424SOL     OW32170   4.596   1.492   6.130
10424SOL    HW132171   4.656   1.416   6.106
10424SOL    HW232172   4.509   1.456   6.162
10425SOL     OW32173   1.926   6.729   1.945
10425SOL    HW132174   1.832   6.760   1.958
10425SOL    HW232175   1.926   6.631   1.924
10426SOL     OW32176   6.434   4.044   6.502
10426SOL    HW132177   6.504   4.099   6.548
10426SOL    HW232178   6.362   4.020   6.568
10427SOL     OW32179   4.810   0.729   0.349
10427SOL    HW132180   4.840   0.801   0.285
10427SOL    HW232181   4.716   0.747   0.376
10428SOL     OW32182   4.618   2.542   3.516
10428SOL    HW132183   4.623   2.521   3.614
10428SOL    HW232184   4.691   2.494   3.468
10429SOL     OW32185   5.792   5.300   2.286
10429SOL    HW132186   5.705   5.251   2.294
10429SOL    HW232187   5.793   5.377   2.350
10430SOL     OW32188   3.711   6.156   3.045
10430SOL    HW132189   3.743   6.162   2.951
10430SOL    HW232190   3.706   6.247   3.085
10431SOL     OW32191   3.101   1.941   5.578
10431SOL    HW132192   3.196   1.911   5.573
10431SOL    HW232193   3.047   1.894   5.508
10432SOL     OW32194   4.180   0.417   4.613
10432SOL    HW132195   4.174   0.326   4.652
10432SOL    HW232196   4.274   0.437   4.586
10433SOL     OW32197   2.159   5.924   1.013
10433SOL    HW132198   2.218   5.999   0.983
10433SOL    HW232199   2.210   5.866   1.077
10434SOL     OW32200   3.633   2.268   5.274
10434SOL    HW132201   3.682   2.238   5.191
10434SOL    HW232202   3.537   2.241   5.268
10435SOL     OW32203   5.871   4.872   6.851
10435SOL    HW132204   5.857   4.922   6.765
10435SOL    HW232205   5.786   4.871   6.904
10436SOL     OW32206   0.178   1.817   3.061
10436SOL    HW132207   0.091   1.769   3.072
10436SOL    HW232208   0.252   1.750   3.051
10437SOL     OW32209   1.604   2.924   0.520
10437SOL    HW132210   1.508   2.898   0.523
10437SOL    HW232211   1.653   2.862   0.459
10438SOL     OW32212   2.741   6.777   5.894
10438SOL    HW132213   2.771   6.746   5.984
10438SOL    HW232214   2.757   6.875   5.885
10439SOL     OW32215   3.516   0.365   5.482
10439SOL    HW132216   3.420   0.341   5.499
10439SOL    HW232217   3.565   0.368   5.569
10440SOL     OW32218   1.136   6.125   0.388
10440SOL    HW132219   1.066   6.068   0.431
10440SOL    HW232220   1.225   6.105   0.429
10441SOL     OW32221   4.728   6.692   1.052
10441SOL    HW132222   4.638   6.714   1.091
10441SOL    HW232223   4.735   6.732   0.961
10442SOL     OW32224   3.610   6.536   6.608
10442SOL    HW132225   3.689   6.573   6.560
10442SOL    HW232226   3.613   6.436   6.605
10443SOL     OW32227   0.326   2.954   4.813
10443SOL    HW132228   0.395   2.903   4.865
10443SOL    HW232229   0.370   3.023   4.756
10444SOL     OW32230   4.050   4.823   5.075
10444SOL    HW132231   4.055   4.841   4.976
10444SOL    HW232232   4.128   4.868   5.120
10445SOL     OW32233   6.562   6.261   2.064
10445SOL    HW132234   6.517   6.317   2.134
10445SOL    HW232235   6.626   6.318   2.012
10446SOL     OW32236   1.305   6.900   5.765
10446SOL    HW132237   1.385   6.944   5.807
10446SOL    HW232238   1.336   6.829   5.701
10447SOL     OW32239   5.508   2.494   6.669
10447SOL    HW132240   5.467   2.494   6.578
10447SOL    HW232241   5.467   2.566   6.724
10448SOL     OW32242   3.779   3.571   2.187
10448SOL    HW132243   3.780   3.509   2.266
10448SOL    HW232244   3.766   3.665   2.218
10449SOL     OW32245   1.175   5.452   4.973
10449SOL    HW132246   1.106   5.507   4.926
10449SOL    HW232247   1.132   5.400   5.046
10450SOL     OW32248   1.036   3.185   0.195
10450SOL    HW132249   1.097   3.196   0.274
10450SOL    HW232250   0.946   3.222   0.217
10451SOL     OW32251   2.149   4.233   2.443
10451SOL    HW132252   2.187   4.279   2.363
10451SOL    HW232253   2.144   4.297   2.520
10452SOL     OW32254   2.150   3.592   6.333
10452SOL    HW132255   2.056   3.618   6.355
10452SOL    HW232256   2.183   3.647   6.256
10453SOL     OW32257   5.017   0.437   2.215
10453SOL    HW132258   5.115   0.458   2.212
10453SOL    HW232259   4.973   0.472   2.132
10454SOL     OW32260   3.241   5.373   2.537
10454SOL    HW132261   3.176   5.446   2.556
10454SOL    HW232262   3.331   5.399   2.572
10455SOL     OW32263   1.269   5.134   3.369
10455SOL    HW132264   1.240   5.229   3.379
10455SOL    HW232265   1.230   5.080   3.444
10456SOL     OW32266   3.663   6.713   0.983
10456SOL    HW132267   3.710   6.647   0.923
10456SOL    HW232268   3.725   6.741   1.056
10457SOL     OW32269   3.434   2.860   3.390
10457SOL    HW132270   3.461   2.904   3.304
10457SOL    HW232271   3.515   2.846   3.448
10458SOL     OW32272   6.377   6.056   2.673
10458SOL    HW132273   6.456   6.117   2.679
10458SOL    HW232274   6.345   6.051   2.579
10459SOL     OW32275   6.858   5.495   1.886
10459SOL    HW132276   6.762   5.483   1.861
10459SOL    HW232277   6.889   5.585   1.853
10460SOL     OW32278   1.439   4.136   1.082
10460SOL    HW132279   1.501   4.078   1.135
10460SOL    HW232280   1.479   4.155   0.993
10461SOL     OW32281   3.965   0.492   6.419
10461SOL    HW132282   4.022   0.564   6.378
10461SOL    HW232283   3.872   0.497   6.380
10462SOL     OW32284   5.433   6.617   0.989
10462SOL    HW132285   5.473   6.696   1.034
10462SOL    HW232286   5.333   6.619   1.000
10463SOL     OW32287   4.515   3.213   0.257
10463SOL    HW132288   4.440   3.194   0.193
10463SOL    HW232289   4.602   3.213   0.207
10464SOL     OW32290   5.694   0.062   1.779
10464SOL    HW132291   5.686   0.091   1.684
10464SOL    HW232292   5.659   0.134   1.839
10465SOL     OW32293   7.002   4.490   5.865
10465SOL    HW132294   6.980   4.573   5.916
10465SOL    HW232295   0.085   4.484   5.854
10466SOL     OW32296   3.994   5.451   5.555
10466SOL    HW132297   4.008   5.534   5.608
10466SOL    HW232298   3.909   5.459   5.502
10467SOL     OW32299   4.308   1.712   4.039
10467SOL    HW132300   4.360   1.675   4.117
10467SOL    HW232301   4.290   1.809   4.055
10468SOL     OW32302   2.778   5.438   3.334
10468SOL    HW132303   2.773   5.438   3.234
10468SOL    HW232304   2.691   5.407   3.371
10469SOL     OW32305   1.140   4.914   5.995
10469SOL    HW132306   1.105   4.904   5.901
10469SOL    HW232307   1.121   4.831   6.047
10470SOL     OW32308   2.286   2.124   4.295
10470SOL    HW132309   2.343   2.205   4.307
10470SOL    HW232310   2.214   2.144   4.229
10471SOL     OW32311   4.717   3.770   6.754
10471SOL    HW132312   4.796   3.709   6.748
10471SOL    HW232313   4.646   3.738   6.692
10472SOL     OW32314   4.060   1.664   3.717
10472SOL    HW132315   4.105   1.719   3.646
10472SOL    HW232316   4.021   1.724   3.786
10473SOL     OW32317   4.902   4.584   0.344
10473SOL    HW132318   4.932   4.570   0.250
10473SOL    HW232319   4.964   4.535   0.406
10474SOL     OW32320   4.586   1.036   4.203
10474SOL    HW132321   4.593   0.936   4.201
10474SOL    HW232322   4.504   1.065   4.154
10475SOL     OW32323   4.081   6.491   1.058
10475SOL    HW132324   4.041   6.447   0.977
10475SOL    HW232325   4.164   6.442   1.085
10476SOL     OW32326   0.586   4.866   0.050
10476SOL    HW132327   0.609   4.926   6.989
10476SOL    HW232328   0.666   4.853   0.108
10477SOL     OW32329   5.065   4.688   4.532
10477SOL    HW132330   5.030   4.595   4.541
10477SOL    HW232331   5.164   4.688   4.542
10478SOL     OW32332   0.552   0.024   2.612
10478SOL    HW132333   0.547   6.997   2.702
10478SOL    HW232334   0.552   0.124   2.622
10479SOL     OW32335   0.846   4.084   2.889
10479SOL    HW132336   0.781   4.097   2.964
10479SOL    HW232337   0.895   4.170   2.873
10480SOL     OW32338   4.683   1.524   6.654
10480SOL    HW132339   4.714   1.521   6.749
10480SOL    HW232340   4.586   1.545   6.652
10481SOL     OW32341   3.780   1.418   3.572
10481SOL    HW132342   3.787   1.391   3.476
10481SOL    HW232343   3.868   1.401   3.618
10482SOL     OW32344   0.431   6.598   6.085
10482SOL    HW132345   0.497   6.635   6.019
10482SOL    HW232346   0.478   6.545   6.154
10483SOL     OW32347   0.699   6.142   0.558
10483SOL    HW132348   0.675   6.181   0.647
10483SOL    HW232349   0.668   6.204   0.486
10484SOL     OW32350   6.978   1.453   1.640
10484SOL    HW132351   6.932   1.418   1.721
10484SOL    HW232352   6.910   1.489   1.576
10485SOL     OW32353   3.625   4.168   4.801
10485SOL    HW132354   3.629   4.239   4.871
10485SOL    HW232355   3.531   4.158   4.770
10486SOL     OW32356   6.075   4.614   5.868
10486SOL    HW132357   6.049   4.556   5.945
10486SOL    HW232358   6.006   4.686   5.856
10487SOL     OW32359   5.372   3.927   2.772
10487SOL    HW132360   5.312   3.863   2.724
10487SOL    HW232361   5.375   3.903   2.869
10488SOL     OW32362   0.954   2.134   5.470
10488SOL    HW132363   0.894   2.210   5.446
10488SOL    HW232364   0.925   2.094   5.557
10489SOL     OW32365   5.848   4.840   2.683
10489SOL    HW132366   5.860   4.742   2.694
10489SOL    HW232367   5.899   4.888   2.755
10490SOL     OW32368   5.526   6.245   6.546
10490SOL    HW132369   5.610   6.276   6.502
10490SOL    HW232370   5.449   6.302   6.517
10491SOL     OW32371   2.219   2.054   5.844
10491SOL    HW132372   2.240   1.966   5.885
10491SOL    HW232373   2.152   2.041   5.770
10492SOL     OW32374   3.620   6.735   0.009
10492SOL    HW132375   3.588   6.656   0.061
10492SOL    HW232376   3.708   6.714   6.982
10493SOL     OW32377   3.825   6.695   0.361
10493SOL    HW132378   3.874   6.679   0.446
10493SOL    HW232379   3.730   6.718   0.381
10494SOL     OW32380   6.443   6.032   3.332
10494SOL    HW132381   6.402   6.003   3.419
10494SOL    HW232382   6.540   6.008   3.331
10495SOL     OW32383   6.228   6.469   0.231
10495SOL    HW132384   6.281   6.486   0.314
10495SOL    HW232385   6.287   6.473   0.151
10496SOL     OW32386   1.283   3.855   6.317
10496SOL    HW132387   1.268   3.952   6.337
10496SOL    HW232388   1.223   3.799   6.375
10497SOL     OW32389   4.175   0.117   0.063
10497SOL    HW132390   4.170   0.053   7.003
10497SOL    HW232391   4.084   0.153   0.083
10498SOL     OW32392   3.540   3.811   0.415
10498SOL    HW132393   3.592   3.728   0.394
10498SOL    HW232394   3.481   3.834   0.338
10499SOL     OW32395   4.079   4.780   4.002
10499SOL    HW132396   4.124   4.732   3.927
10499SOL    HW232397   4.107   4.739   4.089
10500SOL     OW32398   1.955   2.614   5.026
10500SOL    HW132399   1.897   2.543   4.986
10500SOL    HW232400   1.938   2.619   5.125
10501SOL     OW32401   3.905   4.882   3.052
10501SOL    HW132402   3.810   4.904   3.076
10501SOL    HW232403   3.909   4.859   2.955
10502SOL     OW32404   3.522   3.499   3.225
10502SOL    HW132405   3.447   3.558   3.256
10502SOL    HW232406   3.583   3.480   3.302
10503SOL     OW32407   0.156   6.317   0.649
10503SOL    HW132408   0.132   6.221   0.632
10503SOL    HW232409   0.075   6.365   0.684
10504SOL     OW32410   1.771   2.879   5.603
10504SOL    HW132411   1.695   2.935   5.570
10504SOL    HW232412   1.737   2.812   5.669
10505SOL     OW32413   5.129   6.579   1.446
10505SOL    HW132414   5.084   6.643   1.507
10505SOL    HW232415   5.228   6.594   1.450
10506SOL     OW32416   0.517   5.267   6.192
10506SOL    HW132417   0.544   5.202   6.121
10506SOL    HW232418   0.587   5.338   6.200
10507SOL     OW32419   2.214   6.604   5.665
10507SOL    HW132420   2.283   6.660   5.712
10507SOL    HW232421   2.196   6.523   5.719
10508SOL     OW32422   2.091   6.219   1.164
10508SOL    HW132423   2.096   6.318   1.151
10508SOL    HW232424   2.182   6.179   1.156
10509SOL     OW32425   4.975   3.795   1.870
10509SOL    HW132426   4.888   3.771   1.827
10509SOL    HW232427   4.969   3.887   1.910
10510SOL     OW32428   5.078   6.664   1.901
10510SOL    HW132429   5.142   6.737   1.924
10510SOL    HW232430   5.094   6.586   1.962
10511SOL     OW32431   4.010   1.756   0.715
10511SOL    HW132432   3.993   1.742   0.617
10511SOL    HW232433   3.961   1.687   0.767
10512SOL     OW32434   3.905   6.987   4.965
10512SOL    HW132435   4.000   6.981   4.934
10512SOL    HW232436   3.845   6.958   4.891
10513SOL     OW32437   4.231   3.864   0.850
10513SOL    HW132438   4.281   3.781   0.826
10513SOL    HW232439   4.284   3.918   0.915
10514SOL     OW32440   1.045   4.823   1.506
10514SOL    HW132441   1.101   4.761   1.561
10514SOL    HW232442   1.002   4.772   1.431
10515SOL     OW32443   2.154   3.198   4.894
10515SOL    HW132444   2.077   3.259   4.871
10515SOL    HW232445   2.232   3.254   4.924
10516SOL     OW32446   5.543   1.916   1.258
10516SOL    HW132447   5.470   1.864   1.213
10516SOL    HW232448   5.519   2.013   1.260
10517SOL     OW32449   6.762   2.037   2.274
10517SOL    HW132450   6.662   2.039   2.275
10517SOL    HW232451   6.794   2.064   2.183
10518SOL     OW32452   0.109   5.699   3.088
10518SOL    HW132453   0.019   5.740   3.071
10518SOL    HW232454   0.106   5.603   3.062
10519SOL     OW32455   1.630   6.528   0.401
10519SOL    HW132456   1.546   6.575   0.373
10519SOL    HW232457   1.605   6.446   0.453
10520SOL     OW32458   3.321   2.539   6.228
10520SOL    HW132459   3.342   2.446   6.198
10520SOL    HW232460   3.222   2.548   6.242
10521SOL     OW32461   5.771   1.999   1.872
10521SOL    HW132462   5.694   2.057   1.846
10521SOL    HW232463   5.787   1.931   1.801
10522SOL     OW32464   5.114   1.168   2.968
10522SOL    HW132465   5.044   1.177   2.897
10522SOL    HW232466   5.128   1.256   3.013
10523SOL     OW32467   0.434   3.891   1.631
10523SOL    HW132468   0.514   3.947   1.610
10523SOL    HW232469   0.457   3.795   1.617
10524SOL     OW32470   5.705   6.489   4.807
10524SOL    HW132471   5.691   6.585   4.783
10524SOL    HW232472   5.713   6.435   4.724
10525SOL     OW32473   5.033   2.187   3.793
10525SOL    HW132474   5.018   2.221   3.700
10525SOL    HW232475   5.099   2.247   3.840
10526SOL     OW32476   1.703   6.477   6.254
10526SOL    HW132477   1.739   6.431   6.174
10526SOL    HW232478   1.652   6.412   6.310
10527SOL     OW32479   0.786   6.537   5.763
10527SOL    HW132480   0.867   6.583   5.727
10527SOL    HW232481   0.800   6.438   5.758
10528SOL     OW32482   2.873   6.046   5.225
10528SOL    HW132483   2.843   5.986   5.151
10528SOL    HW232484   2.812   6.036   5.304
10529SOL     OW32485   6.951   5.370   6.145
10529SOL    HW132486   6.965   5.382   6.047
10529SOL    HW232487   6.864   5.411   6.172
10530SOL     OW32488   5.389   0.322   1.495
10530SOL    HW132489   5.327   0.286   1.426
10530SOL    HW232490   5.352   0.406   1.533
10531SOL     OW32491   3.413   0.878   6.245
10531SOL    HW132492   3.420   0.814   6.321
10531SOL    HW232493   3.488   0.943   6.249
10532SOL     OW32494   4.589   5.613   5.531
10532SOL    HW132495   4.677   5.617   5.484
10532SOL    HW232496   4.517   5.593   5.465
10533SOL     OW32497   4.193   6.334   4.072
10533SOL    HW132498   4.239   6.408   4.022
10533SOL    HW232499   4.140   6.278   4.008
10534SOL     OW32500   0.497   6.053   4.719
10534SOL    HW132501   0.456   5.961   4.717
10534SOL    HW232502   0.427   6.119   4.745
10535SOL     OW32503   3.876   1.514   2.475
10535SOL    HW132504   3.830   1.595   2.512
10535SOL    HW232505   3.809   1.458   2.425
10536SOL     OW32506   5.947   3.329   4.061
10536SOL    HW132507   6.035   3.361   4.025
10536SOL    HW232508   5.949   3.329   4.161
10537SOL     OW32509   2.381   1.481   2.505
10537SOL    HW132510   2.443   1.455   2.579
10537SOL    HW232511   2.346   1.398   2.461
10538SOL     OW32512   6.380   2.646   3.502
10538SOL    HW132513   6.319   2.705   3.450
10538SOL    HW232514   6.447   2.702   3.552
10539SOL     OW32515   6.654   0.612   1.735
10539SOL    HW132516   6.737   0.570   1.698
10539SOL    HW232517   6.577   0.592   1.675
10540SOL     OW32518   1.821   2.448   6.076
10540SOL    HW132519   1.879   2.529   6.062
10540SOL    HW232520   1.838   2.412   6.168
10541SOL     OW32521   3.763   2.715   6.772
10541SOL    HW132522   3.728   2.797   6.817
10541SOL    HW232523   3.856   2.696   6.804
10542SOL     OW32524   3.642   6.448   3.007
10542SOL    HW132525   3.716   6.515   3.014
10542SOL    HW232526   3.561   6.492   2.966
10543SOL     OW32527   0.902   2.753   4.078
10543SOL    HW132528   0.829   2.740   4.011
10543SOL    HW232529   0.981   2.698   4.052
10544SOL     OW32530   2.816   2.255   2.238
10544SOL    HW132531   2.741   2.196   2.207
10544SOL    HW232532   2.858   2.300   2.160
10545SOL     OW32533   0.953   3.308   1.425
10545SOL    HW132534   1.051   3.327   1.431
10545SOL    HW232535   0.939   3.219   1.381
10546SOL     OW32536   1.733   0.265   4.835
10546SOL    HW132537   1.759   0.199   4.905
10546SOL    HW232538   1.785   0.349   4.848
10547SOL     OW32539   3.297   5.912   6.415
10547SOL    HW132540   3.207   5.876   6.442
10547SOL    HW232541   3.289   5.959   6.327
10548SOL     OW32542   1.526   5.370   3.079
10548SOL    HW132543   1.620   5.401   3.097
10548SOL    HW232544   1.522   5.271   3.086
10549SOL     OW32545   0.081   1.600   2.501
10549SOL    HW132546   0.137   1.671   2.458
10549SOL    HW232547   0.032   1.640   2.579
10550SOL     OW32548   0.076   4.592   2.668
10550SOL    HW132549   7.016   4.656   2.674
10550SOL    HW232550   0.103   4.582   2.572
10551SOL     OW32551   4.529   0.663   4.636
10551SOL    HW132552   4.543   0.605   4.556
10551SOL    HW232553   4.497   0.753   4.606
10552SOL     OW32554   2.116   6.945   4.025
10552SOL    HW132555   2.200   6.978   4.068
10552SOL    HW232556   2.070   0.006   3.981
10553SOL     OW32557   5.856   5.116   1.427
10553SOL    HW132558   5.949   5.114   1.464
10553SOL    HW232559   5.827   5.210   1.411
10554SOL     OW32560   5.210   5.702   1.723
10554SOL    HW132561   5.112   5.688   1.737
10554SOL    HW232562   5.238   5.659   1.637
10555SOL     OW32563   3.336   2.899   2.451
10555SOL    HW132564   3.334   2.850   2.364
10555SOL    HW232565   3.366   2.993   2.435
10556SOL     OW32566   2.341   2.081   2.276
10556SOL    HW132567   2.280   2.066   2.198
10556SOL    HW232568   2.321   2.013   2.347
10557SOL     OW32569   1.036   4.458   3.165
10557SOL    HW132570   0.991   4.462   3.255
10557SOL    HW232571   1.124   4.411   3.174
10558SOL     OW32572   5.291   5.528   4.139
10558SOL    HW132573   5.199   5.543   4.105
10558SOL    HW232574   5.293   5.447   4.197
10559SOL     OW32575   3.857   5.636   2.055
10559SOL    HW132576   3.925   5.649   1.984
10559SOL    HW232577   3.888   5.680   2.140
10560SOL     OW32578   5.631   6.866   3.877
10560SOL    HW132579   5.553   6.825   3.925
10560SOL    HW232580   5.700   6.796   3.861
10561SOL     OW32581   0.866   5.879   5.652
10561SOL    HW132582   0.871   5.893   5.751
10561SOL    HW232583   0.890   5.965   5.606
10562SOL     OW32584   2.566   1.401   2.693
10562SOL    HW132585   2.495   1.351   2.742
10562SOL    HW232586   2.656   1.375   2.727
10563SOL     OW32587   1.587   5.233   2.181
10563SOL    HW132588   1.661   5.242   2.248
10563SOL    HW232589   1.623   5.192   2.097
10564SOL     OW32590   5.481   5.519   3.634
10564SOL    HW132591   5.528   5.601   3.601
10564SOL    HW232592   5.530   5.482   3.713
10565SOL     OW32593   0.036   1.132   4.526
10565SOL    HW132594   7.014   1.040   4.537
10565SOL    HW232595   0.135   1.126   4.519
10566SOL     OW32596   3.607   1.322   0.731
10566SOL    HW132597   3.580   1.302   0.637
10566SOL    HW232598   3.656   1.244   0.769
10567SOL     OW32599   2.951   1.775   6.384
10567SOL    HW132600   2.974   1.752   6.289
10567SOL    HW232601   3.035   1.777   6.439
10568SOL     OW32602   6.328   1.419   6.432
10568SOL    HW132603   6.381   1.413   6.517
10568SOL    HW232604   6.390   1.420   6.354
10569SOL     OW32605   4.056   0.506   1.739
10569SOL    HW132606   4.097   0.541   1.655
10569SOL    HW232607   4.026   0.583   1.795
10570SOL     OW32608   1.278   4.001   3.185
10570SOL    HW132609   1.327   3.987   3.099
10570SOL    HW232610   1.204   3.934   3.193
10571SOL     OW32611   0.976   3.870   4.899
10571SOL    HW132612   0.938   3.949   4.852
10571SOL    HW232613   1.047   3.828   4.842
10572SOL     OW32614   6.837   5.502   0.869
10572SOL    HW132615   6.818   5.404   0.860
10572SOL    HW232616   6.917   5.525   0.815
10573SOL     OW32617   5.662   1.944   2.718
10573SOL    HW132618   5.699   1.940   2.811
10573SOL    HW232619   5.704   1.872   2.662
10574SOL     OW32620   5.508   2.354   2.932
10574SOL    HW132621   5.466   2.303   3.007
10574SOL    HW232622   5.532   2.291   2.858
10575SOL     OW32623   4.792   6.912   3.190
10575SOL    HW132624   4.877   6.878   3.150
10575SOL    HW232625   4.801   7.009   3.211
10576SOL     OW32626   1.120   3.250   5.004
10576SOL    HW132627   1.078   3.301   4.929
10576SOL    HW232628   1.088   3.287   5.092
10577SOL     OW32629   4.453   4.881   6.469
10577SOL    HW132630   4.434   4.787   6.440
10577SOL    HW232631   4.478   4.936   6.389
10578SOL     OW32632   1.572   2.939   2.170
10578SOL    HW132633   1.489   2.940   2.225
10578SOL    HW232634   1.640   3.000   2.210
10579SOL     OW32635   0.410   3.131   0.425
10579SOL    HW132636   0.500   3.137   0.470
10579SOL    HW232637   0.339   3.142   0.494
10580SOL     OW32638   4.513   6.087   6.133
10580SOL    HW132639   4.544   6.179   6.107
10580SOL    HW232640   4.462   6.047   6.057
10581SOL     OW32641   3.478   0.688   2.603
10581SOL    HW132642   3.450   0.724   2.514
10581SOL    HW232643   3.416   0.613   2.629
10582SOL     OW32644   0.350   3.671   0.269
10582SOL    HW132645   0.274   3.641   0.326
10582SOL    HW232646   0.400   3.591   0.235
10583SOL     OW32647   3.740   1.791   5.819
10583SOL    HW132648   3.797   1.817   5.897
10583SOL    HW232649   3.697   1.872   5.781
10584SOL     OW32650   6.761   0.304   3.967
10584SOL    HW132651   6.831   0.374   3.977
10584SOL    HW232652   6.693   0.335   3.900
10585SOL     OW32653   1.740   0.977   4.611
10585SOL    HW132654   1.732   1.075   4.594
10585SOL    HW232655   1.793   0.935   4.538
10586SOL     OW32656   4.689   3.358   6.152
10586SOL    HW132657   4.652   3.448   6.176
10586SOL    HW232658   4.741   3.365   6.067
10587SOL     OW32659   2.116   5.064   6.219
10587SOL    HW132660   2.115   5.153   6.173
10587SOL    HW232661   2.179   5.003   6.172
10588SOL     OW32662   1.194   4.530   4.410
10588SOL    HW132663   1.278   4.585   4.409
10588SOL    HW232664   1.139   4.551   4.330
10589SOL     OW32665   6.312   0.725   3.368
10589SOL    HW132666   6.275   0.777   3.291
10589SOL    HW232667   6.240   0.710   3.436
10590SOL     OW32668   6.462   6.439   2.243
10590SOL    HW132669   6.366   6.418   2.223
10590SOL    HW232670   6.472   6.538   2.256
10591SOL     OW32671   6.274   4.243   2.702
10591SOL    HW132672   6.191   4.228   2.755
10591SOL    HW232673   6.255   4.228   2.605
10592SOL     OW32674   6.120   3.704   5.635
10592SOL    HW132675   6.042   3.738   5.687
10592SOL    HW232676   6.088   3.647   5.560
10593SOL     OW32677   3.424   5.921   3.068
10593SOL    HW132678   3.423   6.007   3.018
10593SOL    HW232679   3.451   5.847   3.007
10594SOL     OW32680   3.771   6.082   3.685
10594SOL    HW132681   3.788   6.169   3.640
10594SOL    HW232682   3.769   6.096   3.784
10595SOL     OW32683   6.193   5.703   0.971
10595SOL    HW132684   6.127   5.772   0.941
10595SOL    HW232685   6.232   5.657   0.891
10596SOL     OW32686   6.421   3.476   1.197
10596SOL    HW132687   6.440   3.419   1.117
10596SOL    HW232688   6.410   3.571   1.169
10597SOL     OW32689   0.964   6.720   4.935
10597SOL    HW132690   0.957   6.801   4.993
10597SOL    HW232691   1.060   6.699   4.918
10598SOL     OW32692   2.859   1.459   1.029
10598SOL    HW132693   2.920   1.389   0.991
10598SOL    HW232694   2.784   1.476   0.965
10599SOL     OW32695   0.743   1.821   1.019
10599SOL    HW132696   0.721   1.746   0.957
10599SOL    HW232697   0.691   1.812   1.103
10600SOL     OW32698   4.644   1.268   1.893
10600SOL    HW132699   4.712   1.312   1.952
10600SOL    HW232700   4.561   1.324   1.892
10601SOL     OW32701   1.632   1.926   5.381
10601SOL    HW132702   1.609   1.860   5.452
10601SOL    HW232703   1.565   1.922   5.307
10602SOL     OW32704   6.878   6.556   0.962
10602SOL    HW132705   6.781   6.577   0.969
10602SOL    HW232706   6.911   6.521   1.051
10603SOL     OW32707   5.671   0.127   3.017
10603SOL    HW132708   5.692   0.058   3.087
10603SOL    HW232709   5.735   0.118   2.941
10604SOL     OW32710   5.586   1.963   4.625
10604SOL    HW132711   5.506   1.936   4.571
10604SOL    HW232712   5.564   2.045   4.677
10605SOL     OW32713   4.778   1.540   1.350
10605SOL    HW132714   4.738   1.484   1.422
10605SOL    HW232715   4.863   1.581   1.383
10606SOL     OW32716   5.780   1.718   0.970
10606SOL    HW132717   5.863   1.708   0.915
10606SOL    HW232718   5.702   1.684   0.919
10607SOL     OW32719   1.827   4.914   1.293
10607SOL    HW132720   1.784   4.887   1.379
10607SOL    HW232721   1.821   5.013   1.282
10608SOL     OW32722   5.254   3.919   2.365
10608SOL    HW132723   5.203   3.832   2.365
10608SOL    HW232724   5.191   3.994   2.347
10609SOL     OW32725   5.678   5.877   6.824
10609SOL    HW132726   5.771   5.855   6.856
10609SOL    HW232727   5.624   5.910   6.901
10610SOL     OW32728   0.337   2.538   3.270
10610SOL    HW132729   0.411   2.479   3.302
10610SOL    HW232730   0.253   2.485   3.260
10611SOL     OW32731   3.991   5.732   6.616
10611SOL    HW132732   4.044   5.655   6.580
10611SOL    HW232733   3.905   5.698   6.653
10612SOL     OW32734   5.543   2.318   4.048
10612SOL    HW132735   5.630   2.290   4.008
10612SOL    HW232736   5.468   2.278   3.994
10613SOL     OW32737   5.050   4.807   5.724
10613SOL    HW132738   5.066   4.773   5.632
10613SOL    HW232739   4.997   4.740   5.776
10614SOL     OW32740   4.371   1.686   0.186
10614SOL    HW132741   4.341   1.651   0.274
10614SOL    HW232742   4.410   1.778   0.198
10615SOL     OW32743   4.201   2.892   6.041
10615SOL    HW132744   4.244   2.815   6.087
10615SOL    HW232745   4.198   2.874   5.943
10616SOL     OW32746   1.558   5.334   0.162
10616SOL    HW132747   1.529   5.416   0.211
10616SOL    HW232748   1.657   5.332   0.155
10617SOL     OW32749   2.045   3.445   0.030
10617SOL    HW132750   2.082   3.373   6.988
10617SOL    HW232751   2.120   3.503   0.063
10618SOL     OW32752   0.134   4.753   5.059
10618SOL    HW132753   0.133   4.654   5.050
10618SOL    HW232754   0.175   4.794   4.977
10619SOL     OW32755   1.260   2.325   1.052
10619SOL    HW132756   1.235   2.407   1.001
10619SOL    HW232757   1.357   2.305   1.038
10620SOL     OW32758   4.091   1.244   5.699
10620SOL    HW132759   3.992   1.258   5.692
10620SOL    HW232760   4.114   1.152   5.667
10621SOL     OW32761   0.760   5.460   4.537
10621SOL    HW132762   0.674   5.461   4.485
10621SOL    HW232763   0.763   5.540   4.597
10622SOL     OW32764   4.224   2.318   6.230
10622SOL    HW132765   4.192   2.412   6.218
10622SOL    HW232766   4.147   2.258   6.248
10623SOL     OW32767   5.636   4.887   5.114
10623SOL    HW132768   5.717   4.836   5.146
10623SOL    HW232769   5.653   4.923   5.022
10624SOL     OW32770   0.279   1.294   5.570
10624SOL    HW132771   0.229   1.298   5.657
10624SOL    HW232772   0.353   1.227   5.579
10625SOL     OW32773   6.404   5.015   6.587
10625SOL    HW132774   6.409   4.949   6.512
10625SOL    HW232775   6.464   4.985   6.661
10626SOL     OW32776   5.463   3.575   1.532
10626SOL    HW132777   5.488   3.671   1.543
10626SOL    HW232778   5.524   3.532   1.465
10627SOL     OW32779   4.941   5.373   5.538
10627SOL    HW132780   5.013   5.408   5.478
10627SOL    HW232781   4.928   5.436   5.615
10628SOL     OW32782   2.424   6.200   1.854
10628SOL    HW132783   2.473   6.136   1.796
10628SOL    HW232784   2.465   6.291   1.846
10629SOL     OW32785   4.360   5.595   4.190
10629SOL    HW132786   4.364   5.599   4.290
10629SOL    HW232787   4.288   5.655   4.157
10630SOL     OW32788   4.243   0.947   1.657
10630SOL    HW132789   4.317   1.000   1.615
10630SOL    HW232790   4.282   0.866   1.702
10631SOL     OW32791   3.668   5.984   1.957
10631SOL    HW132792   3.633   5.963   2.048
10631SOL    HW232793   3.685   6.083   1.949
10632SOL     OW32794   5.985   0.806   4.841
10632SOL    HW132795   5.993   0.708   4.820
10632SOL    HW232796   5.897   0.840   4.808
10633SOL     OW32797   2.802   3.804   0.310
10633SOL    HW132798   2.759   3.775   0.224
10633SOL    HW232799   2.886   3.854   0.290
10634SOL     OW32800   0.930   4.057   0.921
10634SOL    HW132801   0.983   4.125   0.871
10634SOL    HW232802   0.983   3.973   0.930
10635SOL     OW32803   3.230   4.756   0.558
10635SOL    HW132804   3.157   4.785   0.619
10635SOL    HW232805   3.191   4.703   0.483
10636SOL     OW32806   0.706   2.582   0.578
10636SOL    HW132807   0.607   2.594   0.566
10636SOL    HW232808   0.722   2.503   0.638
10637SOL     OW32809   1.576   6.679   5.222
10637SOL    HW132810   1.623   6.724   5.298
10637SOL    HW232811   1.493   6.729   5.200
10638SOL     OW32812   6.062   4.114   6.976
10638SOL    HW132813   5.972   4.090   6.940
10638SOL    HW232814   6.114   4.161   6.904
10639SOL     OW32815   6.746   5.136   6.570
10639SOL    HW132816   6.818   5.068   6.563
10639SOL    HW232817   6.671   5.111   6.509
10640SOL     OW32818   4.415   5.638   4.905
10640SOL    HW132819   4.386   5.545   4.881
10640SOL    HW232820   4.469   5.676   4.830
10641SOL     OW32821   0.975   1.344   3.255
10641SOL    HW132822   1.060   1.325   3.303
10641SOL    HW232823   0.902   1.359   3.321
10642SOL     OW32824   6.457   2.200   5.789
10642SOL    HW132825   6.525   2.126   5.784
10642SOL    HW232826   6.442   2.224   5.885
10643SOL     OW32827   3.554   5.564   4.960
10643SOL    HW132828   3.631   5.502   4.975
10643SOL    HW232829   3.493   5.526   4.891
10644SOL     OW32830   1.717   3.689   3.673
10644SOL    HW132831   1.786   3.745   3.718
10644SOL    HW232832   1.666   3.636   3.741
10645SOL     OW32833   1.814   3.234   3.271
10645SOL    HW132834   1.816   3.156   3.334
10645SOL    HW232835   1.897   3.233   3.215
10646SOL     OW32836   5.518   1.162   3.249
10646SOL    HW132837   5.496   1.085   3.309
10646SOL    HW232838   5.453   1.165   3.174
10647SOL     OW32839   4.740   5.995   4.507
10647SOL    HW132840   4.683   6.075   4.489
10647SOL    HW232841   4.684   5.912   4.502
10648SOL     OW32842   4.567   3.159   5.732
10648SOL    HW132843   4.527   3.221   5.800
10648SOL    HW232844   4.502   3.087   5.710
10649SOL     OW32845   6.033   3.379   3.270
10649SOL    HW132846   6.077   3.337   3.350
10649SOL    HW232847   6.086   3.359   3.188
10650SOL     OW32848   0.640   1.000   2.757
10650SOL    HW132849   0.557   1.043   2.722
10650SOL    HW232850   0.698   0.971   2.681
10651SOL     OW32851   2.248   5.687   5.013
10651SOL    HW132852   2.213   5.781   5.011
10651SOL    HW232853   2.337   5.685   5.056
10652SOL     OW32854   3.439   0.371   0.109
10652SOL    HW132855   3.342   0.363   0.085
10652SOL    HW232856   3.476   0.281   0.132
10653SOL     OW32857   6.321   6.084   4.887
10653SOL    HW132858   6.300   6.179   4.865
10653SOL    HW232859   6.284   6.061   4.977
10654SOL     OW32860   6.880   1.459   3.843
10654SOL    HW132861   6.851   1.365   3.827
10654SOL    HW232862   6.979   1.462   3.857
10655SOL     OW32863   6.306   4.771   0.499
10655SOL    HW132864   6.228   4.789   0.439
10655SOL    HW232865   6.369   4.709   0.453
10656SOL     OW32866   5.614   0.637   5.708
10656SOL    HW132867   5.652   0.640   5.800
10656SOL    HW232868   5.679   0.590   5.647
10657SOL     OW32869   4.931   0.419   5.690
10657SOL    HW132870   4.850   0.406   5.632
10657SOL    HW232871   5.011   0.435   5.632
10658SOL     OW32872   1.317   0.850   5.095
10658SOL    HW132873   1.245   0.910   5.061
10658SOL    HW232874   1.392   0.905   5.131
10659SOL     OW32875   0.699   5.573   6.725
10659SOL    HW132876   0.617   5.518   6.734
10659SOL    HW232877   0.694   5.652   6.786
10660SOL     OW32878   6.428   2.263   6.297
10660SOL    HW132879   6.485   2.330   6.249
10660SOL    HW232880   6.486   2.197   6.344
10661SOL     OW32881   4.106   5.525   6.014
10661SOL    HW132882   4.052   5.441   6.024
10661SOL    HW232883   4.093   5.562   5.922
10662SOL     OW32884   3.460   1.778   1.144
10662SOL    HW132885   3.456   1.836   1.062
10662SOL    HW232886   3.439   1.833   1.225
10663SOL     OW32887   6.750   3.542   3.940
10663SOL    HW132888   6.737   3.569   4.035
10663SOL    HW232889   6.834   3.489   3.931
10664SOL     OW32890   0.480   6.007   4.207
10664SOL    HW132891   0.539   6.063   4.148
10664SOL    HW232892   0.534   5.933   4.247
10665SOL     OW32893   4.555   3.852   0.975
10665SOL    HW132894   4.545   3.779   0.907
10665SOL    HW232895   4.583   3.936   0.929
10666SOL     OW32896   5.211   3.643   1.925
10666SOL    HW132897   5.151   3.718   1.895
10666SOL    HW232898   5.162   3.556   1.918
10667SOL     OW32899   5.586   2.664   4.064
10667SOL    HW132900   5.561   2.575   4.101
10667SOL    HW232901   5.683   2.663   4.037
10668SOL     OW32902   3.103   3.407   6.221
10668SOL    HW132903   3.017   3.384   6.176
10668SOL    HW232904   3.174   3.343   6.191
10669SOL     OW32905   6.907   2.536   1.982
10669SOL    HW132906   6.933   2.545   1.885
10669SOL    HW232907   6.811   2.509   1.988
10670SOL     OW32908   4.732   4.787   4.204
10670SOL    HW132909   4.679   4.792   4.289
10670SOL    HW232910   4.829   4.776   4.226
10671SOL     OW32911   1.794   3.271   4.158
10671SOL    HW132912   1.761   3.176   4.159
10671SOL    HW232913   1.734   3.328   4.214
10672SOL     OW32914   6.353   5.166   1.542
10672SOL    HW132915   6.436   5.167   1.486
10672SOL    HW232916   6.372   5.123   1.630
10673SOL     OW32917   3.009   1.036   1.681
10673SOL    HW132918   2.968   1.097   1.612
10673SOL    HW232919   3.108   1.034   1.670
10674SOL     OW32920   3.904   3.037   3.151
10674SOL    HW132921   3.853   3.019   3.067
10674SOL    HW232922   3.951   2.953   3.180
10675SOL     OW32923   3.822   6.242   5.945
10675SOL    HW132924   3.870   6.261   5.860
10675SOL    HW232925   3.735   6.292   5.946
10676SOL     OW32926   1.276   1.392   4.627
10676SOL    HW132927   1.346   1.462   4.642
10676SOL    HW232928   1.232   1.407   4.539
10677SOL     OW32929   0.141   1.146   6.903
10677SOL    HW132930   0.102   1.238   6.897
10677SOL    HW232931   0.233   1.151   6.941
10678SOL     OW32932   3.220   4.885   2.598
10678SOL    HW132933   3.122   4.874   2.613
10678SOL    HW232934   3.244   4.848   2.508
10679SOL     OW32935   5.504   3.948   6.970
10679SOL    HW132936   5.562   4.003   0.014
10679SOL    HW232937   5.411   3.945   7.007
10680SOL     OW32938   4.172   1.887   4.896
10680SOL    HW132939   4.091   1.829   4.905
10680SOL    HW232940   4.252   1.839   4.929
10681SOL     OW32941   2.611   3.377   5.743
10681SOL    HW132942   2.544   3.408   5.811
10681SOL    HW232943   2.619   3.445   5.670
10682SOL     OW32944   5.416   3.283   6.126
10682SOL    HW132945   5.396   3.256   6.032
10682SOL    HW232946   5.332   3.309   6.173
10683SOL     OW32947   1.775   6.695   3.016
10683SOL    HW132948   1.682   6.671   2.988
10683SOL    HW232949   1.794   6.659   3.107
10684SOL     OW32950   4.993   4.137   1.415
10684SOL    HW132951   5.049   4.160   1.335
10684SOL    HW232952   5.050   4.137   1.497
10685SOL     OW32953   0.795   0.836   2.572
10685SOL    HW132954   0.822   0.754   2.521
10685SOL    HW232955   0.876   0.892   2.588
10686SOL     OW32956   2.876   1.892   6.839
10686SOL    HW132957   2.814   1.970   6.837
10686SOL    HW232958   2.824   1.808   6.826
10687SOL     OW32959   0.582   3.217   3.202
10687SOL    HW132960   0.547   3.303   3.239
10687SOL    HW232961   0.681   3.211   3.216
10688SOL     OW32962   4.831   1.182   3.638
10688SOL    HW132963   4.868   1.267   3.676
10688SOL    HW232964   4.755   1.151   3.694
10689SOL     OW32965   1.537   1.203   3.084
10689SOL    HW132966   1.563   1.276   3.021
10689SOL    HW232967   1.438   1.194   3.086
10690SOL     OW32968   1.316   6.066   4.835
10690SOL    HW132969   1.239   6.010   4.866
10690SOL    HW232970   1.314   6.074   4.736
10691SOL     OW32971   3.504   6.505   1.257
10691SOL    HW132972   3.572   6.557   1.309
10691SOL    HW232973   3.446   6.568   1.207
10692SOL     OW32974   2.824   2.318   4.098
10692SOL    HW132975   2.924   2.314   4.086
10692SOL    HW232976   2.803   2.333   4.194
10693SOL     OW32977   1.357   4.270   6.924
10693SOL    HW132978   1.424   4.196   6.939
10693SOL    HW232979   1.265   4.232   6.924
10694SOL     OW32980   5.177   2.508   5.569
10694SOL    HW132981   5.233   2.508   5.651
10694SOL    HW232982   5.081   2.521   5.594
10695SOL     OW32983   4.716   4.788   1.579
10695SOL    HW132984   4.718   4.750   1.671
10695SOL    HW232985   4.692   4.716   1.514
10696SOL     OW32986   6.660   5.122   4.299
10696SOL    HW132987   6.627   5.104   4.392
10696SOL    HW232988   6.757   5.145   4.302
10697SOL     OW32989   2.651   4.944   5.003
10697SOL    HW132990   2.618   4.873   4.941
10697SOL    HW232991   2.749   4.931   5.019
10698SOL     OW32992   3.908   4.733   6.882
10698SOL    HW132993   3.924   4.775   6.971
10698SOL    HW232994   3.965   4.652   6.872
10699SOL     OW32995   4.475   3.904   1.519
10699SOL    HW132996   4.518   3.826   1.474
10699SOL    HW232997   4.540   3.946   1.582
10700SOL     OW32998   4.959   0.047   1.412
10700SOL    HW132999   5.052   0.040   1.377
10700SOL    HW233000   4.894   0.022   1.340
10701SOL     OW33001   3.171   6.554   5.836
10701SOL    HW133002   3.128   6.494   5.769
10701SOL    HW233003   3.267   6.567   5.811
10702SOL     OW33004   5.827   2.611   2.241
10702SOL    HW133005   5.841   2.606   2.340
10702SOL    HW233006   5.912   2.643   2.198
10703SOL     OW33007   0.929   2.019   5.741
10703SOL    HW133008   0.964   2.052   5.829
10703SOL    HW233009   0.829   2.026   5.741
10704SOL     OW33010   5.365   6.832   1.850
10704SOL    HW133011   5.390   6.744   1.811
10704SOL    HW233012   5.362   6.824   1.950
10705SOL     OW33013   4.750   3.821   1.660
10705SOL    HW133014   4.757   3.905   1.713
10705SOL    HW233015   4.797   3.833   1.573
10706SOL     OW33016   3.177   1.101   2.159
10706SOL    HW133017   3.126   1.028   2.205
10706SOL    HW233018   3.121   1.139   2.086
10707SOL     OW33019   3.896   6.887   3.130
10707SOL    HW133020   3.816   6.942   3.105
10707SOL    HW233021   3.979   6.933   3.099
10708SOL     OW33022   4.271   1.251   1.391
10708SOL    HW133023   4.326   1.285   1.315
10708SOL    HW233024   4.313   1.168   1.428
10709SOL     OW33025   5.569   4.177   2.926
10709SOL    HW133026   5.485   4.137   2.960
10709SOL    HW233027   5.548   4.254   2.866
10710SOL     OW33028   4.614   1.677   3.204
10710SOL    HW133029   4.683   1.697   3.135
10710SOL    HW233030   4.531   1.730   3.186
10711SOL     OW33031   2.568   6.443   3.369
10711SOL    HW133032   2.567   6.518   3.436
10711SOL    HW233033   2.474   6.411   3.355
10712SOL     OW33034   5.175   0.877   3.421
10712SOL    HW133035   5.085   0.838   3.440
10712SOL    HW233036   5.170   0.977   3.425
10713SOL     OW33037   1.002   3.732   1.168
10713SOL    HW133038   1.003   3.763   1.073
10713SOL    HW233039   0.998   3.632   1.171
10714SOL     OW33040   3.048   4.094   4.913
10714SOL    HW133041   3.002   4.182   4.902
10714SOL    HW233042   3.061   4.074   5.010
10715SOL     OW33043   6.375   0.924   1.820
10715SOL    HW133044   6.323   0.968   1.746
10715SOL    HW233045   6.465   0.967   1.827
10716SOL     OW33046   4.927   1.026   3.153
10716SOL    HW133047   4.987   1.079   3.093
10716SOL    HW233048   4.895   1.084   3.228
10717SOL     OW33049   3.443   3.144   0.525
10717SOL    HW133050   3.396   3.224   0.490
10717SOL    HW233051   3.450   3.075   0.453
10718SOL     OW33052   1.733   5.234   6.373
10718SOL    HW133053   1.643   5.277   6.383
10718SOL    HW233054   1.762   5.195   6.460
10719SOL     OW33055   6.811   4.514   5.677
10719SOL    HW133056   6.723   4.507   5.724
10719SOL    HW233057   6.884   4.530   5.744
10720SOL     OW33058   6.966   5.429   2.807
10720SOL    HW133059   6.868   5.426   2.828
10720SOL    HW233060   6.985   5.375   2.725
10721SOL     OW33061   5.062   2.848   6.507
10721SOL    HW133062   5.003   2.917   6.464
10721SOL    HW233063   5.136   2.893   6.556
10722SOL     OW33064   0.191   3.801   5.518
10722SOL    HW133065   0.176   3.890   5.560
10722SOL    HW233066   0.114   3.740   5.540
10723SOL     OW33067   5.742   5.988   0.739
10723SOL    HW133068   5.748   5.964   0.642
10723SOL    HW233069   5.755   6.086   0.750
10724SOL     OW33070   0.185   6.150   6.118
10724SOL    HW133071   0.248   6.162   6.042
10724SOL    HW233072   0.104   6.207   6.104
10725SOL     OW33073   2.515   6.665   6.138
10725SOL    HW133074   2.449   6.592   6.119
10725SOL    HW233075   2.467   6.750   6.156
10726SOL     OW33076   3.673   0.696   4.163
10726SOL    HW133077   3.626   0.784   4.156
10726SOL    HW233078   3.613   0.623   4.132
10727SOL     OW33079   2.423   6.159   6.897
10727SOL    HW133080   2.387   6.241   6.941
10727SOL    HW233081   2.446   6.091   6.967
10728SOL     OW33082   5.275   6.061   1.927
10728SOL    HW133083   5.231   6.132   1.873
10728SOL    HW233084   5.236   6.059   2.019
10729SOL     OW33085   6.522   1.919   0.548
10729SOL    HW133086   6.494   1.878   0.461
10729SOL    HW233087   6.521   2.018   0.540
10730SOL     OW33088   4.609   0.364   3.338
10730SOL    HW133089   4.548   0.348   3.416
10730SOL    HW233090   4.572   0.437   3.281
10731SOL     OW33091   3.141   0.271   1.087
10731SOL    HW133092   3.216   0.293   1.150
10731SOL    HW233093   3.179   0.248   0.998
10732SOL     OW33094   0.586   3.255   5.884
10732SOL    HW133095   0.566   3.264   5.786
10732SOL    HW233096   0.519   3.193   5.925
10733SOL     OW33097   6.097   0.115   6.903
10733SOL    HW133098   6.104   0.016   6.910
10733SOL    HW233099   6.185   0.157   6.927
10734SOL     OW33100   5.495   2.876   1.671
10734SOL    HW133101   5.477   2.974   1.658
10734SOL    HW233102   5.550   2.842   1.596
10735SOL     OW33103   6.953   5.688   2.641
10735SOL    HW133104   6.894   5.758   2.681
10735SOL    HW233105   6.960   5.610   2.704
10736SOL     OW33106   1.914   1.223   5.091
10736SOL    HW133107   1.925   1.260   5.183
10736SOL    HW233108   1.980   1.267   5.029
10737SOL     OW33109   0.003   1.932   6.297
10737SOL    HW133110   6.983   1.932   6.204
10737SOL    HW233111   6.997   1.845   6.341
10738SOL     OW33112   3.901   0.423   4.593
10738SOL    HW133113   3.996   0.450   4.604
10738SOL    HW233114   3.872   0.440   4.498
10739SOL     OW33115   1.829   1.479   2.224
10739SOL    HW133116   1.807   1.407   2.290
10739SOL    HW233117   1.750   1.540   2.214
10740SOL     OW33118   4.283   6.152   3.737
10740SOL    HW133119   4.307   6.056   3.751
10740SOL    HW233120   4.194   6.170   3.778
10741SOL     OW33121   2.326   0.645   3.014
10741SOL    HW133122   2.263   0.628   3.090
10741SOL    HW233123   2.364   0.558   2.982
10742SOL     OW33124   6.781   5.574   0.183
10742SOL    HW133125   6.767   5.665   0.223
10742SOL    HW233126   6.692   5.528   0.174
10743SOL     OW33127   3.419   1.328   5.012
10743SOL    HW133128   3.404   1.260   4.940
10743SOL    HW233129   3.485   1.294   5.078
10744SOL     OW33130   6.112   1.339   0.476
10744SOL    HW133131   6.065   1.278   0.412
10744SOL    HW233132   6.118   1.431   0.437
10745SOL     OW33133   6.863   5.860   6.156
10745SOL    HW133134   6.883   5.901   6.245
10745SOL    HW233135   6.906   5.914   6.084
10746SOL     OW33136   1.948   4.542   4.989
10746SOL    HW133137   1.964   4.640   4.998
10746SOL    HW233138   1.995   4.508   4.907
10747SOL     OW33139   2.948   2.155   4.877
10747SOL    HW133140   3.020   2.215   4.911
10747SOL    HW233141   2.858   2.195   4.895
10748SOL     OW33142   5.820   1.710   2.597
10748SOL    HW133143   5.917   1.691   2.594
10748SOL    HW233144   5.768   1.625   2.603
10749SOL     OW33145   3.476   0.137   0.316
10749SOL    HW133146   3.413   0.098   0.383
10749SOL    HW233147   3.520   0.064   0.265
10750SOL     OW33148   4.684   6.212   6.430
10750SOL    HW133149   4.646   6.129   6.389
10750SOL    HW233150   4.610   6.267   6.469
10751SOL     OW33151   2.335   6.064   2.873
10751SOL    HW133152   2.365   6.156   2.897
10751SOL    HW233153   2.386   6.031   2.794
10752SOL     OW33154   4.997   5.547   4.255
10752SOL    HW133155   5.061   5.624   4.259
10752SOL    HW233156   4.903   5.583   4.248
10753SOL     OW33157   5.578   4.117   4.596
10753SOL    HW133158   5.546   4.033   4.554
10753SOL    HW233159   5.501   4.179   4.609
10754SOL     OW33160   1.193   6.777   2.520
10754SOL    HW133161   1.126   6.839   2.479
10754SOL    HW233162   1.160   6.683   2.512
10755SOL     OW33163   6.391   5.747   1.500
10755SOL    HW133164   6.370   5.740   1.598
10755SOL    HW233165   6.316   5.709   1.447
10756SOL     OW33166   0.249   6.825   5.024
10756SOL    HW133167   0.292   6.915   5.035
10756SOL    HW233168   0.317   6.758   4.995
10757SOL     OW33169   2.796   2.838   1.636
10757SOL    HW133170   2.704   2.799   1.633
10757SOL    HW233171   2.863   2.764   1.640
10758SOL     OW33172   7.003   5.388   4.462
10758SOL    HW133173   6.961   5.312   4.511
10758SOL    HW233174   0.036   5.446   4.526
10759SOL     OW33175   6.872   0.819   6.767
10759SOL    HW133176   6.773   0.814   6.768
10759SOL    HW233177   6.906   0.834   6.860
10760SOL     OW33178   5.796   1.818   4.690
10760SOL    HW133179   5.864   1.882   4.725
10760SOL    HW233180   5.718   1.869   4.653
10761SOL     OW33181   3.400   5.320   5.832
10761SOL    HW133182   3.422   5.410   5.869
10761SOL    HW233183   3.478   5.285   5.779
10762SOL     OW33184   3.077   1.140   6.278
10762SOL    HW133185   3.034   1.080   6.210
10762SOL    HW233186   3.031   1.228   6.277
10763SOL     OW33187   4.911   5.280   4.280
10763SOL    HW133188   4.945   5.373   4.267
10763SOL    HW233189   4.815   5.282   4.308
10764SOL     OW33190   4.620   0.342   4.754
10764SOL    HW133191   4.707   0.380   4.725
10764SOL    HW233192   4.587   0.392   4.835
10765SOL     OW33193   6.984   3.685   0.053
10765SOL    HW133194   6.905   3.656   7.015
10765SOL    HW233195   6.965   3.669   0.150
10766SOL     OW33196   3.113   3.487   2.014
10766SOL    HW133197   3.044   3.475   2.085
10766SOL    HW233198   3.087   3.562   1.953
10767SOL     OW33199   4.702   2.001   2.051
10767SOL    HW133200   4.620   1.979   2.104
10767SOL    HW233201   4.676   2.053   1.969
10768SOL     OW33202   5.892   4.540   6.533
10768SOL    HW133203   5.940   4.608   6.478
10768SOL    HW233204   5.855   4.469   6.474
10769SOL     OW33205   1.955   3.570   4.660
10769SOL    HW133206   2.036   3.627   4.649
10769SOL    HW233207   1.877   3.614   4.615
10770SOL     OW33208   3.829   6.062   3.961
10770SOL    HW133209   3.867   6.097   4.047
10770SOL    HW233210   3.786   5.973   3.977
10771SOL     OW33211   2.524   2.007   4.316
10771SOL    HW133212   2.544   2.037   4.223
10771SOL    HW233213   2.436   2.046   4.345
10772SOL     OW33214   5.091   5.854   4.183
10772SOL    HW133215   5.104   5.820   4.090
10772SOL    HW233216   5.168   5.826   4.241
10773SOL     OW33217   5.410   5.344   2.762
10773SOL    HW133218   5.508   5.326   2.756
10773SOL    HW233219   5.375   5.373   2.673
10774SOL     OW33220   6.921   6.836   3.215
10774SOL    HW133221   6.971   6.911   3.171
10774SOL    HW233222   6.923   6.756   3.155
10775SOL     OW33223   0.294   2.893   1.238
10775SOL    HW133224   0.219   2.953   1.265
10775SOL    HW233225   0.270   2.846   1.153
10776SOL     OW33226   1.812   0.526   5.595
10776SOL    HW133227   1.819   0.623   5.572
10776SOL    HW233228   1.809   0.516   5.694
10777SOL     OW33229   3.112   5.735   1.448
10777SOL    HW133230   3.064   5.667   1.502
10777SOL    HW233231   3.154   5.691   1.368
10778SOL     OW33232   5.891   6.164   1.649
10778SOL    HW133233   5.805   6.158   1.699
10778SOL    HW233234   5.922   6.259   1.647
10779SOL     OW33235   5.024   2.972   3.568
10779SOL    HW133236   5.113   2.971   3.613
10779SOL    HW233237   4.984   2.880   3.570
10780SOL     OW33238   6.810   0.391   2.087
10780SOL    HW133239   6.803   0.298   2.122
10780SOL    HW233240   6.726   0.415   2.039
10781SOL     OW33241   3.131   0.128   3.881
10781SOL    HW133242   3.113   0.049   3.822
10781SOL    HW233243   3.223   0.162   3.864
10782SOL     OW33244   6.633   5.697   3.662
10782SOL    HW133245   6.600   5.604   3.680
10782SOL    HW233246   6.556   5.755   3.636
10783SOL     OW33247   6.427   2.552   2.682
10783SOL    HW133248   6.449   2.494   2.760
10783SOL    HW233249   6.463   2.510   2.599
10784SOL     OW33250   1.684   1.716   5.037
10784SOL    HW133251   1.775   1.708   5.077
10784SOL    HW233252   1.631   1.784   5.088
10785SOL     OW33253   1.423   3.069   5.985
10785SOL    HW133254   1.466   3.041   6.070
10785SOL    HW233255   1.493   3.079   5.914
10786SOL     OW33256   6.494   4.442   4.806
10786SOL    HW133257   6.416   4.440   4.743
10786SOL    HW233258   6.559   4.370   4.781
10787SOL     OW33259   2.098   2.341   5.872
10787SOL    HW133260   2.166   2.273   5.846
10787SOL    HW233261   2.008   2.297   5.879
10788SOL     OW33262   5.891   3.622   6.122
10788SOL    HW133263   5.891   3.718   6.151
10788SOL    HW233264   5.823   3.572   6.174
10789SOL     OW33265   4.846   0.852   6.605
10789SOL    HW133266   4.819   0.841   6.509
10789SOL    HW233267   4.770   0.894   6.655
10790SOL     OW33268   5.511   6.572   2.535
10790SOL    HW133269   5.521   6.600   2.440
10790SOL    HW233270   5.581   6.504   2.558
10791SOL     OW33271   0.903   6.086   2.649
10791SOL    HW133272   0.869   6.047   2.563
10791SOL    HW233273   0.825   6.114   2.706
10792SOL     OW33274   3.796   4.688   6.382
10792SOL    HW133275   3.813   4.678   6.480
10792SOL    HW233276   3.824   4.780   6.353
10793SOL     OW33277   5.330   4.266   4.603
10793SOL    HW133278   5.307   4.262   4.700
10793SOL    HW233279   5.246   4.259   4.548
10794SOL     OW33280   3.500   3.466   4.837
10794SOL    HW133281   3.463   3.492   4.748
10794SOL    HW233282   3.503   3.366   4.844
10795SOL     OW33283   6.997   4.955   2.863
10795SOL    HW133284   6.933   4.908   2.924
10795SOL    HW233285   6.990   5.053   2.876
10796SOL     OW33286   0.822   6.722   5.458
10796SOL    HW133287   0.905   6.673   5.431
10796SOL    HW233288   0.819   6.811   5.412
10797SOL     OW33289   3.954   2.835   0.494
10797SOL    HW133290   3.921   2.909   0.552
10797SOL    HW233291   3.901   2.833   0.409
10798SOL     OW33292   5.832   1.271   0.856
10798SOL    HW133293   5.824   1.210   0.778
10798SOL    HW233294   5.927   1.274   0.887
10799SOL     OW33295   5.259   1.303   1.073
10799SOL    HW133296   5.210   1.350   1.147
10799SOL    HW233297   5.217   1.213   1.059
10800SOL     OW33298   6.574   6.583   0.982
10800SOL    HW133299   6.568   6.577   0.883
10800SOL    HW233300   6.570   6.490   1.021
10801SOL     OW33301   2.095   0.647   1.040
10801SOL    HW133302   2.184   0.610   1.013
10801SOL    HW233303   2.109   0.723   1.104
10802SOL     OW33304   5.560   1.351   3.735
10802SOL    HW133305   5.483   1.401   3.694
10802SOL    HW233306   5.617   1.312   3.663
10803SOL     OW33307   2.220   4.747   4.831
10803SOL    HW133308   2.122   4.758   4.846
10803SOL    HW233309   2.261   4.702   4.910
10804SOL     OW33310   6.168   3.422   3.913
10804SOL    HW133311   6.192   3.337   3.866
10804SOL    HW233312   6.208   3.499   3.863
10805SOL     OW33313   6.873   6.663   6.688
10805SOL    HW133314   6.890   6.762   6.684
10805SOL    HW233315   6.850   6.637   6.781
10806SOL     OW33316   1.468   5.129   1.164
10806SOL    HW133317   1.512   5.041   1.147
10806SOL    HW233318   1.371   5.123   1.138
10807SOL     OW33319   3.344   5.191   4.998
10807SOL    HW133320   3.366   5.250   5.076
10807SOL    HW233321   3.348   5.245   4.914
10808SOL     OW33322   1.579   3.070   0.286
10808SOL    HW133323   1.574   3.080   0.385
10808SOL    HW233324   1.571   2.973   0.261
10809SOL     OW33325   1.313   0.840   4.748
10809SOL    HW133326   1.356   0.818   4.661
10809SOL    HW233327   1.354   0.785   4.821
10810SOL     OW33328   6.488   0.618   3.682
10810SOL    HW133329   6.502   0.566   3.598
10810SOL    HW233330   6.392   0.646   3.687
10811SOL     OW33331   5.488   5.598   5.029
10811SOL    HW133332   5.422   5.598   4.954
10811SOL    HW233333   5.462   5.668   5.096
10812SOL     OW33334   0.382   3.175   1.031
10812SOL    HW133335   0.468   3.221   1.013
10812SOL    HW233336   0.313   3.242   1.059
10813SOL     OW33337   1.064   3.547   6.724
10813SOL    HW133338   0.968   3.572   6.716
10813SOL    HW233339   1.074   3.448   6.722
10814SOL     OW33340   3.284   2.000   1.978
10814SOL    HW133341   3.210   2.018   2.043
10814SOL    HW233342   3.319   1.907   1.992
10815SOL     OW33343   5.454   1.065   4.661
10815SOL    HW133344   5.488   1.022   4.578
10815SOL    HW233345   5.354   1.063   4.662
10816SOL     OW33346   3.223   3.256   5.776
10816SOL    HW133347   3.144   3.313   5.799
10816SOL    HW233348   3.191   3.162   5.760
10817SOL     OW33349   1.392   6.356   4.591
10817SOL    HW133350   1.471   6.297   4.581
10817SOL    HW233351   1.408   6.442   4.542
10818SOL     OW33352   4.702   3.833   0.102
10818SOL    HW133353   4.649   3.783   0.034
10818SOL    HW233354   4.648   3.909   0.138
10819SOL     OW33355   6.176   5.871   5.495
10819SOL    HW133356   6.248   5.885   5.563
10819SOL    HW233357   6.120   5.792   5.521
10820SOL     OW33358   1.615   4.916   6.272
10820SOL    HW133359   1.583   4.996   6.221
10820SOL    HW233360   1.630   4.840   6.209
10821SOL     OW33361   4.161   5.759   4.087
10821SOL    HW133362   4.093   5.693   4.057
10821SOL    HW233363   4.118   5.848   4.104
10822SOL     OW33364   5.567   0.428   2.728
10822SOL    HW133365   5.638   0.434   2.797
10822SOL    HW233366   5.483   0.392   2.769
10823SOL     OW33367   5.304   6.616   2.712
10823SOL    HW133368   5.297   6.549   2.786
10823SOL    HW233369   5.375   6.587   2.648
10824SOL     OW33370   1.796   2.313   3.142
10824SOL    HW133371   1.836   2.392   3.188
10824SOL    HW233372   1.714   2.283   3.192
10825SOL     OW33373   6.862   1.260   0.323
10825SOL    HW133374   6.894   1.340   0.273
10825SOL    HW233375   6.763   1.267   0.338
10826SOL     OW33376   6.984   3.248   2.772
10826SOL    HW133377   0.043   3.248   2.838
10826SOL    HW233378   6.962   3.153   2.747
10827SOL     OW33379   0.144   3.181   3.959
10827SOL    HW133380   0.083   3.104   3.975
10827SOL    HW233381   0.234   3.161   3.999
10828SOL     OW33382   6.883   4.245   4.908
10828SOL    HW133383   6.855   4.341   4.900
10828SOL    HW233384   6.879   4.216   5.003
10829SOL     OW33385   4.039   3.019   5.290
10829SOL    HW133386   3.979   3.028   5.369
10829SOL    HW233387   3.989   2.977   5.214
10830SOL     OW33388   5.085   1.926   3.679
10830SOL    HW133389   5.027   1.916   3.599
10830SOL    HW233390   5.052   2.002   3.735
10831SOL     OW33391   4.421   0.095   3.353
10831SOL    HW133392   4.435   0.170   3.417
10831SOL    HW233393   4.334   0.107   3.305
10832SOL     OW33394   6.575   3.227   6.522
10832SOL    HW133395   6.640   3.274   6.582
10832SOL    HW233396   6.606   3.233   6.428
10833SOL     OW33397   0.811   1.147   6.724
10833SOL    HW133398   0.764   1.211   6.785
10833SOL    HW233399   0.910   1.162   6.731
10834SOL     OW33400   6.853   6.465   2.099
10834SOL    HW133401   6.855   6.370   2.066
10834SOL    HW233402   6.938   6.511   2.074
10835SOL     OW33403   6.780   2.734   5.655
10835SOL    HW133404   6.699   2.726   5.713
10835SOL    HW233405   6.777   2.822   5.607
10836SOL     OW33406   6.854   1.676   3.367
10836SOL    HW133407   6.947   1.712   3.371
10836SOL    HW233408   6.789   1.750   3.387
10837SOL     OW33409   6.856   3.168   3.487
10837SOL    HW133410   6.757   3.171   3.484
10837SOL    HW233411   6.892   3.150   3.395
10838SOL     OW33412   0.397   6.922   2.437
10838SOL    HW133413   0.463   6.974   2.490
10838SOL    HW233414   0.427   6.826   2.432
10839SOL     OW33415   4.534   2.589   0.051
10839SOL    HW133416   4.632   2.580   0.032
10839SOL    HW233417   4.489   2.626   6.986
10840SOL     OW33418   2.758   0.578   2.349
10840SOL    HW133419   2.732   0.544   2.259
10840SOL    HW233420   2.762   0.678   2.348
10841SOL     OW33421   2.064   5.128   4.608
10841SOL    HW133422   2.097   5.133   4.702
10841SOL    HW233423   2.092   5.211   4.558
10842SOL     OW33424   6.715   4.726   1.653
10842SOL    HW133425   6.805   4.698   1.686
10842SOL    HW233426   6.649   4.651   1.665
10843SOL     OW33427   2.945   1.226   1.531
10843SOL    HW133428   2.991   1.304   1.574
10843SOL    HW233429   2.972   1.219   1.435
10844SOL     OW33430   1.731   5.623   4.316
10844SOL    HW133431   1.702   5.711   4.279
10844SOL    HW233432   1.746   5.632   4.414
10845SOL     OW33433   3.895   0.974   4.091
10845SOL    HW133434   3.858   1.024   4.013
10845SOL    HW233435   3.857   1.012   4.175
10846SOL     OW33436   5.678   6.627   6.360
10846SOL    HW133437   5.733   6.639   6.277
10846SOL    HW233438   5.589   6.673   6.348
10847SOL     OW33439   3.519   6.943   0.148
10847SOL    HW133440   3.566   6.870   0.097
10847SOL    HW233441   3.422   6.920   0.156
10848SOL     OW33442   1.708   3.150   2.348
10848SOL    HW133443   1.742   3.124   2.438
10848SOL    HW233444   1.619   3.195   2.358
10849SOL     OW33445   1.322   6.373   3.288
10849SOL    HW133446   1.382   6.311   3.339
10849SOL    HW233447   1.238   6.324   3.264
10850SOL     OW33448   5.096   4.326   0.280
10850SOL    HW133449   5.020   4.282   0.327
10850SOL    HW233450   5.082   4.321   0.181
10851SOL     OW33451   1.422   4.932   0.617
10851SOL    HW133452   1.518   4.906   0.615
10851SOL    HW233453   1.413   5.030   0.596
10852SOL     OW33454   3.071   0.917   1.437
10852SOL    HW133455   3.056   0.886   1.531
10852SOL    HW233456   2.989   0.899   1.382
10853SOL     OW33457   3.326   1.060   5.883
10853SOL    HW133458   3.406   1.103   5.842
10853SOL    HW233459   3.314   0.968   5.846
10854SOL     OW33460   2.855   6.053   6.051
10854SOL    HW133461   2.875   5.985   5.980
10854SOL    HW233462   2.857   6.010   6.141
10855SOL     OW33463   4.218   0.986   6.787
10855SOL    HW133464   4.240   0.900   6.739
10855SOL    HW233465   4.228   1.063   6.724
10856SOL     OW33466   0.393   0.274   0.869
10856SOL    HW133467   0.437   0.187   0.845
10856SOL    HW233468   0.460   0.333   0.915
10857SOL     OW33469   6.479   1.666   1.792
10857SOL    HW133470   6.389   1.659   1.836
10857SOL    HW233471   6.530   1.582   1.807
10858SOL     OW33472   2.069   6.195   1.772
10858SOL    HW133473   2.126   6.165   1.695
10858SOL    HW233474   1.991   6.248   1.737
10859SOL     OW33475   1.693   5.244   3.823
10859SOL    HW133476   1.736   5.169   3.873
10859SOL    HW233477   1.760   5.287   3.763
10860SOL     OW33478   0.501   3.800   2.993
10860SOL    HW133479   0.542   3.740   3.061
10860SOL    HW233480   0.465   3.745   2.918
10861SOL     OW33481   4.677   3.356   5.349
10861SOL    HW133482   4.605   3.288   5.337
10861SOL    HW233483   4.664   3.430   5.284
10862SOL     OW33484   1.047   0.674   5.716
10862SOL    HW133485   1.099   0.627   5.788
10862SOL    HW233486   1.047   0.772   5.734
10863SOL     OW33487   2.030   6.764   4.448
10863SOL    HW133488   1.931   6.777   4.444
10863SOL    HW233489   2.052   6.668   4.429
10864SOL     OW33490   3.369   6.929   3.659
10864SOL    HW133491   3.294   6.987   3.690
10864SOL    HW233492   3.378   6.851   3.721
10865SOL     OW33493   6.631   1.020   6.091
10865SOL    HW133494   6.648   0.926   6.122
10865SOL    HW233495   6.547   1.023   6.037
10866SOL     OW33496   6.316   4.806   6.942
10866SOL    HW133497   6.390   4.873   6.935
10866SOL    HW233498   6.249   4.822   6.869
10867SOL     OW33499   3.098   1.949   0.064
10867SOL    HW133500   3.045   1.893   0.127
10867SOL    HW233501   3.096   1.908   6.989
10868SOL     OW33502   1.306   2.496   3.433
10868SOL    HW133503   1.325   2.488   3.335
10868SOL    HW233504   1.301   2.405   3.473
10869NA      NA33505   6.659   2.262   5.206
10870NA      NA33506   4.502   4.440   5.213
10871NA      NA33507   2.130   3.308   1.869
10872NA      NA33508   5.036   3.495   4.973
10873NA      NA33509   4.124   2.305   5.304
10874NA      NA33510   3.717   4.955   2.123
10875NA      NA33511   6.785   6.510   5.001
10876NA      NA33512   3.836   3.323   4.978
10877NA      NA33513   4.641   5.904   6.194
10878NA      NA33514   2.745   6.794   4.928
10879NA      NA33515   0.350   4.844   3.043
10880NA      NA33516   1.940   0.418   1.975
10881NA      NA33517   3.946   4.385   1.155
10882NA      NA33518   3.927   3.686   3.252
   7.01621   7.01621   7.01621
