Generated by trjconv : CNT in water t= 510.00000
33518
    1C        C    1   2.843   2.768   4.748
    1C        C    2   2.896   2.715   4.867
    1C        C    3   2.843   2.770   4.985
    1C        C    4   2.851   2.773   4.259
    1C        C    5   2.899   2.725   4.383
    1C        C    6   2.844   2.768   4.506
    1C        C    7   3.012   2.637   4.625
    1C        C    8   2.896   2.719   4.627
    1C        C    9   3.075   2.601   4.746
    1C        C   10   3.007   2.628   4.867
    1C        C   11   3.185   2.498   4.977
    1C        C   12   3.058   2.559   4.977
    1C        C   13   2.851   2.770   3.771
    1C        C   14   2.904   2.722   3.893
    1C        C   15   2.848   2.772   4.013
    1C        C   16   3.019   2.646   4.138
    1C        C   17   2.903   2.727   4.135
    1C        C   18   3.080   2.613   4.261
    1C        C   19   3.016   2.646   4.383
    1C        C   20   3.207   2.553   4.504
    1C        C   21   3.074   2.602   4.504
    1C        C   22   3.277   2.536   4.625
    1C        C   23   3.207   2.548   4.748
    1C        C   24   3.415   2.482   4.866
    1C        C   25   3.273   2.502   4.865
    1C        C   26   3.491   2.476   4.983
    1C        C   27   2.849   2.765   3.283
    1C        C   28   2.902   2.723   3.407
    1C        C   29   2.852   2.773   3.530
    1C        C   30   3.020   2.637   3.650
    1C        C   31   2.907   2.722   3.650
    1C        C   32   3.078   2.601   3.773
    1C        C   33   3.016   2.636   3.895
    1C        C   34   3.210   2.550   4.016
    1C        C   35   3.080   2.606   4.017
    1C        C   36   3.275   2.529   4.140
    1C        C   37   3.209   2.557   4.261
    1C        C   38   3.415   2.507   4.382
    1C        C   39   3.277   2.533   4.383
    1C        C   40   3.487   2.507   4.504
    1C        C   41   3.416   2.508   4.626
    1C        C   42   3.631   2.486   4.745
    1C        C   43   3.489   2.485   4.744
    1C        C   44   3.705   2.488   4.865
    1C        C   45   3.631   2.477   4.983
    1C        C   46   2.840   2.756   2.794
    1C        C   47   2.893   2.710   2.917
    1C        C   48   2.845   2.762   3.039
    1C        C   49   3.015   2.634   3.162
    1C        C   50   2.898   2.714   3.160
    1C        C   51   3.074   2.600   3.286
    1C        C   52   3.014   2.637   3.408
    1C        C   53   3.212   2.550   3.529
    1C        C   54   3.081   2.603   3.527
    1C        C   55   3.277   2.523   3.652
    1C        C   56   3.206   2.541   3.773
    1C        C   57   3.417   2.508   3.895
    1C        C   58   3.277   2.527   3.894
    1C        C   59   3.487   2.501   4.018
    1C        C   60   3.414   2.502   4.139
    1C        C   61   3.628   2.504   4.260
    1C        C   62   3.487   2.499   4.260
    1C        C   63   3.701   2.513   4.381
    1C        C   64   3.628   2.507   4.502
    1C        C   65   3.835   2.547   4.624
    1C        C   66   3.699   2.510   4.624
    1C        C   67   3.909   2.563   4.743
    1C        C   68   3.841   2.527   4.862
    1C        C   69   4.055   2.585   4.980
    1C        C   70   3.924   2.537   4.974
    1C        C   71   2.823   2.737   2.309
    1C        C   72   2.882   2.696   2.431
    1C        C   73   2.829   2.745   2.553
    1C        C   74   3.008   2.626   2.671
    1C        C   75   2.888   2.701   2.673
    1C        C   76   3.069   2.595   2.795
    1C        C   77   3.009   2.629   2.918
    1C        C   78   3.205   2.543   3.039
    1C        C   79   3.073   2.594   3.039
    1C        C   80   3.272   2.525   3.162
    1C        C   81   3.203   2.542   3.284
    1C        C   82   3.413   2.501   3.403
    1C        C   83   3.274   2.525   3.404
    1C        C   84   3.485   2.500   3.525
    1C        C   85   3.416   2.502   3.649
    1C        C   86   3.626   2.505   3.770
    1C        C   87   3.485   2.496   3.772
    1C        C   88   3.697   2.514   3.892
    1C        C   89   3.628   2.506   4.015
    1C        C   90   3.834   2.550   4.136
    1C        C   91   3.698   2.513   4.137
    1C        C   92   3.902   2.575   4.258
    1C        C   93   3.838   2.547   4.381
    1C        C   94   4.028   2.640   4.500
    1C        C   95   3.904   2.573   4.503
    1C        C   96   4.092   2.675   4.621
    1C        C   97   4.036   2.627   4.742
    1C        C   98   4.194   2.765   4.861
    1C        C   99   4.102   2.655   4.864
    1C        C  100   4.208   2.843   4.975
    1C        C  101   2.823   2.728   2.072
    1C        C  102   2.985   2.586   2.191
    1C        C  103   2.872   2.674   2.192
    1C        C  104   3.061   2.572   2.311
    1C        C  105   3.000   2.619   2.429
    1C        C  106   3.198   2.533   2.550
    1C        C  107   3.070   2.594   2.549
    1C        C  108   3.268   2.522   2.672
    1C        C  109   3.200   2.541   2.794
    1C        C  110   3.407   2.491   2.915
    1C        C  111   3.268   2.517   2.915
    1C        C  112   3.481   2.490   3.035
    1C        C  113   3.411   2.500   3.157
    1C        C  114   3.622   2.505   3.281
    1C        C  115   3.482   2.494   3.279
    1C        C  116   3.693   2.517   3.403
    1C        C  117   3.626   2.508   3.527
    1C        C  118   3.835   2.547   3.648
    1C        C  119   3.697   2.517   3.648
    1C        C  120   3.900   2.575   3.770
    1C        C  121   3.833   2.553   3.893
    1C        C  122   4.024   2.645   4.014
    1C        C  123   3.902   2.575   4.014
    1C        C  124   4.087   2.679   4.136
    1C        C  125   4.029   2.636   4.258
    1C        C  126   4.199   2.764   4.376
    1C        C  127   4.093   2.671   4.378
    1C        C  128   4.245   2.821   4.497
    1C        C  129   4.196   2.770   4.619
    1C        C  130   4.331   2.935   4.741
    1C        C  131   4.248   2.820   4.741
    1C        C  132   4.358   3.002   4.861
    1C        C  133   4.284   2.960   4.973
    1C        C  134   3.173   2.472   2.078
    1C        C  135   3.039   2.511   2.082
    1C        C  136   3.259   2.479   2.188
    1C        C  137   3.193   2.518   2.306
    1C        C  138   3.402   2.485   2.426
    1C        C  139   3.263   2.504   2.428
    1C        C  140   3.475   2.483   2.547
    1C        C  141   3.407   2.493   2.671
    1C        C  142   3.618   2.498   2.789
    1C        C  143   3.478   2.489   2.793
    1C        C  144   3.689   2.510   2.911
    1C        C  145   3.622   2.497   3.035
    1C        C  146   3.828   2.544   3.155
    1C        C  147   3.692   2.505   3.157
    1C        C  148   3.897   2.569   3.276
    1C        C  149   3.830   2.550   3.399
    1C        C  150   4.021   2.636   3.524
    1C        C  151   3.896   2.571   3.523
    1C        C  152   4.084   2.674   3.645
    1C        C  153   4.024   2.641   3.769
    1C        C  154   4.197   2.765   3.889
    1C        C  155   4.082   2.683   3.891
    1C        C  156   4.251   2.812   4.011
    1C        C  157   4.199   2.764   4.134
    1C        C  158   4.344   2.922   4.253
    1C        C  159   4.253   2.813   4.255
    1C        C  160   4.383   2.982   4.375
    1C        C  161   4.336   2.929   4.497
    1C        C  162   4.446   3.112   4.615
    1C        C  163   4.372   2.992   4.618
    1C        C  164   4.469   3.184   4.735
    1C        C  165   4.430   3.124   4.856
    1C        C  166   4.511   3.319   4.972
    1C        C  167   4.486   3.182   4.970
    1C        C  168   3.475   2.436   2.074
    1C        C  169   3.398   2.454   2.189
    1C        C  170   3.617   2.470   2.308
    1C        C  171   3.475   2.462   2.307
    1C        C  172   3.690   2.492   2.427
    1C        C  173   3.616   2.490   2.547
    1C        C  174   3.827   2.539   2.668
    1C        C  175   3.689   2.505   2.667
    1C        C  176   3.893   2.566   2.789
    1C        C  177   3.825   2.548   2.912
    1C        C  178   4.020   2.634   3.033
    1C        C  179   3.893   2.573   3.033
    1C        C  180   4.084   2.669   3.154
    1C        C  181   4.024   2.631   3.276
    1C        C  182   4.195   2.752   3.398
    1C        C  183   4.080   2.669   3.400
    1C        C  184   4.247   2.803   3.519
    1C        C  185   4.198   2.757   3.643
    1C        C  186   4.345   2.910   3.765
    1C        C  187   4.253   2.803   3.765
    1C        C  188   4.381   2.976   3.885
    1C        C  189   4.340   2.922   4.009
    1C        C  190   4.453   3.103   4.127
    1C        C  191   4.382   2.980   4.130
    1C        C  192   4.475   3.171   4.249
    1C        C  193   4.447   3.108   4.372
    1C        C  194   4.508   3.314   4.490
    1C        C  195   4.473   3.177   4.492
    1C        C  196   4.525   3.386   4.611
    1C        C  197   4.509   3.321   4.735
    1C        C  198   4.555   3.534   4.849
    1C        C  199   4.530   3.393   4.855
    1C        C  200   4.577   3.617   4.963
    1C        C  201   3.614   2.416   2.076
    1C        C  202   3.827   2.509   2.185
    1C        C  203   3.693   2.458   2.188
    1C        C  204   3.898   2.543   2.303
    1C        C  205   3.827   2.525   2.424
    1C        C  206   4.022   2.616   2.544
    1C        C  207   3.896   2.552   2.545
    1C        C  208   4.080   2.658   2.666
    1C        C  209   4.021   2.626   2.790
    1C        C  210   4.201   2.744   2.910
    1C        C  211   4.083   2.665   2.910
    1C        C  212   4.254   2.794   3.031
    1C        C  213   4.200   2.750   3.153
    1C        C  214   4.341   2.906   3.273
    1C        C  215   4.251   2.797   3.276
    1C        C  216   4.373   2.969   3.396
    1C        C  217   4.338   2.911   3.520
    1C        C  218   4.443   3.094   3.638
    1C        C  219   4.384   2.966   3.642
    1C        C  220   4.468   3.166   3.757
    1C        C  221   4.442   3.103   3.881
    1C        C  222   4.507   3.304   4.002
    1C        C  223   4.472   3.168   4.003
    1C        C  224   4.514   3.377   4.123
    1C        C  225   4.507   3.309   4.246
    1C        C  226   4.514   3.523   4.366
    1C        C  227   4.516   3.382   4.367
    1C        C  228   4.508   3.596   4.487
    1C        C  229   4.523   3.527   4.610
    1C        C  230   4.500   3.743   4.728
    1C        C  231   4.536   3.605   4.727
    1C        C  232   4.495   3.820   4.846
    1C        C  233   4.544   3.754   4.959
    1C        C  234   4.019   2.605   2.063
    1C        C  235   3.895   2.542   2.067
    1C        C  236   4.084   2.648   2.179
    1C        C  237   4.025   2.607   2.301
    1C        C  238   4.203   2.726   2.421
    1C        C  239   4.086   2.645   2.422
    1C        C  240   4.252   2.779   2.543
    1C        C  241   4.197   2.738   2.666
    1C        C  242   4.334   2.904   2.783
    1C        C  243   4.247   2.793   2.786
    1C        C  244   4.381   2.961   2.904
    1C        C  245   4.340   2.906   3.028
    1C        C  246   4.448   3.087   3.149
    1C        C  247   4.384   2.961   3.150
    1C        C  248   4.468   3.155   3.271
    1C        C  249   4.439   3.094   3.395
    1C        C  250   4.496   3.300   3.513
    1C        C  251   4.465   3.162   3.516
    1C        C  252   4.509   3.372   3.634
    1C        C  253   4.503   3.303   3.757
    1C        C  254   4.518   3.514   3.877
    1C        C  255   4.518   3.373   3.879
    1C        C  256   4.510   3.587   3.997
    1C        C  257   4.517   3.518   4.120
    1C        C  258   4.485   3.729   4.242
    1C        C  259   4.512   3.590   4.242
    1C        C  260   4.464   3.802   4.362
    1C        C  261   4.481   3.734   4.484
    1C        C  262   4.420   3.938   4.603
    1C        C  263   4.467   3.805   4.606
    1C        C  264   4.393   4.006   4.724
    1C        C  265   4.435   3.948   4.845
    1C        C  266   4.321   4.132   4.956
    1C        C  267   4.393   4.013   4.962
    1C        C  268   4.266   2.766   2.064
    1C        C  269   4.199   2.730   2.181
    1C        C  270   4.351   2.884   2.301
    1C        C  271   4.257   2.777   2.301
    1C        C  272   4.385   2.950   2.421
    1C        C  273   4.338   2.891   2.541
    1C        C  274   4.443   3.083   2.659
    1C        C  275   4.373   2.960   2.659
    1C        C  276   4.472   3.149   2.780
    1C        C  277   4.452   3.083   2.904
    1C        C  278   4.508   3.287   3.024
    1C        C  279   4.475   3.150   3.026
    1C        C  280   4.515   3.360   3.145
    1C        C  281   4.505   3.291   3.268
    1C        C  282   4.518   3.506   3.388
    1C        C  283   4.513   3.365   3.388
    1C        C  284   4.509   3.579   3.509
    1C        C  285   4.511   3.513   3.634
    1C        C  286   4.488   3.724   3.754
    1C        C  287   4.513   3.585   3.755
    1C        C  288   4.471   3.794   3.876
    1C        C  289   4.493   3.728   3.999
    1C        C  290   4.425   3.931   4.115
    1C        C  291   4.474   3.799   4.120
    1C        C  292   4.393   3.998   4.235
    1C        C  293   4.420   3.936   4.359
    1C        C  294   4.328   4.129   4.480
    1C        C  295   4.393   4.004   4.480
    1C        C  296   4.285   4.190   4.600
    1C        C  297   4.324   4.130   4.722
    1C        C  298   4.197   4.314   4.841
    1C        C  299   4.281   4.198   4.839
    1C        C  300   4.166   4.395   4.955
    1C        C  301   4.357   2.870   2.064
    1C        C  302   4.466   3.065   2.177
    1C        C  303   4.399   2.939   2.179
    1C        C  304   4.476   3.142   2.296
    1C        C  305   4.442   3.080   2.418
    1C        C  306   4.515   3.283   2.534
    1C        C  307   4.474   3.148   2.537
    1C        C  308   4.517   3.356   2.655
    1C        C  309   4.503   3.286   2.777
    1C        C  310   4.521   3.496   2.899
    1C        C  311   4.518   3.355   2.900
    1C        C  312   4.512   3.569   3.020
    1C        C  313   4.517   3.501   3.144
    1C        C  314   4.481   3.712   3.264
    1C        C  315   4.514   3.575   3.264
    1C        C  316   4.463   3.782   3.385
    1C        C  317   4.483   3.717   3.510
    1C        C  318   4.420   3.922   3.627
    1C        C  319   4.471   3.790   3.630
    1C        C  320   4.388   3.986   3.749
    1C        C  321   4.418   3.924   3.872
    1C        C  322   4.313   4.111   3.992
    1C        C  323   4.392   3.994   3.993
    1C        C  324   4.278   4.173   4.114
    1C        C  325   4.323   4.120   4.238
    1C        C  326   4.185   4.285   4.356
    1C        C  327   4.283   4.184   4.358
    1C        C  328   4.134   4.339   4.476
    1C        C  329   4.187   4.292   4.599
    1C        C  330   4.028   4.440   4.716
    1C        C  331   4.139   4.352   4.717
    1C        C  332   3.974   4.497   4.833
    1C        C  333   4.053   4.477   4.948
    1C        C  334   4.553   3.264   2.061
    1C        C  335   4.532   3.126   2.066
    1C        C  336   4.539   3.348   2.172
    1C        C  337   4.519   3.278   2.292
    1C        C  338   4.520   3.494   2.412
    1C        C  339   4.528   3.353   2.412
    1C        C  340   4.517   3.567   2.533
    1C        C  341   4.522   3.497   2.655
    1C        C  342   4.489   3.706   2.774
    1C        C  343   4.518   3.568   2.778
    1C        C  344   4.469   3.776   2.895
    1C        C  345   4.481   3.707   3.017
    1C        C  346   4.413   3.908   3.138
    1C        C  347   4.458   3.774   3.139
    1C        C  348   4.383   3.975   3.258
    1C        C  349   4.415   3.915   3.382
    1C        C  350   4.316   4.103   3.502
    1C        C  351   4.389   3.982   3.503
    1C        C  352   4.275   4.164   3.623
    1C        C  353   4.317   4.109   3.746
    1C        C  354   4.180   4.270   3.867
    1C        C  355   4.275   4.166   3.868
    1C        C  356   4.127   4.319   3.989
    1C        C  357   4.181   4.275   4.112
    1C        C  358   4.009   4.403   4.232
    1C        C  359   4.127   4.324   4.233
    1C        C  360   3.952   4.445   4.354
    1C        C  361   4.021   4.423   4.475
    1C        C  362   3.829   4.519   4.592
    1C        C  363   3.961   4.469   4.594
    1C        C  364   3.763   4.546   4.714
    1C        C  365   3.841   4.544   4.832
    1C        C  366   3.630   4.592   4.949
    1C        C  367   3.768   4.573   4.947
    1C        C  368   4.512   3.562   2.052
    1C        C  369   4.530   3.489   2.170
    1C        C  370   4.503   3.704   2.286
    1C        C  371   4.518   3.564   2.289
    1C        C  372   4.486   3.776   2.407
    1C        C  373   4.498   3.707   2.529
    1C        C  374   4.414   3.903   2.647
    1C        C  375   4.470   3.773   2.651
    1C        C  376   4.387   3.968   2.769
    1C        C  377   4.420   3.908   2.893
    1C        C  378   4.316   4.093   3.009
    1C        C  379   4.391   3.974   3.015
    1C        C  380   4.268   4.148   3.130
    1C        C  381   4.308   4.095   3.255
    1C        C  382   4.176   4.259   3.377
    1C        C  383   4.271   4.154   3.378
    1C        C  384   4.124   4.308   3.499
    1C        C  385   4.176   4.265   3.623
    1C        C  386   4.009   4.396   3.744
    1C        C  387   4.126   4.317   3.745
    1C        C  388   3.947   4.433   3.866
    1C        C  389   4.010   4.398   3.987
    1C        C  390   3.820   4.492   4.108
    1C        C  391   3.951   4.441   4.109
    1C        C  392   3.752   4.517   4.230
    1C        C  393   3.825   4.508   4.351
    1C        C  394   3.619   4.560   4.476
    1C        C  395   3.759   4.539   4.472
    1C        C  396   3.546   4.566   4.596
    1C        C  397   3.623   4.563   4.715
    1C        C  398   3.411   4.549   4.837
    1C        C  399   3.550   4.573   4.835
    1C        C  400   3.343   4.514   4.954
    1C        C  401   4.502   3.701   2.050
    1C        C  402   4.456   3.914   2.166
    1C        C  403   4.492   3.778   2.166
    1C        C  404   4.409   3.975   2.284
    1C        C  405   4.437   3.909   2.406
    1C        C  406   4.324   4.094   2.523
    1C        C  407   4.394   3.971   2.525
    1C        C  408   4.277   4.148   2.645
    1C        C  409   4.312   4.088   2.768
    1C        C  410   4.171   4.250   2.888
    1C        C  411   4.271   4.150   2.888
    1C        C  412   4.121   4.298   3.011
    1C        C  413   4.171   4.251   3.134
    1C        C  414   4.001   4.380   3.255
    1C        C  415   4.119   4.301   3.255
    1C        C  416   3.944   4.418   3.378
    1C        C  417   4.005   4.383   3.501
    1C        C  418   3.815   4.482   3.621
    1C        C  419   3.943   4.421   3.622
    1C        C  420   3.751   4.510   3.743
    1C        C  421   3.818   4.490   3.866
    1C        C  422   3.610   4.537   3.987
    1C        C  423   3.750   4.514   3.988
    1C        C  424   3.542   4.547   4.110
    1C        C  425   3.614   4.544   4.232
    1C        C  426   3.405   4.541   4.355
    1C        C  427   3.546   4.553   4.355
    1C        C  428   3.333   4.534   4.477
    1C        C  429   3.406   4.550   4.597
    1C        C  430   3.195   4.517   4.721
    1C        C  431   3.335   4.543   4.718
    1C        C  432   3.127   4.491   4.843
    1C        C  433   3.204   4.502   4.959
    1C        C  434   4.386   4.121   2.051
    1C        C  435   4.448   3.996   2.052
    1C        C  436   4.309   4.168   2.162
    1C        C  437   4.336   4.097   2.282
    1C        C  438   4.182   4.251   2.403
    1C        C  439   4.282   4.151   2.401
    1C        C  440   4.121   4.293   2.523
    1C        C  441   4.178   4.249   2.645
    1C        C  442   4.006   4.379   2.766
    1C        C  443   4.121   4.298   2.765
    1C        C  444   3.944   4.414   2.888
    1C        C  445   4.003   4.376   3.011
    1C        C  446   3.815   4.477   3.132
    1C        C  447   3.943   4.417   3.132
    1C        C  448   3.750   4.503   3.255
    1C        C  449   3.816   4.479   3.377
    1C        C  450   3.610   4.531   3.499
    1C        C  451   3.748   4.503   3.498
    1C        C  452   3.541   4.545   3.622
    1C        C  453   3.613   4.542   3.744
    1C        C  454   3.399   4.545   3.866
    1C        C  455   3.540   4.549   3.865
    1C        C  456   3.331   4.535   3.989
    1C        C  457   3.400   4.544   4.112
    1C        C  458   3.195   4.495   4.237
    1C        C  459   3.332   4.528   4.235
    1C        C  460   3.127   4.479   4.359
    1C        C  461   3.194   4.509   4.480
    1C        C  462   2.995   4.435   4.603
    1C        C  463   3.124   4.492   4.601
    1C        C  464   2.931   4.401   4.725
    1C        C  465   2.992   4.442   4.846
    1C        C  466   2.796   4.345   4.957
    1C        C  467   2.904   4.434   4.959
    1C        C  468   4.124   4.289   2.046
    1C        C  469   4.195   4.255   2.163
    1C        C  470   4.007   4.371   2.280
    1C        C  471   4.126   4.295   2.281
    1C        C  472   3.943   4.406   2.401
    1C        C  473   4.006   4.374   2.523
    1C        C  474   3.813   4.468   2.642
    1C        C  475   3.941   4.409   2.644
    1C        C  476   3.751   4.501   2.764
    1C        C  477   3.819   4.480   2.886
    1C        C  478   3.610   4.522   3.011
    1C        C  479   3.750   4.498   3.008
    1C        C  480   3.541   4.534   3.133
    1C        C  481   3.611   4.531   3.255
    1C        C  482   3.398   4.539   3.376
    1C        C  483   3.539   4.534   3.377
    1C        C  484   3.329   4.535   3.499
    1C        C  485   3.400   4.541   3.621
    1C        C  486   3.194   4.496   3.745
    1C        C  487   3.329   4.537   3.743
    1C        C  488   3.131   4.472   3.869
    1C        C  489   3.196   4.497   3.992
    1C        C  490   3.001   4.412   4.116
    1C        C  491   3.128   4.475   4.114
    1C        C  492   2.944   4.375   4.239
    1C        C  493   3.000   4.416   4.362
    1C        C  494   2.826   4.298   4.481
    1C        C  495   2.935   4.388   4.484
    1C        C  496   2.777   4.252   4.606
    1C        C  497   2.823   4.309   4.726
    1C        C  498   2.665   4.164   4.845
    1C        C  499   2.754   4.274   4.845
    1C        C  500   2.594   4.113   4.955
    1C        C  501   4.004   4.360   2.040
    1C        C  502   3.817   4.465   2.156
    1C        C  503   3.945   4.407   2.158
    1C        C  504   3.746   4.487   2.276
    1C        C  505   3.815   4.466   2.398
    1C        C  506   3.608   4.518   2.523
    1C        C  507   3.746   4.489   2.519
    1C        C  508   3.538   4.523   2.646
    1C        C  509   3.611   4.520   2.767
    1C        C  510   3.398   4.527   2.889
    1C        C  511   3.540   4.530   2.889
    1C        C  512   3.327   4.525   3.010
    1C        C  513   3.400   4.535   3.131
    1C        C  514   3.193   4.492   3.258
    1C        C  515   3.329   4.529   3.253
    1C        C  516   3.125   4.466   3.379
    1C        C  517   3.193   4.497   3.499
    1C        C  518   3.002   4.408   3.626
    1C        C  519   3.128   4.472   3.622
    1C        C  520   2.944   4.367   3.748
    1C        C  521   3.006   4.406   3.869
    1C        C  522   2.839   4.279   3.995
    1C        C  523   2.948   4.368   3.993
    1C        C  524   2.787   4.232   4.118
    1C        C  525   2.834   4.286   4.240
    1C        C  526   2.689   4.132   4.365
    1C        C  527   2.776   4.244   4.361
    1C        C  528   2.644   4.079   4.488
    1C        C  529   2.684   4.146   4.605
    1C        C  530   2.583   3.961   4.727
    1C        C  531   2.638   4.092   4.727
    1C        C  532   2.542   3.897   4.848
    1C        C  533   2.529   3.989   4.957
    1C        C  534   3.618   4.560   2.044
    1C        C  535   3.752   4.519   2.044
    1C        C  536   3.536   4.533   2.158
    1C        C  537   3.606   4.514   2.280
    1C        C  538   3.394   4.521   2.404
    1C        C  539   3.535   4.518   2.402
    1C        C  540   3.323   4.514   2.525
    1C        C  541   3.397   4.516   2.646
    1C        C  542   3.188   4.482   2.768
    1C        C  543   3.327   4.511   2.768
    1C        C  544   3.121   4.467   2.891
    1C        C  545   3.190   4.489   3.013
    1C        C  546   3.002   4.398   3.134
    1C        C  547   3.126   4.464   3.136
    1C        C  548   2.943   4.362   3.257
    1C        C  549   3.001   4.398   3.381
    1C        C  550   2.835   4.273   3.506
    1C        C  551   2.942   4.365   3.505
    1C        C  552   2.784   4.225   3.629
    1C        C  553   2.836   4.277   3.750
    1C        C  554   2.699   4.119   3.876
    1C        C  555   2.787   4.229   3.873
    1C        C  556   2.659   4.061   3.998
    1C        C  557   2.698   4.122   4.119
    1C        C  558   2.594   3.942   4.244
    1C        C  559   2.657   4.068   4.243
    1C        C  560   2.568   3.878   4.367
    1C        C  561   2.591   3.948   4.487
    1C        C  562   2.526   3.748   4.615
    1C        C  563   2.562   3.885   4.610
    1C        C  564   2.515   3.677   4.736
    1C        C  565   2.523   3.755   4.855
    1C        C  566   2.526   3.545   4.978
    1C        C  567   2.522   3.684   4.975
    1C        C  568   3.330   4.471   2.040
    1C        C  569   3.396   4.509   2.158
    1C        C  570   3.187   4.476   2.281
    1C        C  571   3.325   4.508   2.281
    1C        C  572   3.117   4.462   2.403
    1C        C  573   3.184   4.486   2.525
    1C        C  574   2.991   4.400   2.650
    1C        C  575   3.116   4.465   2.647
    1C        C  576   2.932   4.360   2.772
    1C        C  577   2.998   4.398   2.891
    1C        C  578   2.829   4.270   3.017
    1C        C  579   2.938   4.360   3.014
    1C        C  580   2.780   4.220   3.140
    1C        C  581   2.834   4.272   3.260
    1C        C  582   2.698   4.112   3.385
    1C        C  583   2.788   4.221   3.383
    1C        C  584   2.657   4.055   3.507
    1C        C  585   2.698   4.113   3.629
    1C        C  586   2.600   3.931   3.756
    1C        C  587   2.662   4.058   3.754
    1C        C  588   2.567   3.868   3.878
    1C        C  589   2.595   3.935   3.999
    1C        C  590   2.531   3.737   4.124
    1C        C  591   2.570   3.873   4.123
    1C        C  592   2.516   3.671   4.249
    1C        C  593   2.527   3.742   4.370
    1C        C  594   2.512   3.534   4.497
    1C        C  595   2.516   3.675   4.494
    1C        C  596   2.515   3.461   4.618
    1C        C  597   2.510   3.535   4.739
    1C        C  598   2.534   3.326   4.864
    1C        C  599   2.518   3.466   4.862
    1C        C  600   2.538   3.248   4.980
    1C        C  601   3.195   4.443   2.042
    1C        C  602   2.984   4.398   2.164
    1C        C  603   3.119   4.444   2.160
    1C        C  604   2.926   4.359   2.288
    1C        C  605   2.990   4.401   2.406
    1C        C  606   2.825   4.267   2.531
    1C        C  607   2.931   4.361   2.528
    1C        C  608   2.774   4.218   2.653
    1C        C  609   2.821   4.273   2.774
    1C        C  610   2.690   4.108   2.897
    1C        C  611   2.772   4.223   2.897
    1C        C  612   2.655   4.047   3.020
    1C        C  613   2.695   4.108   3.142
    1C        C  614   2.586   3.927   3.267
    1C        C  615   2.657   4.050   3.265
    1C        C  616   2.558   3.865   3.391
    1C        C  617   2.598   3.927   3.512
    1C        C  618   2.527   3.729   3.638
    1C        C  619   2.575   3.862   3.635
    1C        C  620   2.508   3.662   3.761
    1C        C  621   2.525   3.733   3.882
    1C        C  622   2.499   3.524   4.011
    1C        C  623   2.513   3.664   4.005
    1C        C  624   2.508   3.455   4.134
    1C        C  625   2.506   3.530   4.253
    1C        C  626   2.541   3.323   4.376
    1C        C  627   2.515   3.461   4.376
    1C        C  628   2.562   3.255   4.498
    1C        C  629   2.541   3.322   4.620
    1C        C  630   2.594   3.119   4.744
    1C        C  631   2.553   3.255   4.744
    1C        C  632   2.617   3.048   4.865
    1C        C  633   2.559   3.110   4.980
    1C        C  634   2.791   4.300   2.055
    1C        C  635   2.892   4.397   2.055
    1C        C  636   2.750   4.231   2.169
    1C        C  637   2.812   4.274   2.289
    1C        C  638   2.677   4.111   2.410
    1C        C  639   2.765   4.222   2.411
    1C        C  640   2.641   4.051   2.533
    1C        C  641   2.685   4.109   2.654
    1C        C  642   2.586   3.921   2.778
    1C        C  643   2.646   4.049   2.776
    1C        C  644   2.553   3.860   2.901
    1C        C  645   2.583   3.926   3.022
    1C        C  646   2.526   3.725   3.147
    1C        C  647   2.560   3.862   3.145
    1C        C  648   2.509   3.657   3.270
    1C        C  649   2.523   3.728   3.392
    1C        C  650   2.507   3.519   3.518
    1C        C  651   2.512   3.660   3.515
    1C        C  652   2.511   3.451   3.642
    1C        C  653   2.503   3.521   3.765
    1C        C  654   2.536   3.315   3.891
    1C        C  655   2.503   3.453   3.889
    1C        C  656   2.554   3.248   4.014
    1C        C  657   2.535   3.316   4.136
    1C        C  658   2.607   3.116   4.259
    1C        C  659   2.553   3.247   4.257
    1C        C  660   2.639   3.054   4.382
    1C        C  661   2.606   3.120   4.503
    1C        C  662   2.712   2.937   4.625
    1C        C  663   2.632   3.054   4.625
    1C        C  664   2.752   2.878   4.747
    1C        C  665   2.696   2.928   4.868
    1C        C  666   2.747   2.870   4.985
    1C        C  667   2.686   4.024   2.056
    1C        C  668   2.684   4.106   2.169
    1C        C  669   2.586   3.915   2.291
    1C        C  670   2.645   4.045   2.290
    1C        C  671   2.558   3.851   2.414
    1C        C  672   2.579   3.924   2.533
    1C        C  673   2.510   3.724   2.660
    1C        C  674   2.556   3.857   2.656
    1C        C  675   2.499   3.653   2.782
    1C        C  676   2.513   3.724   2.903
    1C        C  677   2.501   3.513   3.028
    1C        C  678   2.511   3.654   3.026
    1C        C  679   2.508   3.444   3.151
    1C        C  680   2.505   3.516   3.273
    1C        C  681   2.535   3.310   3.400
    1C        C  682   2.506   3.448   3.396
    1C        C  683   2.560   3.245   3.523
    1C        C  684   2.535   3.312   3.645
    1C        C  685   2.604   3.115   3.770
    1C        C  686   2.553   3.246   3.769
    1C        C  687   2.640   3.052   3.892
    1C        C  688   2.609   3.118   4.013
    1C        C  689   2.716   2.936   4.139
    1C        C  690   2.640   3.055   4.136
    1C        C  691   2.757   2.878   4.261
    1C        C  692   2.713   2.934   4.382
    1C        C  693   2.752   2.875   4.505
    1C        C  694   2.621   3.899   2.056
    1C        C  695   2.523   3.708   2.175
    1C        C  696   2.572   3.840   2.173
    1C        C  697   2.508   3.642   2.299
    1C        C  698   2.519   3.715   2.419
    1C        C  699   2.487   3.509   2.541
    1C        C  700   2.493   3.650   2.541
    1C        C  701   2.496   3.439   2.663
    1C        C  702   2.499   3.512   2.784
    1C        C  703   2.533   3.302   2.910
    1C        C  704   2.510   3.441   2.906
    1C        C  705   2.550   3.236   3.033
    1C        C  706   2.536   3.306   3.155
    1C        C  707   2.597   3.105   3.279
    1C        C  708   2.551   3.239   3.279
    1C        C  709   2.632   3.045   3.402
    1C        C  710   2.606   3.112   3.524
    1C        C  711   2.711   2.933   3.649
    1C        C  712   2.634   3.051   3.648
    1C        C  713   2.755   2.873   3.770
    1C        C  714   2.715   2.932   3.892
    1C        C  715   2.755   2.878   4.016
    1C        C  716   2.455   3.498   2.062
    1C        C  717   2.490   3.634   2.060
    1C        C  718   2.473   3.423   2.182
    1C        C  719   2.493   3.500   2.300
    1C        C  720   2.514   3.293   2.423
    1C        C  721   2.489   3.432   2.423
    1C        C  722   2.537   3.226   2.546
    1C        C  723   2.525   3.300   2.665
    1C        C  724   2.601   3.102   2.790
    1C        C  725   2.547   3.233   2.787
    1C        C  726   2.633   3.041   2.913
    1C        C  727   2.599   3.103   3.035
    1C        C  728   2.709   2.924   3.160
    1C        C  729   2.629   3.040   3.158
    1C        C  730   2.755   2.871   3.283
    1C        C  731   2.714   2.929   3.404
    1C        C  732   2.756   2.876   3.528
    1C        C  733   2.495   3.195   2.069
    1C        C  734   2.487   3.281   2.180
    1C        C  735   2.584   3.091   2.303
    1C        C  736   2.522   3.219   2.303
    1C        C  737   2.617   3.027   2.424
    1C        C  738   2.592   3.096   2.545
    1C        C  739   2.699   2.915   2.670
    1C        C  740   2.626   3.036   2.668
    1C        C  741   2.746   2.861   2.792
    1C        C  742   2.707   2.920   2.914
    1C        C  743   2.751   2.867   3.038
    1C        C  744   2.543   3.064   2.072
    1C        C  745   2.695   2.905   2.184
    1C        C  746   2.613   3.020   2.184
    1C        C  747   2.729   2.843   2.306
    1C        C  748   2.692   2.907   2.427
    1C        C  749   2.738   2.853   2.549
    1C        C  750   2.742   2.842   2.068
    1C        C  751   3.670   2.340   1.962
    1C        O  752   3.746   2.241   1.976
    1C        O  753   3.638   2.363   1.827
    1C        C  754   4.648   3.058   2.004
    1C        O  755   4.626   2.985   1.904
    1C        O  756   4.756   3.009   2.078
    1C        C  757   4.467   4.220   1.977
    1C        O  758   4.571   4.271   2.027
    1C        O  759   4.446   4.256   1.843
    1C        C  760   3.592   4.682   1.963
    1C        O  761   3.496   4.761   1.982
    1C        O  762   3.651   4.696   1.837
    1C        C  763   2.865   4.522   1.979
    1C        O  764   2.897   4.539   1.858
    1C        O  765   2.774   4.610   2.037
    1C        C  766   2.354   3.467   1.958
    1C        O  767   2.387   3.489   1.838
    1C        O  768   2.219   3.440   1.982
    1C        C  769   4.677   3.577   5.064
    1C        O  770   4.666   3.608   5.186
    1C        O  771   4.814   3.577   5.035
    1C        C  772   4.256   4.430   5.068
    1C        O  773   4.215   4.398   5.183
    1C        O  774   4.307   4.559   5.085
    1C        C  775   4.135   2.553   5.101
    1C        O  776   4.210   2.452   5.110
    1C        O  777   4.077   2.584   5.225
    1C        C  778   2.892   4.551   5.049
    1C        O  779   2.854   4.664   5.008
    1C        O  780   2.846   4.563   5.181
    1C        C  781   2.467   3.045   5.076
    1C        O  782   2.365   2.979   5.041
    1C        O  783   2.483   3.044   5.214
    1C        C  784   2.408   3.984   5.042
    1C        O  785   2.312   4.062   5.019
    1C        O  786   2.433   3.962   5.178
    1C        C  787   2.946   2.445   1.987
    1C        O  788   2.943   2.469   1.863
    1C        O  789   2.863   2.343   2.032
    1C        C  790   3.197   2.386   5.073
    1C        O  791   3.169   2.269   5.036
    1C        O  792   3.238   2.414   5.204
    1C        H  793   4.323   2.984   5.070
    1C        H  794   4.129   2.836   5.047
    1C        H  795   4.542   3.121   5.038
    1C        H  796   4.476   3.366   5.062
    1C        H  797   4.580   3.810   5.043
    1C        H  798   4.429   3.979   5.057
    1C        H  799   4.251   4.148   5.036
    1C        H  800   4.032   4.533   5.036
    1C        H  801   3.808   4.535   5.039
    1C        H  802   3.591   4.656   5.026
    1C        H  803   3.395   4.471   5.037
    1C        H  804   3.158   4.543   5.047
    1C        H  805   3.880   2.529   5.072
    1C        H  806   3.669   2.413   5.060
    1C        H  807   2.989   2.530   5.053
    1C        H  808   3.441   2.495   5.075
    1C        H  809   2.873   2.736   5.082
    1C        H  810   2.682   2.870   5.070
    1C        H  811   2.480   3.284   5.062
    1C        H  812   2.505   3.499   5.072
    1C        H  813   2.538   3.739   5.065
    1C        H  814   2.561   4.181   5.031
    1C        H  815   2.742   4.329   5.048
    1C        H  816   2.753   2.908   1.985
    1C        H  817   2.880   2.707   1.984
    1C        H  818   3.218   2.455   1.982
    1C        H  819   3.427   2.445   1.979
    1C        H  820   3.862   2.503   1.973
    1C        H  821   4.081   2.589   1.978
    1C        H  822   4.286   2.687   1.993
    1C        H  823   4.413   2.887   1.975
    1C        H  824   4.589   3.308   1.970
    1C        H  825   4.472   3.510   1.968
    1C        H  826   4.546   3.746   1.963
    1C        H  827   3.814   4.588   1.990
    1C        H  828   3.979   4.408   1.948
    1C        H  829   4.158   4.246   1.954
    1C        H  830   4.449   3.952   1.954
    1C        H  831   2.638   3.833   1.974
    1C        H  832   2.771   4.025   1.991
    1C        H  833   2.729   4.307   1.968
    1C        H  834   3.387   4.434   1.958
    1C        H  835   3.150   4.418   1.948
    1C        H  836   2.477   2.995   2.024
    1C        H  837   2.434   3.220   1.985
    1C        H  838   2.468   3.694   1.974
    2V3OU   H29  839   2.803   3.546   5.652
    2V3OU   C27  840   2.784   3.507   5.756
    2V3OU   H27  841   2.725   3.575   5.822
    2V3OU   H28  842   2.722   3.415   5.740
    2V3OU   O11  843   2.911   3.477   5.814
    2V3OU   C15  844   2.918   3.398   5.927
    2V3OU   C13  845   3.050   3.371   5.969
    2V3OU   C14  846   3.072   3.264   6.057
    2V3OU   C16  847   2.972   3.181   6.105
    2V3OU    H6  848   2.990   3.110   6.187
    2V3OU   C12  849   3.209   3.227   6.099
    2V3OU    O2  850   3.232   3.115   6.149
    2V3OU   C10  851   3.324   3.306   6.052
    2V3OU    C8  852   3.454   3.267   6.082
    2V3OU   O10  853   3.487   3.154   6.150
    2V3OU   H26  854   3.402   3.116   6.177
    2V3OU    C6  855   3.563   3.347   6.034
    2V3OU    C5  856   3.538   3.462   5.961
    2V3OU    C4  857   3.702   3.296   6.043
    2V3OU    H4  858   3.723   3.228   6.130
    2V3OU    H5  859   3.711   3.229   5.951
    2V3OU    C2  860   3.815   3.399   6.038
    2V3OU    O6  861   3.811   3.477   6.158
    2V3OU   H21  862   3.756   3.554   6.139
    2V3OU    C3  863   3.782   3.498   5.926
    2V3OU    H2  864   3.863   3.575   5.920
    2V3OU    H3  865   3.783   3.436   5.833
    2V3OU   C25  866   3.946   3.321   6.018
    2V3OU    O7  867   4.002   3.302   5.910
    2V3OU   C26  868   4.029   3.288   6.140
    2V3OU   H22  869   4.069   3.384   6.182
    2V3OU   H23  870   4.117   3.224   6.111
    2V3OU    O8  871   3.963   3.205   6.234
    2V3OU   H24  872   3.925   3.262   6.302
    2V3OU    C1  873   3.646   3.565   5.943
    2V3OU    H1  874   3.625   3.623   5.848
    2V3OU    O3  875   3.658   3.650   6.057
    2V3OU   C19  876   3.616   3.787   6.046
    2V3OU    H9  877   3.523   3.811   5.987
    2V3OU    O4  878   3.712   3.846   5.962
    2V3OU   C20  879   3.845   3.873   6.008
    2V3OU   H10  880   3.899   3.775   6.018
    2V3OU   C24  881   3.607   3.855   6.183
    2V3OU   H16  882   3.542   3.794   6.250
    2V3OU   H17  883   3.563   3.957   6.166
    2V3OU   C23  884   3.749   3.877   6.236
    2V3OU   H15  885   3.792   3.774   6.259
    2V3OU    N1  886   3.737   3.954   6.358
    2V3OU   H19  887   3.809   3.928   6.423
    2V3OU   H20  888   3.648   3.941   6.401
    2V3OU   C21  889   3.849   3.950   6.141
    2V3OU   H11  890   3.952   3.930   6.181
    2V3OU    O5  891   3.822   4.089   6.140
    2V3OU   H18  892   3.775   4.107   6.223
    2V3OU   C22  893   3.910   3.943   5.890
    2V3OU   H12  894   3.864   4.045   5.878
    2V3OU   H13  895   3.902   3.884   5.795
    2V3OU   H14  896   4.019   3.959   5.908
    2V3OU   C11  897   3.156   3.471   5.957
    2V3OU    O1  898   3.141   3.584   5.905
    2V3OU    C9  899   3.295   3.426   5.982
    2V3OU    C7  900   3.402   3.503   5.939
    2V3OU    O9  901   3.383   3.620   5.869
    2V3OU   H25  902   3.287   3.632   5.864
    2V3OU   C17  903   2.817   3.313   5.977
    2V3OU    H7  904   2.719   3.349   5.947
    2V3OU   C18  905   2.842   3.206   6.062
    2V3OU    H8  906   2.757   3.153   6.106
    3SOL     OW  907   4.032   3.269   4.091
    3SOL    HW1  908   4.040   3.239   3.996
    3SOL    HW2  909   3.940   3.249   4.125
    4SOL     OW  910   0.050   5.779   0.963
    4SOL    HW1  911   6.989   5.807   1.008
    4SOL    HW2  912   0.031   5.705   0.899
    5SOL     OW  913   5.084   2.307   0.993
    5SOL    HW1  914   5.105   2.380   1.058
    5SOL    HW2  915   5.046   2.229   1.042
    6SOL     OW  916   4.355   1.324   2.407
    6SOL    HW1  917   4.352   1.375   2.321
    6SOL    HW2  918   4.378   1.228   2.388
    7SOL     OW  919   2.089   3.541   4.642
    7SOL    HW1  920   2.126   3.634   4.645
    7SOL    HW2  921   2.087   3.510   4.547
    8SOL     OW  922   0.999   2.137   5.241
    8SOL    HW1  923   1.057   2.158   5.163
    8SOL    HW2  924   0.904   2.126   5.210
    9SOL     OW  925   0.271   1.272   6.299
    9SOL    HW1  926   0.325   1.211   6.356
    9SOL    HW2  927   0.309   1.365   6.302
   10SOL     OW  928   5.186   4.977   1.711
   10SOL    HW1  929   5.260   5.031   1.749
   10SOL    HW2  930   5.120   5.037   1.666
   11SOL     OW  931   2.462   2.391   1.023
   11SOL    HW1  932   2.510   2.350   0.946
   11SOL    HW2  933   2.407   2.469   0.991
   12SOL     OW  934   4.335   5.151   2.429
   12SOL    HW1  935   4.316   5.239   2.386
   12SOL    HW2  936   4.258   5.089   2.413
   13SOL     OW  937   6.106   5.860   1.475
   13SOL    HW1  938   6.092   5.765   1.505
   13SOL    HW2  939   6.196   5.868   1.434
   14SOL     OW  940   4.736   6.972   6.296
   14SOL    HW1  941   4.778   0.032   6.332
   14SOL    HW2  942   4.753   6.896   6.359
   15SOL     OW  943   1.001   6.135   6.305
   15SOL    HW1  944   0.974   6.121   6.400
   15SOL    HW2  945   0.931   6.187   6.257
   16SOL     OW  946   2.079   4.854   5.270
   16SOL    HW1  947   2.173   4.851   5.236
   16SOL    HW2  948   2.034   4.768   5.249
   17SOL     OW  949   6.718   0.896   5.080
   17SOL    HW1  950   6.806   0.868   5.119
   17SOL    HW2  951   6.673   0.817   5.038
   18SOL     OW  952   3.299   0.999   5.733
   18SOL    HW1  953   3.205   1.020   5.758
   18SOL    HW2  954   3.347   0.960   5.812
   19SOL     OW  955   3.494   6.894   2.811
   19SOL    HW1  956   3.484   6.829   2.736
   19SOL    HW2  957   3.404   6.919   2.847
   20SOL     OW  958   6.253   1.585   5.760
   20SOL    HW1  959   6.245   1.512   5.827
   20SOL    HW2  960   6.251   1.674   5.807
   21SOL     OW  961   2.070   3.986   2.702
   21SOL    HW1  962   2.113   3.911   2.652
   21SOL    HW2  963   2.104   3.986   2.796
   22SOL     OW  964   0.924   1.166   0.078
   22SOL    HW1  965   0.880   1.083   0.113
   22SOL    HW2  966   1.022   1.162   0.095
   23SOL     OW  967   6.238   4.678   0.671
   23SOL    HW1  968   6.317   4.722   0.629
   23SOL    HW2  969   6.206   4.734   0.748
   24SOL     OW  970   5.323   1.586   0.244
   24SOL    HW1  971   5.395   1.536   0.291
   24SOL    HW2  972   5.326   1.564   0.146
   25SOL     OW  973   1.900   0.482   4.474
   25SOL    HW1  974   1.830   0.448   4.411
   25SOL    HW2  975   1.883   0.578   4.493
   26SOL     OW  976   1.615   1.652   5.863
   26SOL    HW1  977   1.581   1.605   5.945
   26SOL    HW2  978   1.626   1.586   5.789
   27SOL     OW  979   6.990   6.934   2.569
   27SOL    HW1  980   6.991   6.904   2.473
   27SOL    HW2  981   6.907   6.986   2.586
   28SOL     OW  982   1.997   0.435   5.543
   28SOL    HW1  983   2.032   0.495   5.471
   28SOL    HW2  984   1.907   0.466   5.573
   29SOL     OW  985   5.708   6.965   1.305
   29SOL    HW1  986   5.699   6.937   1.209
   29SOL    HW2  987   5.746   0.034   1.310
   30SOL     OW  988   4.595   0.318   5.203
   30SOL    HW1  989   4.643   0.343   5.120
   30SOL    HW2  990   4.659   0.279   5.269
   31SOL     OW  991   0.141   4.398   4.809
   31SOL    HW1  992   0.078   4.375   4.735
   31SOL    HW2  993   0.109   4.355   4.894
   32SOL     OW  994   3.449   0.581   0.962
   32SOL    HW1  995   3.474   0.497   1.010
   32SOL    HW2  996   3.427   0.652   1.028
   33SOL     OW  997   2.037   5.272   5.991
   33SOL    HW1  998   2.134   5.251   5.987
   33SOL    HW2  999   2.003   5.291   5.898
   34SOL     OW 1000   2.690   5.960   5.544
   34SOL    HW1 1001   2.766   5.930   5.601
   34SOL    HW2 1002   2.719   5.962   5.448
   35SOL     OW 1003   1.251   2.850   6.232
   35SOL    HW1 1004   1.310   2.931   6.227
   35SOL    HW2 1005   1.239   2.812   6.140
   36SOL     OW 1006   5.197   1.001   3.193
   36SOL    HW1 1007   5.229   1.085   3.237
   36SOL    HW2 1008   5.230   0.922   3.245
   37SOL     OW 1009   2.322   6.419   4.101
   37SOL    HW1 1010   2.419   6.396   4.114
   37SOL    HW2 1011   2.265   6.349   4.145
   38SOL     OW 1012   1.590   4.261   2.761
   38SOL    HW1 1013   1.512   4.302   2.808
   38SOL    HW2 1014   1.558   4.207   2.683
   39SOL     OW 1015   6.838   4.920   1.610
   39SOL    HW1 1016   6.863   4.928   1.513
   39SOL    HW2 1017   6.744   4.951   1.623
   40SOL     OW 1018   4.669   1.345   0.628
   40SOL    HW1 1019   4.605   1.416   0.600
   40SOL    HW2 1020   4.692   1.288   0.549
   41SOL     OW 1021   5.121   4.125   1.529
   41SOL    HW1 1022   5.201   4.093   1.479
   41SOL    HW2 1023   5.147   4.200   1.590
   42SOL     OW 1024   2.010   4.493   6.733
   42SOL    HW1 1025   1.957   4.544   6.666
   42SOL    HW2 1026   1.981   4.397   6.733
   43SOL     OW 1027   5.079   0.137   4.993
   43SOL    HW1 1028   5.023   0.069   4.947
   43SOL    HW2 1029   5.170   0.100   5.009
   44SOL     OW 1030   0.233   1.214   6.891
   44SOL    HW1 1031   0.294   1.212   6.812
   44SOL    HW2 1032   0.268   1.278   6.959
   45SOL     OW 1033   1.709   4.983   6.086
   45SOL    HW1 1034   1.785   4.951   6.029
   45SOL    HW2 1035   1.737   4.986   6.182
   46SOL     OW 1036   1.344   4.091   4.944
   46SOL    HW1 1037   1.396   4.017   4.988
   46SOL    HW2 1038   1.273   4.051   4.886
   47SOL     OW 1039   5.962   3.522   6.933
   47SOL    HW1 1040   5.967   3.422   6.936
   47SOL    HW2 1041   5.959   3.553   6.838
   48SOL     OW 1042   6.386   4.243   1.001
   48SOL    HW1 1043   6.406   4.151   0.967
   48SOL    HW2 1044   6.359   4.301   0.924
   49SOL     OW 1045   3.075   3.467   6.466
   49SOL    HW1 1046   3.057   3.551   6.517
   49SOL    HW2 1047   3.078   3.488   6.368
   50SOL     OW 1048   5.605   2.165   6.748
   50SOL    HW1 1049   5.570   2.146   6.840
   50SOL    HW2 1050   5.685   2.109   6.731
   51SOL     OW 1051   0.976   5.800   2.276
   51SOL    HW1 1052   1.069   5.837   2.273
   51SOL    HW2 1053   0.951   5.769   2.184
   52SOL     OW 1054   5.476   2.612   2.350
   52SOL    HW1 1055   5.508   2.694   2.302
   52SOL    HW2 1056   5.384   2.588   2.317
   53SOL     OW 1057   3.581   0.373   1.159
   53SOL    HW1 1058   3.607   0.303   1.092
   53SOL    HW2 1059   3.659   0.433   1.176
   54SOL     OW 1060   6.560   0.308   6.392
   54SOL    HW1 1061   6.514   0.229   6.350
   54SOL    HW2 1062   6.517   0.392   6.359
   55SOL     OW 1063   1.663   3.864   6.028
   55SOL    HW1 1064   1.611   3.779   6.023
   55SOL    HW2 1065   1.728   3.868   5.952
   56SOL     OW 1066   1.057   2.251   6.921
   56SOL    HW1 1067   1.015   2.300   6.845
   56SOL    HW2 1068   0.994   2.180   6.952
   57SOL     OW 1069   4.058   6.126   0.712
   57SOL    HW1 1070   4.098   6.192   0.776
   57SOL    HW2 1071   4.109   6.040   0.715
   58SOL     OW 1072   1.201   1.068   0.020
   58SOL    HW1 1073   1.188   0.997   6.974
   58SOL    HW2 1074   1.223   1.025   0.108
   59SOL     OW 1075   4.310   3.193   5.692
   59SOL    HW1 1076   4.358   3.270   5.651
   59SOL    HW2 1077   4.371   3.113   5.694
   60SOL     OW 1078   6.700   2.461   2.329
   60SOL    HW1 1079   6.791   2.489   2.359
   60SOL    HW2 1080   6.651   2.541   2.295
   61SOL     OW 1081   1.032   5.800   3.602
   61SOL    HW1 1082   1.066   5.854   3.679
   61SOL    HW2 1083   0.947   5.840   3.569
   62SOL     OW 1084   6.038   2.716   3.525
   62SOL    HW1 1085   6.057   2.680   3.434
   62SOL    HW2 1086   6.054   2.644   3.593
   63SOL     OW 1087   3.584   0.222   6.007
   63SOL    HW1 1088   3.502   0.178   5.970
   63SOL    HW2 1089   3.629   0.274   5.934
   64SOL     OW 1090   1.236   2.016   5.581
   64SOL    HW1 1091   1.185   1.973   5.506
   64SOL    HW2 1092   1.304   1.952   5.616
   65SOL     OW 1093   0.681   5.213   4.817
   65SOL    HW1 1094   0.777   5.186   4.822
   65SOL    HW2 1095   0.623   5.131   4.815
   66SOL     OW 1096   4.521   1.564   1.197
   66SOL    HW1 1097   4.568   1.652   1.190
   66SOL    HW2 1098   4.425   1.574   1.172
   67SOL     OW 1099   0.141   3.522   1.960
   67SOL    HW1 1100   0.139   3.622   1.965
   67SOL    HW2 1101   0.069   3.485   2.019
   68SOL     OW 1102   0.169   1.237   0.175
   68SOL    HW1 1103   0.117   1.239   0.260
   68SOL    HW2 1104   0.225   1.320   0.169
   69SOL     OW 1105   1.481   5.748   6.734
   69SOL    HW1 1106   1.498   5.650   6.745
   69SOL    HW2 1107   1.420   5.763   6.657
   70SOL     OW 1108   5.045   4.491   3.818
   70SOL    HW1 1109   4.953   4.453   3.814
   70SOL    HW2 1110   5.072   4.525   3.728
   71SOL     OW 1111   4.526   1.653   4.958
   71SOL    HW1 1112   4.565   1.561   4.967
   71SOL    HW2 1113   4.558   1.694   4.873
   72SOL     OW 1114   7.000   0.492   3.343
   72SOL    HW1 1115   6.953   0.558   3.284
   72SOL    HW2 1116   0.013   0.418   3.288
   73SOL     OW 1117   2.245   0.588   1.558
   73SOL    HW1 1118   2.255   0.538   1.644
   73SOL    HW2 1119   2.148   0.598   1.535
   74SOL     OW 1120   3.300   1.923   0.168
   74SOL    HW1 1121   3.371   1.859   0.195
   74SOL    HW2 1122   3.318   2.012   0.209
   75SOL     OW 1123   2.700   2.967   0.567
   75SOL    HW1 1124   2.791   2.989   0.601
   75SOL    HW2 1125   2.680   2.871   0.585
   76SOL     OW 1126   3.504   5.324   5.768
   76SOL    HW1 1127   3.599   5.300   5.749
   76SOL    HW2 1128   3.456   5.343   5.682
   77SOL     OW 1129   0.825   5.461   4.894
   77SOL    HW1 1130   0.867   5.432   4.980
   77SOL    HW2 1131   0.804   5.380   4.839
   78SOL     OW 1132   4.726   2.268   0.788
   78SOL    HW1 1133   4.664   2.234   0.717
   78SOL    HW2 1134   4.747   2.364   0.771
   79SOL     OW 1135   1.750   4.292   3.908
   79SOL    HW1 1136   1.812   4.249   3.974
   79SOL    HW2 1137   1.772   4.260   3.816
   80SOL     OW 1138   3.516   2.039   4.897
   80SOL    HW1 1139   3.532   2.052   4.995
   80SOL    HW2 1140   3.450   2.107   4.865
   81SOL     OW 1141   3.449   5.146   1.953
   81SOL    HW1 1142   3.538   5.171   1.991
   81SOL    HW2 1143   3.383   5.135   2.027
   82SOL     OW 1144   2.602   0.373   2.074
   82SOL    HW1 1145   2.700   0.374   2.059
   82SOL    HW2 1146   2.582   0.321   2.158
   83SOL     OW 1147   4.982   1.633   3.866
   83SOL    HW1 1148   4.973   1.683   3.952
   83SOL    HW2 1149   5.023   1.692   3.797
   84SOL     OW 1150   5.956   2.932   2.804
   84SOL    HW1 1151   5.895   3.010   2.816
   84SOL    HW2 1152   6.014   2.922   2.885
   85SOL     OW 1153   2.585   6.862   3.433
   85SOL    HW1 1154   2.508   6.899   3.381
   85SOL    HW2 1155   2.583   6.762   3.429
   86SOL     OW 1156   5.069   6.993   0.904
   86SOL    HW1 1157   4.980   0.004   0.873
   86SOL    HW2 1158   5.070   6.894   0.898
   87SOL     OW 1159   3.289   3.579   6.707
   87SOL    HW1 1160   3.237   3.501   6.742
   87SOL    HW2 1161   3.226   3.644   6.666
   88SOL     OW 1162   2.363   3.003   1.381
   88SOL    HW1 1163   2.405   3.051   1.457
   88SOL    HW2 1164   2.294   3.061   1.338
   89SOL     OW 1165   3.349   3.557   4.753
   89SOL    HW1 1166   3.435   3.534   4.709
   89SOL    HW2 1167   3.275   3.555   4.686
   90SOL     OW 1168   6.041   3.718   2.580
   90SOL    HW1 1169   6.127   3.688   2.540
   90SOL    HW2 1170   6.019   3.811   2.548
   91SOL     OW 1171   4.512   6.158   6.517
   91SOL    HW1 1172   4.425   6.198   6.488
   91SOL    HW2 1173   4.523   6.069   6.474
   92SOL     OW 1174   5.449   4.655   6.878
   92SOL    HW1 1175   5.460   4.752   6.895
   92SOL    HW2 1176   5.530   4.605   6.910
   93SOL     OW 1177   2.987   4.153   1.746
   93SOL    HW1 1178   2.960   4.079   1.684
   93SOL    HW2 1179   2.943   4.238   1.718
   94SOL     OW 1180   3.695   2.153   3.937
   94SOL    HW1 1181   3.601   2.120   3.925
   94SOL    HW2 1182   3.717   2.156   4.034
   95SOL     OW 1183   0.513   0.045   4.367
   95SOL    HW1 1184   0.552   6.978   4.356
   95SOL    HW2 1185   0.429   0.039   4.422
   96SOL     OW 1186   6.973   5.501   6.967
   96SOL    HW1 1187   6.954   5.573   6.900
   96SOL    HW2 1188   0.048   5.487   6.974
   97SOL     OW 1189   2.328   4.445   5.773
   97SOL    HW1 1190   2.370   4.521   5.724
   97SOL    HW2 1191   2.340   4.361   5.721
   98SOL     OW 1192   6.954   1.704   4.426
   98SOL    HW1 1193   6.974   1.793   4.386
   98SOL    HW2 1194   0.015   1.656   4.447
   99SOL     OW 1195   3.755   4.371   5.361
   99SOL    HW1 1196   3.826   4.313   5.323
   99SOL    HW2 1197   3.696   4.317   5.422
  100SOL     OW 1198   1.266   0.699   5.402
  100SOL    HW1 1199   1.357   0.659   5.391
  100SOL    HW2 1200   1.210   0.678   5.321
  101SOL     OW 1201   5.203   3.095   2.775
  101SOL    HW1 1202   5.213   3.130   2.868
  101SOL    HW2 1203   5.252   3.155   2.712
  102SOL     OW 1204   4.170   0.535   6.759
  102SOL    HW1 1205   4.260   0.531   6.804
  102SOL    HW2 1206   4.180   0.574   6.668
  103SOL     OW 1207   1.203   1.660   2.178
  103SOL    HW1 1208   1.253   1.620   2.102
  103SOL    HW2 1209   1.137   1.594   2.213
  104SOL     OW 1210   6.202   4.396   2.214
  104SOL    HW1 1211   6.186   4.301   2.237
  104SOL    HW2 1212   6.295   4.406   2.178
  105SOL     OW 1213   1.087   0.464   5.030
  105SOL    HW1 1214   1.024   0.531   5.068
  105SOL    HW2 1215   1.107   0.487   4.934
  106SOL     OW 1216   4.471   3.106   1.718
  106SOL    HW1 1217   4.508   3.070   1.632
  106SOL    HW2 1218   4.519   3.065   1.795
  107SOL     OW 1219   5.686   6.642   1.347
  107SOL    HW1 1220   5.766   6.615   1.293
  107SOL    HW2 1221   5.672   6.741   1.339
  108SOL     OW 1222   3.453   1.525   4.724
  108SOL    HW1 1223   3.526   1.484   4.669
  108SOL    HW2 1224   3.366   1.518   4.675
  109SOL     OW 1225   2.059   0.661   5.397
  109SOL    HW1 1226   2.128   0.625   5.335
  109SOL    HW2 1227   2.032   0.753   5.367
  110SOL     OW 1228   3.727   3.851   5.625
  110SOL    HW1 1229   3.786   3.880   5.549
  110SOL    HW2 1230   3.722   3.924   5.693
  111SOL     OW 1231   6.001   2.851   0.966
  111SOL    HW1 1232   5.929   2.885   1.027
  111SOL    HW2 1233   5.997   2.899   0.879
  112SOL     OW 1234   5.568   6.372   6.106
  112SOL    HW1 1235   5.644   6.384   6.042
  112SOL    HW2 1236   5.485   6.348   6.057
  113SOL     OW 1237   0.355   5.068   3.075
  113SOL    HW1 1238   0.453   5.079   3.061
  113SOL    HW2 1239   0.327   4.975   3.053
  114SOL     OW 1240   0.142   2.376   1.736
  114SOL    HW1 1241   0.042   2.368   1.736
  114SOL    HW2 1242   0.168   2.469   1.710
  115SOL     OW 1243   4.448   0.160   2.526
  115SOL    HW1 1244   4.423   0.255   2.503
  115SOL    HW2 1245   4.482   0.114   2.444
  116SOL     OW 1246   0.029   5.212   0.638
  116SOL    HW1 1247   6.996   5.136   0.605
  116SOL    HW2 1248   0.002   5.234   0.732
  117SOL     OW 1249   2.998   2.390   0.196
  117SOL    HW1 1250   2.995   2.376   0.098
  117SOL    HW2 1251   2.904   2.401   0.231
  118SOL     OW 1252   0.124   1.665   2.523
  118SOL    HW1 1253   0.062   1.725   2.473
  118SOL    HW2 1254   0.076   1.581   2.549
  119SOL     OW 1255   6.399   6.839   5.506
  119SOL    HW1 1256   6.416   6.824   5.408
  119SOL    HW2 1257   6.364   6.755   5.546
  120SOL     OW 1258   4.558   0.624   4.296
  120SOL    HW1 1259   4.613   0.622   4.213
  120SOL    HW2 1260   4.461   0.632   4.272
  121SOL     OW 1261   0.673   5.472   6.404
  121SOL    HW1 1262   0.610   5.495   6.478
  121SOL    HW2 1263   0.674   5.545   6.336
  122SOL     OW 1264   6.817   4.526   5.895
  122SOL    HW1 1265   6.721   4.519   5.922
  122SOL    HW2 1266   6.851   4.436   5.869
  123SOL     OW 1267   0.371   2.718   1.979
  123SOL    HW1 1268   0.290   2.757   1.935
  123SOL    HW2 1269   0.418   2.789   2.032
  124SOL     OW 1270   1.516   3.553   0.351
  124SOL    HW1 1271   1.510   3.462   0.309
  124SOL    HW2 1272   1.571   3.548   0.434
  125SOL     OW 1273   4.296   2.760   0.788
  125SOL    HW1 1274   4.222   2.776   0.854
  125SOL    HW2 1275   4.279   2.673   0.740
  126SOL     OW 1276   3.565   3.388   4.181
  126SOL    HW1 1277   3.486   3.333   4.155
  126SOL    HW2 1278   3.649   3.339   4.159
  127SOL     OW 1279   0.555   4.388   5.292
  127SOL    HW1 1280   0.459   4.416   5.291
  127SOL    HW2 1281   0.607   4.442   5.226
  128SOL     OW 1282   4.996   3.626   6.446
  128SOL    HW1 1283   5.034   3.682   6.520
  128SOL    HW2 1284   5.028   3.661   6.358
  129SOL     OW 1285   0.302   5.828   2.331
  129SOL    HW1 1286   0.331   5.899   2.395
  129SOL    HW2 1287   0.377   5.805   2.269
  130SOL     OW 1288   5.974   3.381   4.310
  130SOL    HW1 1289   6.043   3.310   4.326
  130SOL    HW2 1290   5.969   3.440   4.391
  131SOL     OW 1291   0.615   3.634   3.214
  131SOL    HW1 1292   0.647   3.558   3.270
  131SOL    HW2 1293   0.693   3.678   3.169
  132SOL     OW 1294   4.568   2.600   0.821
  132SOL    HW1 1295   4.492   2.551   0.778
  132SOL    HW2 1296   4.548   2.613   0.918
  133SOL     OW 1297   4.433   5.143   6.593
  133SOL    HW1 1298   4.392   5.224   6.551
  133SOL    HW2 1299   4.431   5.153   6.693
  134SOL     OW 1300   5.441   2.299   1.044
  134SOL    HW1 1301   5.404   2.390   1.062
  134SOL    HW2 1302   5.418   2.237   1.118
  135SOL     OW 1303   4.909   3.842   3.784
  135SOL    HW1 1304   4.880   3.921   3.837
  135SOL    HW2 1305   4.998   3.810   3.817
  136SOL     OW 1306   4.103   0.898   6.252
  136SOL    HW1 1307   4.005   0.881   6.269
  136SOL    HW2 1308   4.113   0.966   6.179
  137SOL     OW 1309   2.574   4.044   6.100
  137SOL    HW1 1310   2.594   4.087   6.012
  137SOL    HW2 1311   2.497   4.091   6.143
  138SOL     OW 1312   1.019   5.450   6.705
  138SOL    HW1 1313   0.963   5.533   6.709
  138SOL    HW2 1314   1.091   5.456   6.774
  139SOL     OW 1315   1.268   0.148   1.600
  139SOL    HW1 1316   1.318   0.211   1.540
  139SOL    HW2 1317   1.170   0.152   1.578
  140SOL     OW 1318   4.006   0.882   1.541
  140SOL    HW1 1319   3.943   0.940   1.593
  140SOL    HW2 1320   4.085   0.860   1.598
  141SOL     OW 1321   0.139   2.304   0.627
  141SOL    HW1 1322   0.172   2.245   0.554
  141SOL    HW2 1323   0.140   2.399   0.596
  142SOL     OW 1324   2.212   3.886   0.603
  142SOL    HW1 1325   2.126   3.834   0.609
  142SOL    HW2 1326   2.200   3.962   0.538
  143SOL     OW 1327   4.006   6.414   2.279
  143SOL    HW1 1328   4.006   6.498   2.225
  143SOL    HW2 1329   3.957   6.342   2.230
  144SOL     OW 1330   3.144   5.639   2.665
  144SOL    HW1 1331   3.135   5.734   2.696
  144SOL    HW2 1332   3.074   5.582   2.710
  145SOL     OW 1333   6.715   5.512   4.358
  145SOL    HW1 1334   6.728   5.505   4.457
  145SOL    HW2 1335   6.631   5.564   4.339
  146SOL     OW 1336   6.195   0.494   6.324
  146SOL    HW1 1337   6.161   0.554   6.252
  146SOL    HW2 1338   6.295   0.499   6.327
  147SOL     OW 1339   5.834   1.293   5.280
  147SOL    HW1 1340   5.754   1.282   5.339
  147SOL    HW2 1341   5.875   1.383   5.294
  148SOL     OW 1342   2.512   6.653   1.323
  148SOL    HW1 1343   2.481   6.622   1.413
  148SOL    HW2 1344   2.444   6.627   1.254
  149SOL     OW 1345   1.933   2.655   4.513
  149SOL    HW1 1346   2.028   2.628   4.526
  149SOL    HW2 1347   1.906   2.641   4.418
  150SOL     OW 1348   4.044   1.973   5.190
  150SOL    HW1 1349   4.071   1.909   5.118
  150SOL    HW2 1350   3.991   1.925   5.260
  151SOL     OW 1351   5.968   3.509   0.788
  151SOL    HW1 1352   6.052   3.531   0.837
  151SOL    HW2 1353   5.899   3.579   0.806
  152SOL     OW 1354   0.727   3.005   1.649
  152SOL    HW1 1355   0.725   2.943   1.727
  152SOL    HW2 1356   0.819   3.042   1.638
  153SOL     OW 1357   2.154   1.815   3.856
  153SOL    HW1 1358   2.069   1.767   3.880
  153SOL    HW2 1359   2.138   1.913   3.856
  154SOL     OW 1360   6.533   1.911   3.185
  154SOL    HW1 1361   6.627   1.881   3.170
  154SOL    HW2 1362   6.497   1.950   3.100
  155SOL     OW 1363   6.561   4.808   3.252
  155SOL    HW1 1364   6.650   4.848   3.232
  155SOL    HW2 1365   6.489   4.871   3.223
  156SOL     OW 1366   5.148   1.359   0.384
  156SOL    HW1 1367   5.180   1.423   0.314
  156SOL    HW2 1368   5.222   1.342   0.450
  157SOL     OW 1369   5.308   0.073   1.383
  157SOL    HW1 1370   5.367   0.141   1.425
  157SOL    HW2 1371   5.234   0.119   1.334
  158SOL     OW 1372   0.605   2.739   4.462
  158SOL    HW1 1373   0.543   2.755   4.539
  158SOL    HW2 1374   0.612   2.823   4.407
  159SOL     OW 1375   6.379   5.468   0.538
  159SOL    HW1 1376   6.463   5.412   0.536
  159SOL    HW2 1377   6.389   5.546   0.477
  160SOL     OW 1378   5.511   0.623   0.974
  160SOL    HW1 1379   5.428   0.602   0.923
  160SOL    HW2 1380   5.582   0.557   0.951
  161SOL     OW 1381   6.484   6.048   0.696
  161SOL    HW1 1382   6.487   6.091   0.786
  161SOL    HW2 1383   6.554   6.090   0.637
  162SOL     OW 1384   4.559   7.009   5.911
  162SOL    HW1 1385   4.530   7.009   5.816
  162SOL    HW2 1386   4.502   6.947   5.964
  163SOL     OW 1387   0.580   2.843   2.539
  163SOL    HW1 1388   0.545   2.837   2.633
  163SOL    HW2 1389   0.528   2.912   2.489
  164SOL     OW 1390   2.753   2.405   3.138
  164SOL    HW1 1391   2.666   2.451   3.155
  164SOL    HW2 1392   2.824   2.445   3.196
  165SOL     OW 1393   0.026   6.908   3.814
  165SOL    HW1 1394   0.044   6.934   3.909
  165SOL    HW2 1395   0.087   6.834   3.787
  166SOL     OW 1396   6.815   4.730   4.330
  166SOL    HW1 1397   6.906   4.721   4.291
  166SOL    HW2 1398   6.783   4.824   4.319
  167SOL     OW 1399   2.299   0.978   4.747
  167SOL    HW1 1400   2.296   0.883   4.717
  167SOL    HW2 1401   2.232   1.032   4.697
  168SOL     OW 1402   3.730   3.490   1.978
  168SOL    HW1 1403   3.740   3.392   1.994
  168SOL    HW2 1404   3.667   3.505   1.902
  169SOL     OW 1405   5.529   2.643   0.384
  169SOL    HW1 1406   5.581   2.664   0.301
  169SOL    HW2 1407   5.431   2.644   0.362
  170SOL     OW 1408   6.125   5.479   1.041
  170SOL    HW1 1409   6.189   5.544   0.999
  170SOL    HW2 1410   6.055   5.530   1.091
  171SOL     OW 1411   3.314   3.278   1.310
  171SOL    HW1 1412   3.314   3.343   1.234
  171SOL    HW2 1413   3.220   3.263   1.341
  172SOL     OW 1414   1.628   1.196   6.236
  172SOL    HW1 1415   1.636   1.098   6.218
  172SOL    HW2 1416   1.671   1.247   6.161
  173SOL     OW 1417   5.983   1.040   4.205
  173SOL    HW1 1418   5.948   1.130   4.180
  173SOL    HW2 1419   5.966   0.976   4.131
  174SOL     OW 1420   5.235   4.241   4.328
  174SOL    HW1 1421   5.277   4.330   4.349
  174SOL    HW2 1422   5.261   4.213   4.236
  175SOL     OW 1423   0.323   6.285   2.171
  175SOL    HW1 1424   0.280   6.316   2.087
  175SOL    HW2 1425   0.354   6.364   2.224
  176SOL     OW 1426   6.552   3.484   1.636
  176SOL    HW1 1427   6.593   3.503   1.546
  176SOL    HW2 1428   6.511   3.568   1.672
  177SOL     OW 1429   5.867   2.222   3.508
  177SOL    HW1 1430   5.961   2.220   3.474
  177SOL    HW2 1431   5.846   2.136   3.554
  178SOL     OW 1432   2.250   5.791   4.368
  178SOL    HW1 1433   2.340   5.747   4.366
  178SOL    HW2 1434   2.252   5.868   4.433
  179SOL     OW 1435   2.972   4.695   1.309
  179SOL    HW1 1436   3.069   4.713   1.329
  179SOL    HW2 1437   2.960   4.597   1.291
  180SOL     OW 1438   4.810   1.223   6.292
  180SOL    HW1 1439   4.843   1.197   6.202
  180SOL    HW2 1440   4.862   1.175   6.362
  181SOL     OW 1441   3.274   1.328   6.028
  181SOL    HW1 1442   3.226   1.408   5.992
  181SOL    HW2 1443   3.367   1.326   5.994
  182SOL     OW 1444   3.221   3.364   5.652
  182SOL    HW1 1445   3.221   3.364   5.552
  182SOL    HW2 1446   3.203   3.456   5.685
  183SOL     OW 1447   2.900   0.754   3.204
  183SOL    HW1 1448   2.944   0.665   3.211
  183SOL    HW2 1449   2.875   0.772   3.109
  184SOL     OW 1450   5.608   5.943   3.578
  184SOL    HW1 1451   5.658   5.971   3.660
  184SOL    HW2 1452   5.666   5.956   3.498
  185SOL     OW 1453   0.768   0.023   5.005
  185SOL    HW1 1454   0.831   6.970   5.016
  185SOL    HW2 1455   0.726   0.020   4.915
  186SOL     OW 1456   3.257   6.034   4.574
  186SOL    HW1 1457   3.273   6.060   4.669
  186SOL    HW2 1458   3.279   5.937   4.562
  187SOL     OW 1459   4.283   5.727   1.415
  187SOL    HW1 1460   4.241   5.699   1.329
  187SOL    HW2 1461   4.361   5.787   1.397
  188SOL     OW 1462   1.019   3.646   3.282
  188SOL    HW1 1463   0.967   3.563   3.263
  188SOL    HW2 1464   1.085   3.661   3.208
  189SOL     OW 1465   5.157   4.705   5.230
  189SOL    HW1 1466   5.130   4.609   5.229
  189SOL    HW2 1467   5.114   4.753   5.153
  190SOL     OW 1468   6.164   0.026   0.477
  190SOL    HW1 1469   6.199   0.027   0.571
  190SOL    HW2 1470   6.234   7.011   0.416
  191SOL     OW 1471   1.291   1.918   5.160
  191SOL    HW1 1472   1.309   1.839   5.101
  191SOL    HW2 1473   1.377   1.958   5.189
  192SOL     OW 1474   0.582   5.814   1.457
  192SOL    HW1 1475   0.582   5.760   1.541
  192SOL    HW2 1476   0.489   5.821   1.421
  193SOL     OW 1477   2.348   0.790   2.010
  193SOL    HW1 1478   2.406   0.741   2.076
  193SOL    HW2 1479   2.401   0.807   1.927
  194SOL     OW 1480   3.518   5.983   2.272
  194SOL    HW1 1481   3.527   5.894   2.226
  194SOL    HW2 1482   3.425   6.017   2.262
  195SOL     OW 1483   3.522   0.414   0.498
  195SOL    HW1 1484   3.429   0.432   0.530
  195SOL    HW2 1485   3.574   0.371   0.572
  196SOL     OW 1486   3.885   2.367   0.878
  196SOL    HW1 1487   3.846   2.276   0.873
  196SOL    HW2 1488   3.842   2.419   0.952
  197SOL     OW 1489   1.698   5.856   0.283
  197SOL    HW1 1490   1.743   5.816   0.203
  197SOL    HW2 1491   1.612   5.807   0.300
  198SOL     OW 1492   4.308   6.646   6.564
  198SOL    HW1 1493   4.405   6.629   6.546
  198SOL    HW2 1494   4.262   6.669   6.479
  199SOL     OW 1495   1.068   0.743   3.266
  199SOL    HW1 1496   1.061   0.738   3.166
  199SOL    HW2 1497   0.979   0.723   3.307
  200SOL     OW 1498   1.062   3.854   3.772
  200SOL    HW1 1499   1.017   3.939   3.743
  200SOL    HW2 1500   1.075   3.795   3.692
  201SOL     OW 1501   4.597   1.606   6.433
  201SOL    HW1 1502   4.640   1.551   6.361
  201SOL    HW2 1503   4.540   1.547   6.490
  202SOL     OW 1504   3.746   1.029   2.374
  202SOL    HW1 1505   3.810   1.022   2.297
  202SOL    HW2 1506   3.659   1.067   2.341
  203SOL     OW 1507   6.103   2.719   6.939
  203SOL    HW1 1508   6.040   2.681   6.871
  203SOL    HW2 1509   6.140   2.806   6.906
  204SOL     OW 1510   2.196   0.049   1.383
  204SOL    HW1 1511   2.269   0.102   1.424
  204SOL    HW2 1512   2.113   0.104   1.377
  205SOL     OW 1513   5.636   0.716   1.432
  205SOL    HW1 1514   5.608   0.626   1.464
  205SOL    HW2 1515   5.597   0.733   1.342
  206SOL     OW 1516   0.197   5.769   1.672
  206SOL    HW1 1517   0.261   5.784   1.747
  206SOL    HW2 1518   0.225   5.825   1.593
  207SOL     OW 1519   4.996   1.623   5.473
  207SOL    HW1 1520   5.054   1.646   5.551
  207SOL    HW2 1521   4.917   1.685   5.471
  208SOL     OW 1522   3.703   4.354   6.228
  208SOL    HW1 1523   3.803   4.348   6.235
  208SOL    HW2 1524   3.679   4.405   6.146
  209SOL     OW 1525   6.779   5.557   4.646
  209SOL    HW1 1526   6.782   5.653   4.674
  209SOL    HW2 1527   6.869   5.517   4.656
  210SOL     OW 1528   4.062   2.074   1.107
  210SOL    HW1 1529   4.065   2.034   1.199
  210SOL    HW2 1530   4.144   2.130   1.093
  211SOL     OW 1531   0.853   3.011   2.055
  211SOL    HW1 1532   0.936   3.000   2.000
  211SOL    HW2 1533   0.869   3.078   2.127
  212SOL     OW 1534   6.997   5.371   4.667
  212SOL    HW1 1535   6.962   5.317   4.743
  212SOL    HW2 1536   0.073   5.361   4.661
  213SOL     OW 1537   3.965   2.334   6.049
  213SOL    HW1 1538   3.985   2.415   5.995
  213SOL    HW2 1539   3.879   2.347   6.099
  214SOL     OW 1540   1.441   6.620   3.272
  214SOL    HW1 1541   1.522   6.606   3.214
  214SOL    HW2 1542   1.469   6.637   3.366
  215SOL     OW 1543   4.011   3.636   2.738
  215SOL    HW1 1544   4.006   3.728   2.699
  215SOL    HW2 1545   4.029   3.642   2.836
  216SOL     OW 1546   2.016   0.013   5.707
  216SOL    HW1 1547   2.015   6.946   5.749
  216SOL    HW2 1548   1.939   0.067   5.743
  217SOL     OW 1549   6.851   2.498   4.255
  217SOL    HW1 1550   6.832   2.580   4.309
  217SOL    HW2 1551   6.765   2.455   4.228
  218SOL     OW 1552   1.914   3.493   5.488
  218SOL    HW1 1553   1.880   3.495   5.582
  218SOL    HW2 1554   1.900   3.582   5.446
  219SOL     OW 1555   3.367   5.413   0.295
  219SOL    HW1 1556   3.274   5.408   0.260
  219SOL    HW2 1557   3.407   5.321   0.297
  220SOL     OW 1558   1.225   4.481   0.410
  220SOL    HW1 1559   1.274   4.500   0.494
  220SOL    HW2 1560   1.286   4.437   0.344
  221SOL     OW 1561   6.414   2.955   4.498
  221SOL    HW1 1562   6.341   2.887   4.510
  221SOL    HW2 1563   6.503   2.911   4.510
  222SOL     OW 1564   1.197   6.292   4.324
  222SOL    HW1 1565   1.199   6.192   4.330
  222SOL    HW2 1566   1.248   6.330   4.402
  223SOL     OW 1567   6.111   4.651   2.237
  223SOL    HW1 1568   6.127   4.553   2.227
  223SOL    HW2 1569   6.090   4.672   2.332
  224SOL     OW 1570   3.933   2.155   2.142
  224SOL    HW1 1571   3.858   2.188   2.084
  224SOL    HW2 1572   3.899   2.139   2.234
  225SOL     OW 1573   6.471   0.092   1.351
  225SOL    HW1 1574   6.492   0.149   1.271
  225SOL    HW2 1575   6.411   0.017   1.322
  226SOL     OW 1576   6.900   5.779   1.605
  226SOL    HW1 1577   6.983   5.745   1.648
  226SOL    HW2 1578   6.868   5.861   1.653
  227SOL     OW 1579   1.080   3.178   2.814
  227SOL    HW1 1580   1.023   3.096   2.807
  227SOL    HW2 1581   1.039   3.242   2.879
  228SOL     OW 1582   3.541   6.666   2.660
  228SOL    HW1 1583   3.530   6.640   2.564
  228SOL    HW2 1584   3.465   6.630   2.714
  229SOL     OW 1585   6.079   5.787   3.494
  229SOL    HW1 1586   6.015   5.742   3.431
  229SOL    HW2 1587   6.035   5.803   3.582
  230SOL     OW 1588   1.194   4.036   6.121
  230SOL    HW1 1589   1.265   4.082   6.069
  230SOL    HW2 1590   1.120   4.100   6.140
  231SOL     OW 1591   0.719   1.617   0.020
  231SOL    HW1 1592   0.744   1.534   6.994
  231SOL    HW2 1593   0.801   1.663   0.053
  232SOL     OW 1594   1.779   4.269   6.562
  232SOL    HW1 1595   1.750   4.360   6.535
  232SOL    HW2 1596   1.851   4.237   6.501
  233SOL     OW 1597   3.289   0.623   6.195
  233SOL    HW1 1598   3.208   0.681   6.202
  233SOL    HW2 1599   3.267   0.542   6.140
  234SOL     OW 1600   3.071   5.624   6.083
  234SOL    HW1 1601   3.120   5.580   6.007
  234SOL    HW2 1602   3.003   5.561   6.119
  235SOL     OW 1603   3.549   3.447   4.926
  235SOL    HW1 1604   3.604   3.450   4.843
  235SOL    HW2 1605   3.465   3.499   4.912
  236SOL     OW 1606   0.252   2.360   6.229
  236SOL    HW1 1607   0.270   2.381   6.133
  236SOL    HW2 1608   0.329   2.390   6.285
  237SOL     OW 1609   6.415   6.515   1.817
  237SOL    HW1 1610   6.463   6.568   1.747
  237SOL    HW2 1611   6.479   6.454   1.863
  238SOL     OW 1612   6.364   1.508   2.609
  238SOL    HW1 1613   6.345   1.606   2.612
  238SOL    HW2 1614   6.310   1.461   2.679
  239SOL     OW 1615   0.683   5.646   0.903
  239SOL    HW1 1616   0.730   5.558   0.909
  239SOL    HW2 1617   0.749   5.720   0.907
  240SOL     OW 1618   6.756   3.141   5.488
  240SOL    HW1 1619   6.812   3.089   5.553
  240SOL    HW2 1620   6.815   3.201   5.435
  241SOL     OW 1621   6.040   1.466   4.621
  241SOL    HW1 1622   5.976   1.528   4.666
  241SOL    HW2 1623   5.991   1.413   4.551
  242SOL     OW 1624   2.648   2.458   4.024
  242SOL    HW1 1625   2.738   2.424   3.994
  242SOL    HW2 1626   2.631   2.428   4.117
  243SOL     OW 1627   4.247   1.581   6.261
  243SOL    HW1 1628   4.307   1.545   6.333
  243SOL    HW2 1629   4.152   1.567   6.286
  244SOL     OW 1630   0.275   0.683   5.987
  244SOL    HW1 1631   0.223   0.730   5.916
  244SOL    HW2 1632   0.307   0.750   6.054
  245SOL     OW 1633   5.099   2.741   3.877
  245SOL    HW1 1634   5.121   2.798   3.956
  245SOL    HW2 1635   5.089   2.799   3.796
  246SOL     OW 1636   5.013   3.155   3.556
  246SOL    HW1 1637   5.107   3.190   3.565
  246SOL    HW2 1638   5.016   3.068   3.506
  247SOL     OW 1639   2.694   0.050   3.556
  247SOL    HW1 1640   2.792   0.035   3.545
  247SOL    HW2 1641   2.644   7.003   3.505
  248SOL     OW 1642   6.663   1.399   1.648
  248SOL    HW1 1643   6.701   1.335   1.714
  248SOL    HW2 1644   6.731   1.470   1.627
  249SOL     OW 1645   2.121   5.900   5.126
  249SOL    HW1 1646   2.153   5.868   5.037
  249SOL    HW2 1647   2.043   5.962   5.113
  250SOL     OW 1648   5.108   2.869   6.550
  250SOL    HW1 1649   5.105   2.832   6.643
  250SOL    HW2 1650   5.142   2.963   6.553
  251SOL     OW 1651   1.873   2.470   0.493
  251SOL    HW1 1652   1.839   2.495   0.583
  251SOL    HW2 1653   1.822   2.390   0.459
  252SOL     OW 1654   0.764   1.551   0.754
  252SOL    HW1 1655   0.789   1.512   0.842
  252SOL    HW2 1656   0.725   1.642   0.767
  253SOL     OW 1657   1.888   4.309   6.198
  253SOL    HW1 1658   1.792   4.332   6.184
  253SOL    HW2 1659   1.946   4.382   6.162
  254SOL     OW 1660   4.706   3.609   6.490
  254SOL    HW1 1661   4.806   3.616   6.479
  254SOL    HW2 1662   4.680   3.513   6.495
  255SOL     OW 1663   3.860   2.084   2.411
  255SOL    HW1 1664   3.773   2.062   2.454
  255SOL    HW2 1665   3.936   2.064   2.474
  256SOL     OW 1666   6.789   5.711   1.897
  256SOL    HW1 1667   6.784   5.739   1.801
  256SOL    HW2 1668   6.701   5.676   1.927
  257SOL     OW 1669   2.598   5.652   6.726
  257SOL    HW1 1670   2.581   5.639   6.824
  257SOL    HW2 1671   2.634   5.744   6.711
  258SOL     OW 1672   4.966   4.274   4.365
  258SOL    HW1 1673   5.063   4.252   4.378
  258SOL    HW2 1674   4.953   4.373   4.371
  259SOL     OW 1675   0.825   2.124   3.113
  259SOL    HW1 1676   0.742   2.067   3.117
  259SOL    HW2 1677   0.798   2.220   3.099
  260SOL     OW 1678   0.045   6.629   5.857
  260SOL    HW1 1679   7.014   6.552   5.824
  260SOL    HW2 1680   0.090   6.604   5.943
  261SOL     OW 1681   0.221   1.266   3.182
  261SOL    HW1 1682   0.312   1.299   3.206
  261SOL    HW2 1683   0.211   1.261   3.083
  262SOL     OW 1684   1.856   5.252   2.672
  262SOL    HW1 1685   1.910   5.188   2.617
  262SOL    HW2 1686   1.761   5.249   2.642
  263SOL     OW 1687   7.013   2.927   5.291
  263SOL    HW1 1688   0.050   2.974   5.355
  263SOL    HW2 1689   6.999   2.833   5.321
  264SOL     OW 1690   3.364   4.197   6.670
  264SOL    HW1 1691   3.375   4.141   6.588
  264SOL    HW2 1692   3.267   4.208   6.691
  265SOL     OW 1693   4.946   5.468   4.272
  265SOL    HW1 1694   4.997   5.420   4.343
  265SOL    HW2 1695   4.927   5.406   4.196
  266SOL     OW 1696   4.010   3.188   6.887
  266SOL    HW1 1697   3.925   3.236   6.867
  266SOL    HW2 1698   4.015   3.104   6.833
  267SOL     OW 1699   2.384   1.783   6.516
  267SOL    HW1 1700   2.451   1.765   6.445
  267SOL    HW2 1701   2.306   1.721   6.505
  268SOL     OW 1702   2.754   4.741   3.660
  268SOL    HW1 1703   2.776   4.645   3.647
  268SOL    HW2 1704   2.776   4.769   3.753
  269SOL     OW 1705   2.015   1.461   4.911
  269SOL    HW1 1706   1.950   1.439   4.984
  269SOL    HW2 1707   2.088   1.393   4.910
  270SOL     OW 1708   4.952   6.890   4.423
  270SOL    HW1 1709   4.970   6.933   4.512
  270SOL    HW2 1710   4.864   6.842   4.427
  271SOL     OW 1711   1.675   1.560   0.617
  271SOL    HW1 1712   1.759   1.551   0.671
  271SOL    HW2 1713   1.665   1.654   0.586
  272SOL     OW 1714   4.271   6.066   1.235
  272SOL    HW1 1715   4.307   5.987   1.284
  272SOL    HW2 1716   4.240   6.135   1.300
  273SOL     OW 1717   2.211   6.587   4.363
  273SOL    HW1 1718   2.177   6.612   4.272
  273SOL    HW2 1719   2.163   6.640   4.432
  274SOL     OW 1720   5.542   1.699   1.004
  274SOL    HW1 1721   5.550   1.634   1.079
  274SOL    HW2 1722   5.551   1.792   1.039
  275SOL     OW 1723   5.563   5.504   5.923
  275SOL    HW1 1724   5.634   5.508   5.993
  275SOL    HW2 1725   5.488   5.446   5.955
  276SOL     OW 1726   0.076   6.524   4.568
  276SOL    HW1 1727   0.122   6.589   4.628
  276SOL    HW2 1728   0.126   6.437   4.567
  277SOL     OW 1729   4.406   2.740   5.416
  277SOL    HW1 1730   4.439   2.811   5.478
  277SOL    HW2 1731   4.317   2.766   5.379
  278SOL     OW 1732   5.777   4.025   3.234
  278SOL    HW1 1733   5.797   3.943   3.181
  278SOL    HW2 1734   5.759   4.001   3.329
  279SOL     OW 1735   6.779   3.454   3.832
  279SOL    HW1 1736   6.691   3.408   3.844
  279SOL    HW2 1737   6.848   3.387   3.802
  280SOL     OW 1738   4.350   1.342   3.642
  280SOL    HW1 1739   4.428   1.281   3.649
  280SOL    HW2 1740   4.380   1.432   3.611
  281SOL     OW 1741   5.158   5.752   5.002
  281SOL    HW1 1742   5.245   5.741   4.954
  281SOL    HW2 1743   5.134   5.849   5.006
  282SOL     OW 1744   1.110   2.863   0.310
  282SOL    HW1 1745   1.112   2.763   0.312
  282SOL    HW2 1746   1.087   2.894   0.218
  283SOL     OW 1747   5.662   3.820   4.256
  283SOL    HW1 1748   5.700   3.906   4.222
  283SOL    HW2 1749   5.566   3.834   4.281
  284SOL     OW 1750   4.952   5.932   2.476
  284SOL    HW1 1751   4.913   6.017   2.442
  284SOL    HW2 1752   4.912   5.908   2.564
  285SOL     OW 1753   3.984   6.931   5.788
  285SOL    HW1 1754   4.053   6.999   5.766
  285SOL    HW2 1755   3.943   6.951   5.877
  286SOL     OW 1756   2.675   5.215   5.355
  286SOL    HW1 1757   2.762   5.192   5.311
  286SOL    HW2 1758   2.659   5.153   5.432
  287SOL     OW 1759   3.954   6.311   6.824
  287SOL    HW1 1760   4.013   6.233   6.804
  287SOL    HW2 1761   3.906   6.296   6.910
  288SOL     OW 1762   5.088   1.470   7.003
  288SOL    HW1 1763   5.184   1.495   6.991
  288SOL    HW2 1764   5.030   1.545   6.973
  289SOL     OW 1765   6.039   5.255   4.231
  289SOL    HW1 1766   6.072   5.245   4.325
  289SOL    HW2 1767   6.062   5.173   4.179
  290SOL     OW 1768   3.896   0.678   5.613
  290SOL    HW1 1769   3.924   0.682   5.709
  290SOL    HW2 1770   3.820   0.740   5.598
  291SOL     OW 1771   4.148   0.330   5.372
  291SOL    HW1 1772   4.203   0.348   5.454
  291SOL    HW2 1773   4.066   0.387   5.373
  292SOL     OW 1774   3.330   0.269   3.756
  292SOL    HW1 1775   3.407   0.207   3.772
  292SOL    HW2 1776   3.292   0.252   3.665
  293SOL     OW 1777   5.235   6.194   2.692
  293SOL    HW1 1778   5.211   6.167   2.599
  293SOL    HW2 1779   5.307   6.264   2.689
  294SOL     OW 1780   6.805   1.245   0.009
  294SOL    HW1 1781   6.734   1.263   6.964
  294SOL    HW2 1782   6.809   1.321   0.073
  295SOL     OW 1783   1.228   0.710   4.475
  295SOL    HW1 1784   1.226   0.810   4.473
  295SOL    HW2 1785   1.239   0.679   4.570
  296SOL     OW 1786   0.599   2.297   2.106
  296SOL    HW1 1787   0.578   2.250   2.192
  296SOL    HW2 1788   0.581   2.395   2.117
  297SOL     OW 1789   5.785   3.148   3.416
  297SOL    HW1 1790   5.718   3.205   3.463
  297SOL    HW2 1791   5.790   3.059   3.460
  298SOL     OW 1792   3.989   1.107   5.584
  298SOL    HW1 1793   3.981   1.180   5.651
  298SOL    HW2 1794   4.029   1.026   5.627
  299SOL     OW 1795   0.643   1.013   6.723
  299SOL    HW1 1796   0.679   1.029   6.631
  299SOL    HW2 1797   0.638   0.914   6.739
  300SOL     OW 1798   4.996   0.146   3.640
  300SOL    HW1 1799   5.008   0.056   3.599
  300SOL    HW2 1800   4.900   0.174   3.631
  301SOL     OW 1801   6.529   5.225   6.468
  301SOL    HW1 1802   6.495   5.133   6.446
  301SOL    HW2 1803   6.623   5.218   6.504
  302SOL     OW 1804   6.971   6.340   2.665
  302SOL    HW1 1805   0.012   6.264   2.659
  302SOL    HW2 1806   7.008   6.410   2.726
  303SOL     OW 1807   5.873   6.079   3.476
  303SOL    HW1 1808   5.848   6.007   3.411
  303SOL    HW2 1809   5.887   6.165   3.426
  304SOL     OW 1810   2.482   6.325   4.667
  304SOL    HW1 1811   2.416   6.334   4.593
  304SOL    HW2 1812   2.559   6.387   4.652
  305SOL     OW 1813   0.655   2.808   1.830
  305SOL    HW1 1814   0.572   2.790   1.777
  305SOL    HW2 1815   0.630   2.845   1.919
  306SOL     OW 1816   0.183   6.596   3.267
  306SOL    HW1 1817   0.282   6.599   3.281
  306SOL    HW2 1818   0.138   6.576   3.355
  307SOL     OW 1819   3.639   3.408   3.861
  307SOL    HW1 1820   3.630   3.308   3.862
  307SOL    HW2 1821   3.735   3.433   3.854
  308SOL     OW 1822   6.658   1.861   2.593
  308SOL    HW1 1823   6.640   1.959   2.594
  308SOL    HW2 1824   6.604   1.816   2.664
  309SOL     OW 1825   2.144   5.718   0.101
  309SOL    HW1 1826   2.152   5.683   0.008
  309SOL    HW2 1827   2.048   5.743   0.118
  310SOL     OW 1828   5.491   6.264   4.960
  310SOL    HW1 1829   5.538   6.343   4.999
  310SOL    HW2 1830   5.416   6.295   4.902
  311SOL     OW 1831   1.579   5.969   2.085
  311SOL    HW1 1832   1.619   5.929   2.002
  311SOL    HW2 1833   1.646   5.965   2.159
  312SOL     OW 1834   2.976   0.409   3.972
  312SOL    HW1 1835   3.026   0.494   3.987
  312SOL    HW2 1836   3.038   0.332   3.975
  313SOL     OW 1837   2.906   3.227   2.833
  313SOL    HW1 1838   2.901   3.255   2.737
  313SOL    HW2 1839   2.816   3.241   2.876
  314SOL     OW 1840   2.774   5.654   5.806
  314SOL    HW1 1841   2.838   5.578   5.800
  314SOL    HW2 1842   2.698   5.639   5.743
  315SOL     OW 1843   5.653   0.798   4.788
  315SOL    HW1 1844   5.645   0.846   4.875
  315SOL    HW2 1845   5.665   0.864   4.714
  316SOL     OW 1846   3.853   0.672   6.179
  316SOL    HW1 1847   3.766   0.624   6.168
  316SOL    HW2 1848   3.838   0.757   6.230
  317SOL     OW 1849   0.324   2.552   1.448
  317SOL    HW1 1850   0.370   2.587   1.366
  317SOL    HW2 1851   0.393   2.517   1.512
  318SOL     OW 1852   1.052   0.717   5.236
  318SOL    HW1 1853   0.992   0.781   5.187
  318SOL    HW2 1854   1.003   0.676   5.312
  319SOL     OW 1855   0.080   0.690   3.837
  319SOL    HW1 1856   0.062   0.591   3.835
  319SOL    HW2 1857   0.069   0.727   3.745
  320SOL     OW 1858   5.863   2.078   6.675
  320SOL    HW1 1859   5.908   2.039   6.756
  320SOL    HW2 1860   5.865   2.178   6.681
  321SOL     OW 1861   5.167   3.021   0.725
  321SOL    HW1 1862   5.196   3.111   0.756
  321SOL    HW2 1863   5.232   2.952   0.758
  322SOL     OW 1864   3.373   2.869   6.775
  322SOL    HW1 1865   3.421   2.900   6.857
  322SOL    HW2 1866   3.432   2.806   6.724
  323SOL     OW 1867   1.611   3.991   2.657
  323SOL    HW1 1868   1.628   3.984   2.756
  323SOL    HW2 1869   1.695   3.966   2.607
  324SOL     OW 1870   0.385   6.946   3.176
  324SOL    HW1 1871   0.316   6.974   3.244
  324SOL    HW2 1872   0.344   6.880   3.113
  325SOL     OW 1873   6.995   4.018   0.492
  325SOL    HW1 1874   6.962   3.926   0.470
  325SOL    HW2 1875   0.069   4.015   0.511
  326SOL     OW 1876   0.711   6.346   6.968
  326SOL    HW1 1877   0.796   6.294   6.964
  326SOL    HW2 1878   0.633   6.284   6.960
  327SOL     OW 1879   4.322   5.351   5.166
  327SOL    HW1 1880   4.246   5.309   5.215
  327SOL    HW2 1881   4.397   5.370   5.230
  328SOL     OW 1882   1.522   4.705   3.441
  328SOL    HW1 1883   1.442   4.753   3.405
  328SOL    HW2 1884   1.600   4.768   3.444
  329SOL     OW 1885   3.066   3.232   1.404
  329SOL    HW1 1886   3.001   3.170   1.359
  329SOL    HW2 1887   3.097   3.191   1.490
  330SOL     OW 1888   3.357   3.617   0.484
  330SOL    HW1 1889   3.401   3.703   0.511
  330SOL    HW2 1890   3.265   3.636   0.451
  331SOL     OW 1891   5.329   5.434   5.085
  331SOL    HW1 1892   5.255   5.411   5.022
  331SOL    HW2 1893   5.380   5.351   5.109
  332SOL     OW 1894   5.448   2.500   2.951
  332SOL    HW1 1895   5.529   2.523   2.896
  332SOL    HW2 1896   5.457   2.542   3.042
  333SOL     OW 1897   3.286   0.502   4.304
  333SOL    HW1 1898   3.311   0.595   4.331
  333SOL    HW2 1899   3.215   0.505   4.233
  334SOL     OW 1900   3.697   3.804   3.258
  334SOL    HW1 1901   3.663   3.895   3.236
  334SOL    HW2 1902   3.655   3.772   3.342
  335SOL     OW 1903   4.061   1.740   1.029
  335SOL    HW1 1904   3.990   1.786   1.082
  335SOL    HW2 1905   4.018   1.670   0.971
  336SOL     OW 1906   3.589   1.740   4.573
  336SOL    HW1 1907   3.634   1.825   4.599
  336SOL    HW2 1908   3.490   1.754   4.567
  337SOL     OW 1909   0.417   0.818   5.411
  337SOL    HW1 1910   0.350   0.893   5.404
  337SOL    HW2 1911   0.508   0.853   5.388
  338SOL     OW 1912   4.369   1.894   1.220
  338SOL    HW1 1913   4.416   1.838   1.288
  338SOL    HW2 1914   4.270   1.880   1.228
  339SOL     OW 1915   3.974   5.024   5.848
  339SOL    HW1 1916   3.969   4.950   5.780
  339SOL    HW2 1917   4.070   5.047   5.863
  340SOL     OW 1918   6.126   2.433   4.152
  340SOL    HW1 1919   6.046   2.375   4.168
  340SOL    HW2 1920   6.206   2.392   4.196
  341SOL     OW 1921   0.141   6.268   3.118
  341SOL    HW1 1922   0.124   6.283   3.216
  341SOL    HW2 1923   0.167   6.355   3.076
  342SOL     OW 1924   4.913   1.984   2.507
  342SOL    HW1 1925   4.827   1.937   2.486
  342SOL    HW2 1926   4.909   2.078   2.472
  343SOL     OW 1927   6.483   6.730   1.632
  343SOL    HW1 1928   6.472   6.799   1.704
  343SOL    HW2 1929   6.414   6.744   1.561
  344SOL     OW 1930   7.018   2.575   1.147
  344SOL    HW1 1931   0.083   2.589   1.104
  344SOL    HW2 1932   0.006   2.563   1.246
  345SOL     OW 1933   6.246   2.449   4.849
  345SOL    HW1 1934   6.245   2.440   4.749
  345SOL    HW2 1935   6.243   2.546   4.873
  346SOL     OW 1936   2.147   6.357   3.677
  346SOL    HW1 1937   2.055   6.345   3.641
  346SOL    HW2 1938   2.144   6.422   3.753
  347SOL     OW 1939   1.911   4.233   0.734
  347SOL    HW1 1940   1.936   4.202   0.826
  347SOL    HW2 1941   1.887   4.331   0.738
  348SOL     OW 1942   3.767   5.341   1.384
  348SOL    HW1 1943   3.708   5.361   1.463
  348SOL    HW2 1944   3.862   5.334   1.416
  349SOL     OW 1945   6.034   4.435   0.815
  349SOL    HW1 1946   6.071   4.459   0.905
  349SOL    HW2 1947   5.951   4.488   0.799
  350SOL     OW 1948   3.218   2.175   6.871
  350SOL    HW1 1949   3.268   2.261   6.875
  350SOL    HW2 1950   3.160   2.166   6.951
  351SOL     OW 1951   3.688   4.551   0.884
  351SOL    HW1 1952   3.753   4.481   0.853
  351SOL    HW2 1953   3.696   4.631   0.825
  352SOL     OW 1954   4.388   0.421   2.551
  352SOL    HW1 1955   4.393   0.479   2.633
  352SOL    HW2 1956   4.297   0.428   2.511
  353SOL     OW 1957   1.549   0.456   0.464
  353SOL    HW1 1958   1.526   0.549   0.436
  353SOL    HW2 1959   1.647   0.440   0.450
  354SOL     OW 1960   0.903   2.354   0.380
  354SOL    HW1 1961   0.875   2.273   0.328
  354SOL    HW2 1962   0.827   2.419   0.384
  355SOL     OW 1963   0.898   2.568   2.968
  355SOL    HW1 1964   0.947   2.542   2.885
  355SOL    HW2 1965   0.944   2.529   3.048
  356SOL     OW 1966   2.661   0.363   5.296
  356SOL    HW1 1967   2.683   0.267   5.282
  356SOL    HW2 1968   2.663   0.411   5.209
  357SOL     OW 1969   5.613   0.145   4.529
  357SOL    HW1 1970   5.540   0.193   4.480
  357SOL    HW2 1971   5.583   0.126   4.623
  358SOL     OW 1972   3.641   6.017   6.251
  358SOL    HW1 1973   3.665   5.988   6.343
  358SOL    HW2 1974   3.679   5.952   6.185
  359SOL     OW 1975   1.046   1.833   2.467
  359SOL    HW1 1976   1.020   1.893   2.543
  359SOL    HW2 1977   1.114   1.880   2.410
  360SOL     OW 1978   1.815   4.431   4.237
  360SOL    HW1 1979   1.882   4.497   4.202
  360SOL    HW2 1980   1.825   4.344   4.187
  361SOL     OW 1981   6.427   1.480   2.336
  361SOL    HW1 1982   6.416   1.465   2.434
  361SOL    HW2 1983   6.524   1.480   2.312
  362SOL     OW 1984   3.809   3.652   1.193
  362SOL    HW1 1985   3.753   3.613   1.120
  362SOL    HW2 1986   3.804   3.594   1.274
  363SOL     OW 1987   5.165   5.550   1.836
  363SOL    HW1 1988   5.171   5.584   1.929
  363SOL    HW2 1989   5.249   5.574   1.786
  364SOL     OW 1990   0.626   6.911   6.920
  364SOL    HW1 1991   0.545   6.923   6.864
  364SOL    HW2 1992   0.652   6.814   6.921
  365SOL     OW 1993   5.508   1.415   3.688
  365SOL    HW1 1994   5.558   1.473   3.623
  365SOL    HW2 1995   5.449   1.351   3.638
  366SOL     OW 1996   5.758   1.514   6.428
  366SOL    HW1 1997   5.764   1.578   6.352
  366SOL    HW2 1998   5.831   1.534   6.494
  367SOL     OW 1999   5.865   1.314   6.738
  367SOL    HW1 2000   5.812   1.254   6.677
  367SOL    HW2 2001   5.805   1.349   6.809
  368SOL     OW 2002   0.759   2.398   5.876
  368SOL    HW1 2003   0.723   2.312   5.912
  368SOL    HW2 2004   0.779   2.387   5.779
  369SOL     OW 2005   6.321   3.944   1.138
  369SOL    HW1 2006   6.347   3.884   1.213
  369SOL    HW2 2007   6.398   3.953   1.074
  370SOL     OW 2008   1.692   2.603   3.654
  370SOL    HW1 2009   1.636   2.646   3.724
  370SOL    HW2 2010   1.635   2.578   3.576
  371SOL     OW 2011   0.531   5.035   6.645
  371SOL    HW1 2012   0.588   5.081   6.577
  371SOL    HW2 2013   0.576   5.038   6.734
  372SOL     OW 2014   3.405   6.288   6.277
  372SOL    HW1 2015   3.331   6.355   6.264
  372SOL    HW2 2016   3.416   6.233   6.194
  373SOL     OW 2017   6.078   4.904   3.391
  373SOL    HW1 2018   6.101   4.876   3.298
  373SOL    HW2 2019   5.989   4.949   3.391
  374SOL     OW 2020   2.707   1.436   2.753
  374SOL    HW1 2021   2.729   1.533   2.760
  374SOL    HW2 2022   2.675   1.415   2.661
  375SOL     OW 2023   0.614   5.647   4.533
  375SOL    HW1 2024   0.585   5.553   4.552
  375SOL    HW2 2025   0.714   5.652   4.540
  376SOL     OW 2026   3.634   0.783   3.692
  376SOL    HW1 2027   3.625   0.687   3.667
  376SOL    HW2 2028   3.714   0.822   3.647
  377SOL     OW 2029   1.818   1.967   6.695
  377SOL    HW1 2030   1.737   1.985   6.750
  377SOL    HW2 2031   1.807   1.881   6.646
  378SOL     OW 2032   4.630   1.438   2.378
  378SOL    HW1 2033   4.648   1.340   2.380
  378SOL    HW2 2034   4.535   1.455   2.351
  379SOL     OW 2035   4.931   1.769   6.082
  379SOL    HW1 2036   4.890   1.764   6.173
  379SOL    HW2 2037   4.881   1.835   6.026
  380SOL     OW 2038   4.342   2.560   6.897
  380SOL    HW1 2039   4.321   2.638   6.837
  380SOL    HW2 2040   4.409   2.589   6.966
  381SOL     OW 2041   2.232   3.936   2.955
  381SOL    HW1 2042   2.168   3.893   3.019
  381SOL    HW2 2043   2.293   3.866   2.917
  382SOL     OW 2044   5.620   0.305   6.317
  382SOL    HW1 2045   5.699   0.248   6.292
  382SOL    HW2 2046   5.536   0.252   6.310
  383SOL     OW 2047   5.344   2.366   0.607
  383SOL    HW1 2048   5.297   2.454   0.620
  383SOL    HW2 2049   5.321   2.305   0.682
  384SOL     OW 2050   6.305   3.802   4.789
  384SOL    HW1 2051   6.329   3.750   4.707
  384SOL    HW2 2052   6.205   3.807   4.797
  385SOL     OW 2053   4.734   3.444   0.428
  385SOL    HW1 2054   4.793   3.512   0.472
  385SOL    HW2 2055   4.790   3.375   0.383
  386SOL     OW 2056   3.907   6.220   4.015
  386SOL    HW1 2057   3.884   6.146   4.079
  386SOL    HW2 2058   3.999   6.205   3.979
  387SOL     OW 2059   2.595   6.178   3.996
  387SOL    HW1 2060   2.538   6.205   3.918
  387SOL    HW2 2061   2.540   6.124   4.060
  388SOL     OW 2062   1.207   4.245   6.621
  388SOL    HW1 2063   1.242   4.334   6.649
  388SOL    HW2 2064   1.111   4.253   6.595
  389SOL     OW 2065   2.922   3.331   2.335
  389SOL    HW1 2066   2.861   3.403   2.305
  389SOL    HW2 2067   2.965   3.288   2.255
  390SOL     OW 2068   2.500   1.505   3.890
  390SOL    HW1 2069   2.442   1.527   3.812
  390SOL    HW2 2070   2.455   1.534   3.975
  391SOL     OW 2071   1.338   2.390   6.451
  391SOL    HW1 2072   1.377   2.374   6.361
  391SOL    HW2 2073   1.368   2.479   6.485
  392SOL     OW 2074   3.067   5.574   3.388
  392SOL    HW1 2075   3.026   5.494   3.433
  392SOL    HW2 2076   2.995   5.639   3.363
  393SOL     OW 2077   6.058   4.058   4.959
  393SOL    HW1 2078   6.005   4.143   4.967
  393SOL    HW2 2079   6.113   4.062   4.876
  394SOL     OW 2080   2.877   0.156   6.907
  394SOL    HW1 2081   2.838   0.142   6.816
  394SOL    HW2 2082   2.943   0.231   6.904
  395SOL     OW 2083   6.237   3.519   0.894
  395SOL    HW1 2084   6.291   3.437   0.877
  395SOL    HW2 2085   6.244   3.545   0.990
  396SOL     OW 2086   3.527   3.005   4.244
  396SOL    HW1 2087   3.557   2.965   4.331
  396SOL    HW2 2088   3.434   3.040   4.255
  397SOL     OW 2089   4.289   1.969   6.369
  397SOL    HW1 2090   4.237   2.013   6.296
  397SOL    HW2 2091   4.360   1.910   6.329
  398SOL     OW 2092   1.143   4.678   2.475
  398SOL    HW1 2093   1.132   4.770   2.514
  398SOL    HW2 2094   1.104   4.676   2.383
  399SOL     OW 2095   4.988   4.977   2.680
  399SOL    HW1 2096   4.923   4.908   2.711
  399SOL    HW2 2097   5.067   4.978   2.740
  400SOL     OW 2098   1.496   5.110   4.657
  400SOL    HW1 2099   1.447   5.136   4.739
  400SOL    HW2 2100   1.447   5.036   4.610
  401SOL     OW 2101   5.547   1.181   6.477
  401SOL    HW1 2102   5.623   1.139   6.526
  401SOL    HW2 2103   5.547   1.280   6.493
  402SOL     OW 2104   6.093   4.998   1.539
  402SOL    HW1 2105   6.104   4.944   1.623
  402SOL    HW2 2106   6.116   5.093   1.557
  403SOL     OW 2107   5.328   3.615   6.978
  403SOL    HW1 2108   5.315   3.710   6.951
  403SOL    HW2 2109   5.239   3.571   6.992
  404SOL     OW 2110   0.626   0.079   4.763
  404SOL    HW1 2111   0.683   0.030   4.698
  404SOL    HW2 2112   0.650   0.176   4.762
  405SOL     OW 2113   1.355   2.110   0.505
  405SOL    HW1 2114   1.346   2.082   0.601
  405SOL    HW2 2115   1.266   2.139   0.470
  406SOL     OW 2116   1.354   3.229   2.919
  406SOL    HW1 2117   1.273   3.202   2.867
  406SOL    HW2 2118   1.424   3.262   2.856
  407SOL     OW 2119   2.408   1.573   3.457
  407SOL    HW1 2120   2.501   1.591   3.486
  407SOL    HW2 2121   2.349   1.648   3.485
  408SOL     OW 2122   1.794   0.373   3.164
  408SOL    HW1 2123   1.705   0.369   3.208
  408SOL    HW2 2124   1.860   0.321   3.217
  409SOL     OW 2125   5.908   3.368   4.049
  409SOL    HW1 2126   5.952   3.394   4.135
  409SOL    HW2 2127   5.811   3.392   4.053
  410SOL     OW 2128   3.228   0.925   6.183
  410SOL    HW1 2129   3.326   0.943   6.193
  410SOL    HW2 2130   3.177   1.007   6.209
  411SOL     OW 2131   6.814   3.929   5.077
  411SOL    HW1 2132   6.772   3.839   5.085
  411SOL    HW2 2133   6.841   3.961   5.168
  412SOL     OW 2134   3.168   0.228   2.371
  412SOL    HW1 2135   3.263   0.213   2.342
  412SOL    HW2 2136   3.110   0.155   2.334
  413SOL     OW 2137   2.552   0.578   1.548
  413SOL    HW1 2138   2.589   0.551   1.459
  413SOL    HW2 2139   2.453   0.571   1.547
  414SOL     OW 2140   4.510   4.100   0.361
  414SOL    HW1 2141   4.424   4.050   0.372
  414SOL    HW2 2142   4.586   4.036   0.352
  415SOL     OW 2143   3.132   6.806   1.839
  415SOL    HW1 2144   3.051   6.848   1.797
  415SOL    HW2 2145   3.176   6.747   1.772
  416SOL     OW 2146   3.622   5.820   5.375
  416SOL    HW1 2147   3.683   5.894   5.404
  416SOL    HW2 2148   3.611   5.823   5.276
  417SOL     OW 2149   4.118   5.687   0.892
  417SOL    HW1 2150   4.162   5.758   0.948
  417SOL    HW2 2151   4.145   5.597   0.926
  418SOL     OW 2152   5.533   4.535   0.886
  418SOL    HW1 2153   5.619   4.574   0.852
  418SOL    HW2 2154   5.470   4.610   0.908
  419SOL     OW 2155   6.164   6.308   1.051
  419SOL    HW1 2156   6.214   6.296   0.965
  419SOL    HW2 2157   6.068   6.326   1.031
  420SOL     OW 2158   4.465   4.054   6.990
  420SOL    HW1 2159   4.552   4.006   7.004
  420SOL    HW2 2160   4.389   3.991   7.008
  421SOL     OW 2161   1.435   6.038   6.665
  421SOL    HW1 2162   1.340   6.058   6.686
  421SOL    HW2 2163   1.459   5.948   6.703
  422SOL     OW 2164   6.072   3.108   6.672
  422SOL    HW1 2165   6.036   3.096   6.579
  422SOL    HW2 2166   6.126   3.028   6.697
  423SOL     OW 2167   0.945   2.831   6.148
  423SOL    HW1 2168   0.933   2.738   6.115
  423SOL    HW2 2169   0.962   2.830   6.246
  424SOL     OW 2170   2.194   4.144   0.077
  424SOL    HW1 2171   2.228   4.076   0.012
  424SOL    HW2 2172   2.270   4.177   0.133
  425SOL     OW 2173   3.061   0.900   0.841
  425SOL    HW1 2174   3.154   0.875   0.814
  425SOL    HW2 2175   2.996   0.860   0.776
  426SOL     OW 2176   5.484   4.158   5.674
  426SOL    HW1 2177   5.393   4.120   5.688
  426SOL    HW2 2178   5.538   4.146   5.757
  427SOL     OW 2179   5.182   3.652   0.695
  427SOL    HW1 2180   5.109   3.647   0.763
  427SOL    HW2 2181   5.258   3.706   0.732
  428SOL     OW 2182   3.667   1.283   4.882
  428SOL    HW1 2183   3.628   1.213   4.942
  428SOL    HW2 2184   3.669   1.250   4.788
  429SOL     OW 2185   2.119   5.408   6.737
  429SOL    HW1 2186   2.090   5.313   6.724
  429SOL    HW2 2187   2.218   5.413   6.742
  430SOL     OW 2188   1.394   6.480   5.108
  430SOL    HW1 2189   1.424   6.575   5.123
  430SOL    HW2 2190   1.372   6.438   5.196
  431SOL     OW 2191   3.488   1.730   0.279
  431SOL    HW1 2192   3.430   1.694   0.352
  431SOL    HW2 2193   3.575   1.681   0.278
  432SOL     OW 2194   0.364   2.121   0.954
  432SOL    HW1 2195   0.438   2.188   0.958
  432SOL    HW2 2196   0.401   2.033   0.923
  433SOL     OW 2197   2.858   6.177   4.754
  433SOL    HW1 2198   2.845   6.270   4.788
  433SOL    HW2 2199   2.875   6.179   4.656
  434SOL     OW 2200   6.986   3.805   1.142
  434SOL    HW1 2201   7.016   3.873   1.075
  434SOL    HW2 2202   0.034   3.736   1.154
  435SOL     OW 2203   3.598   4.247   0.551
  435SOL    HW1 2204   3.575   4.205   0.463
  435SOL    HW2 2205   3.681   4.301   0.542
  436SOL     OW 2206   2.549   1.017   6.780
  436SOL    HW1 2207   2.554   0.958   6.699
  436SOL    HW2 2208   2.584   1.108   6.757
  437SOL     OW 2209   0.011   6.950   6.718
  437SOL    HW1 2210   0.013   7.007   6.636
  437SOL    HW2 2211   6.990   7.000   6.793
  438SOL     OW 2212   1.630   2.858   1.927
  438SOL    HW1 2213   1.677   2.939   1.892
  438SOL    HW2 2214   1.535   2.859   1.898
  439SOL     OW 2215   6.116   4.932   3.081
  439SOL    HW1 2216   6.019   4.953   3.076
  439SOL    HW2 2217   6.135   4.849   3.028
  440SOL     OW 2218   1.192   3.129   3.918
  440SOL    HW1 2219   1.290   3.115   3.932
  440SOL    HW2 2220   1.168   3.107   3.823
  441SOL     OW 2221   0.638   1.056   3.736
  441SOL    HW1 2222   0.539   1.070   3.746
  441SOL    HW2 2223   0.656   0.968   3.692
  442SOL     OW 2224   6.834   4.226   0.353
  442SOL    HW1 2225   6.838   4.321   0.383
  442SOL    HW2 2226   6.913   4.176   0.390
  443SOL     OW 2227   0.621   4.100   5.894
  443SOL    HW1 2228   0.591   4.189   5.857
  443SOL    HW2 2229   0.570   4.027   5.848
  444SOL     OW 2230   4.496   3.492   6.191
  444SOL    HW1 2231   4.481   3.427   6.117
  444SOL    HW2 2232   4.593   3.496   6.213
  445SOL     OW 2233   1.736   4.618   2.964
  445SOL    HW1 2234   1.821   4.587   3.006
  445SOL    HW2 2235   1.757   4.666   2.879
  446SOL     OW 2236   4.828   4.813   3.962
  446SOL    HW1 2237   4.919   4.786   3.993
  446SOL    HW2 2238   4.761   4.794   4.034
  447SOL     OW 2239   6.770   5.590   0.563
  447SOL    HW1 2240   6.752   5.501   0.605
  447SOL    HW2 2241   6.717   5.660   0.611
  448SOL     OW 2242   4.810   0.562   5.376
  448SOL    HW1 2243   4.864   0.479   5.387
  448SOL    HW2 2244   4.822   0.597   5.283
  449SOL     OW 2245   6.167   0.457   4.769
  449SOL    HW1 2246   6.122   0.368   4.767
  449SOL    HW2 2247   6.109   0.525   4.725
  450SOL     OW 2248   6.613   6.489   3.911
  450SOL    HW1 2249   6.585   6.397   3.884
  450SOL    HW2 2250   6.703   6.509   3.874
  451SOL     OW 2251   0.522   2.426   3.393
  451SOL    HW1 2252   0.487   2.355   3.333
  451SOL    HW2 2253   0.447   2.466   3.445
  452SOL     OW 2254   0.014   4.907   6.661
  452SOL    HW1 2255   0.037   4.846   6.585
  452SOL    HW2 2256   0.094   4.961   6.686
  453SOL     OW 2257   3.049   0.773   5.771
  453SOL    HW1 2258   2.956   0.793   5.740
  453SOL    HW2 2259   3.103   0.738   5.695
  454SOL     OW 2260   0.999   6.277   7.012
  454SOL    HW1 2261   1.046   6.218   0.055
  454SOL    HW2 2262   1.024   6.372   0.006
  455SOL     OW 2263   5.413   0.963   5.579
  455SOL    HW1 2264   5.435   0.903   5.656
  455SOL    HW2 2265   5.381   0.909   5.502
  456SOL     OW 2266   4.511   5.644   6.430
  456SOL    HW1 2267   4.450   5.721   6.413
  456SOL    HW2 2268   4.541   5.605   6.343
  457SOL     OW 2269   1.870   5.129   2.944
  457SOL    HW1 2270   1.907   5.180   2.867
  457SOL    HW2 2271   1.770   5.124   2.936
  458SOL     OW 2272   6.698   5.791   6.628
  458SOL    HW1 2273   6.751   5.788   6.543
  458SOL    HW2 2274   6.601   5.779   6.607
  459SOL     OW 2275   1.918   0.711   2.884
  459SOL    HW1 2276   1.924   0.717   2.785
  459SOL    HW2 2277   1.837   0.658   2.910
  460SOL     OW 2278   6.345   2.077   3.411
  460SOL    HW1 2279   6.251   2.089   3.443
  460SOL    HW2 2280   6.344   2.021   3.327
  461SOL     OW 2281   4.726   6.535   5.332
  461SOL    HW1 2282   4.815   6.540   5.379
  461SOL    HW2 2283   4.668   6.610   5.363
  462SOL     OW 2284   2.787   3.404   6.374
  462SOL    HW1 2285   2.854   3.474   6.349
  462SOL    HW2 2286   2.763   3.414   6.471
  463SOL     OW 2287   6.190   5.269   1.940
  463SOL    HW1 2288   6.140   5.355   1.929
  463SOL    HW2 2289   6.199   5.249   2.037
  464SOL     OW 2290   2.204   1.165   5.494
  464SOL    HW1 2291   2.118   1.113   5.495
  464SOL    HW2 2292   2.281   1.102   5.482
  465SOL     OW 2293   6.389   2.666   4.344
  465SOL    HW1 2294   6.340   2.638   4.261
  465SOL    HW2 2295   6.325   2.669   4.421
  466SOL     OW 2296   1.586   7.009   3.551
  466SOL    HW1 2297   1.492   6.979   3.538
  466SOL    HW2 2298   1.648   6.931   3.545
  467SOL     OW 2299   1.846   0.617   5.177
  467SOL    HW1 2300   1.856   0.569   5.265
  467SOL    HW2 2301   1.892   0.565   5.106
  468SOL     OW 2302   3.175   4.494   0.901
  468SOL    HW1 2303   3.105   4.442   0.951
  468SOL    HW2 2304   3.150   4.590   0.899
  469SOL     OW 2305   2.061   5.279   0.410
  469SOL    HW1 2306   2.049   5.365   0.360
  469SOL    HW2 2307   2.072   5.298   0.507
  470SOL     OW 2308   3.817   0.898   2.619
  470SOL    HW1 2309   3.784   0.949   2.539
  470SOL    HW2 2310   3.798   0.801   2.607
  471SOL     OW 2311   2.689   2.482   5.091
  471SOL    HW1 2312   2.705   2.522   5.001
  471SOL    HW2 2313   2.611   2.419   5.085
  472SOL     OW 2314   3.483   4.376   5.757
  472SOL    HW1 2315   3.450   4.389   5.664
  472SOL    HW2 2316   3.492   4.278   5.777
  473SOL     OW 2317   1.015   4.054   2.600
  473SOL    HW1 2318   0.974   4.037   2.510
  473SOL    HW2 2319   0.943   4.059   2.669
  474SOL     OW 2320   4.037   4.957   4.521
  474SOL    HW1 2321   4.007   4.920   4.433
  474SOL    HW2 2322   3.958   4.964   4.582
  475SOL     OW 2323   0.496   6.805   6.421
  475SOL    HW1 2324   0.574   6.864   6.444
  475SOL    HW2 2325   0.412   6.846   6.456
  476SOL     OW 2326   6.994   4.640   2.609
  476SOL    HW1 2327   6.988   4.540   2.617
  476SOL    HW2 2328   0.063   4.666   2.584
  477SOL     OW 2329   1.643   5.337   4.129
  477SOL    HW1 2330   1.689   5.295   4.207
  477SOL    HW2 2331   1.710   5.385   4.073
  478SOL     OW 2332   2.210   5.141   3.652
  478SOL    HW1 2333   2.204   5.127   3.751
  478SOL    HW2 2334   2.203   5.052   3.606
  479SOL     OW 2335   3.622   2.001   0.616
  479SOL    HW1 2336   3.628   2.049   0.529
  479SOL    HW2 2337   3.677   2.050   0.684
  480SOL     OW 2338   0.638   0.050   2.742
  480SOL    HW1 2339   0.589   0.090   2.665
  480SOL    HW2 2340   0.670   0.123   2.802
  481SOL     OW 2341   4.251   6.893   0.940
  481SOL    HW1 2342   4.252   6.990   0.913
  481SOL    HW2 2343   4.330   6.874   0.998
  482SOL     OW 2344   5.533   4.304   1.825
  482SOL    HW1 2345   5.585   4.263   1.900
  482SOL    HW2 2346   5.525   4.402   1.841
  483SOL     OW 2347   5.694   1.892   1.549
  483SOL    HW1 2348   5.601   1.885   1.511
  483SOL    HW2 2349   5.759   1.852   1.485
  484SOL     OW 2350   6.390   2.064   5.146
  484SOL    HW1 2351   6.378   2.114   5.060
  484SOL    HW2 2352   6.397   1.966   5.127
  485SOL     OW 2353   3.748   5.060   2.427
  485SOL    HW1 2354   3.717   5.013   2.345
  485SOL    HW2 2355   3.756   5.158   2.409
  486SOL     OW 2356   0.771   0.717   0.635
  486SOL    HW1 2357   0.825   0.757   0.709
  486SOL    HW2 2358   0.721   0.790   0.588
  487SOL     OW 2359   0.404   2.287   6.892
  487SOL    HW1 2360   0.450   2.202   6.868
  487SOL    HW2 2361   0.331   2.269   6.959
  488SOL     OW 2362   0.218   2.245   2.428
  488SOL    HW1 2363   0.253   2.339   2.425
  488SOL    HW2 2364   0.130   2.241   2.381
  489SOL     OW 2365   3.310   5.701   6.653
  489SOL    HW1 2366   3.214   5.679   6.634
  489SOL    HW2 2367   3.316   5.762   6.732
  490SOL     OW 2368   5.663   6.183   4.730
  490SOL    HW1 2369   5.742   6.237   4.700
  490SOL    HW2 2370   5.626   6.222   4.814
  491SOL     OW 2371   0.193   3.014   2.886
  491SOL    HW1 2372   0.146   3.092   2.928
  491SOL    HW2 2373   0.191   3.023   2.786
  492SOL     OW 2374   1.962   0.747   5.635
  492SOL    HW1 2375   1.992   0.709   5.548
  492SOL    HW2 2376   1.884   0.693   5.669
  493SOL     OW 2377   6.509   4.325   4.770
  493SOL    HW1 2378   6.473   4.302   4.860
  493SOL    HW2 2379   6.543   4.242   4.725
  494SOL     OW 2380   6.768   0.616   0.826
  494SOL    HW1 2381   6.782   0.627   0.728
  494SOL    HW2 2382   6.843   0.660   0.876
  495SOL     OW 2383   4.616   4.586   1.510
  495SOL    HW1 2384   4.692   4.532   1.474
  495SOL    HW2 2385   4.582   4.543   1.594
  496SOL     OW 2386   5.688   3.123   3.830
  496SOL    HW1 2387   5.668   3.220   3.841
  496SOL    HW2 2388   5.638   3.071   3.899
  497SOL     OW 2389   4.181   0.639   4.437
  497SOL    HW1 2390   4.104   0.580   4.457
  497SOL    HW2 2391   4.180   0.718   4.499
  498SOL     OW 2392   1.003   3.018   2.523
  498SOL    HW1 2393   0.946   2.944   2.555
  498SOL    HW2 2394   1.093   3.014   2.568
  499SOL     OW 2395   3.337   1.374   4.980
  499SOL    HW1 2396   3.247   1.331   4.970
  499SOL    HW2 2397   3.375   1.395   4.890
  500SOL     OW 2398   0.692   3.717   2.689
  500SOL    HW1 2399   0.688   3.630   2.738
  500SOL    HW2 2400   0.622   3.779   2.725
  501SOL     OW 2401   0.814   3.527   6.433
  501SOL    HW1 2402   0.839   3.576   6.349
  501SOL    HW2 2403   0.797   3.593   6.506
  502SOL     OW 2404   3.333   5.112   6.539
  502SOL    HW1 2405   3.381   5.031   6.570
  502SOL    HW2 2406   3.389   5.162   6.474
  503SOL     OW 2407   5.397   5.229   5.368
  503SOL    HW1 2408   5.389   5.134   5.397
  503SOL    HW2 2409   5.451   5.234   5.284
  504SOL     OW 2410   1.963   6.094   4.466
  504SOL    HW1 2411   1.898   6.026   4.501
  504SOL    HW2 2412   2.055   6.069   4.494
  505SOL     OW 2413   4.186   0.065   5.869
  505SOL    HW1 2414   4.274   0.041   5.910
  505SOL    HW2 2415   4.133   0.120   5.933
  506SOL     OW 2416   2.120   3.933   6.454
  506SOL    HW1 2417   2.167   3.921   6.366
  506SOL    HW2 2418   2.089   4.028   6.462
  507SOL     OW 2419   3.495   1.283   3.862
  507SOL    HW1 2420   3.530   1.327   3.945
  507SOL    HW2 2421   3.564   1.288   3.790
  508SOL     OW 2422   6.642   3.691   3.841
  508SOL    HW1 2423   6.608   3.712   3.932
  508SOL    HW2 2424   6.685   3.600   3.842
  509SOL     OW 2425   4.834   1.919   1.062
  509SOL    HW1 2426   4.827   1.861   1.144
  509SOL    HW2 2427   4.807   1.865   0.982
  510SOL     OW 2428   0.169   3.953   4.307
  510SOL    HW1 2429   0.171   4.007   4.224
  510SOL    HW2 2430   0.174   4.013   4.387
  511SOL     OW 2431   0.217   6.937   0.573
  511SOL    HW1 2432   0.150   6.936   0.647
  511SOL    HW2 2433   0.309   6.947   0.611
  512SOL     OW 2434   0.316   3.666   6.514
  512SOL    HW1 2435   0.379   3.725   6.565
  512SOL    HW2 2436   0.359   3.576   6.501
  513SOL     OW 2437   6.343   5.834   4.447
  513SOL    HW1 2438   6.357   5.737   4.425
  513SOL    HW2 2439   6.428   5.873   4.482
  514SOL     OW 2440   5.618   1.753   3.908
  514SOL    HW1 2441   5.576   1.742   3.998
  514SOL    HW2 2442   5.548   1.783   3.843
  515SOL     OW 2443   2.276   6.004   6.862
  515SOL    HW1 2444   2.258   6.027   6.958
  515SOL    HW2 2445   2.231   6.072   6.803
  516SOL     OW 2446   1.874   4.925   1.585
  516SOL    HW1 2447   1.949   4.883   1.637
  516SOL    HW2 2448   1.911   4.983   1.513
  517SOL     OW 2449   4.725   0.220   0.986
  517SOL    HW1 2450   4.651   0.277   0.949
  517SOL    HW2 2451   4.689   0.128   1.003
  518SOL     OW 2452   2.289   2.574   0.912
  518SOL    HW1 2453   2.196   2.606   0.929
  518SOL    HW2 2454   2.349   2.652   0.893
  519SOL     OW 2455   0.824   6.472   0.182
  519SOL    HW1 2456   0.914   6.487   0.140
  519SOL    HW2 2457   0.761   6.436   0.113
  520SOL     OW 2458   5.414   4.733   5.388
  520SOL    HW1 2459   5.335   4.723   5.328
  520SOL    HW2 2460   5.406   4.669   5.465
  521SOL     OW 2461   6.615   1.281   0.832
  521SOL    HW1 2462   6.713   1.264   0.825
  521SOL    HW2 2463   6.591   1.307   0.926
  522SOL     OW 2464   4.014   3.670   4.327
  522SOL    HW1 2465   3.930   3.713   4.295
  522SOL    HW2 2466   4.043   3.601   4.260
  523SOL     OW 2467   0.309   6.943   5.094
  523SOL    HW1 2468   0.252   0.001   5.106
  523SOL    HW2 2469   0.344   6.914   5.183
  524SOL     OW 2470   3.157   0.738   5.527
  524SOL    HW1 2471   3.105   0.798   5.466
  524SOL    HW2 2472   3.218   0.680   5.473
  525SOL     OW 2473   2.595   3.646   6.993
  525SOL    HW1 2474   2.588   3.547   6.987
  525SOL    HW2 2475   2.691   3.672   7.010
  526SOL     OW 2476   3.213   5.749   4.549
  526SOL    HW1 2477   3.277   5.727   4.475
  526SOL    HW2 2478   3.132   5.692   4.541
  527SOL     OW 2479   0.670   1.778   6.461
  527SOL    HW1 2480   0.687   1.768   6.559
  527SOL    HW2 2481   0.756   1.792   6.413
  528SOL     OW 2482   2.236   0.054   5.055
  528SOL    HW1 2483   2.213   0.018   4.964
  528SOL    HW2 2484   2.335   0.059   5.065
  529SOL     OW 2485   0.099   4.854   3.693
  529SOL    HW1 2486   0.124   4.780   3.755
  529SOL    HW2 2487   0.028   4.911   3.735
  530SOL     OW 2488   2.290   3.051   5.381
  530SOL    HW1 2489   2.331   3.015   5.465
  530SOL    HW2 2490   2.360   3.057   5.310
  531SOL     OW 2491   0.379   0.389   1.073
  531SOL    HW1 2492   0.326   0.405   0.989
  531SOL    HW2 2493   0.382   0.290   1.091
  532SOL     OW 2494   1.876   0.828   5.891
  532SOL    HW1 2495   1.821   0.911   5.897
  532SOL    HW2 2496   1.936   0.833   5.812
  533SOL     OW 2497   5.242   0.118   4.465
  533SOL    HW1 2498   5.294   0.051   4.517
  533SOL    HW2 2499   5.279   0.209   4.481
  534SOL     OW 2500   3.774   5.648   2.304
  534SOL    HW1 2501   3.830   5.627   2.224
  534SOL    HW2 2502   3.824   5.712   2.363
  535SOL     OW 2503   6.937   3.506   3.485
  535SOL    HW1 2504   0.004   3.537   3.515
  535SOL    HW2 2505   6.925   3.410   3.510
  536SOL     OW 2506   1.164   5.554   1.097
  536SOL    HW1 2507   1.097   5.493   1.139
  536SOL    HW2 2508   1.207   5.610   1.168
  537SOL     OW 2509   2.115   0.415   2.637
  537SOL    HW1 2510   2.201   0.378   2.673
  537SOL    HW2 2511   2.044   0.345   2.643
  538SOL     OW 2512   0.904   5.445   3.356
  538SOL    HW1 2513   0.920   5.510   3.282
  538SOL    HW2 2514   0.933   5.354   3.328
  539SOL     OW 2515   1.728   4.649   2.024
  539SOL    HW1 2516   1.765   4.591   1.950
  539SOL    HW2 2517   1.669   4.594   2.082
  540SOL     OW 2518   0.892   2.048   2.081
  540SOL    HW1 2519   0.876   2.022   2.176
  540SOL    HW2 2520   0.962   1.988   2.041
  541SOL     OW 2521   2.926   5.713   5.460
  541SOL    HW1 2522   2.845   5.713   5.401
  541SOL    HW2 2523   2.917   5.786   5.528
  542SOL     OW 2524   5.888   5.494   6.688
  542SOL    HW1 2525   5.848   5.510   6.598
  542SOL    HW2 2526   5.841   5.417   6.731
  543SOL     OW 2527   0.334   5.764   6.980
  543SOL    HW1 2528   0.332   5.843   6.919
  543SOL    HW2 2529   0.337   5.795   0.051
  544SOL     OW 2530   1.169   5.367   0.643
  544SOL    HW1 2531   1.148   5.460   0.612
  544SOL    HW2 2532   1.112   5.302   0.594
  545SOL     OW 2533   4.014   1.854   3.432
  545SOL    HW1 2534   4.107   1.824   3.450
  545SOL    HW2 2535   3.963   1.780   3.388
  546SOL     OW 2536   0.879   3.918   0.218
  546SOL    HW1 2537   0.952   3.969   0.262
  546SOL    HW2 2538   0.907   3.891   0.126
  547SOL     OW 2539   2.791   3.107   0.047
  547SOL    HW1 2540   2.837   3.089   6.983
  547SOL    HW2 2541   2.777   3.205   0.056
  548SOL     OW 2542   3.617   3.107   3.766
  548SOL    HW1 2543   3.585   3.040   3.834
  548SOL    HW2 2544   3.703   3.075   3.726
  549SOL     OW 2545   6.499   3.162   1.366
  549SOL    HW1 2546   6.445   3.244   1.352
  549SOL    HW2 2547   6.442   3.081   1.353
  550SOL     OW 2548   0.320   4.012   2.088
  550SOL    HW1 2549   0.286   3.918   2.090
  550SOL    HW2 2550   0.359   4.032   1.998
  551SOL     OW 2551   0.014   2.195   0.071
  551SOL    HW1 2552   6.996   2.110   0.037
  551SOL    HW2 2553   6.994   2.222   0.156
  552SOL     OW 2554   4.400   6.023   0.789
  552SOL    HW1 2555   4.322   5.961   0.777
  552SOL    HW2 2556   4.368   6.118   0.785
  553SOL     OW 2557   1.699   2.179   1.742
  553SOL    HW1 2558   1.689   2.142   1.835
  553SOL    HW2 2559   1.795   2.196   1.723
  554SOL     OW 2560   5.425   5.996   5.030
  554SOL    HW1 2561   5.446   6.090   5.004
  554SOL    HW2 2562   5.462   5.933   4.961
  555SOL     OW 2563   1.451   4.290   4.672
  555SOL    HW1 2564   1.513   4.215   4.696
  555SOL    HW2 2565   1.451   4.358   4.746
  556SOL     OW 2566   5.382   3.361   3.301
  556SOL    HW1 2567   5.364   3.445   3.352
  556SOL    HW2 2568   5.420   3.384   3.211
  557SOL     OW 2569   0.506   6.417   6.134
  557SOL    HW1 2570   0.576   6.398   6.066
  557SOL    HW2 2571   0.529   6.372   6.220
  558SOL     OW 2572   4.104   3.939   5.277
  558SOL    HW1 2573   4.187   3.909   5.324
  558SOL    HW2 2574   4.097   4.039   5.280
  559SOL     OW 2575   6.418   5.793   6.543
  559SOL    HW1 2576   6.348   5.856   6.578
  559SOL    HW2 2577   6.389   5.758   6.454
  560SOL     OW 2578   4.264   6.469   6.793
  560SOL    HW1 2579   4.228   6.552   6.750
  560SOL    HW2 2580   4.216   6.454   6.879
  561SOL     OW 2581   5.471   6.576   1.020
  561SOL    HW1 2582   5.416   6.570   0.937
  561SOL    HW2 2583   5.421   6.627   1.090
  562SOL     OW 2584   6.250   1.397   5.941
  562SOL    HW1 2585   6.313   1.372   6.015
  562SOL    HW2 2586   6.156   1.400   5.976
  563SOL     OW 2587   3.260   5.977   4.122
  563SOL    HW1 2588   3.162   5.972   4.143
  563SOL    HW2 2589   3.305   5.893   4.151
  564SOL     OW 2590   0.973   1.508   6.493
  564SOL    HW1 2591   0.941   1.594   6.453
  564SOL    HW2 2592   0.993   1.443   6.419
  565SOL     OW 2593   4.878   4.102   4.971
  565SOL    HW1 2594   4.794   4.152   4.948
  565SOL    HW2 2595   4.957   4.162   4.960
  566SOL     OW 2596   5.166   5.016   3.190
  566SOL    HW1 2597   5.109   4.980   3.263
  566SOL    HW2 2598   5.123   5.096   3.149
  567SOL     OW 2599   3.949   3.100   4.435
  567SOL    HW1 2600   4.005   3.182   4.442
  567SOL    HW2 2601   4.007   3.019   4.441
  568SOL     OW 2602   2.116   1.421   6.803
  568SOL    HW1 2603   2.213   1.403   6.789
  568SOL    HW2 2604   2.102   1.470   6.889
  569SOL     OW 2605   2.709   3.337   0.216
  569SOL    HW1 2606   2.697   3.394   0.297
  569SOL    HW2 2607   2.620   3.312   0.179
  570SOL     OW 2608   6.827   5.867   1.023
  570SOL    HW1 2609   6.833   5.966   1.038
  570SOL    HW2 2610   6.784   5.823   1.101
  571SOL     OW 2611   4.165   5.442   3.033
  571SOL    HW1 2612   4.124   5.533   3.035
  571SOL    HW2 2613   4.140   5.395   2.949
  572SOL     OW 2614   1.774   3.851   5.161
  572SOL    HW1 2615   1.697   3.791   5.186
  572SOL    HW2 2616   1.849   3.795   5.124
  573SOL     OW 2617   3.887   2.083   6.019
  573SOL    HW1 2618   3.790   2.101   6.002
  573SOL    HW2 2619   3.937   2.170   6.016
  574SOL     OW 2620   2.650   1.771   4.182
  574SOL    HW1 2621   2.745   1.789   4.209
  574SOL    HW2 2622   2.594   1.757   4.264
  575SOL     OW 2623   5.488   2.618   6.670
  575SOL    HW1 2624   5.543   2.572   6.738
  575SOL    HW2 2625   5.395   2.580   6.670
  576SOL     OW 2626   0.350   2.024   2.467
  576SOL    HW1 2627   0.281   2.096   2.468
  576SOL    HW2 2628   0.418   2.042   2.538
  577SOL     OW 2629   3.393   2.037   3.565
  577SOL    HW1 2630   3.437   1.965   3.511
  577SOL    HW2 2631   3.300   2.052   3.531
  578SOL     OW 2632   0.356   3.556   4.160
  578SOL    HW1 2633   0.438   3.588   4.114
  578SOL    HW2 2634   0.298   3.634   4.184
  579SOL     OW 2635   4.282   3.341   0.311
  579SOL    HW1 2636   4.349   3.303   0.247
  579SOL    HW2 2637   4.307   3.315   0.404
  580SOL     OW 2638   0.341   5.881   0.219
  580SOL    HW1 2639   0.396   5.956   0.256
  580SOL    HW2 2640   0.249   5.884   0.257
  581SOL     OW 2641   3.743   3.501   2.727
  581SOL    HW1 2642   3.705   3.408   2.731
  581SOL    HW2 2643   3.841   3.498   2.751
  582SOL     OW 2644   6.027   3.987   2.180
  582SOL    HW1 2645   5.951   4.000   2.116
  582SOL    HW2 2646   5.996   4.012   2.272
  583SOL     OW 2647   1.904   5.118   0.054
  583SOL    HW1 2648   1.826   5.077   0.007
  583SOL    HW2 2649   1.915   5.213   0.025
  584SOL     OW 2650   0.245   5.263   4.378
  584SOL    HW1 2651   0.289   5.326   4.314
  584SOL    HW2 2652   0.223   5.311   4.463
  585SOL     OW 2653   0.068   1.318   6.587
  585SOL    HW1 2654   7.012   1.340   6.530
  585SOL    HW2 2655   0.053   1.352   6.680
  586SOL     OW 2656   2.731   6.264   0.596
  586SOL    HW1 2657   2.747   6.269   0.497
  586SOL    HW2 2658   2.815   6.239   0.642
  587SOL     OW 2659   1.146   3.288   5.345
  587SOL    HW1 2660   1.090   3.339   5.279
  587SOL    HW2 2661   1.183   3.351   5.413
  588SOL     OW 2662   3.063   6.922   1.270
  588SOL    HW1 2663   3.074   6.822   1.269
  588SOL    HW2 2664   2.970   6.945   1.241
  589SOL     OW 2665   4.520   5.279   2.569
  589SOL    HW1 2666   4.609   5.246   2.601
  589SOL    HW2 2667   4.477   5.209   2.513
  590SOL     OW 2668   7.011   2.304   2.012
  590SOL    HW1 2669   0.012   2.208   1.997
  590SOL    HW2 2670   6.944   2.334   1.944
  591SOL     OW 2671   3.581   0.226   2.953
  591SOL    HW1 2672   3.620   0.169   3.025
  591SOL    HW2 2673   3.558   0.169   2.874
  592SOL     OW 2674   5.371   0.876   6.923
  592SOL    HW1 2675   5.292   0.914   6.876
  592SOL    HW2 2676   5.439   0.948   6.939
  593SOL     OW 2677   6.001   1.682   4.001
  593SOL    HW1 2678   6.011   1.645   3.909
  593SOL    HW2 2679   5.947   1.766   3.998
  594SOL     OW 2680   4.947   2.654   1.438
  594SOL    HW1 2681   4.885   2.729   1.461
  594SOL    HW2 2682   4.956   2.649   1.339
  595SOL     OW 2683   3.538   6.465   4.019
  595SOL    HW1 2684   3.561   6.465   3.922
  595SOL    HW2 2685   3.515   6.558   4.048
  596SOL     OW 2686   1.136   4.435   2.614
  596SOL    HW1 2687   1.050   4.387   2.597
  596SOL    HW2 2688   1.143   4.515   2.554
  597SOL     OW 2689   3.848   1.882   5.602
  597SOL    HW1 2690   3.810   1.896   5.693
  597SOL    HW2 2691   3.843   1.968   5.550
  598SOL     OW 2692   3.314   4.093   0.893
  598SOL    HW1 2693   3.259   4.124   0.815
  598SOL    HW2 2694   3.254   4.058   0.964
  599SOL     OW 2695   6.715   6.299   2.671
  599SOL    HW1 2696   6.707   6.202   2.694
  599SOL    HW2 2697   6.811   6.326   2.670
  600SOL     OW 2698   2.307   0.808   0.758
  600SOL    HW1 2699   2.218   0.852   0.762
  600SOL    HW2 2700   2.303   0.730   0.696
  601SOL     OW 2701   2.506   5.184   3.126
  601SOL    HW1 2702   2.531   5.244   3.051
  601SOL    HW2 2703   2.476   5.239   3.204
  602SOL     OW 2704   1.011   0.499   1.585
  602SOL    HW1 2705   0.998   0.506   1.486
  602SOL    HW2 2706   1.099   0.539   1.609
  603SOL     OW 2707   3.870   2.088   3.447
  603SOL    HW1 2708   3.817   2.106   3.530
  603SOL    HW2 2709   3.905   1.994   3.451
  604SOL     OW 2710   0.606   4.089   5.477
  604SOL    HW1 2711   0.676   4.161   5.482
  604SOL    HW2 2712   0.516   4.129   5.492
  605SOL     OW 2713   5.938   0.556   4.608
  605SOL    HW1 2714   5.943   0.482   4.540
  605SOL    HW2 2715   5.842   0.574   4.629
  606SOL     OW 2716   3.734   0.105   3.162
  606SOL    HW1 2717   3.830   0.099   3.134
  606SOL    HW2 2718   3.725   0.175   3.233
  607SOL     OW 2719   4.918   0.976   3.833
  607SOL    HW1 2720   4.970   1.021   3.761
  607SOL    HW2 2721   4.927   0.877   3.823
  608SOL     OW 2722   4.876   1.466   1.207
  608SOL    HW1 2723   4.876   1.449   1.108
  608SOL    HW2 2724   4.813   1.403   1.252
  609SOL     OW 2725   2.984   3.704   4.383
  609SOL    HW1 2726   2.931   3.620   4.372
  609SOL    HW2 2727   2.957   3.750   4.467
  610SOL     OW 2728   5.500   2.175   5.004
  610SOL    HW1 2729   5.539   2.139   4.919
  610SOL    HW2 2730   5.430   2.112   5.039
  611SOL     OW 2731   6.975   0.111   0.907
  611SOL    HW1 2732   6.952   0.204   0.876
  611SOL    HW2 2733   6.957   0.103   1.004
  612SOL     OW 2734   3.205   5.773   5.391
  612SOL    HW1 2735   3.220   5.726   5.304
  612SOL    HW2 2736   3.112   5.754   5.424
  613SOL     OW 2737   3.626   2.422   6.630
  613SOL    HW1 2738   3.546   2.365   6.649
  613SOL    HW2 2739   3.682   2.429   6.713
  614SOL     OW 2740   5.072   4.327   0.920
  614SOL    HW1 2741   5.091   4.315   0.823
  614SOL    HW2 2742   4.975   4.313   0.937
  615SOL     OW 2743   5.914   6.293   1.013
  615SOL    HW1 2744   5.845   6.365   1.023
  615SOL    HW2 2745   5.921   6.267   0.917
  616SOL     OW 2746   5.947   0.866   4.849
  616SOL    HW1 2747   5.947   0.852   4.948
  616SOL    HW2 2748   5.859   0.834   4.811
  617SOL     OW 2749   0.035   5.343   5.724
  617SOL    HW1 2750   0.056   5.419   5.785
  617SOL    HW2 2751   0.010   5.263   5.778
  618SOL     OW 2752   6.431   3.763   0.600
  618SOL    HW1 2753   6.439   3.688   0.534
  618SOL    HW2 2754   6.341   3.760   0.644
  619SOL     OW 2755   3.024   0.385   6.196
  619SOL    HW1 2756   2.957   0.359   6.126
  619SOL    HW2 2757   3.026   0.485   6.204
  620SOL     OW 2758   5.642   1.700   2.359
  620SOL    HW1 2759   5.616   1.661   2.271
  620SOL    HW2 2760   5.661   1.627   2.424
  621SOL     OW 2761   3.181   0.694   6.536
  621SOL    HW1 2762   3.160   0.789   6.560
  621SOL    HW2 2763   3.096   0.646   6.515
  622SOL     OW 2764   1.065   2.192   4.978
  622SOL    HW1 2765   1.063   2.092   4.978
  622SOL    HW2 2766   0.996   2.227   4.915
  623SOL     OW 2767   5.916   0.481   3.966
  623SOL    HW1 2768   5.980   0.551   3.995
  623SOL    HW2 2769   5.861   0.451   4.044
  624SOL     OW 2770   6.631   0.483   6.597
  624SOL    HW1 2771   6.597   0.477   6.691
  624SOL    HW2 2772   6.598   0.404   6.545
  625SOL     OW 2773   2.837   1.792   0.503
  625SOL    HW1 2774   2.854   1.833   0.593
  625SOL    HW2 2775   2.747   1.821   0.470
  626SOL     OW 2776   0.009   6.165   4.111
  626SOL    HW1 2777   7.017   6.085   4.169
  626SOL    HW2 2778   0.031   6.244   4.169
  627SOL     OW 2779   6.517   0.174   0.182
  627SOL    HW1 2780   6.589   0.134   0.125
  627SOL    HW2 2781   6.498   0.112   0.258
  628SOL     OW 2782   4.377   4.783   6.064
  628SOL    HW1 2783   4.476   4.768   6.066
  628SOL    HW2 2784   4.341   4.780   6.158
  629SOL     OW 2785   1.312   6.996   6.585
  629SOL    HW1 2786   1.273   0.004   6.499
  629SOL    HW2 2787   1.340   6.900   6.576
  630SOL     OW 2788   6.250   1.439   1.338
  630SOL    HW1 2789   6.191   1.359   1.348
  630SOL    HW2 2790   6.198   1.521   1.362
  631SOL     OW 2791   1.705   2.337   3.773
  631SOL    HW1 2792   1.719   2.258   3.713
  631SOL    HW2 2793   1.718   2.421   3.720
  632SOL     OW 2794   3.105   4.039   6.985
  632SOL    HW1 2795   3.087   4.006   6.892
  632SOL    HW2 2796   3.178   4.106   6.983
  633SOL     OW 2797   1.686   6.010   0.879
  633SOL    HW1 2798   1.591   5.980   0.892
  633SOL    HW2 2799   1.747   5.930   0.886
  634SOL     OW 2800   2.930   3.438   4.393
  634SOL    HW1 2801   2.904   3.356   4.341
  634SOL    HW2 2802   2.919   3.420   4.490
  635SOL     OW 2803   5.685   0.158   6.786
  635SOL    HW1 2804   5.745   0.237   6.792
  635SOL    HW2 2805   5.592   0.188   6.762
  636SOL     OW 2806   2.976   0.533   5.443
  636SOL    HW1 2807   3.029   0.618   5.439
  636SOL    HW2 2808   2.989   0.490   5.532
  637SOL     OW 2809   6.617   0.424   2.729
  637SOL    HW1 2810   6.571   0.445   2.815
  637SOL    HW2 2811   6.630   0.508   2.677
  638SOL     OW 2812   6.518   2.862   4.937
  638SOL    HW1 2813   6.573   2.810   5.003
  638SOL    HW2 2814   6.436   2.811   4.913
  639SOL     OW 2815   5.742   4.365   2.289
  639SOL    HW1 2816   5.811   4.331   2.352
  639SOL    HW2 2817   5.651   4.343   2.323
  640SOL     OW 2818   0.642   2.566   2.158
  640SOL    HW1 2819   0.722   2.610   2.118
  640SOL    HW2 2820   0.576   2.635   2.188
  641SOL     OW 2821   2.570   5.076   4.243
  641SOL    HW1 2822   2.483   5.028   4.233
  641SOL    HW2 2823   2.642   5.010   4.265
  642SOL     OW 2824   0.909   3.978   4.593
  642SOL    HW1 2825   0.814   3.966   4.623
  642SOL    HW2 2826   0.915   4.058   4.534
  643SOL     OW 2827   4.804   4.984   0.934
  643SOL    HW1 2828   4.874   5.054   0.919
  643SOL    HW2 2829   4.718   5.028   0.959
  644SOL     OW 2830   0.117   6.752   5.497
  644SOL    HW1 2831   0.159   6.793   5.578
  644SOL    HW2 2832   0.093   6.824   5.432
  645SOL     OW 2833   3.619   5.224   2.201
  645SOL    HW1 2834   3.539   5.282   2.214
  645SOL    HW2 2835   3.697   5.262   2.251
  646SOL     OW 2836   3.950   1.929   4.482
  646SOL    HW1 2837   4.030   1.871   4.471
  646SOL    HW2 2838   3.911   1.915   4.573
  647SOL     OW 2839   3.797   2.722   6.094
  647SOL    HW1 2840   3.847   2.692   6.013
  647SOL    HW2 2841   3.753   2.811   6.076
  648SOL     OW 2842   6.214   1.182   3.079
  648SOL    HW1 2843   6.210   1.117   3.003
  648SOL    HW2 2844   6.219   1.133   3.165
  649SOL     OW 2845   2.316   5.296   1.034
  649SOL    HW1 2846   2.375   5.227   1.076
  649SOL    HW2 2847   2.234   5.252   0.998
  650SOL     OW 2848   6.905   3.810   0.703
  650SOL    HW1 2849   6.901   3.780   0.607
  650SOL    HW2 2850   6.923   3.731   0.762
  651SOL     OW 2851   1.095   0.643   4.234
  651SOL    HW1 2852   1.133   0.665   4.324
  651SOL    HW2 2853   1.054   0.552   4.237
  652SOL     OW 2854   3.859   6.146   1.478
  652SOL    HW1 2855   3.846   6.199   1.394
  652SOL    HW2 2856   3.778   6.154   1.536
  653SOL     OW 2857   1.103   0.285   2.525
  653SOL    HW1 2858   1.143   0.307   2.436
  653SOL    HW2 2859   1.175   0.281   2.594
  654SOL     OW 2860   1.121   0.136   5.600
  654SOL    HW1 2861   1.148   0.069   5.670
  654SOL    HW2 2862   1.055   0.094   5.538
  655SOL     OW 2863   0.397   4.104   1.844
  655SOL    HW1 2864   0.336   4.089   1.766
  655SOL    HW2 2865   0.492   4.088   1.816
  656SOL     OW 2866   3.661   6.438   0.206
  656SOL    HW1 2867   3.743   6.495   0.197
  656SOL    HW2 2868   3.686   6.352   0.249
  657SOL     OW 2869   3.743   3.618   3.050
  657SOL    HW1 2870   3.714   3.692   3.111
  657SOL    HW2 2871   3.839   3.598   3.066
  658SOL     OW 2872   1.736   1.399   4.912
  658SOL    HW1 2873   1.722   1.477   4.851
  658SOL    HW2 2874   1.654   1.387   4.969
  659SOL     OW 2875   1.537   5.815   6.329
  659SOL    HW1 2876   1.605   5.757   6.374
  659SOL    HW2 2877   1.529   5.789   6.233
  660SOL     OW 2878   4.583   5.057   3.046
  660SOL    HW1 2879   4.520   5.076   2.970
  660SOL    HW2 2880   4.570   4.964   3.078
  661SOL     OW 2881   4.508   4.547   4.158
  661SOL    HW1 2882   4.442   4.564   4.232
  661SOL    HW2 2883   4.586   4.609   4.168
  662SOL     OW 2884   4.950   3.327   6.785
  662SOL    HW1 2885   4.990   3.299   6.873
  662SOL    HW2 2886   4.983   3.265   6.713
  663SOL     OW 2887   6.712   4.204   6.975
  663SOL    HW1 2888   6.776   4.279   6.994
  663SOL    HW2 2889   6.634   4.212   0.013
  664SOL     OW 2890   1.753   6.980   6.577
  664SOL    HW1 2891   1.819   7.006   6.506
  664SOL    HW2 2892   1.661   6.985   6.540
  665SOL     OW 2893   3.525   4.956   1.773
  665SOL    HW1 2894   3.547   4.880   1.834
  665SOL    HW2 2895   3.495   5.034   1.828
  666SOL     OW 2896   3.001   0.810   0.486
  666SOL    HW1 2897   2.955   0.813   0.397
  666SOL    HW2 2898   2.933   0.797   0.558
  667SOL     OW 2899   0.928   3.513   2.779
  667SOL    HW1 2900   0.883   3.435   2.735
  667SOL    HW2 2901   0.960   3.577   2.709
  668SOL     OW 2902   5.483   0.149   0.539
  668SOL    HW1 2903   5.397   0.099   0.534
  668SOL    HW2 2904   5.540   0.125   0.460
  669SOL     OW 2905   1.906   6.187   2.597
  669SOL    HW1 2906   1.973   6.112   2.597
  669SOL    HW2 2907   1.844   6.176   2.674
  670SOL     OW 2908   3.327   3.056   3.507
  670SOL    HW1 2909   3.402   3.011   3.458
  670SOL    HW2 2910   3.252   3.074   3.443
  671SOL     OW 2911   1.328   7.016   6.269
  671SOL    HW1 2912   1.306   6.920   6.249
  671SOL    HW2 2913   1.394   0.027   6.203
  672SOL     OW 2914   1.655   1.645   3.571
  672SOL    HW1 2915   1.644   1.639   3.670
  672SOL    HW2 2916   1.729   1.584   3.542
  673SOL     OW 2917   4.933   6.676   0.565
  673SOL    HW1 2918   4.885   6.630   0.491
  673SOL    HW2 2919   4.902   6.771   0.571
  674SOL     OW 2920   0.010   1.705   3.964
  674SOL    HW1 2921   0.012   1.797   4.003
  674SOL    HW2 2922   0.025   1.710   3.866
  675SOL     OW 2923   5.662   0.980   4.594
  675SOL    HW1 2924   5.741   1.002   4.537
  675SOL    HW2 2925   5.598   0.924   4.541
  676SOL     OW 2926   2.180   4.570   4.251
  676SOL    HW1 2927   2.178   4.652   4.308
  676SOL    HW2 2928   2.250   4.507   4.284
  677SOL     OW 2929   5.358   6.736   1.219
  677SOL    HW1 2930   5.410   6.766   1.299
  677SOL    HW2 2931   5.262   6.724   1.243
  678SOL     OW 2932   2.519   1.082   6.057
  678SOL    HW1 2933   2.617   1.066   6.040
  678SOL    HW2 2934   2.470   1.081   5.969
  679SOL     OW 2935   6.167   6.576   2.395
  679SOL    HW1 2936   6.077   6.540   2.420
  679SOL    HW2 2937   6.237   6.533   2.453
  680SOL     OW 2938   5.584   4.185   5.225
  680SOL    HW1 2939   5.660   4.251   5.234
  680SOL    HW2 2940   5.621   4.095   5.201
  681SOL     OW 2941   1.489   6.886   1.965
  681SOL    HW1 2942   1.473   6.797   1.922
  681SOL    HW2 2943   1.577   6.923   1.933
  682SOL     OW 2944   0.850   6.781   6.729
  682SOL    HW1 2945   0.921   6.841   6.693
  682SOL    HW2 2946   0.830   6.710   6.662
  683SOL     OW 2947   5.312   2.012   0.114
  683SOL    HW1 2948   5.289   2.110   0.113
  683SOL    HW2 2949   5.295   1.975   0.206
  684SOL     OW 2950   0.195   6.173   6.048
  684SOL    HW1 2951   0.113   6.185   6.104
  684SOL    HW2 2952   0.275   6.166   6.107
  685SOL     OW 2953   5.827   1.131   5.998
  685SOL    HW1 2954   5.742   1.139   6.049
  685SOL    HW2 2955   5.900   1.096   6.057
  686SOL     OW 2956   5.251   4.610   3.101
  686SOL    HW1 2957   5.333   4.553   3.092
  686SOL    HW2 2958   5.199   4.608   3.015
  687SOL     OW 2959   5.879   2.238   5.405
  687SOL    HW1 2960   5.830   2.273   5.484
  687SOL    HW2 2961   5.819   2.241   5.325
  688SOL     OW 2962   0.442   3.410   4.466
  688SOL    HW1 2963   0.428   3.477   4.393
  688SOL    HW2 2964   0.399   3.443   4.550
  689SOL     OW 2965   6.219   4.251   5.417
  689SOL    HW1 2966   6.205   4.176   5.353
  689SOL    HW2 2967   6.191   4.223   5.509
  690SOL     OW 2968   0.443   2.783   3.640
  690SOL    HW1 2969   0.540   2.805   3.634
  690SOL    HW2 2970   0.424   2.741   3.729
  691SOL     OW 2971   7.016   3.001   6.735
  691SOL    HW1 2972   7.018   3.100   6.722
  691SOL    HW2 2973   0.004   2.980   6.832
  692SOL     OW 2974   2.038   0.004   3.163
  692SOL    HW1 2975   2.028   0.080   3.227
  692SOL    HW2 2976   2.117   0.020   3.104
  693SOL     OW 2977   6.555   0.897   2.297
  693SOL    HW1 2978   6.559   0.996   2.289
  693SOL    HW2 2979   6.577   0.870   2.391
  694SOL     OW 2980   1.665   0.416   2.341
  694SOL    HW1 2981   1.635   0.321   2.331
  694SOL    HW2 2982   1.597   0.476   2.299
  695SOL     OW 2983   4.509   5.414   6.211
  695SOL    HW1 2984   4.514   5.316   6.228
  695SOL    HW2 2985   4.428   5.435   6.155
  696SOL     OW 2986   4.360   5.512   2.550
  696SOL    HW1 2987   4.399   5.420   2.543
  696SOL    HW2 2988   4.407   5.573   2.485
  697SOL     OW 2989   1.496   3.640   3.912
  697SOL    HW1 2990   1.540   3.657   4.000
  697SOL    HW2 2991   1.470   3.727   3.870
  698SOL     OW 2992   4.183   6.659   3.298
  698SOL    HW1 2993   4.200   6.566   3.265
  698SOL    HW2 2994   4.109   6.658   3.365
  699SOL     OW 2995   1.858   4.473   0.201
  699SOL    HW1 2996   1.819   4.552   0.153
  699SOL    HW2 2997   1.908   4.416   0.135
  700SOL     OW 2998   2.274   1.584   3.743
  700SOL    HW1 2999   2.220   1.502   3.724
  700SOL    HW2 3000   2.214   1.658   3.771
  701SOL     OW 3001   0.837   4.604   5.534
  701SOL    HW1 3002   0.930   4.608   5.571
  701SOL    HW2 3003   0.788   4.688   5.560
  702SOL     OW 3004   5.397   5.678   4.911
  702SOL    HW1 3005   5.482   5.730   4.901
  702SOL    HW2 3006   5.414   5.597   4.967
  703SOL     OW 3007   4.537   4.337   0.241
  703SOL    HW1 3008   4.518   4.250   0.287
  703SOL    HW2 3009   4.596   4.321   0.163
  704SOL     OW 3010   2.578   0.477   1.308
  704SOL    HW1 3011   2.498   0.442   1.258
  704SOL    HW2 3012   2.631   0.400   1.344
  705SOL     OW 3013   6.822   2.197   3.680
  705SOL    HW1 3014   6.722   2.202   3.681
  705SOL    HW2 3015   6.850   2.111   3.637
  706SOL     OW 3016   4.885   1.839   4.017
  706SOL    HW1 3017   4.913   1.807   4.108
  706SOL    HW2 3018   4.787   1.859   4.018
  707SOL     OW 3019   5.173   1.904   1.336
  707SOL    HW1 3020   5.171   1.818   1.285
  707SOL    HW2 3021   5.129   1.892   1.425
  708SOL     OW 3022   3.899   0.762   1.831
  708SOL    HW1 3023   3.854   0.842   1.792
  708SOL    HW2 3024   3.849   0.680   1.805
  709SOL     OW 3025   1.015   5.092   6.870
  709SOL    HW1 3026   0.978   5.130   6.785
  709SOL    HW2 3027   1.114   5.082   6.862
  710SOL     OW 3028   3.242   3.532   2.388
  710SOL    HW1 3029   3.334   3.569   2.381
  710SOL    HW2 3030   3.234   3.476   2.470
  711SOL     OW 3031   0.821   6.972   4.189
  711SOL    HW1 3032   0.812   6.990   4.091
  711SOL    HW2 3033   0.907   7.012   4.222
  712SOL     OW 3034   1.347   4.070   1.409
  712SOL    HW1 3035   1.382   4.034   1.496
  712SOL    HW2 3036   1.418   4.065   1.339
  713SOL     OW 3037   4.046   3.157   3.225
  713SOL    HW1 3038   4.087   3.102   3.298
  713SOL    HW2 3039   3.990   3.099   3.168
  714SOL     OW 3040   4.873   5.082   5.723
  714SOL    HW1 3041   4.830   5.171   5.708
  714SOL    HW2 3042   4.922   5.054   5.641
  715SOL     OW 3043   4.823   0.775   6.663
  715SOL    HW1 3044   4.776   0.856   6.698
  715SOL    HW2 3045   4.913   0.802   6.627
  716SOL     OW 3046   6.882   4.909   2.051
  716SOL    HW1 3047   6.944   4.980   2.084
  716SOL    HW2 3048   6.788   4.935   2.071
  717SOL     OW 3049   6.072   2.807   0.375
  717SOL    HW1 3050   5.984   2.759   0.381
  717SOL    HW2 3051   6.146   2.741   0.369
  718SOL     OW 3052   3.353   3.616   6.378
  718SOL    HW1 3053   3.328   3.536   6.432
  718SOL    HW2 3054   3.446   3.605   6.342
  719SOL     OW 3055   5.370   4.944   6.916
  719SOL    HW1 3056   5.424   5.023   6.885
  719SOL    HW2 3057   5.356   4.950   7.015
  720SOL     OW 3058   2.230   0.210   6.316
  720SOL    HW1 3059   2.138   0.199   6.278
  720SOL    HW2 3060   2.279   0.124   6.308
  721SOL     OW 3061   1.335   6.308   5.872
  721SOL    HW1 3062   1.369   6.381   5.812
  721SOL    HW2 3063   1.395   6.228   5.865
  722SOL     OW 3064   5.047   0.008   6.204
  722SOL    HW1 3065   5.006   0.095   6.233
  722SOL    HW2 3066   5.006   7.003   6.117
  723SOL     OW 3067   1.966   3.030   2.173
  723SOL    HW1 3068   1.871   3.024   2.142
  723SOL    HW2 3069   2.019   3.085   2.109
  724SOL     OW 3070   0.048   0.677   4.727
  724SOL    HW1 3071   7.000   0.737   4.766
  724SOL    HW2 3072   0.049   0.687   4.628
  725SOL     OW 3073   2.265   5.101   0.627
  725SOL    HW1 3074   2.335   5.038   0.660
  725SOL    HW2 3075   2.236   5.160   0.703
  726SOL     OW 3076   4.548   0.200   6.076
  726SOL    HW1 3077   4.643   0.222   6.098
  726SOL    HW2 3078   4.544   0.114   6.026
  727SOL     OW 3079   2.564   4.623   4.063
  727SOL    HW1 3080   2.548   4.714   4.023
  727SOL    HW2 3081   2.533   4.553   4.000
  728SOL     OW 3082   6.816   3.351   5.066
  728SOL    HW1 3083   6.755   3.301   5.127
  728SOL    HW2 3084   6.824   3.302   4.979
  729SOL     OW 3085   2.960   0.513   0.831
  729SOL    HW1 3086   3.042   0.471   0.793
  729SOL    HW2 3087   2.970   0.522   0.930
  730SOL     OW 3088   6.313   0.035   5.244
  730SOL    HW1 3089   6.381   0.080   5.303
  730SOL    HW2 3090   6.277   0.103   5.179
  731SOL     OW 3091   6.268   3.148   3.461
  731SOL    HW1 3092   6.262   3.134   3.362
  731SOL    HW2 3093   6.264   3.060   3.508
  732SOL     OW 3094   6.856   2.821   2.422
  732SOL    HW1 3095   6.866   2.841   2.520
  732SOL    HW2 3096   6.849   2.723   2.409
  733SOL     OW 3097   4.598   4.516   3.670
  733SOL    HW1 3098   4.563   4.609   3.670
  733SOL    HW2 3099   4.581   4.473   3.759
  734SOL     OW 3100   0.044   4.839   0.906
  734SOL    HW1 3101   0.010   4.891   0.828
  734SOL    HW2 3102   7.004   4.766   0.928
  735SOL     OW 3103   1.312   4.665   6.381
  735SOL    HW1 3104   1.349   4.714   6.301
  735SOL    HW2 3105   1.372   4.589   6.404
  736SOL     OW 3106   6.104   1.409   3.131
  736SOL    HW1 3107   6.155   1.325   3.114
  736SOL    HW2 3108   6.102   1.427   3.229
  737SOL     OW 3109   5.793   3.463   0.382
  737SOL    HW1 3110   5.876   3.430   0.428
  737SOL    HW2 3111   5.750   3.386   0.334
  738SOL     OW 3112   0.534   4.147   3.406
  738SOL    HW1 3113   0.488   4.065   3.372
  738SOL    HW2 3114   0.522   4.222   3.341
  739SOL     OW 3115   4.968   5.661   6.676
  739SOL    HW1 3116   4.974   5.746   6.729
  739SOL    HW2 3117   4.879   5.656   6.632
  740SOL     OW 3118   5.699   6.876   1.043
  740SOL    HW1 3119   5.678   6.964   1.001
  740SOL    HW2 3120   5.636   6.807   1.007
  741SOL     OW 3121   2.737   1.102   3.668
  741SOL    HW1 3122   2.653   1.049   3.674
  741SOL    HW2 3123   2.816   1.042   3.681
  742SOL     OW 3124   1.339   0.788   3.123
  742SOL    HW1 3125   1.426   0.800   3.171
  742SOL    HW2 3126   1.265   0.780   3.190
  743SOL     OW 3127   2.109   3.902   4.255
  743SOL    HW1 3128   2.160   3.849   4.187
  743SOL    HW2 3129   2.012   3.903   4.231
  744SOL     OW 3130   0.649   6.351   1.441
  744SOL    HW1 3131   0.597   6.341   1.526
  744SOL    HW2 3132   0.641   6.267   1.387
  745SOL     OW 3133   1.352   6.262   3.006
  745SOL    HW1 3134   1.448   6.235   3.020
  745SOL    HW2 3135   1.323   6.322   3.080
  746SOL     OW 3136   2.634   0.677   4.605
  746SOL    HW1 3137   2.558   0.611   4.601
  746SOL    HW2 3138   2.611   0.758   4.553
  747SOL     OW 3139   5.619   4.608   2.283
  747SOL    HW1 3140   5.686   4.536   2.297
  747SOL    HW2 3141   5.572   4.628   2.369
  748SOL     OW 3142   4.506   2.882   1.555
  748SOL    HW1 3143   4.565   2.809   1.588
  748SOL    HW2 3144   4.441   2.908   1.626
  749SOL     OW 3145   0.215   1.775   5.342
  749SOL    HW1 3146   0.171   1.729   5.265
  749SOL    HW2 3147   0.284   1.714   5.382
  750SOL     OW 3148   2.228   4.144   0.466
  750SOL    HW1 3149   2.298   4.144   0.395
  750SOL    HW2 3150   2.234   4.228   0.519
  751SOL     OW 3151   4.807   0.839   0.280
  751SOL    HW1 3152   4.804   0.842   0.380
  751SOL    HW2 3153   4.748   0.909   0.242
  752SOL     OW 3154   5.125   1.513   1.813
  752SOL    HW1 3155   5.168   1.424   1.823
  752SOL    HW2 3156   5.157   1.574   1.885
  753SOL     OW 3157   2.232   2.354   3.502
  753SOL    HW1 3158   2.141   2.313   3.511
  753SOL    HW2 3159   2.224   2.453   3.490
  754SOL     OW 3160   5.109   5.401   0.017
  754SOL    HW1 3161   5.128   5.420   0.113
  754SOL    HW2 3162   5.163   5.463   6.984
  755SOL     OW 3163   0.149   6.433   1.630
  755SOL    HW1 3164   0.091   6.510   1.605
  755SOL    HW2 3165   0.245   6.460   1.622
  756SOL     OW 3166   4.239   0.587   3.446
  756SOL    HW1 3167   4.156   0.532   3.451
  756SOL    HW2 3168   4.223   0.667   3.388
  757SOL     OW 3169   0.220   0.505   4.282
  757SOL    HW1 3170   0.278   0.575   4.323
  757SOL    HW2 3171   0.189   0.442   4.353
  758SOL     OW 3172   4.473   2.127   1.214
  758SOL    HW1 3173   4.571   2.132   1.194
  758SOL    HW2 3174   4.442   2.033   1.204
  759SOL     OW 3175   1.560   1.301   0.064
  759SOL    HW1 3176   1.581   1.230   0.131
  759SOL    HW2 3177   1.590   1.272   6.997
  760SOL     OW 3178   4.639   1.457   5.901
  760SOL    HW1 3179   4.713   1.456   5.833
  760SOL    HW2 3180   4.619   1.551   5.928
  761SOL     OW 3181   6.591   2.678   0.012
  761SOL    HW1 3182   6.647   2.618   6.978
  761SOL    HW2 3183   6.544   2.624   0.081
  762SOL     OW 3184   2.316   5.552   3.563
  762SOL    HW1 3185   2.239   5.502   3.523
  762SOL    HW2 3186   2.395   5.492   3.568
  763SOL     OW 3187   5.893   5.315   5.963
  763SOL    HW1 3188   5.879   5.406   6.004
  763SOL    HW2 3189   5.931   5.254   6.032
  764SOL     OW 3190   4.376   1.077   2.304
  764SOL    HW1 3191   4.379   0.977   2.301
  764SOL    HW2 3192   4.298   1.108   2.249
  765SOL     OW 3193   0.488   6.934   3.582
  765SOL    HW1 3194   0.466   0.008   3.587
  765SOL    HW2 3195   0.523   6.903   3.670
  766SOL     OW 3196   0.349   6.449   0.101
  766SOL    HW1 3197   0.352   6.486   0.194
  766SOL    HW2 3198   0.351   6.524   0.035
  767SOL     OW 3199   5.832   0.079   2.351
  767SOL    HW1 3200   5.764   0.073   2.278
  767SOL    HW2 3201   5.811   0.157   2.410
  768SOL     OW 3202   3.264   6.594   3.308
  768SOL    HW1 3203   3.323   6.599   3.389
  768SOL    HW2 3204   3.315   6.553   3.232
  769SOL     OW 3205   3.717   0.901   5.716
  769SOL    HW1 3206   3.772   0.951   5.784
  769SOL    HW2 3207   3.686   0.965   5.646
  770SOL     OW 3208   3.425   4.880   4.033
  770SOL    HW1 3209   3.477   4.921   3.959
  770SOL    HW2 3210   3.452   4.784   4.045
  771SOL     OW 3211   0.156   5.697   3.695
  771SOL    HW1 3212   0.181   5.625   3.631
  771SOL    HW2 3213   0.099   5.764   3.649
  772SOL     OW 3214   6.663   4.589   5.386
  772SOL    HW1 3215   6.585   4.616   5.330
  772SOL    HW2 3216   6.745   4.587   5.330
  773SOL     OW 3217   0.241   4.360   2.383
  773SOL    HW1 3218   0.259   4.432   2.316
  773SOL    HW2 3219   0.297   4.280   2.361
  774SOL     OW 3220   1.436   0.995   1.820
  774SOL    HW1 3221   1.449   1.052   1.740
  774SOL    HW2 3222   1.399   0.906   1.793
  775SOL     OW 3223   1.290   2.095   4.225
  775SOL    HW1 3224   1.302   2.041   4.142
  775SOL    HW2 3225   1.206   2.066   4.271
  776SOL     OW 3226   2.697   0.626   6.313
  776SOL    HW1 3227   2.667   0.617   6.218
  776SOL    HW2 3228   2.619   0.654   6.369
  777SOL     OW 3229   4.455   0.576   0.732
  777SOL    HW1 3230   4.492   0.663   0.763
  777SOL    HW2 3231   4.356   0.584   0.718
  778SOL     OW 3232   4.339   6.900   4.063
  778SOL    HW1 3233   4.329   6.968   3.991
  778SOL    HW2 3234   4.411   6.929   4.127
  779SOL     OW 3235   1.030   1.137   2.429
  779SOL    HW1 3236   0.953   1.120   2.367
  779SOL    HW2 3237   1.087   1.055   2.434
  780SOL     OW 3238   5.258   3.399   5.044
  780SOL    HW1 3239   5.303   3.320   5.086
  780SOL    HW2 3240   5.162   3.376   5.026
  781SOL     OW 3241   0.690   1.532   5.323
  781SOL    HW1 3242   0.750   1.500   5.250
  781SOL    HW2 3243   0.745   1.565   5.400
  782SOL     OW 3244   0.313   3.300   0.801
  782SOL    HW1 3245   0.340   3.393   0.828
  782SOL    HW2 3246   0.374   3.268   0.728
  783SOL     OW 3247   2.910   4.031   0.365
  783SOL    HW1 3248   2.997   3.986   0.346
  783SOL    HW2 3249   2.882   4.012   0.459
  784SOL     OW 3250   5.335   0.366   4.557
  784SOL    HW1 3251   5.392   0.371   4.639
  784SOL    HW2 3252   5.333   0.455   4.512
  785SOL     OW 3253   6.645   2.465   3.709
  785SOL    HW1 3254   6.599   2.384   3.673
  785SOL    HW2 3255   6.653   2.457   3.809
  786SOL     OW 3256   6.688   0.281   6.857
  786SOL    HW1 3257   6.751   0.330   6.917
  786SOL    HW2 3258   6.612   0.342   6.833
  787SOL     OW 3259   3.527   1.133   6.307
  787SOL    HW1 3260   3.480   1.099   6.389
  787SOL    HW2 3261   3.492   1.085   6.227
  788SOL     OW 3262   1.175   4.175   4.078
  788SOL    HW1 3263   1.226   4.261   4.083
  788SOL    HW2 3264   1.240   4.099   4.068
  789SOL     OW 3265   5.710   3.740   1.172
  789SOL    HW1 3266   5.734   3.821   1.226
  789SOL    HW2 3267   5.786   3.716   1.111
  790SOL     OW 3268   3.025   1.207   3.621
  790SOL    HW1 3269   2.977   1.243   3.541
  790SOL    HW2 3270   3.057   1.282   3.679
  791SOL     OW 3271   4.201   1.828   4.409
  791SOL    HW1 3272   4.206   1.742   4.460
  791SOL    HW2 3273   4.237   1.903   4.465
  792SOL     OW 3274   5.936   0.321   3.322
  792SOL    HW1 3275   6.015   0.284   3.272
  792SOL    HW2 3276   5.966   0.400   3.376
  793SOL     OW 3277   6.361   0.188   6.648
  793SOL    HW1 3278   6.332   0.275   6.610
  793SOL    HW2 3279   6.344   0.187   6.747
  794SOL     OW 3280   2.396   5.346   5.037
  794SOL    HW1 3281   2.325   5.416   5.037
  794SOL    HW2 3282   2.384   5.286   5.115
  795SOL     OW 3283   4.841   4.983   5.974
  795SOL    HW1 3284   4.760   5.034   6.003
  795SOL    HW2 3285   4.846   4.983   5.874
  796SOL     OW 3286   1.126   2.152   6.003
  796SOL    HW1 3287   1.186   2.205   5.943
  796SOL    HW2 3288   1.170   2.066   6.029
  797SOL     OW 3289   5.968   3.046   4.445
  797SOL    HW1 3290   6.021   2.963   4.429
  797SOL    HW2 3291   5.931   3.079   4.359
  798SOL     OW 3292   6.343   0.739   6.146
  798SOL    HW1 3293   6.392   0.756   6.060
  798SOL    HW2 3294   6.253   0.700   6.126
  799SOL     OW 3295   6.498   3.331   3.118
  799SOL    HW1 3296   6.400   3.312   3.115
  799SOL    HW2 3297   6.525   3.350   3.213
  800SOL     OW 3298   6.621   1.736   1.829
  800SOL    HW1 3299   6.555   1.720   1.756
  800SOL    HW2 3300   6.690   1.801   1.798
  801SOL     OW 3301   0.159   2.736   3.610
  801SOL    HW1 3302   0.240   2.793   3.596
  801SOL    HW2 3303   0.168   2.687   3.697
  802SOL     OW 3304   5.836   0.662   0.722
  802SOL    HW1 3305   5.874   0.632   0.635
  802SOL    HW2 3306   5.761   0.726   0.706
  803SOL     OW 3307   0.710   7.015   5.510
  803SOL    HW1 3308   0.672   7.008   5.418
  803SOL    HW2 3309   0.657   6.957   5.572
  804SOL     OW 3310   6.655   0.560   0.475
  804SOL    HW1 3311   6.700   0.503   0.407
  804SOL    HW2 3312   6.722   0.593   0.541
  805SOL     OW 3313   2.020   3.452   6.500
  805SOL    HW1 3314   2.045   3.513   6.575
  805SOL    HW2 3315   1.953   3.496   6.440
  806SOL     OW 3316   5.571   0.837   0.698
  806SOL    HW1 3317   5.572   0.780   0.780
  806SOL    HW2 3318   5.554   0.932   0.725
  807SOL     OW 3319   1.305   0.377   3.254
  807SOL    HW1 3320   1.235   0.322   3.300
  807SOL    HW2 3321   1.376   0.317   3.217
  808SOL     OW 3322   5.487   3.534   5.097
  808SOL    HW1 3323   5.551   3.517   5.022
  808SOL    HW2 3324   5.394   3.510   5.068
  809SOL     OW 3325   0.149   4.724   5.955
  809SOL    HW1 3326   0.139   4.644   6.014
  809SOL    HW2 3327   0.148   4.695   5.859
  810SOL     OW 3328   6.141   4.572   6.877
  810SOL    HW1 3329   6.196   4.649   6.846
  810SOL    HW2 3330   6.069   4.606   6.939
  811SOL     OW 3331   5.173   5.387   3.991
  811SOL    HW1 3332   5.080   5.366   4.020
  811SOL    HW2 3333   5.189   5.485   4.003
  812SOL     OW 3334   0.443   7.010   2.493
  812SOL    HW1 3335   0.387   6.971   2.566
  812SOL    HW2 3336   0.437   0.086   2.495
  813SOL     OW 3337   5.696   5.417   2.477
  813SOL    HW1 3338   5.721   5.405   2.381
  813SOL    HW2 3339   5.703   5.330   2.525
  814SOL     OW 3340   5.187   5.944   1.397
  814SOL    HW1 3341   5.170   5.909   1.489
  814SOL    HW2 3342   5.189   5.868   1.332
  815SOL     OW 3343   0.618   2.259   0.542
  815SOL    HW1 3344   0.577   2.342   0.581
  815SOL    HW2 3345   0.664   2.281   0.456
  816SOL     OW 3346   6.217   0.424   0.935
  816SOL    HW1 3347   6.253   0.403   1.027
  816SOL    HW2 3348   6.121   0.448   0.942
  817SOL     OW 3349   1.733   2.247   3.096
  817SOL    HW1 3350   1.742   2.165   3.040
  817SOL    HW2 3351   1.757   2.327   3.041
  818SOL     OW 3352   6.754   1.999   1.196
  818SOL    HW1 3353   6.786   2.069   1.132
  818SOL    HW2 3354   6.781   1.909   1.163
  819SOL     OW 3355   0.412   3.985   3.735
  819SOL    HW1 3356   0.487   3.975   3.669
  819SOL    HW2 3357   0.338   4.038   3.693
  820SOL     OW 3358   1.135   3.180   4.277
  820SOL    HW1 3359   1.089   3.225   4.201
  820SOL    HW2 3360   1.205   3.118   4.241
  821SOL     OW 3361   1.320   3.199   0.050
  821SOL    HW1 3362   1.312   3.297   0.065
  821SOL    HW2 3363   1.413   3.169   0.070
  822SOL     OW 3364   1.504   3.526   4.662
  822SOL    HW1 3365   1.525   3.447   4.605
  822SOL    HW2 3366   1.429   3.578   4.621
  823SOL     OW 3367   2.967   3.521   0.882
  823SOL    HW1 3368   2.905   3.596   0.908
  823SOL    HW2 3369   2.982   3.462   0.962
  824SOL     OW 3370   6.268   2.501   5.973
  824SOL    HW1 3371   6.338   2.563   6.009
  824SOL    HW2 3372   6.184   2.511   6.027
  825SOL     OW 3373   1.881   4.136   2.336
  825SOL    HW1 3374   1.908   4.172   2.246
  825SOL    HW2 3375   1.840   4.210   2.389
  826SOL     OW 3376   0.566   4.020   6.158
  826SOL    HW1 3377   0.552   4.025   6.059
  826SOL    HW2 3378   0.641   4.080   6.184
  827SOL     OW 3379   4.731   5.875   6.996
  827SOL    HW1 3380   4.672   5.941   0.019
  827SOL    HW2 3381   4.794   5.834   0.038
  828SOL     OW 3382   6.409   6.728   6.832
  828SOL    HW1 3383   6.425   6.796   6.761
  828SOL    HW2 3384   6.463   6.646   6.812
  829SOL     OW 3385   3.398   2.906   4.699
  829SOL    HW1 3386   3.342   2.864   4.771
  829SOL    HW2 3387   3.368   3.000   4.684
  830SOL     OW 3388   4.709   4.047   5.396
  830SOL    HW1 3389   4.686   4.144   5.404
  830SOL    HW2 3390   4.741   4.013   5.485
  831SOL     OW 3391   6.629   0.667   4.938
  831SOL    HW1 3392   6.563   0.650   4.865
  831SOL    HW2 3393   6.596   0.627   5.023
  832SOL     OW 3394   2.865   1.227   5.629
  832SOL    HW1 3395   2.867   1.306   5.690
  832SOL    HW2 3396   2.871   1.258   5.534
  833SOL     OW 3397   0.672   0.255   6.075
  833SOL    HW1 3398   0.634   0.254   6.167
  833SOL    HW2 3399   0.597   0.258   6.008
  834SOL     OW 3400   3.383   4.457   5.492
  834SOL    HW1 3401   3.305   4.396   5.478
  834SOL    HW2 3402   3.440   4.457   5.410
  835SOL     OW 3403   4.046   0.485   3.110
  835SOL    HW1 3404   4.132   0.452   3.149
  835SOL    HW2 3405   4.005   0.412   3.055
  836SOL     OW 3406   2.475   0.682   0.386
  836SOL    HW1 3407   2.437   0.652   0.474
  836SOL    HW2 3408   2.485   0.781   0.387
  837SOL     OW 3409   3.940   0.707   5.903
  837SOL    HW1 3410   3.887   0.683   5.985
  837SOL    HW2 3411   4.026   0.749   5.931
  838SOL     OW 3412   2.071   4.693   2.962
  838SOL    HW1 3413   2.092   4.624   3.031
  838SOL    HW2 3414   2.013   4.764   3.003
  839SOL     OW 3415   3.208   1.567   1.965
  839SOL    HW1 3416   3.146   1.637   1.999
  839SOL    HW2 3417   3.288   1.562   2.024
  840SOL     OW 3418   1.197   1.464   6.255
  840SOL    HW1 3419   1.291   1.448   6.285
  840SOL    HW2 3420   1.189   1.557   6.218
  841SOL     OW 3421   0.634   3.669   6.836
  841SOL    HW1 3422   0.540   3.668   6.802
  841SOL    HW2 3423   0.642   3.606   6.913
  842SOL     OW 3424   3.576   4.999   3.838
  842SOL    HW1 3425   3.670   4.995   3.804
  842SOL    HW2 3426   3.551   5.095   3.852
  843SOL     OW 3427   6.541   2.880   1.856
  843SOL    HW1 3428   6.583   2.826   1.928
  843SOL    HW2 3429   6.587   2.969   1.849
  844SOL     OW 3430   5.139   5.488   0.678
  844SOL    HW1 3431   5.128   5.530   0.588
  844SOL    HW2 3432   5.059   5.431   0.698
  845SOL     OW 3433   1.000   4.578   4.760
  845SOL    HW1 3434   0.914   4.598   4.714
  845SOL    HW2 3435   1.026   4.483   4.744
  846SOL     OW 3436   5.793   1.894   0.017
  846SOL    HW1 3437   5.763   1.799   0.026
  846SOL    HW2 3438   5.713   1.954   0.027
  847SOL     OW 3439   5.209   3.477   2.086
  847SOL    HW1 3440   5.175   3.413   2.156
  847SOL    HW2 3441   5.156   3.561   2.090
  848SOL     OW 3442   0.010   0.168   5.945
  848SOL    HW1 3443   0.036   0.077   5.978
  848SOL    HW2 3444   0.093   0.223   5.931
  849SOL     OW 3445   0.214   5.062   4.195
  849SOL    HW1 3446   0.183   5.118   4.118
  849SOL    HW2 3447   0.241   5.120   4.271
  850SOL     OW 3448   3.782   0.619   2.614
  850SOL    HW1 3449   3.745   0.567   2.537
  850SOL    HW2 3450   3.748   0.580   2.700
  851SOL     OW 3451   0.590   0.626   6.102
  851SOL    HW1 3452   0.657   0.572   6.153
  851SOL    HW2 3453   0.578   0.587   6.010
  852SOL     OW 3454   2.322   4.247   6.498
  852SOL    HW1 3455   2.357   4.339   6.516
  852SOL    HW2 3456   2.318   4.196   6.584
  853SOL     OW 3457   1.786   3.581   1.452
  853SOL    HW1 3458   1.741   3.496   1.478
  853SOL    HW2 3459   1.771   3.650   1.522
  854SOL     OW 3460   5.349   5.175   1.765
  854SOL    HW1 3461   5.354   5.239   1.688
  854SOL    HW2 3462   5.413   5.203   1.836
  855SOL     OW 3463   5.597   0.212   1.651
  855SOL    HW1 3464   5.659   0.290   1.643
  855SOL    HW2 3465   5.650   0.129   1.667
  856SOL     OW 3466   1.511   6.808   4.697
  856SOL    HW1 3467   1.587   6.779   4.638
  856SOL    HW2 3468   1.511   6.753   4.780
  857SOL     OW 3469   6.532   3.375   1.972
  857SOL    HW1 3470   6.441   3.367   1.932
  857SOL    HW2 3471   6.529   3.439   2.049
  858SOL     OW 3472   3.362   4.122   1.423
  858SOL    HW1 3473   3.351   4.031   1.384
  858SOL    HW2 3474   3.283   4.143   1.481
  859SOL     OW 3475   6.775   4.798   0.391
  859SOL    HW1 3476   6.742   4.836   0.478
  859SOL    HW2 3477   6.872   4.820   0.380
  860SOL     OW 3478   1.621   4.989   1.477
  860SOL    HW1 3479   1.712   4.983   1.519
  860SOL    HW2 3480   1.621   5.060   1.407
  861SOL     OW 3481   3.304   5.497   5.593
  861SOL    HW1 3482   3.217   5.499   5.544
  861SOL    HW2 3483   3.374   5.546   5.541
  862SOL     OW 3484   4.332   4.602   4.370
  862SOL    HW1 3485   4.348   4.698   4.393
  862SOL    HW2 3486   4.377   4.543   4.437
  863SOL     OW 3487   5.847   1.250   1.090
  863SOL    HW1 3488   5.761   1.267   1.138
  863SOL    HW2 3489   5.864   1.151   1.086
  864SOL     OW 3490   5.935   4.449   2.658
  864SOL    HW1 3491   5.914   4.379   2.589
  864SOL    HW2 3492   5.860   4.454   2.724
  865SOL     OW 3493   1.695   0.352   4.307
  865SOL    HW1 3494   1.600   0.352   4.338
  865SOL    HW2 3495   1.699   0.318   4.213
  866SOL     OW 3496   3.406   1.512   1.316
  866SOL    HW1 3497   3.456   1.472   1.239
  866SOL    HW2 3498   3.348   1.586   1.283
  867SOL     OW 3499   1.618   2.587   5.892
  867SOL    HW1 3500   1.695   2.649   5.876
  867SOL    HW2 3501   1.566   2.577   5.808
  868SOL     OW 3502   5.355   2.925   3.371
  868SOL    HW1 3503   5.401   2.964   3.451
  868SOL    HW2 3504   5.418   2.864   3.323
  869SOL     OW 3505   6.261   4.137   2.590
  869SOL    HW1 3506   6.276   4.097   2.680
  869SOL    HW2 3507   6.248   4.236   2.599
  870SOL     OW 3508   0.122   2.555   0.825
  870SOL    HW1 3509   0.191   2.548   0.898
  870SOL    HW2 3510   0.040   2.598   0.862
  871SOL     OW 3511   5.875   3.996   0.683
  871SOL    HW1 3512   5.854   4.011   0.780
  871SOL    HW2 3513   5.936   4.068   0.651
  872SOL     OW 3514   5.639   2.694   2.883
  872SOL    HW1 3515   5.670   2.765   2.946
  872SOL    HW2 3516   5.708   2.681   2.812
  873SOL     OW 3517   4.726   6.659   5.631
  873SOL    HW1 3518   4.663   6.710   5.572
  873SOL    HW2 3519   4.801   6.622   5.577
  874SOL     OW 3520   7.020   3.883   5.887
  874SOL    HW1 3521   0.085   3.885   5.841
  874SOL    HW2 3522   7.005   3.971   5.932
  875SOL     OW 3523   6.161   4.856   6.488
  875SOL    HW1 3524   6.122   4.778   6.536
  875SOL    HW2 3525   6.098   4.934   6.493
  876SOL     OW 3526   0.964   3.523   1.574
  876SOL    HW1 3527   0.911   3.583   1.634
  876SOL    HW2 3528   0.921   3.522   1.483
  877SOL     OW 3529   5.513   6.170   0.547
  877SOL    HW1 3530   5.492   6.112   0.625
  877SOL    HW2 3531   5.594   6.135   0.500
  878SOL     OW 3532   3.341   3.182   0.445
  878SOL    HW1 3533   3.336   3.100   0.502
  878SOL    HW2 3534   3.284   3.169   0.363
  879SOL     OW 3535   4.391   1.740   2.487
  879SOL    HW1 3536   4.327   1.706   2.418
  879SOL    HW2 3537   4.387   1.681   2.568
  880SOL     OW 3538   4.111   5.153   0.617
  880SOL    HW1 3539   4.029   5.198   0.653
  880SOL    HW2 3540   4.189   5.215   0.624
  881SOL     OW 3541   4.238   5.173   4.805
  881SOL    HW1 3542   4.276   5.158   4.714
  881SOL    HW2 3543   4.247   5.090   4.859
  882SOL     OW 3544   0.828   1.537   4.257
  882SOL    HW1 3545   0.845   1.438   4.258
  882SOL    HW2 3546   0.870   1.578   4.337
  883SOL     OW 3547   2.904   4.708   6.828
  883SOL    HW1 3548   2.910   4.803   6.799
  883SOL    HW2 3549   2.810   4.687   6.856
  884SOL     OW 3550   4.564   3.837   1.340
  884SOL    HW1 3551   4.496   3.845   1.268
  884SOL    HW2 3552   4.523   3.793   1.420
  885SOL     OW 3553   4.977   5.922   6.782
  885SOL    HW1 3554   5.031   5.976   6.718
  885SOL    HW2 3555   5.002   5.944   6.876
  886SOL     OW 3556   4.392   1.261   6.121
  886SOL    HW1 3557   4.396   1.327   6.046
  886SOL    HW2 3558   4.301   1.265   6.163
  887SOL     OW 3559   5.285   0.212   6.443
  887SOL    HW1 3560   5.328   0.153   6.511
  887SOL    HW2 3561   5.215   0.268   6.487
  888SOL     OW 3562   6.101   6.697   3.542
  888SOL    HW1 3563   6.095   6.787   3.584
  888SOL    HW2 3564   6.119   6.628   3.612
  889SOL     OW 3565   1.124   6.570   4.508
  889SOL    HW1 3566   1.199   6.508   4.533
  889SOL    HW2 3567   1.149   6.664   4.530
  890SOL     OW 3568   2.316   4.655   2.197
  890SOL    HW1 3569   2.256   4.581   2.230
  890SOL    HW2 3570   2.407   4.619   2.181
  891SOL     OW 3571   5.717   3.617   6.296
  891SOL    HW1 3572   5.719   3.524   6.335
  891SOL    HW2 3573   5.772   3.619   6.212
  892SOL     OW 3574   2.549   5.558   1.787
  892SOL    HW1 3575   2.587   5.471   1.756
  892SOL    HW2 3576   2.540   5.556   1.887
  893SOL     OW 3577   2.030   6.872   0.758
  893SOL    HW1 3578   1.963   6.894   0.687
  893SOL    HW2 3579   2.087   6.796   0.727
  894SOL     OW 3580   1.492   5.452   3.540
  894SOL    HW1 3581   1.513   5.384   3.610
  894SOL    HW2 3582   1.577   5.493   3.507
  895SOL     OW 3583   1.756   0.076   4.659
  895SOL    HW1 3584   1.656   0.073   4.664
  895SOL    HW2 3585   1.788   0.165   4.690
  896SOL     OW 3586   5.702   0.408   3.705
  896SOL    HW1 3587   5.780   0.386   3.764
  896SOL    HW2 3588   5.692   0.337   3.635
  897SOL     OW 3589   5.084   2.491   6.271
  897SOL    HW1 3590   5.145   2.563   6.303
  897SOL    HW2 3591   4.993   2.505   6.310
  898SOL     OW 3592   6.053   6.455   4.090
  898SOL    HW1 3593   6.130   6.392   4.092
  898SOL    HW2 3594   6.085   6.547   4.068
  899SOL     OW 3595   0.871   4.838   6.555
  899SOL    HW1 3596   0.800   4.801   6.495
  899SOL    HW2 3597   0.841   4.833   6.650
  900SOL     OW 3598   0.452   5.616   3.606
  900SOL    HW1 3599   0.501   5.690   3.652
  900SOL    HW2 3600   0.513   5.572   3.540
  901SOL     OW 3601   5.645   2.383   3.466
  901SOL    HW1 3602   5.714   2.315   3.491
  901SOL    HW2 3603   5.670   2.426   3.380
  902SOL     OW 3604   0.482   6.132   0.281
  902SOL    HW1 3605   0.424   6.212   0.264
  902SOL    HW2 3606   0.553   6.157   0.347
  903SOL     OW 3607   0.620   4.946   6.895
  903SOL    HW1 3608   0.544   4.900   6.941
  903SOL    HW2 3609   0.633   5.037   6.934
  904SOL     OW 3610   1.770   1.458   3.773
  904SOL    HW1 3611   1.689   1.400   3.775
  904SOL    HW2 3612   1.794   1.485   3.866
  905SOL     OW 3613   6.131   2.108   5.772
  905SOL    HW1 3614   6.150   2.205   5.782
  905SOL    HW2 3615   6.075   2.077   5.849
  906SOL     OW 3616   6.118   4.089   5.243
  906SOL    HW1 3617   6.026   4.076   5.280
  906SOL    HW2 3618   6.113   4.098   5.143
  907SOL     OW 3619   6.824   3.726   1.647
  907SOL    HW1 3620   6.813   3.682   1.558
  907SOL    HW2 3621   6.749   3.698   1.708
  908SOL     OW 3622   1.624   0.833   3.203
  908SOL    HW1 3623   1.668   0.895   3.139
  908SOL    HW2 3624   1.694   0.775   3.246
  909SOL     OW 3625   4.398   0.433   1.129
  909SOL    HW1 3626   4.308   0.432   1.172
  909SOL    HW2 3627   4.450   0.511   1.163
  910SOL     OW 3628   1.906   2.214   1.417
  910SOL    HW1 3629   1.974   2.168   1.360
  910SOL    HW2 3630   1.819   2.166   1.410
  911SOL     OW 3631   0.508   4.461   0.480
  911SOL    HW1 3632   0.452   4.396   0.428
  911SOL    HW2 3633   0.605   4.442   0.463
  912SOL     OW 3634   1.380   0.432   6.168
  912SOL    HW1 3635   1.381   0.395   6.261
  912SOL    HW2 3636   1.286   0.434   6.134
  913SOL     OW 3637   2.219   1.504   1.716
  913SOL    HW1 3638   2.269   1.580   1.759
  913SOL    HW2 3639   2.135   1.486   1.767
  914SOL     OW 3640   2.691   6.354   3.273
  914SOL    HW1 3641   2.649   6.280   3.325
  914SOL    HW2 3642   2.791   6.344   3.276
  915SOL     OW 3643   1.507   2.194   6.690
  915SOL    HW1 3644   1.453   2.278   6.695
  915SOL    HW2 3645   1.583   2.200   6.755
  916SOL     OW 3646   0.919   3.296   2.592
  916SOL    HW1 3647   1.011   3.333   2.603
  916SOL    HW2 3648   0.921   3.198   2.610
  917SOL     OW 3649   3.353   2.379   6.691
  917SOL    HW1 3650   3.350   2.436   6.774
  917SOL    HW2 3651   3.281   2.408   6.628
  918SOL     OW 3652   1.591   0.870   5.537
  918SOL    HW1 3653   1.666   0.824   5.585
  918SOL    HW2 3654   1.586   0.835   5.443
  919SOL     OW 3655   2.359   0.333   1.216
  919SOL    HW1 3656   2.275   0.376   1.183
  919SOL    HW2 3657   2.395   0.271   1.146
  920SOL     OW 3658   2.188   1.075   3.949
  920SOL    HW1 3659   2.282   1.073   3.983
  920SOL    HW2 3660   2.187   1.116   3.858
  921SOL     OW 3661   4.939   4.864   6.294
  921SOL    HW1 3662   5.000   4.907   6.361
  921SOL    HW2 3663   4.938   4.919   6.210
  922SOL     OW 3664   2.178   3.909   6.171
  922SOL    HW1 3665   2.234   3.952   6.100
  922SOL    HW2 3666   2.132   3.829   6.133
  923SOL     OW 3667   4.220   1.328   6.743
  923SOL    HW1 3668   4.139   1.383   6.722
  923SOL    HW2 3669   4.191   1.241   6.783
  924SOL     OW 3670   6.378   4.041   3.118
  924SOL    HW1 3671   6.354   3.946   3.102
  924SOL    HW2 3672   6.334   4.073   3.202
  925SOL     OW 3673   6.263   2.196   3.110
  925SOL    HW1 3674   6.232   2.266   3.046
  925SOL    HW2 3675   6.327   2.134   3.064
  926SOL     OW 3676   5.621   6.379   1.204
  926SOL    HW1 3677   5.521   6.379   1.192
  926SOL    HW2 3678   5.665   6.401   1.117
  927SOL     OW 3679   4.622   5.127   4.835
  927SOL    HW1 3680   4.540   5.072   4.851
  927SOL    HW2 3681   4.694   5.069   4.796
  928SOL     OW 3682   0.666   1.289   1.288
  928SOL    HW1 3683   0.643   1.379   1.251
  928SOL    HW2 3684   0.765   1.275   1.283
  929SOL     OW 3685   0.538   2.445   2.419
  929SOL    HW1 3686   0.448   2.453   2.376
  929SOL    HW2 3687   0.574   2.352   2.403
  930SOL     OW 3688   5.208   5.727   2.943
  930SOL    HW1 3689   5.155   5.721   3.028
  930SOL    HW2 3690   5.163   5.673   2.872
  931SOL     OW 3691   1.761   3.085   2.580
  931SOL    HW1 3692   1.830   3.028   2.535
  931SOL    HW2 3693   1.703   3.128   2.511
  932SOL     OW 3694   4.547   6.634   1.367
  932SOL    HW1 3695   4.546   6.539   1.335
  932SOL    HW2 3696   4.491   6.642   1.449
  933SOL     OW 3697   1.757   5.956   3.906
  933SOL    HW1 3698   1.694   5.935   3.831
  933SOL    HW2 3699   1.851   5.938   3.877
  934SOL     OW 3700   3.350   0.772   5.306
  934SOL    HW1 3701   3.449   0.782   5.308
  934SOL    HW2 3702   3.318   0.777   5.212
  935SOL     OW 3703   2.273   3.025   5.989
  935SOL    HW1 3704   2.223   3.026   6.076
  935SOL    HW2 3705   2.241   2.947   5.934
  936SOL     OW 3706   0.222   2.103   1.774
  936SOL    HW1 3707   0.198   2.200   1.785
  936SOL    HW2 3708   0.304   2.095   1.717
  937SOL     OW 3709   5.274   2.314   3.759
  937SOL    HW1 3710   5.237   2.222   3.747
  937SOL    HW2 3711   5.201   2.376   3.785
  938SOL     OW 3712   6.940   1.584   0.058
  938SOL    HW1 3713   7.001   1.575   0.136
  938SOL    HW2 3714   6.852   1.542   0.080
  939SOL     OW 3715   6.415   0.562   5.901
  939SOL    HW1 3716   6.462   0.599   5.820
  939SOL    HW2 3717   6.470   0.489   5.941
  940SOL     OW 3718   0.822   0.742   4.006
  940SOL    HW1 3719   0.867   0.757   3.918
  940SOL    HW2 3720   0.768   0.822   4.031
  941SOL     OW 3721   5.120   3.012   5.322
  941SOL    HW1 3722   5.124   3.024   5.223
  941SOL    HW2 3723   5.137   3.099   5.367
  942SOL     OW 3724   5.171   0.170   5.379
  942SOL    HW1 3725   5.099   0.102   5.367
  942SOL    HW2 3726   5.134   0.261   5.361
  943SOL     OW 3727   5.920   2.019   0.235
  943SOL    HW1 3728   5.871   1.984   0.315
  943SOL    HW2 3729   5.887   1.972   0.153
  944SOL     OW 3730   5.739   3.947   4.853
  944SOL    HW1 3731   5.775   3.858   4.825
  944SOL    HW2 3732   5.790   3.980   4.932
  945SOL     OW 3733   5.254   3.548   5.440
  945SOL    HW1 3734   5.196   3.578   5.516
  945SOL    HW2 3735   5.287   3.629   5.391
  946SOL     OW 3736   5.658   2.914   6.203
  946SOL    HW1 3737   5.709   2.939   6.285
  946SOL    HW2 3738   5.716   2.925   6.123
  947SOL     OW 3739   0.921   2.698   5.545
  947SOL    HW1 3740   1.005   2.665   5.503
  947SOL    HW2 3741   0.858   2.621   5.557
  948SOL     OW 3742   4.111   1.875   0.415
  948SOL    HW1 3743   4.136   1.785   0.449
  948SOL    HW2 3744   4.064   1.866   0.326
  949SOL     OW 3745   5.908   5.646   6.900
  949SOL    HW1 3746   5.901   5.589   6.818
  949SOL    HW2 3747   5.905   5.589   6.982
  950SOL     OW 3748   4.194   4.935   0.448
  950SOL    HW1 3749   4.283   4.908   0.413
  950SOL    HW2 3750   4.201   5.025   0.491
  951SOL     OW 3751   1.037   2.585   3.493
  951SOL    HW1 3752   1.040   2.594   3.592
  951SOL    HW2 3753   0.943   2.570   3.463
  952SOL     OW 3754   5.210   1.221   1.642
  952SOL    HW1 3755   5.233   1.318   1.635
  952SOL    HW2 3756   5.112   1.212   1.662
  953SOL     OW 3757   3.854   6.284   6.017
  953SOL    HW1 3758   3.870   6.367   5.964
  953SOL    HW2 3759   3.768   6.293   6.068
  954SOL     OW 3760   0.674   6.769   1.410
  954SOL    HW1 3761   0.711   6.812   1.328
  954SOL    HW2 3762   0.611   6.696   1.384
  955SOL     OW 3763   6.421   6.545   2.548
  955SOL    HW1 3764   6.498   6.481   2.554
  955SOL    HW2 3765   6.451   6.636   2.575
  956SOL     OW 3766   0.944   2.679   0.043
  956SOL    HW1 3767   0.921   2.680   6.969
  956SOL    HW2 3768   0.997   2.597   0.063
  957SOL     OW 3769   2.433   6.461   5.226
  957SOL    HW1 3770   2.340   6.481   5.256
  957SOL    HW2 3771   2.498   6.486   5.297
  958SOL     OW 3772   4.872   2.389   0.554
  958SOL    HW1 3773   4.901   2.300   0.587
  958SOL    HW2 3774   4.894   2.459   0.622
  959SOL     OW 3775   1.471   3.903   2.389
  959SOL    HW1 3776   1.518   3.919   2.476
  959SOL    HW2 3777   1.435   3.810   2.388
  960SOL     OW 3778   1.331   5.602   5.550
  960SOL    HW1 3779   1.345   5.551   5.466
  960SOL    HW2 3780   1.362   5.548   5.628
  961SOL     OW 3781   3.534   0.011   1.227
  961SOL    HW1 3782   3.447   6.997   1.194
  961SOL    HW2 3783   3.518   0.098   1.273
  962SOL     OW 3784   1.659   6.541   4.025
  962SOL    HW1 3785   1.560   6.538   4.035
  962SOL    HW2 3786   1.683   6.542   3.928
  963SOL     OW 3787   6.133   0.304   2.340
  963SOL    HW1 3788   6.043   0.342   2.360
  963SOL    HW2 3789   6.150   0.306   2.242
  964SOL     OW 3790   5.148   3.621   1.081
  964SOL    HW1 3791   5.098   3.584   1.003
  964SOL    HW2 3792   5.185   3.711   1.057
  965SOL     OW 3793   1.262   2.425   0.749
  965SOL    HW1 3794   1.275   2.419   0.650
  965SOL    HW2 3795   1.187   2.364   0.776
  966SOL     OW 3796   6.911   2.346   1.702
  966SOL    HW1 3797   6.871   2.328   1.612
  966SOL    HW2 3798   6.852   2.409   1.752
  967SOL     OW 3799   0.956   5.972   2.515
  967SOL    HW1 3800   0.995   5.900   2.573
  967SOL    HW2 3801   0.869   5.940   2.477
  968SOL     OW 3802   6.481   4.402   2.093
  968SOL    HW1 3803   6.452   4.353   2.011
  968SOL    HW2 3804   6.533   4.483   2.066
  969SOL     OW 3805   4.013   5.890   6.791
  969SOL    HW1 3806   4.067   5.973   6.776
  969SOL    HW2 3807   4.016   5.833   6.708
  970SOL     OW 3808   4.400   2.474   5.367
  970SOL    HW1 3809   4.488   2.453   5.409
  970SOL    HW2 3810   4.389   2.573   5.358
  971SOL     OW 3811   0.859   2.566   1.516
  971SOL    HW1 3812   0.866   2.568   1.616
  971SOL    HW2 3813   0.823   2.477   1.487
  972SOL     OW 3814   6.748   6.341   1.539
  972SOL    HW1 3815   6.694   6.259   1.561
  972SOL    HW2 3816   6.767   6.391   1.623
  973SOL     OW 3817   5.822   3.988   5.779
  973SOL    HW1 3818   5.909   3.940   5.784
  973SOL    HW2 3819   5.792   3.991   5.683
  974SOL     OW 3820   3.075   1.536   4.037
  974SOL    HW1 3821   3.139   1.565   4.108
  974SOL    HW2 3822   3.063   1.611   3.971
  975SOL     OW 3823   3.508   6.498   5.341
  975SOL    HW1 3824   3.450   6.481   5.262
  975SOL    HW2 3825   3.454   6.539   5.414
  976SOL     OW 3826   6.993   6.402   3.674
  976SOL    HW1 3827   6.978   6.403   3.773
  976SOL    HW2 3828   6.904   6.402   3.627
  977SOL     OW 3829   1.541   2.497   2.758
  977SOL    HW1 3830   1.539   2.398   2.743
  977SOL    HW2 3831   1.595   2.541   2.685
  978SOL     OW 3832   6.134   3.395   5.054
  978SOL    HW1 3833   6.211   3.334   5.074
  978SOL    HW2 3834   6.090   3.424   5.139
  979SOL     OW 3835   5.645   1.432   3.398
  979SOL    HW1 3836   5.658   1.428   3.299
  979SOL    HW2 3837   5.656   1.526   3.430
  980SOL     OW 3838   6.594   0.842   4.569
  980SOL    HW1 3839   6.549   0.915   4.620
  980SOL    HW2 3840   6.692   0.860   4.565
  981SOL     OW 3841   6.906   3.336   5.408
  981SOL    HW1 3842   6.883   3.398   5.483
  981SOL    HW2 3843   6.956   3.387   5.337
  982SOL     OW 3844   1.536   2.993   1.595
  982SOL    HW1 3845   1.630   2.964   1.580
  982SOL    HW2 3846   1.488   2.925   1.650
  983SOL     OW 3847   5.723   1.653   2.906
  983SOL    HW1 3848   5.689   1.704   2.827
  983SOL    HW2 3849   5.767   1.569   2.876
  984SOL     OW 3850   4.809   1.298   4.552
  984SOL    HW1 3851   4.795   1.380   4.607
  984SOL    HW2 3852   4.819   1.324   4.456
  985SOL     OW 3853   3.038   4.662   0.654
  985SOL    HW1 3854   3.050   4.761   0.659
  985SOL    HW2 3855   3.099   4.625   0.584
  986SOL     OW 3856   3.942   5.366   6.566
  986SOL    HW1 3857   4.003   5.371   6.487
  986SOL    HW2 3858   3.945   5.452   6.616
  987SOL     OW 3859   2.991   6.827   2.071
  987SOL    HW1 3860   3.058   6.793   2.006
  987SOL    HW2 3861   2.946   6.751   2.118
  988SOL     OW 3862   3.607   4.217   1.928
  988SOL    HW1 3863   3.654   4.305   1.930
  988SOL    HW2 3864   3.665   4.147   1.969
  989SOL     OW 3865   1.018   0.082   4.794
  989SOL    HW1 3866   0.983   0.171   4.763
  989SOL    HW2 3867   1.046   0.028   4.715
  990SOL     OW 3868   4.784   6.442   3.707
  990SOL    HW1 3869   4.880   6.466   3.698
  990SOL    HW2 3870   4.766   6.357   3.658
  991SOL     OW 3871   6.588   1.237   5.398
  991SOL    HW1 3872   6.547   1.284   5.476
  991SOL    HW2 3873   6.664   1.180   5.430
  992SOL     OW 3874   0.123   3.083   0.819
  992SOL    HW1 3875   0.188   3.156   0.838
  992SOL    HW2 3876   0.066   3.068   0.900
  993SOL     OW 3877   3.171   5.130   3.944
  993SOL    HW1 3878   3.143   5.054   3.886
  993SOL    HW2 3879   3.262   5.161   3.916
  994SOL     OW 3880   3.381   4.118   2.095
  994SOL    HW1 3881   3.306   4.129   2.030
  994SOL    HW2 3882   3.468   4.140   2.050
  995SOL     OW 3883   0.379   0.971   5.086
  995SOL    HW1 3884   0.330   0.963   5.173
  995SOL    HW2 3885   0.314   0.964   5.011
  996SOL     OW 3886   1.234   3.886   1.826
  996SOL    HW1 3887   1.148   3.872   1.778
  996SOL    HW2 3888   1.217   3.932   1.913
  997SOL     OW 3889   7.017   1.361   1.486
  997SOL    HW1 3890   0.089   1.356   1.517
  997SOL    HW2 3891   7.007   1.306   1.403
  998SOL     OW 3892   4.752   0.206   3.112
  998SOL    HW1 3893   4.762   0.117   3.155
  998SOL    HW2 3894   4.700   0.267   3.173
  999SOL     OW 3895   7.014   5.468   1.410
  999SOL    HW1 3896   0.058   5.512   1.470
  999SOL    HW2 3897   0.006   5.497   1.316
 1000SOL     OW 3898   4.227   2.228   4.221
 1000SOL    HW1 3899   4.272   2.317   4.217
 1000SOL    HW2 3900   4.296   2.156   4.232
 1001SOL     OW 3901   4.466   0.164   5.480
 1001SOL    HW1 3902   4.414   0.084   5.511
 1001SOL    HW2 3903   4.420   0.247   5.510
 1002SOL     OW 3904   6.701   1.328   0.364
 1002SOL    HW1 3905   6.780   1.288   0.410
 1002SOL    HW2 3906   6.617   1.289   0.403
 1003SOL     OW 3907   4.531   4.887   2.735
 1003SOL    HW1 3908   4.507   4.791   2.743
 1003SOL    HW2 3909   4.457   4.943   2.772
 1004SOL     OW 3910   5.846   5.426   0.538
 1004SOL    HW1 3911   5.927   5.435   0.596
 1004SOL    HW2 3912   5.771   5.387   0.592
 1005SOL     OW 3913   6.518   6.289   3.540
 1005SOL    HW1 3914   6.497   6.219   3.472
 1005SOL    HW2 3915   6.436   6.345   3.557
 1006SOL     OW 3916   2.236   4.233   0.890
 1006SOL    HW1 3917   2.204   4.140   0.869
 1006SOL    HW2 3918   2.335   4.233   0.902
 1007SOL     OW 3919   1.020   0.345   3.619
 1007SOL    HW1 3920   0.928   0.378   3.637
 1007SOL    HW2 3921   1.086   0.417   3.640
 1008SOL     OW 3922   2.536   2.529   3.705
 1008SOL    HW1 3923   2.522   2.431   3.720
 1008SOL    HW2 3924   2.597   2.542   3.627
 1009SOL     OW 3925   1.544   5.545   5.194
 1009SOL    HW1 3926   1.532   5.538   5.095
 1009SOL    HW2 3927   1.457   5.532   5.240
 1010SOL     OW 3928   4.630   1.144   6.638
 1010SOL    HW1 3929   4.727   1.124   6.621
 1010SOL    HW2 3930   4.598   1.091   6.716
 1011SOL     OW 3931   3.692   5.798   3.612
 1011SOL    HW1 3932   3.632   5.863   3.659
 1011SOL    HW2 3933   3.736   5.845   3.534
 1012SOL     OW 3934   4.728   5.569   0.067
 1012SOL    HW1 3935   4.796   5.618   0.122
 1012SOL    HW2 3936   4.773   5.495   0.017
 1013SOL     OW 3937   0.479   1.610   1.454
 1013SOL    HW1 3938   0.546   1.631   1.524
 1013SOL    HW2 3939   0.493   1.670   1.375
 1014SOL     OW 3940   5.372   0.744   6.314
 1014SOL    HW1 3941   5.365   0.764   6.411
 1014SOL    HW2 3942   5.452   0.686   6.298
 1015SOL     OW 3943   2.999   5.974   4.178
 1015SOL    HW1 3944   2.949   5.901   4.224
 1015SOL    HW2 3945   2.949   6.003   4.096
 1016SOL     OW 3946   4.664   2.675   1.248
 1016SOL    HW1 3947   4.589   2.712   1.193
 1016SOL    HW2 3948   4.629   2.645   1.336
 1017SOL     OW 3949   4.639   1.929   7.020
 1017SOL    HW1 3950   4.603   1.943   0.088
 1017SOL    HW2 3951   4.647   1.831   7.002
 1018SOL     OW 3952   1.839   3.353   2.135
 1018SOL    HW1 3953   1.774   3.340   2.059
 1018SOL    HW2 3954   1.797   3.411   2.205
 1019SOL     OW 3955   6.291   0.629   0.194
 1019SOL    HW1 3956   6.269   0.674   0.281
 1019SOL    HW2 3957   6.291   0.696   0.120
 1020SOL     OW 3958   2.839   1.801   1.227
 1020SOL    HW1 3959   2.916   1.864   1.239
 1020SOL    HW2 3960   2.861   1.712   1.267
 1021SOL     OW 3961   6.442   1.711   1.089
 1021SOL    HW1 3962   6.504   1.652   1.141
 1021SOL    HW2 3963   6.482   1.729   0.998
 1022SOL     OW 3964   4.093   2.757   6.731
 1022SOL    HW1 3965   4.098   2.853   6.704
 1022SOL    HW2 3966   4.159   2.704   6.678
 1023SOL     OW 3967   5.242   1.147   3.888
 1023SOL    HW1 3968   5.272   1.054   3.907
 1023SOL    HW2 3969   5.179   1.147   3.811
 1024SOL     OW 3970   6.151   1.649   3.678
 1024SOL    HW1 3971   6.146   1.646   3.578
 1024SOL    HW2 3972   6.069   1.606   3.716
 1025SOL     OW 3973   3.172   4.298   1.156
 1025SOL    HW1 3974   3.256   4.319   1.106
 1025SOL    HW2 3975   3.163   4.199   1.166
 1026SOL     OW 3976   1.174   2.952   6.582
 1026SOL    HW1 3977   1.253   2.891   6.576
 1026SOL    HW2 3978   1.170   3.008   6.499
 1027SOL     OW 3979   2.328   5.156   2.188
 1027SOL    HW1 3980   2.299   5.093   2.261
 1027SOL    HW2 3981   2.419   5.190   2.208
 1028SOL     OW 3982   2.249   5.896   0.934
 1028SOL    HW1 3983   2.329   5.843   0.962
 1028SOL    HW2 3984   2.228   5.965   1.004
 1029SOL     OW 3985   3.306   0.450   5.788
 1029SOL    HW1 3986   3.307   0.450   5.888
 1029SOL    HW2 3987   3.386   0.499   5.753
 1030SOL     OW 3988   3.600   4.211   4.979
 1030SOL    HW1 3989   3.531   4.258   5.034
 1030SOL    HW2 3990   3.656   4.153   5.038
 1031SOL     OW 3991   2.204   5.566   1.631
 1031SOL    HW1 3992   2.245   5.476   1.613
 1031SOL    HW2 3993   2.266   5.620   1.688
 1032SOL     OW 3994   2.214   0.730   4.234
 1032SOL    HW1 3995   2.176   0.648   4.277
 1032SOL    HW2 3996   2.261   0.785   4.303
 1033SOL     OW 3997   1.950   6.165   3.080
 1033SOL    HW1 3998   2.018   6.203   3.017
 1033SOL    HW2 3999   1.992   6.093   3.135
 1034SOL     OW 4000   1.531   5.980   2.700
 1034SOL    HW1 4001   1.440   5.957   2.667
 1034SOL    HW2 4002   1.578   5.896   2.729
 1035SOL     OW 4003   2.992   1.011   4.294
 1035SOL    HW1 4004   3.045   1.093   4.272
 1035SOL    HW2 4005   2.913   1.005   4.234
 1036SOL     OW 4006   4.442   0.525   6.785
 1036SOL    HW1 4007   4.432   0.538   6.686
 1036SOL    HW2 4008   4.525   0.572   6.816
 1037SOL     OW 4009   3.160   1.904   6.391
 1037SOL    HW1 4010   3.196   1.830   6.448
 1037SOL    HW2 4011   3.198   1.991   6.422
 1038SOL     OW 4012   2.718   1.389   4.482
 1038SOL    HW1 4013   2.630   1.422   4.518
 1038SOL    HW2 4014   2.766   1.339   4.554
 1039SOL     OW 4015   4.086   1.395   3.715
 1039SOL    HW1 4016   4.180   1.367   3.697
 1039SOL    HW2 4017   4.028   1.369   3.639
 1040SOL     OW 4018   6.430   3.806   3.695
 1040SOL    HW1 4019   6.493   3.743   3.740
 1040SOL    HW2 4020   6.481   3.879   3.650
 1041SOL     OW 4021   0.798   6.969   4.605
 1041SOL    HW1 4022   0.897   6.953   4.604
 1041SOL    HW2 4023   0.752   6.890   4.645
 1042SOL     OW 4024   5.192   3.897   1.003
 1042SOL    HW1 4025   5.203   3.996   1.013
 1042SOL    HW2 4026   5.242   3.866   0.922
 1043SOL     OW 4027   3.344   1.061   6.501
 1043SOL    HW1 4028   3.245   1.056   6.516
 1043SOL    HW2 4029   3.391   1.009   6.573
 1044SOL     OW 4030   3.995   3.806   1.750
 1044SOL    HW1 4031   4.034   3.853   1.671
 1044SOL    HW2 4032   4.064   3.744   1.789
 1045SOL     OW 4033   3.576   1.464   3.529
 1045SOL    HW1 4034   3.628   1.538   3.571
 1045SOL    HW2 4035   3.601   1.455   3.433
 1046SOL     OW 4036   3.864   1.099   2.119
 1046SOL    HW1 4037   3.887   1.175   2.180
 1046SOL    HW2 4038   3.843   1.135   2.028
 1047SOL     OW 4039   0.783   4.974   2.021
 1047SOL    HW1 4040   0.723   4.902   1.985
 1047SOL    HW2 4041   0.872   4.967   1.976
 1048SOL     OW 4042   6.449   4.459   5.215
 1048SOL    HW1 4043   6.427   4.395   5.142
 1048SOL    HW2 4044   6.479   4.546   5.175
 1049SOL     OW 4045   1.044   3.128   5.092
 1049SOL    HW1 4046   1.128   3.100   5.140
 1049SOL    HW2 4047   1.067   3.192   5.019
 1050SOL     OW 4048   3.429   0.717   6.882
 1050SOL    HW1 4049   3.416   0.627   6.923
 1050SOL    HW2 4050   3.381   0.786   6.937
 1051SOL     OW 4051   4.805   5.295   1.924
 1051SOL    HW1 4052   4.894   5.291   1.880
 1051SOL    HW2 4053   4.770   5.389   1.921
 1052SOL     OW 4054   3.138   6.688   4.140
 1052SOL    HW1 4055   3.194   6.618   4.184
 1052SOL    HW2 4056   3.043   6.658   4.138
 1053SOL     OW 4057   4.527   4.798   3.110
 1053SOL    HW1 4058   4.530   4.699   3.097
 1053SOL    HW2 4059   4.432   4.828   3.119
 1054SOL     OW 4060   3.703   6.167   3.795
 1054SOL    HW1 4061   3.695   6.228   3.715
 1054SOL    HW2 4062   3.768   6.207   3.860
 1055SOL     OW 4063   4.557   5.221   4.537
 1055SOL    HW1 4064   4.619   5.221   4.459
 1055SOL    HW2 4065   4.599   5.172   4.613
 1056SOL     OW 4066   1.325   5.853   5.461
 1056SOL    HW1 4067   1.356   5.765   5.497
 1056SOL    HW2 4068   1.228   5.846   5.437
 1057SOL     OW 4069   3.858   4.139   1.603
 1057SOL    HW1 4070   3.884   4.124   1.698
 1057SOL    HW2 4071   3.759   4.139   1.595
 1058SOL     OW 4072   3.807   0.286   1.375
 1058SOL    HW1 4073   3.797   0.306   1.278
 1058SOL    HW2 4074   3.750   0.208   1.399
 1059SOL     OW 4075   3.229   1.509   1.095
 1059SOL    HW1 4076   3.245   1.516   0.996
 1059SOL    HW2 4077   3.249   1.596   1.138
 1060SOL     OW 4078   2.527   2.251   5.052
 1060SOL    HW1 4079   2.458   2.301   4.999
 1060SOL    HW2 4080   2.482   2.181   5.107
 1061SOL     OW 4081   3.214   6.313   1.318
 1061SOL    HW1 4082   3.298   6.265   1.343
 1061SOL    HW2 4083   3.235   6.383   1.249
 1062SOL     OW 4084   4.997   4.367   5.523
 1062SOL    HW1 4085   4.946   4.439   5.569
 1062SOL    HW2 4086   5.077   4.406   5.477
 1063SOL     OW 4087   2.305   2.588   5.757
 1063SOL    HW1 4088   2.333   2.504   5.803
 1063SOL    HW2 4089   2.383   2.629   5.711
 1064SOL     OW 4090   0.082   3.796   1.618
 1064SOL    HW1 4091   0.136   3.712   1.613
 1064SOL    HW2 4092   7.008   3.772   1.619
 1065SOL     OW 4093   5.298   5.621   5.320
 1065SOL    HW1 4094   5.377   5.623   5.382
 1065SOL    HW2 4095   5.326   5.583   5.232
 1066SOL     OW 4096   3.786   0.361   3.660
 1066SOL    HW1 4097   3.871   0.313   3.682
 1066SOL    HW2 4098   3.730   0.369   3.743
 1067SOL     OW 4099   1.726   3.186   1.513
 1067SOL    HW1 4100   1.720   3.242   1.430
 1067SOL    HW2 4101   1.651   3.120   1.513
 1068SOL     OW 4102   0.740   3.934   1.150
 1068SOL    HW1 4103   0.640   3.934   1.148
 1068SOL    HW2 4104   0.775   3.870   1.082
 1069SOL     OW 4105   3.670   3.911   1.464
 1069SOL    HW1 4106   3.629   3.981   1.522
 1069SOL    HW2 4107   3.700   3.951   1.378
 1070SOL     OW 4108   2.513   0.350   0.417
 1070SOL    HW1 4109   2.528   0.448   0.403
 1070SOL    HW2 4110   2.470   0.311   0.335
 1071SOL     OW 4111   4.286   6.149   3.638
 1071SOL    HW1 4112   4.373   6.123   3.678
 1071SOL    HW2 4113   4.300   6.222   3.570
 1072SOL     OW 4114   3.705   5.817   3.107
 1072SOL    HW1 4115   3.610   5.785   3.112
 1072SOL    HW2 4116   3.721   5.857   3.017
 1073SOL     OW 4117   2.826   4.957   2.848
 1073SOL    HW1 4118   2.883   4.907   2.782
 1073SOL    HW2 4119   2.852   4.930   2.941
 1074SOL     OW 4120   1.501   5.340   2.265
 1074SOL    HW1 4121   1.458   5.299   2.346
 1074SOL    HW2 4122   1.600   5.330   2.270
 1075SOL     OW 4123   0.157   4.145   2.934
 1075SOL    HW1 4124   0.250   4.171   2.910
 1075SOL    HW2 4125   0.106   4.226   2.964
 1076SOL     OW 4126   0.113   4.484   3.326
 1076SOL    HW1 4127   0.020   4.512   3.303
 1076SOL    HW2 4128   0.115   4.386   3.346
 1077SOL     OW 4129   4.769   0.706   0.838
 1077SOL    HW1 4130   4.788   0.636   0.907
 1077SOL    HW2 4131   4.673   0.733   0.844
 1078SOL     OW 4132   0.636   3.236   2.008
 1078SOL    HW1 4133   0.711   3.175   2.031
 1078SOL    HW2 4134   0.669   3.330   2.006
 1079SOL     OW 4135   2.502   5.234   2.412
 1079SOL    HW1 4136   2.448   5.209   2.492
 1079SOL    HW2 4137   2.598   5.239   2.437
 1080SOL     OW 4138   1.308   5.512   4.461
 1080SOL    HW1 4139   1.378   5.485   4.395
 1080SOL    HW2 4140   1.239   5.440   4.468
 1081SOL     OW 4141   1.108   1.279   0.304
 1081SOL    HW1 4142   1.133   1.350   0.239
 1081SOL    HW2 4143   1.190   1.231   0.335
 1082SOL     OW 4144   1.974   6.918   6.964
 1082SOL    HW1 4145   1.982   6.959   6.873
 1082SOL    HW2 4146   1.887   6.945   7.005
 1083SOL     OW 4147   3.877   2.582   1.552
 1083SOL    HW1 4148   3.824   2.507   1.591
 1083SOL    HW2 4149   3.831   2.669   1.571
 1084SOL     OW 4150   6.233   3.730   0.302
 1084SOL    HW1 4151   6.304   3.680   0.352
 1084SOL    HW2 4152   6.167   3.767   0.366
 1085SOL     OW 4153   2.434   4.638   3.227
 1085SOL    HW1 4154   2.456   4.734   3.208
 1085SOL    HW2 4155   2.468   4.581   3.151
 1086SOL     OW 4156   4.106   5.335   1.816
 1086SOL    HW1 4157   4.118   5.282   1.900
 1086SOL    HW2 4158   4.182   5.400   1.806
 1087SOL     OW 4159   3.703   3.148   5.345
 1087SOL    HW1 4160   3.735   3.240   5.321
 1087SOL    HW2 4161   3.645   3.113   5.271
 1088SOL     OW 4162   5.538   4.237   3.526
 1088SOL    HW1 4163   5.476   4.218   3.602
 1088SOL    HW2 4164   5.506   4.316   3.475
 1089SOL     OW 4165   5.872   0.343   3.000
 1089SOL    HW1 4166   5.906   0.335   3.094
 1089SOL    HW2 4167   5.917   0.274   2.943
 1090SOL     OW 4168   1.127   1.919   5.371
 1090SOL    HW1 4169   1.066   1.993   5.344
 1090SOL    HW2 4170   1.193   1.902   5.297
 1091SOL     OW 4171   0.734   2.482   4.825
 1091SOL    HW1 4172   0.643   2.522   4.813
 1091SOL    HW2 4173   0.789   2.542   4.882
 1092SOL     OW 4174   2.012   4.465   1.229
 1092SOL    HW1 4175   2.063   4.527   1.288
 1092SOL    HW2 4176   2.028   4.490   1.133
 1093SOL     OW 4177   0.375   1.770   2.580
 1093SOL    HW1 4178   0.356   1.857   2.533
 1093SOL    HW2 4179   0.310   1.701   2.548
 1094SOL     OW 4180   0.612   6.249   1.969
 1094SOL    HW1 4181   0.659   6.161   1.969
 1094SOL    HW2 4182   0.670   6.318   2.012
 1095SOL     OW 4183   5.725   3.409   6.035
 1095SOL    HW1 4184   5.640   3.449   6.001
 1095SOL    HW2 4185   5.803   3.461   5.998
 1096SOL     OW 4186   3.951   4.353   1.411
 1096SOL    HW1 4187   3.943   4.287   1.486
 1096SOL    HW2 4188   4.047   4.378   1.398
 1097SOL     OW 4189   1.981   4.606   5.189
 1097SOL    HW1 4190   1.896   4.579   5.145
 1097SOL    HW2 4191   2.006   4.537   5.257
 1098SOL     OW 4192   4.158   1.296   3.175
 1098SOL    HW1 4193   4.179   1.200   3.194
 1098SOL    HW2 4194   4.145   1.308   3.076
 1099SOL     OW 4195   3.956   1.709   2.470
 1099SOL    HW1 4196   3.892   1.651   2.419
 1099SOL    HW2 4197   3.983   1.787   2.413
 1100SOL     OW 4198   0.702   0.444   0.813
 1100SOL    HW1 4199   0.641   0.445   0.734
 1100SOL    HW2 4200   0.709   0.536   0.852
 1101SOL     OW 4201   5.999   2.600   1.105
 1101SOL    HW1 4202   6.017   2.688   1.060
 1101SOL    HW2 4203   5.911   2.564   1.075
 1102SOL     OW 4204   0.571   4.526   3.824
 1102SOL    HW1 4205   0.556   4.434   3.860
 1102SOL    HW2 4206   0.665   4.535   3.792
 1103SOL     OW 4207   0.460   3.385   1.543
 1103SOL    HW1 4208   0.416   3.322   1.479
 1103SOL    HW2 4209   0.529   3.336   1.596
 1104SOL     OW 4210   2.876   5.217   5.697
 1104SOL    HW1 4211   2.782   5.211   5.664
 1104SOL    HW2 4212   2.940   5.201   5.622
 1105SOL     OW 4213   4.487   5.625   0.476
 1105SOL    HW1 4214   4.512   5.571   0.396
 1105SOL    HW2 4215   4.409   5.683   0.454
 1106SOL     OW 4216   1.436   1.435   5.503
 1106SOL    HW1 4217   1.493   1.508   5.464
 1106SOL    HW2 4218   1.369   1.474   5.565
 1107SOL     OW 4219   1.089   0.383   1.838
 1107SOL    HW1 4220   1.061   0.441   1.762
 1107SOL    HW2 4221   1.188   0.369   1.835
 1108SOL     OW 4222   1.662   1.463   5.689
 1108SOL    HW1 4223   1.742   1.409   5.716
 1108SOL    HW2 4224   1.589   1.401   5.658
 1109SOL     OW 4225   4.605   1.199   3.621
 1109SOL    HW1 4226   4.636   1.111   3.657
 1109SOL    HW2 4227   4.665   1.228   3.547
 1110SOL     OW 4228   3.419   2.817   2.215
 1110SOL    HW1 4229   3.397   2.721   2.230
 1110SOL    HW2 4230   3.460   2.828   2.124
 1111SOL     OW 4231   5.692   6.804   6.798
 1111SOL    HW1 4232   5.609   6.759   6.829
 1111SOL    HW2 4233   5.684   6.903   6.812
 1112SOL     OW 4234   0.307   1.293   2.911
 1112SOL    HW1 4235   0.296   1.392   2.907
 1112SOL    HW2 4236   0.363   1.262   2.835
 1113SOL     OW 4237   6.326   3.740   1.722
 1113SOL    HW1 4238   6.254   3.800   1.756
 1113SOL    HW2 4239   6.286   3.667   1.668
 1114SOL     OW 4240   5.906   1.562   5.362
 1114SOL    HW1 4241   5.919   1.642   5.304
 1114SOL    HW2 4242   5.821   1.571   5.413
 1115SOL     OW 4243   3.102   3.614   0.311
 1115SOL    HW1 4244   3.039   3.650   0.379
 1115SOL    HW2 4245   3.076   3.647   0.220
 1116SOL     OW 4246   4.393   5.377   5.442
 1116SOL    HW1 4247   4.358   5.311   5.508
 1116SOL    HW2 4248   4.478   5.417   5.478
 1117SOL     OW 4249   2.276   3.311   0.945
 1117SOL    HW1 4250   2.368   3.350   0.936
 1117SOL    HW2 4251   2.219   3.344   0.870
 1118SOL     OW 4252   1.805   3.445   3.232
 1118SOL    HW1 4253   1.777   3.350   3.222
 1118SOL    HW2 4254   1.800   3.491   3.144
 1119SOL     OW 4255   3.022   3.699   2.509
 1119SOL    HW1 4256   3.090   3.648   2.457
 1119SOL    HW2 4257   2.982   3.769   2.451
 1120SOL     OW 4258   4.551   0.248   4.167
 1120SOL    HW1 4259   4.525   0.163   4.121
 1120SOL    HW2 4260   4.623   0.294   4.113
 1121SOL     OW 4261   5.165   3.254   2.253
 1121SOL    HW1 4262   5.207   3.200   2.180
 1121SOL    HW2 4263   5.082   3.208   2.285
 1122SOL     OW 4264   5.010   4.968   0.068
 1122SOL    HW1 4265   4.913   4.987   0.085
 1122SOL    HW2 4266   5.020   4.927   7.001
 1123SOL     OW 4267   3.754   0.853   2.057
 1123SOL    HW1 4268   3.811   0.799   1.994
 1123SOL    HW2 4269   3.791   0.945   2.064
 1124SOL     OW 4270   0.599   4.719   4.773
 1124SOL    HW1 4271   0.647   4.669   4.701
 1124SOL    HW2 4272   0.509   4.679   4.788
 1125SOL     OW 4273   3.944   3.415   4.772
 1125SOL    HW1 4274   4.035   3.438   4.740
 1125SOL    HW2 4275   3.877   3.475   4.727
 1126SOL     OW 4276   5.715   0.291   2.561
 1126SOL    HW1 4277   5.633   0.347   2.570
 1126SOL    HW2 4278   5.710   0.214   2.624
 1127SOL     OW 4279   1.168   5.075   6.606
 1127SOL    HW1 4280   1.159   4.982   6.571
 1127SOL    HW2 4281   1.223   5.075   6.689
 1128SOL     OW 4282   2.984   1.630   4.475
 1128SOL    HW1 4283   2.967   1.632   4.376
 1128SOL    HW2 4284   2.938   1.708   4.518
 1129SOL     OW 4285   5.302   0.151   0.027
 1129SOL    HW1 4286   5.373   0.219   0.015
 1129SOL    HW2 4287   5.260   0.131   6.963
 1130SOL     OW 4288   0.450   4.763   5.927
 1130SOL    HW1 4289   0.357   4.747   5.959
 1130SOL    HW2 4290   0.457   4.853   5.885
 1131SOL     OW 4291   0.531   5.059   5.623
 1131SOL    HW1 4292   0.587   4.980   5.647
 1131SOL    HW2 4293   0.467   5.079   5.698
 1132SOL     OW 4294   5.029   0.403   5.302
 1132SOL    HW1 4295   4.977   0.369   5.223
 1132SOL    HW2 4296   5.069   0.491   5.279
 1133SOL     OW 4297   0.727   2.666   0.693
 1133SOL    HW1 4298   0.767   2.622   0.773
 1133SOL    HW2 4299   0.658   2.732   0.723
 1134SOL     OW 4300   6.607   2.855   5.754
 1134SOL    HW1 4301   6.606   2.757   5.770
 1134SOL    HW2 4302   6.526   2.882   5.702
 1135SOL     OW 4303   5.253   1.794   3.037
 1135SOL    HW1 4304   5.185   1.794   2.964
 1135SOL    HW2 4305   5.313   1.873   3.027
 1136SOL     OW 4306   3.876   5.436   4.424
 1136SOL    HW1 4307   3.875   5.337   4.436
 1136SOL    HW2 4308   3.833   5.479   4.504
 1137SOL     OW 4309   1.817   1.188   5.505
 1137SOL    HW1 4310   1.766   1.170   5.590
 1137SOL    HW2 4311   1.894   1.125   5.499
 1138SOL     OW 4312   0.565   4.341   5.810
 1138SOL    HW1 4313   0.471   4.374   5.815
 1138SOL    HW2 4314   0.604   4.363   5.720
 1139SOL     OW 4315   1.219   6.482   1.144
 1139SOL    HW1 4316   1.121   6.470   1.159
 1139SOL    HW2 4317   1.262   6.394   1.128
 1140SOL     OW 4318   3.704   1.677   3.680
 1140SOL    HW1 4319   3.775   1.655   3.747
 1140SOL    HW2 4320   3.623   1.712   3.727
 1141SOL     OW 4321   6.816   6.166   6.009
 1141SOL    HW1 4322   6.870   6.168   6.093
 1141SOL    HW2 4323   6.722   6.193   6.028
 1142SOL     OW 4324   5.842   0.788   4.288
 1142SOL    HW1 4325   5.935   0.823   4.276
 1142SOL    HW2 4326   5.776   0.862   4.272
 1143SOL     OW 4327   4.086   1.899   2.280
 1143SOL    HW1 4328   4.148   1.946   2.342
 1143SOL    HW2 4329   3.995   1.941   2.285
 1144SOL     OW 4330   1.332   6.683   5.601
 1144SOL    HW1 4331   1.241   6.641   5.600
 1144SOL    HW2 4332   1.323   6.782   5.593
 1145SOL     OW 4333   1.344   4.998   4.892
 1145SOL    HW1 4334   1.386   4.950   4.970
 1145SOL    HW2 4335   1.266   4.945   4.859
 1146SOL     OW 4336   5.956   2.225   0.719
 1146SOL    HW1 4337   5.944   2.128   0.697
 1146SOL    HW2 4338   5.993   2.272   0.639
 1147SOL     OW 4339   5.855   2.851   1.895
 1147SOL    HW1 4340   5.791   2.912   1.848
 1147SOL    HW2 4341   5.944   2.856   1.850
 1148SOL     OW 4342   4.225   0.438   0.450
 1148SOL    HW1 4343   4.259   0.531   0.444
 1148SOL    HW2 4344   4.182   0.412   0.363
 1149SOL     OW 4345   6.669   3.020   2.681
 1149SOL    HW1 4346   6.585   3.026   2.735
 1149SOL    HW2 4347   6.747   3.045   2.738
 1150SOL     OW 4348   0.944   4.891   5.735
 1150SOL    HW1 4349   0.973   4.796   5.720
 1150SOL    HW2 4350   1.023   4.945   5.762
 1151SOL     OW 4351   4.538   5.759   6.846
 1151SOL    HW1 4352   4.580   5.691   6.786
 1151SOL    HW2 4353   4.608   5.800   6.905
 1152SOL     OW 4354   0.520   0.737   5.060
 1152SOL    HW1 4355   0.480   0.819   5.100
 1152SOL    HW2 4356   0.608   0.717   5.104
 1153SOL     OW 4357   2.004   5.477   2.228
 1153SOL    HW1 4358   2.071   5.507   2.160
 1153SOL    HW2 4359   2.037   5.394   2.273
 1154SOL     OW 4360   2.186   4.459   1.674
 1154SOL    HW1 4361   2.096   4.430   1.705
 1154SOL    HW2 4362   2.255   4.426   1.737
 1155SOL     OW 4363   2.976   5.470   1.982
 1155SOL    HW1 4364   3.060   5.522   1.965
 1155SOL    HW2 4365   2.905   5.530   2.018
 1156SOL     OW 4366   1.637   1.146   4.122
 1156SOL    HW1 4367   1.708   1.101   4.175
 1156SOL    HW2 4368   1.651   1.128   4.025
 1157SOL     OW 4369   1.045   2.669   4.194
 1157SOL    HW1 4370   1.143   2.660   4.216
 1157SOL    HW2 4371   1.003   2.736   4.255
 1158SOL     OW 4372   4.746   5.296   5.611
 1158SOL    HW1 4373   4.664   5.325   5.662
 1158SOL    HW2 4374   4.805   5.375   5.595
 1159SOL     OW 4375   5.173   5.319   3.435
 1159SOL    HW1 4376   5.264   5.347   3.466
 1159SOL    HW2 4377   5.183   5.252   3.360
 1160SOL     OW 4378   2.224   2.563   0.499
 1160SOL    HW1 4379   2.308   2.594   0.455
 1160SOL    HW2 4380   2.149   2.624   0.474
 1161SOL     OW 4381   3.788   7.009   4.232
 1161SOL    HW1 4382   3.805   6.958   4.316
 1161SOL    HW2 4383   3.872   7.011   4.177
 1162SOL     OW 4384   3.960   4.601   1.717
 1162SOL    HW1 4385   3.987   4.648   1.800
 1162SOL    HW2 4386   4.022   4.523   1.702
 1163SOL     OW 4387   4.747   2.099   2.284
 1163SOL    HW1 4388   4.827   2.120   2.228
 1163SOL    HW2 4389   4.665   2.133   2.238
 1164SOL     OW 4390   5.734   3.649   3.980
 1164SOL    HW1 4391   5.714   3.710   4.056
 1164SOL    HW2 4392   5.792   3.696   3.913
 1165SOL     OW 4393   1.573   4.469   2.208
 1165SOL    HW1 4394   1.615   4.424   2.286
 1165SOL    HW2 4395   1.477   4.487   2.227
 1166SOL     OW 4396   3.628   3.169   6.630
 1166SOL    HW1 4397   3.591   3.098   6.690
 1166SOL    HW2 4398   3.672   3.126   6.551
 1167SOL     OW 4399   4.674   1.822   4.631
 1167SOL    HW1 4400   4.737   1.807   4.707
 1167SOL    HW2 4401   4.584   1.847   4.666
 1168SOL     OW 4402   6.286   6.397   3.496
 1168SOL    HW1 4403   6.267   6.396   3.398
 1168SOL    HW2 4404   6.201   6.412   3.546
 1169SOL     OW 4405   0.767   3.784   1.508
 1169SOL    HW1 4406   0.744   3.873   1.471
 1169SOL    HW2 4407   0.767   3.788   1.608
 1170SOL     OW 4408   2.869   0.745   0.704
 1170SOL    HW1 4409   2.778   0.745   0.746
 1170SOL    HW2 4410   2.918   0.662   0.731
 1171SOL     OW 4411   2.339   6.959   0.663
 1171SOL    HW1 4412   2.351   6.912   0.750
 1171SOL    HW2 4413   2.340   0.034   0.678
 1172SOL     OW 4414   2.947   3.320   4.656
 1172SOL    HW1 4415   2.928   3.291   4.750
 1172SOL    HW2 4416   2.986   3.243   4.605
 1173SOL     OW 4417   5.153   0.601   6.218
 1173SOL    HW1 4418   5.098   0.556   6.288
 1173SOL    HW2 4419   5.226   0.653   6.262
 1174SOL     OW 4420   3.261   6.569   0.809
 1174SOL    HW1 4421   3.184   6.633   0.813
 1174SOL    HW2 4422   3.334   6.602   0.869
 1175SOL     OW 4423   6.608   5.140   4.998
 1175SOL    HW1 4424   6.523   5.098   5.029
 1175SOL    HW2 4425   6.632   5.103   4.908
 1176SOL     OW 4426   6.733   3.888   1.075
 1176SOL    HW1 4427   6.828   3.870   1.101
 1176SOL    HW2 4428   6.707   3.829   0.998
 1177SOL     OW 4429   6.289   3.330   6.946
 1177SOL    HW1 4430   6.252   3.357   6.857
 1177SOL    HW2 4431   6.221   3.275   6.995
 1178SOL     OW 4432   5.320   4.058   1.884
 1178SOL    HW1 4433   5.231   4.097   1.908
 1178SOL    HW2 4434   5.393   4.116   1.921
 1179SOL     OW 4435   2.517   5.863   6.286
 1179SOL    HW1 4436   2.533   5.841   6.189
 1179SOL    HW2 4437   2.578   5.937   6.313
 1180SOL     OW 4438   2.725   1.698   3.743
 1180SOL    HW1 4439   2.713   1.599   3.748
 1180SOL    HW2 4440   2.637   1.743   3.760
 1181SOL     OW 4441   2.172   4.451   3.088
 1181SOL    HW1 4442   2.264   4.450   3.047
 1181SOL    HW2 4443   2.179   4.479   3.184
 1182SOL     OW 4444   1.427   4.453   3.350
 1182SOL    HW1 4445   1.461   4.538   3.389
 1182SOL    HW2 4446   1.447   4.451   3.252
 1183SOL     OW 4447   4.697   5.628   0.659
 1183SOL    HW1 4448   4.610   5.617   0.612
 1183SOL    HW2 4449   4.687   5.603   0.756
 1184SOL     OW 4450   3.190   2.767   5.611
 1184SOL    HW1 4451   3.189   2.669   5.591
 1184SOL    HW2 4452   3.231   2.817   5.534
 1185SOL     OW 4453   2.408   1.775   0.100
 1185SOL    HW1 4454   2.386   1.714   0.024
 1185SOL    HW2 4455   2.368   1.740   0.184
 1186SOL     OW 4456   4.236   0.885   4.950
 1186SOL    HW1 4457   4.285   0.836   4.878
 1186SOL    HW2 4458   4.222   0.824   5.028
 1187SOL     OW 4459   0.259   0.874   5.738
 1187SOL    HW1 4460   0.270   0.814   5.659
 1187SOL    HW2 4461   0.348   0.890   5.781
 1188SOL     OW 4462   1.653   6.819   5.474
 1188SOL    HW1 4463   1.742   6.846   5.438
 1188SOL    HW2 4464   1.637   6.722   5.455
 1189SOL     OW 4465   6.885   0.947   1.482
 1189SOL    HW1 4466   6.890   0.919   1.386
 1189SOL    HW2 4467   6.815   0.894   1.529
 1190SOL     OW 4468   4.295   4.697   2.837
 1190SOL    HW1 4469   4.293   4.757   2.916
 1190SOL    HW2 4470   4.202   4.685   2.801
 1191SOL     OW 4471   3.226   4.958   0.354
 1191SOL    HW1 4472   3.173   4.873   0.357
 1191SOL    HW2 4473   3.164   5.036   0.355
 1192SOL     OW 4474   4.645   5.199   2.271
 1192SOL    HW1 4475   4.610   5.236   2.185
 1192SOL    HW2 4476   4.659   5.274   2.336
 1193SOL     OW 4477   4.025   6.752   3.776
 1193SOL    HW1 4478   4.063   6.747   3.868
 1193SOL    HW2 4479   4.061   6.676   3.721
 1194SOL     OW 4480   6.292   0.507   1.456
 1194SOL    HW1 4481   6.334   0.504   1.365
 1194SOL    HW2 4482   6.199   0.542   1.448
 1195SOL     OW 4483   3.780   6.950   6.866
 1195SOL    HW1 4484   3.693   6.983   6.904
 1195SOL    HW2 4485   3.791   6.985   6.773
 1196SOL     OW 4486   0.543   5.549   2.812
 1196SOL    HW1 4487   0.500   5.471   2.855
 1196SOL    HW2 4488   0.480   5.590   2.746
 1197SOL     OW 4489   3.175   5.347   6.326
 1197SOL    HW1 4490   3.138   5.381   6.412
 1197SOL    HW2 4491   3.274   5.331   6.336
 1198SOL     OW 4492   3.395   1.686   2.536
 1198SOL    HW1 4493   3.331   1.762   2.545
 1198SOL    HW2 4494   3.455   1.683   2.616
 1199SOL     OW 4495   3.374   4.173   3.528
 1199SOL    HW1 4496   3.310   4.108   3.570
 1199SOL    HW2 4497   3.437   4.207   3.598
 1200SOL     OW 4498   3.835   3.745   0.833
 1200SOL    HW1 4499   3.809   3.653   0.804
 1200SOL    HW2 4500   3.755   3.792   0.871
 1201SOL     OW 4501   1.828   0.760   4.527
 1201SOL    HW1 4502   1.734   0.742   4.555
 1201SOL    HW2 4503   1.866   0.834   4.583
 1202SOL     OW 4504   5.886   0.310   5.342
 1202SOL    HW1 4505   5.952   0.306   5.267
 1202SOL    HW2 4506   5.804   0.358   5.313
 1203SOL     OW 4507   6.210   6.716   1.911
 1203SOL    HW1 4508   6.255   6.633   1.880
 1203SOL    HW2 4509   6.274   6.793   1.904
 1204SOL     OW 4510   2.833   6.668   6.994
 1204SOL    HW1 4511   2.762   6.692   6.927
 1204SOL    HW2 4512   2.837   6.569   7.003
 1205SOL     OW 4513   0.744   2.139   5.183
 1205SOL    HW1 4514   0.704   2.221   5.142
 1205SOL    HW2 4515   0.671   2.079   5.215
 1206SOL     OW 4516   0.482   1.691   4.519
 1206SOL    HW1 4517   0.422   1.751   4.466
 1206SOL    HW2 4518   0.576   1.726   4.515
 1207SOL     OW 4519   5.841   6.108   6.409
 1207SOL    HW1 4520   5.785   6.037   6.366
 1207SOL    HW2 4521   5.873   6.077   6.498
 1208SOL     OW 4522   3.905   3.936   3.523
 1208SOL    HW1 4523   3.822   3.962   3.474
 1208SOL    HW2 4524   3.978   3.918   3.457
 1209SOL     OW 4525   6.526   4.037   5.010
 1209SOL    HW1 4526   6.574   3.962   4.966
 1209SOL    HW2 4527   6.526   4.024   5.109
 1210SOL     OW 4528   3.040   6.536   2.799
 1210SOL    HW1 4529   3.023   6.556   2.895
 1210SOL    HW2 4530   3.010   6.612   2.742
 1211SOL     OW 4531   1.461   3.386   3.583
 1211SOL    HW1 4532   1.536   3.409   3.645
 1211SOL    HW2 4533   1.445   3.462   3.520
 1212SOL     OW 4534   2.120   4.069   4.814
 1212SOL    HW1 4535   2.155   4.150   4.767
 1212SOL    HW2 4536   2.190   4.034   4.876
 1213SOL     OW 4537   6.146   2.761   5.573
 1213SOL    HW1 4538   6.079   2.797   5.638
 1213SOL    HW2 4539   6.099   2.725   5.492
 1214SOL     OW 4540   1.549   2.905   2.670
 1214SOL    HW1 4541   1.596   2.973   2.613
 1214SOL    HW2 4542   1.548   2.937   2.765
 1215SOL     OW 4543   0.203   5.415   1.912
 1215SOL    HW1 4544   0.161   5.460   1.834
 1215SOL    HW2 4545   0.211   5.479   1.988
 1216SOL     OW 4546   3.258   0.363   1.856
 1216SOL    HW1 4547   3.267   0.380   1.954
 1216SOL    HW2 4548   3.198   0.285   1.840
 1217SOL     OW 4549   1.355   1.488   2.963
 1217SOL    HW1 4550   1.422   1.444   2.903
 1217SOL    HW2 4551   1.274   1.430   2.972
 1218SOL     OW 4552   0.674   3.634   3.970
 1218SOL    HW1 4553   0.715   3.545   3.949
 1218SOL    HW2 4554   0.697   3.699   3.898
 1219SOL     OW 4555   2.439   5.992   3.633
 1219SOL    HW1 4556   2.357   6.046   3.655
 1219SOL    HW2 4557   2.433   5.903   3.679
 1220SOL     OW 4558   6.267   4.175   2.899
 1220SOL    HW1 4559   6.283   4.271   2.923
 1220SOL    HW2 4560   6.302   4.116   2.972
 1221SOL     OW 4561   5.079   3.553   6.724
 1221SOL    HW1 4562   5.171   3.533   6.688
 1221SOL    HW2 4563   5.028   3.467   6.733
 1222SOL     OW 4564   5.177   5.495   1.278
 1222SOL    HW1 4565   5.263   5.541   1.302
 1222SOL    HW2 4566   5.151   5.521   1.185
 1223SOL     OW 4567   5.833   4.673   4.892
 1223SOL    HW1 4568   5.775   4.626   4.958
 1223SOL    HW2 4569   5.875   4.753   4.935
 1224SOL     OW 4570   4.531   5.283   2.053
 1224SOL    HW1 4571   4.487   5.372   2.039
 1224SOL    HW2 4572   4.586   5.260   1.973
 1225SOL     OW 4573   4.290   1.026   0.267
 1225SOL    HW1 4574   4.282   0.938   0.221
 1225SOL    HW2 4575   4.313   1.097   0.200
 1226SOL     OW 4576   5.434   5.048   0.438
 1226SOL    HW1 4577   5.483   5.066   0.353
 1226SOL    HW2 4578   5.418   4.950   0.447
 1227SOL     OW 4579   5.026   4.826   6.857
 1227SOL    HW1 4580   5.121   4.833   6.828
 1227SOL    HW2 4581   4.966   4.820   6.777
 1228SOL     OW 4582   3.980   3.938   4.246
 1228SOL    HW1 4583   3.882   3.918   4.257
 1228SOL    HW2 4584   4.033   3.856   4.269
 1229SOL     OW 4585   2.233   5.714   2.650
 1229SOL    HW1 4586   2.238   5.732   2.552
 1229SOL    HW2 4587   2.153   5.657   2.669
 1230SOL     OW 4588   5.384   4.890   2.030
 1230SOL    HW1 4589   5.333   4.976   2.031
 1230SOL    HW2 4590   5.322   4.813   2.016
 1231SOL     OW 4591   2.211   2.045   6.877
 1231SOL    HW1 4592   2.132   2.106   6.884
 1231SOL    HW2 4593   2.295   2.099   6.884
 1232SOL     OW 4594   3.156   1.170   5.109
 1232SOL    HW1 4595   3.178   1.174   5.206
 1232SOL    HW2 4596   3.116   1.257   5.080
 1233SOL     OW 4597   6.982   5.777   5.104
 1233SOL    HW1 4598   6.996   5.746   5.198
 1233SOL    HW2 4599   0.032   5.839   5.078
 1234SOL     OW 4600   6.205   3.843   6.831
 1234SOL    HW1 4601   6.253   3.855   6.917
 1234SOL    HW2 4602   6.217   3.924   6.773
 1235SOL     OW 4603   6.383   5.145   1.283
 1235SOL    HW1 4604   6.343   5.205   1.352
 1235SOL    HW2 4605   6.475   5.120   1.310
 1236SOL     OW 4606   1.450   1.630   2.583
 1236SOL    HW1 4607   1.389   1.679   2.646
 1236SOL    HW2 4608   1.462   1.536   2.614
 1237SOL     OW 4609   0.979   6.885   4.949
 1237SOL    HW1 4610   1.071   6.848   4.960
 1237SOL    HW2 4611   0.984   6.974   4.902
 1238SOL     OW 4612   0.774   0.624   4.267
 1238SOL    HW1 4613   0.835   0.688   4.315
 1238SOL    HW2 4614   0.786   0.634   4.169
 1239SOL     OW 4615   5.130   4.664   3.597
 1239SOL    HW1 4616   5.172   4.751   3.623
 1239SOL    HW2 4617   5.180   4.623   3.521
 1240SOL     OW 4618   0.754   3.757   2.204
 1240SOL    HW1 4619   0.848   3.752   2.237
 1240SOL    HW2 4620   0.691   3.734   2.278
 1241SOL     OW 4621   4.065   5.694   5.708
 1241SOL    HW1 4622   4.122   5.757   5.761
 1241SOL    HW2 4623   4.120   5.653   5.635
 1242SOL     OW 4624   2.121   4.470   0.968
 1242SOL    HW1 4625   2.181   4.527   1.024
 1242SOL    HW2 4626   2.164   4.381   0.954
 1243SOL     OW 4627   0.950   3.660   3.573
 1243SOL    HW1 4628   0.999   3.585   3.619
 1243SOL    HW2 4629   0.967   3.655   3.475
 1244SOL     OW 4630   6.596   0.072   5.937
 1244SOL    HW1 4631   6.532   0.029   5.873
 1244SOL    HW2 4632   6.649   0.142   5.890
 1245SOL     OW 4633   4.556   6.361   1.323
 1245SOL    HW1 4634   4.544   6.322   1.414
 1245SOL    HW2 4635   4.653   6.369   1.303
 1246SOL     OW 4636   5.177   1.003   0.753
 1246SOL    HW1 4637   5.259   1.022   0.808
 1246SOL    HW2 4638   5.204   0.976   0.661
 1247SOL     OW 4639   6.629   0.057   3.495
 1247SOL    HW1 4640   6.720   0.051   3.455
 1247SOL    HW2 4641   6.575   7.001   3.467
 1248SOL     OW 4642   0.968   6.584   4.286
 1248SOL    HW1 4643   0.881   6.534   4.284
 1248SOL    HW2 4644   1.015   6.566   4.372
 1249SOL     OW 4645   6.018   5.767   6.453
 1249SOL    HW1 4646   6.085   5.821   6.505
 1249SOL    HW2 4647   5.975   5.824   6.384
 1250SOL     OW 4648   0.434   2.939   5.102
 1250SOL    HW1 4649   0.487   2.910   5.022
 1250SOL    HW2 4650   0.439   3.039   5.110
 1251SOL     OW 4651   2.743   0.797   2.637
 1251SOL    HW1 4652   2.690   0.881   2.629
 1251SOL    HW2 4653   2.832   0.817   2.678
 1252SOL     OW 4654   1.998   5.877   6.380
 1252SOL    HW1 4655   2.090   5.897   6.413
 1252SOL    HW2 4656   1.974   5.782   6.404
 1253SOL     OW 4657   3.456   6.794   6.727
 1253SOL    HW1 4658   3.460   6.732   6.805
 1253SOL    HW2 4659   3.423   6.883   6.756
 1254SOL     OW 4660   5.785   0.619   3.241
 1254SOL    HW1 4661   5.842   0.682   3.293
 1254SOL    HW2 4662   5.821   0.526   3.250
 1255SOL     OW 4663   5.630   1.146   5.817
 1255SOL    HW1 4664   5.711   1.146   5.876
 1255SOL    HW2 4665   5.621   1.056   5.773
 1256SOL     OW 4666   6.956   5.801   4.760
 1256SOL    HW1 4667   6.941   5.712   4.802
 1256SOL    HW2 4668   7.002   5.789   4.672
 1257SOL     OW 4669   0.102   6.028   3.261
 1257SOL    HW1 4670   0.007   6.040   3.290
 1257SOL    HW2 4671   0.123   6.092   3.187
 1258SOL     OW 4672   4.554   5.825   6.092
 1258SOL    HW1 4673   4.593   5.746   6.139
 1258SOL    HW2 4674   4.455   5.813   6.084
 1259SOL     OW 4675   5.781   0.138   5.529
 1259SOL    HW1 4676   5.845   0.177   5.462
 1259SOL    HW2 4677   5.689   0.174   5.513
 1260SOL     OW 4678   3.053   1.424   1.523
 1260SOL    HW1 4679   3.130   1.360   1.514
 1260SOL    HW2 4680   3.072   1.488   1.598
 1261SOL     OW 4681   6.625   4.748   5.087
 1261SOL    HW1 4682   6.657   4.825   5.141
 1261SOL    HW2 4683   6.703   4.689   5.065
 1262SOL     OW 4684   4.105   4.831   1.293
 1262SOL    HW1 4685   4.036   4.771   1.251
 1262SOL    HW2 4686   4.113   4.810   1.390
 1263SOL     OW 4687   6.143   2.269   0.929
 1263SOL    HW1 4688   6.117   2.284   1.024
 1263SOL    HW2 4689   6.062   2.245   0.875
 1264SOL     OW 4690   6.598   2.389   4.326
 1264SOL    HW1 4691   6.553   2.443   4.397
 1264SOL    HW2 4692   6.533   2.321   4.290
 1265SOL     OW 4693   6.803   5.978   4.497
 1265SOL    HW1 4694   6.773   6.073   4.491
 1265SOL    HW2 4695   6.849   5.962   4.584
 1266SOL     OW 4696   2.466   1.431   4.639
 1266SOL    HW1 4697   2.370   1.422   4.612
 1266SOL    HW2 4698   2.477   1.511   4.698
 1267SOL     OW 4699   6.445   4.994   2.649
 1267SOL    HW1 4700   6.384   5.029   2.720
 1267SOL    HW2 4701   6.491   5.071   2.604
 1268SOL     OW 4702   5.770   3.078   0.344
 1268SOL    HW1 4703   5.843   3.062   0.411
 1268SOL    HW2 4704   5.777   3.010   0.271
 1269SOL     OW 4705   6.836   5.430   6.209
 1269SOL    HW1 4706   6.848   5.415   6.308
 1269SOL    HW2 4707   6.897   5.502   6.179
 1270SOL     OW 4708   1.682   2.336   5.207
 1270SOL    HW1 4709   1.739   2.263   5.245
 1270SOL    HW2 4710   1.735   2.420   5.199
 1271SOL     OW 4711   4.883   2.131   2.930
 1271SOL    HW1 4712   4.841   2.200   2.871
 1271SOL    HW2 4713   4.937   2.068   2.874
 1272SOL     OW 4714   6.862   6.534   1.734
 1272SOL    HW1 4715   6.914   6.592   1.672
 1272SOL    HW2 4716   6.822   6.590   1.807
 1273SOL     OW 4717   2.529   6.271   6.673
 1273SOL    HW1 4718   2.546   6.306   6.765
 1273SOL    HW2 4719   2.483   6.341   6.619
 1274SOL     OW 4720   6.208   2.735   1.479
 1274SOL    HW1 4721   6.209   2.775   1.571
 1274SOL    HW2 4722   6.281   2.668   1.471
 1275SOL     OW 4723   4.103   1.833   3.939
 1275SOL    HW1 4724   4.094   1.874   3.848
 1275SOL    HW2 4725   4.013   1.831   3.983
 1276SOL     OW 4726   6.162   0.251   3.185
 1276SOL    HW1 4727   6.205   0.281   3.100
 1276SOL    HW2 4728   6.219   0.180   3.227
 1277SOL     OW 4729   0.206   0.970   5.309
 1277SOL    HW1 4730   0.148   0.982   5.228
 1277SOL    HW2 4731   0.173   1.029   5.382
 1278SOL     OW 4732   3.080   1.838   5.189
 1278SOL    HW1 4733   3.134   1.918   5.163
 1278SOL    HW2 4734   3.134   1.755   5.174
 1279SOL     OW 4735   3.035   5.189   0.274
 1279SOL    HW1 4736   2.939   5.217   0.280
 1279SOL    HW2 4737   3.092   5.269   0.255
 1280SOL     OW 4738   1.837   6.531   3.313
 1280SOL    HW1 4739   1.794   6.584   3.240
 1280SOL    HW2 4740   1.827   6.433   3.293
 1281SOL     OW 4741   0.990   6.673   3.883
 1281SOL    HW1 4742   0.902   6.720   3.882
 1281SOL    HW2 4743   1.029   6.675   3.791
 1282SOL     OW 4744   1.092   0.548   2.491
 1282SOL    HW1 4745   1.037   0.605   2.553
 1282SOL    HW2 4746   1.088   0.453   2.521
 1283SOL     OW 4747   5.031   4.749   5.480
 1283SOL    HW1 4748   5.081   4.737   5.394
 1283SOL    HW2 4749   4.962   4.678   5.489
 1284SOL     OW 4750   2.550   2.073   2.504
 1284SOL    HW1 4751   2.566   2.171   2.516
 1284SOL    HW2 4752   2.564   2.026   2.591
 1285SOL     OW 4753   5.064   2.363   5.760
 1285SOL    HW1 4754   5.021   2.358   5.850
 1285SOL    HW2 4755   5.096   2.457   5.743
 1286SOL     OW 4756   6.000   5.590   1.594
 1286SOL    HW1 4757   5.995   5.508   1.650
 1286SOL    HW2 4758   5.953   5.575   1.508
 1287SOL     OW 4759   6.049   5.075   6.104
 1287SOL    HW1 4760   6.071   4.985   6.142
 1287SOL    HW2 4761   6.095   5.086   6.016
 1288SOL     OW 4762   6.437   2.566   2.673
 1288SOL    HW1 4763   6.416   2.486   2.617
 1288SOL    HW2 4764   6.475   2.638   2.616
 1289SOL     OW 4765   6.416   5.553   2.331
 1289SOL    HW1 4766   6.374   5.611   2.261
 1289SOL    HW2 4767   6.344   5.508   2.384
 1290SOL     OW 4768   0.876   6.727   1.609
 1290SOL    HW1 4769   0.818   6.758   1.685
 1290SOL    HW2 4770   0.827   6.740   1.523
 1291SOL     OW 4771   2.241   0.058   0.431
 1291SOL    HW1 4772   2.286   0.028   0.515
 1291SOL    HW2 4773   2.281   0.011   0.352
 1292SOL     OW 4774   1.209   6.155   6.831
 1292SOL    HW1 4775   1.261   6.159   6.917
 1292SOL    HW2 4776   1.136   6.223   6.834
 1293SOL     OW 4777   0.298   2.628   5.806
 1293SOL    HW1 4778   0.278   2.688   5.884
 1293SOL    HW2 4779   0.304   2.533   5.837
 1294SOL     OW 4780   6.596   1.451   2.854
 1294SOL    HW1 4781   6.636   1.409   2.773
 1294SOL    HW2 4782   6.510   1.405   2.876
 1295SOL     OW 4783   5.947   3.436   1.858
 1295SOL    HW1 4784   6.025   3.408   1.802
 1295SOL    HW2 4785   5.940   3.376   1.938
 1296SOL     OW 4786   3.540   2.700   6.649
 1296SOL    HW1 4787   3.531   2.601   6.638
 1296SOL    HW2 4788   3.636   2.722   6.667
 1297SOL     OW 4789   6.809   1.499   6.608
 1297SOL    HW1 4790   6.793   1.432   6.535
 1297SOL    HW2 4791   6.769   1.587   6.582
 1298SOL     OW 4792   6.142   3.419   3.444
 1298SOL    HW1 4793   6.192   3.454   3.524
 1298SOL    HW2 4794   6.158   3.321   3.436
 1299SOL     OW 4795   1.142   3.784   4.025
 1299SOL    HW1 4796   1.141   3.832   3.938
 1299SOL    HW2 4797   1.069   3.820   4.084
 1300SOL     OW 4798   2.718   3.285   1.468
 1300SOL    HW1 4799   2.697   3.369   1.418
 1300SOL    HW2 4800   2.789   3.234   1.419
 1301SOL     OW 4801   0.478   0.165   3.422
 1301SOL    HW1 4802   0.547   0.210   3.366
 1301SOL    HW2 4803   0.418   0.110   3.364
 1302SOL     OW 4804   2.378   5.637   4.797
 1302SOL    HW1 4805   2.336   5.604   4.881
 1302SOL    HW2 4806   2.376   5.565   4.727
 1303SOL     OW 4807   3.551   0.946   1.640
 1303SOL    HW1 4808   3.459   0.960   1.677
 1303SOL    HW2 4809   3.559   0.992   1.552
 1304SOL     OW 4810   3.032   0.699   6.198
 1304SOL    HW1 4811   2.979   0.655   6.271
 1304SOL    HW2 4812   3.043   0.796   6.219
 1305SOL     OW 4813   5.265   6.859   4.870
 1305SOL    HW1 4814   5.198   6.857   4.944
 1305SOL    HW2 4815   5.332   6.932   4.888
 1306SOL     OW 4816   0.848   4.536   3.792
 1306SOL    HW1 4817   0.863   4.484   3.708
 1306SOL    HW2 4818   0.880   4.483   3.871
 1307SOL     OW 4819   1.971   1.798   4.303
 1307SOL    HW1 4820   1.994   1.812   4.207
 1307SOL    HW2 4821   1.903   1.866   4.332
 1308SOL     OW 4822   4.687   5.591   2.619
 1308SOL    HW1 4823   4.597   5.590   2.574
 1308SOL    HW2 4824   4.701   5.680   2.663
 1309SOL     OW 4825   5.965   2.410   4.668
 1309SOL    HW1 4826   5.986   2.334   4.730
 1309SOL    HW2 4827   5.869   2.436   4.679
 1310SOL     OW 4828   4.798   3.688   5.406
 1310SOL    HW1 4829   4.766   3.694   5.501
 1310SOL    HW2 4830   4.728   3.643   5.350
 1311SOL     OW 4831   4.990   5.716   5.576
 1311SOL    HW1 4832   4.971   5.735   5.480
 1311SOL    HW2 4833   5.068   5.770   5.606
 1312SOL     OW 4834   0.438   6.600   1.349
 1312SOL    HW1 4835   0.478   6.519   1.393
 1312SOL    HW2 4836   0.340   6.588   1.340
 1313SOL     OW 4837   3.353   5.222   5.375
 1313SOL    HW1 4838   3.284   5.246   5.307
 1313SOL    HW2 4839   3.430   5.286   5.368
 1314SOL     OW 4840   6.215   1.385   4.883
 1314SOL    HW1 4841   6.165   1.322   4.824
 1314SOL    HW2 4842   6.303   1.408   4.843
 1315SOL     OW 4843   1.752   1.173   2.883
 1315SOL    HW1 4844   1.786   1.085   2.917
 1315SOL    HW2 4845   1.652   1.173   2.884
 1316SOL     OW 4846   2.925   6.647   2.575
 1316SOL    HW1 4847   2.858   6.573   2.565
 1316SOL    HW2 4848   2.891   6.729   2.530
 1317SOL     OW 4849   7.007   5.420   3.610
 1317SOL    HW1 4850   7.009   5.405   3.511
 1317SOL    HW2 4851   0.070   5.461   3.639
 1318SOL     OW 4852   0.309   6.393   0.903
 1318SOL    HW1 4853   0.368   6.440   0.968
 1318SOL    HW2 4854   0.322   6.433   0.812
 1319SOL     OW 4855   6.536   1.186   0.546
 1319SOL    HW1 4856   6.438   1.164   0.546
 1319SOL    HW2 4857   6.565   1.209   0.639
 1320SOL     OW 4858   5.213   5.373   6.033
 1320SOL    HW1 4859   5.197   5.282   5.994
 1320SOL    HW2 4860   5.172   5.442   5.975
 1321SOL     OW 4861   3.810   2.410   6.428
 1321SOL    HW1 4862   3.758   2.397   6.513
 1321SOL    HW2 4863   3.898   2.362   6.435
 1322SOL     OW 4864   6.253   1.067   4.969
 1322SOL    HW1 4865   6.339   1.085   5.016
 1322SOL    HW2 4866   6.176   1.078   5.032
 1323SOL     OW 4867   5.908   1.028   4.478
 1323SOL    HW1 4868   5.950   1.058   4.393
 1323SOL    HW2 4869   5.956   1.068   4.556
 1324SOL     OW 4870   0.798   3.695   0.469
 1324SOL    HW1 4871   0.850   3.629   0.523
 1324SOL    HW2 4872   0.833   3.696   0.375
 1325SOL     OW 4873   3.354   5.631   2.841
 1325SOL    HW1 4874   3.437   5.632   2.786
 1325SOL    HW2 4875   3.276   5.661   2.786
 1326SOL     OW 4876   5.147   3.573   4.109
 1326SOL    HW1 4877   5.079   3.633   4.151
 1326SOL    HW2 4878   5.160   3.600   4.013
 1327SOL     OW 4879   3.065   5.471   3.080
 1327SOL    HW1 4880   3.133   5.454   3.152
 1327SOL    HW2 4881   3.022   5.384   3.054
 1328SOL     OW 4882   1.980   2.342   6.646
 1328SOL    HW1 4883   2.065   2.390   6.668
 1328SOL    HW2 4884   1.913   2.357   6.719
 1329SOL     OW 4885   1.371   0.410   1.834
 1329SOL    HW1 4886   1.463   0.429   1.869
 1329SOL    HW2 4887   1.340   0.489   1.780
 1330SOL     OW 4888   5.939   6.596   1.125
 1330SOL    HW1 4889   5.863   6.617   1.063
 1330SOL    HW2 4890   6.025   6.627   1.084
 1331SOL     OW 4891   6.236   0.258   2.584
 1331SOL    HW1 4892   6.190   0.286   2.500
 1331SOL    HW2 4893   6.207   0.317   2.659
 1332SOL     OW 4894   4.562   1.687   1.457
 1332SOL    HW1 4895   4.490   1.622   1.433
 1332SOL    HW2 4896   4.532   1.743   1.534
 1333SOL     OW 4897   3.641   4.176   5.477
 1333SOL    HW1 4898   3.690   4.108   5.421
 1333SOL    HW2 4899   3.623   4.137   5.568
 1334SOL     OW 4900   0.802   3.789   3.799
 1334SOL    HW1 4901   0.873   3.730   3.759
 1334SOL    HW2 4902   0.845   3.872   3.834
 1335SOL     OW 4903   2.460   4.439   2.613
 1335SOL    HW1 4904   2.409   4.409   2.532
 1335SOL    HW2 4905   2.554   4.460   2.587
 1336SOL     OW 4906   0.891   0.600   5.446
 1336SOL    HW1 4907   0.798   0.565   5.439
 1336SOL    HW2 4908   0.947   0.536   5.498
 1337SOL     OW 4909   2.839   1.081   5.962
 1337SOL    HW1 4910   2.843   0.986   5.930
 1337SOL    HW2 4911   2.932   1.118   5.966
 1338SOL     OW 4912   3.698   5.816   0.535
 1338SOL    HW1 4913   3.779   5.783   0.583
 1338SOL    HW2 4914   3.679   5.910   0.563
 1339SOL     OW 4915   0.045   4.655   4.747
 1339SOL    HW1 4916   0.041   4.695   4.838
 1339SOL    HW2 4917   0.075   4.560   4.754
 1340SOL     OW 4918   2.147   1.564   6.075
 1340SOL    HW1 4919   2.048   1.577   6.079
 1340SOL    HW2 4920   2.186   1.572   6.167
 1341SOL     OW 4921   4.434   1.603   3.556
 1341SOL    HW1 4922   4.406   1.646   3.642
 1341SOL    HW2 4923   4.534   1.593   3.554
 1342SOL     OW 4924   0.407   6.136   0.864
 1342SOL    HW1 4925   0.352   6.219   0.876
 1342SOL    HW2 4926   0.353   6.057   0.891
 1343SOL     OW 4927   4.235   4.839   3.055
 1343SOL    HW1 4928   4.145   4.853   3.016
 1343SOL    HW2 4929   4.240   4.884   3.145
 1344SOL     OW 4930   5.722   1.483   2.547
 1344SOL    HW1 4931   5.795   1.452   2.486
 1344SOL    HW2 4932   5.682   1.403   2.592
 1345SOL     OW 4933   1.309   7.021   3.465
 1345SOL    HW1 4934   1.302   0.071   3.399
 1345SOL    HW2 4935   1.249   6.946   3.439
 1346SOL     OW 4936   0.121   0.863   4.078
 1346SOL    HW1 4937   0.128   0.952   4.032
 1346SOL    HW2 4938   0.151   0.791   4.016
 1347SOL     OW 4939   5.880   0.644   2.904
 1347SOL    HW1 4940   5.801   0.599   2.945
 1347SOL    HW2 4941   5.930   0.696   2.974
 1348SOL     OW 4942   4.746   5.172   4.321
 1348SOL    HW1 4943   4.800   5.170   4.237
 1348SOL    HW2 4944   4.662   5.120   4.308
 1349SOL     OW 4945   4.525   2.632   0.085
 1349SOL    HW1 4946   4.514   2.622   0.184
 1349SOL    HW2 4947   4.556   2.724   0.064
 1350SOL     OW 4948   3.432   6.759   6.042
 1350SOL    HW1 4949   3.511   6.751   5.981
 1350SOL    HW2 4950   3.348   6.760   5.988
 1351SOL     OW 4951   0.927   0.987   4.308
 1351SOL    HW1 4952   0.927   1.032   4.219
 1351SOL    HW2 4953   1.019   0.990   4.347
 1352SOL     OW 4954   0.462   6.910   3.968
 1352SOL    HW1 4955   0.468   6.989   4.029
 1352SOL    HW2 4956   0.376   6.862   3.985
 1353SOL     OW 4957   1.782   3.956   3.772
 1353SOL    HW1 4958   1.784   3.856   3.777
 1353SOL    HW2 4959   1.769   3.985   3.678
 1354SOL     OW 4960   6.942   0.303   1.196
 1354SOL    HW1 4961   6.867   0.269   1.253
 1354SOL    HW2 4962   0.004   0.259   1.224
 1355SOL     OW 4963   4.797   3.065   6.953
 1355SOL    HW1 4964   4.786   3.160   6.984
 1355SOL    HW2 4965   4.749   3.053   6.866
 1356SOL     OW 4966   3.172   4.037   1.896
 1356SOL    HW1 4967   3.144   3.944   1.917
 1356SOL    HW2 4968   3.091   4.093   1.879
 1357SOL     OW 4969   2.847   2.958   5.818
 1357SOL    HW1 4970   2.880   2.891   5.885
 1357SOL    HW2 4971   2.748   2.950   5.809
 1358SOL     OW 4972   2.893   2.947   5.563
 1358SOL    HW1 4973   2.835   2.889   5.505
 1358SOL    HW2 4974   2.874   2.926   5.659
 1359SOL     OW 4975   6.794   1.065   0.447
 1359SOL    HW1 4976   6.791   0.986   0.386
 1359SOL    HW2 4977   6.706   1.075   0.494
 1360SOL     OW 4978   2.972   3.699   4.021
 1360SOL    HW1 4979   2.875   3.691   4.043
 1360SOL    HW2 4980   3.019   3.748   4.094
 1361SOL     OW 4981   1.122   5.959   1.006
 1361SOL    HW1 4982   1.024   5.970   0.995
 1361SOL    HW2 4983   1.146   5.968   1.103
 1362SOL     OW 4984   3.162   2.821   6.189
 1362SOL    HW1 4985   3.067   2.805   6.215
 1362SOL    HW2 4986   3.223   2.789   6.262
 1363SOL     OW 4987   6.060   6.758   2.149
 1363SOL    HW1 4988   6.088   6.676   2.199
 1363SOL    HW2 4989   6.102   6.758   2.058
 1364SOL     OW 4990   0.695   3.785   0.739
 1364SOL    HW1 4991   0.792   3.794   0.760
 1364SOL    HW2 4992   0.684   3.748   0.646
 1365SOL     OW 4993   0.392   3.807   5.314
 1365SOL    HW1 4994   0.363   3.717   5.284
 1365SOL    HW2 4995   0.464   3.798   5.383
 1366SOL     OW 4996   5.367   0.652   1.207
 1366SOL    HW1 4997   5.272   0.660   1.175
 1366SOL    HW2 4998   5.425   0.617   1.133
 1367SOL     OW 4999   0.924   6.296   4.636
 1367SOL    HW1 5000   0.941   6.355   4.557
 1367SOL    HW2 5001   0.918   6.351   4.719
 1368SOL     OW 5002   1.363   6.317   5.334
 1368SOL    HW1 5003   1.432   6.308   5.406
 1368SOL    HW2 5004   1.271   6.310   5.375
 1369SOL     OW 5005   2.616   6.612   3.393
 1369SOL    HW1 5006   2.682   6.540   3.412
 1369SOL    HW2 5007   2.524   6.573   3.387
 1370SOL     OW 5008   6.928   2.007   2.613
 1370SOL    HW1 5009   6.907   2.092   2.565
 1370SOL    HW2 5010   7.010   1.965   2.574
 1371SOL     OW 5011   6.153   2.365   5.768
 1371SOL    HW1 5012   6.054   2.352   5.767
 1371SOL    HW2 5013   6.177   2.432   5.839
 1372SOL     OW 5014   6.465   2.837   0.374
 1372SOL    HW1 5015   6.533   2.763   0.377
 1372SOL    HW2 5016   6.501   2.912   0.319
 1373SOL     OW 5017   5.446   1.936   1.410
 1373SOL    HW1 5018   5.351   1.916   1.384
 1373SOL    HW2 5019   5.457   2.035   1.422
 1374SOL     OW 5020   3.961   3.975   0.853
 1374SOL    HW1 5021   3.929   3.884   0.828
 1374SOL    HW2 5022   3.887   4.027   0.895
 1375SOL     OW 5023   5.671   5.528   3.893
 1375SOL    HW1 5024   5.665   5.626   3.910
 1375SOL    HW2 5025   5.747   5.509   3.831
 1376SOL     OW 5026   2.601   4.863   6.076
 1376SOL    HW1 5027   2.696   4.840   6.095
 1376SOL    HW2 5028   2.594   4.958   6.046
 1377SOL     OW 5029   1.757   1.397   2.733
 1377SOL    HW1 5030   1.770   1.312   2.784
 1377SOL    HW2 5031   1.821   1.400   2.657
 1378SOL     OW 5032   4.890   2.491   4.507
 1378SOL    HW1 5033   4.858   2.420   4.569
 1378SOL    HW2 5034   4.980   2.467   4.472
 1379SOL     OW 5035   4.742   6.033   1.454
 1379SOL    HW1 5036   4.748   5.979   1.370
 1379SOL    HW2 5037   4.801   5.992   1.524
 1380SOL     OW 5038   6.755   6.256   2.179
 1380SOL    HW1 5039   6.750   6.353   2.202
 1380SOL    HW2 5040   6.836   6.240   2.123
 1381SOL     OW 5041   6.554   2.575   5.771
 1381SOL    HW1 5042   6.633   2.524   5.737
 1381SOL    HW2 5043   6.477   2.564   5.708
 1382SOL     OW 5044   4.767   2.577   0.382
 1382SOL    HW1 5045   4.817   2.520   0.447
 1382SOL    HW2 5046   4.683   2.611   0.425
 1383SOL     OW 5047   0.464   1.397   1.723
 1383SOL    HW1 5048   0.541   1.375   1.663
 1383SOL    HW2 5049   0.379   1.397   1.669
 1384SOL     OW 5050   6.153   1.709   1.798
 1384SOL    HW1 5051   6.213   1.685   1.875
 1384SOL    HW2 5052   6.065   1.741   1.834
 1385SOL     OW 5053   0.913   5.835   0.949
 1385SOL    HW1 5054   1.009   5.806   0.957
 1385SOL    HW2 5055   0.872   5.842   1.040
 1386SOL     OW 5056   1.800   5.691   4.018
 1386SOL    HW1 5057   1.773   5.706   3.923
 1386SOL    HW2 5058   1.836   5.599   4.029
 1387SOL     OW 5059   2.770   5.940   1.930
 1387SOL    HW1 5060   2.770   5.860   1.870
 1387SOL    HW2 5061   2.859   5.987   1.922
 1388SOL     OW 5062   6.766   0.619   1.879
 1388SOL    HW1 5063   6.677   0.574   1.871
 1388SOL    HW2 5064   6.756   0.717   1.858
 1389SOL     OW 5065   6.010   0.835   3.064
 1389SOL    HW1 5066   6.051   0.924   3.044
 1389SOL    HW2 5067   5.914   0.847   3.090
 1390SOL     OW 5068   1.306   1.690   6.013
 1390SOL    HW1 5069   1.284   1.682   5.915
 1390SOL    HW2 5070   1.354   1.608   6.042
 1391SOL     OW 5071   0.422   3.167   3.379
 1391SOL    HW1 5072   0.361   3.198   3.452
 1391SOL    HW2 5073   0.403   3.071   3.359
 1392SOL     OW 5074   4.662   4.564   5.528
 1392SOL    HW1 5075   4.728   4.584   5.601
 1392SOL    HW2 5076   4.670   4.468   5.501
 1393SOL     OW 5077   3.527   6.480   5.814
 1393SOL    HW1 5078   3.453   6.479   5.881
 1393SOL    HW2 5079   3.587   6.558   5.830
 1394SOL     OW 5080   1.677   6.250   6.413
 1394SOL    HW1 5081   1.596   6.193   6.398
 1394SOL    HW2 5082   1.660   6.343   6.381
 1395SOL     OW 5083   3.599   4.089   5.731
 1395SOL    HW1 5084   3.524   4.023   5.727
 1395SOL    HW2 5085   3.616   4.114   5.827
 1396SOL     OW 5086   5.497   5.562   4.126
 1396SOL    HW1 5087   5.555   5.522   4.056
 1396SOL    HW2 5088   5.523   5.658   4.141
 1397SOL     OW 5089   4.513   6.289   5.067
 1397SOL    HW1 5090   4.598   6.340   5.069
 1397SOL    HW2 5091   4.455   6.322   4.993
 1398SOL     OW 5092   1.689   1.713   4.386
 1398SOL    HW1 5093   1.725   1.806   4.392
 1398SOL    HW2 5094   1.750   1.651   4.436
 1399SOL     OW 5095   3.081   6.657   1.249
 1399SOL    HW1 5096   3.033   6.570   1.258
 1399SOL    HW2 5097   3.117   6.666   1.156
 1400SOL     OW 5098   1.073   6.734   2.015
 1400SOL    HW1 5099   0.988   6.698   2.052
 1400SOL    HW2 5100   1.079   6.832   2.035
 1401SOL     OW 5101   6.777   1.211   4.829
 1401SOL    HW1 5102   6.848   1.155   4.872
 1401SOL    HW2 5103   6.741   1.162   4.749
 1402SOL     OW 5104   6.905   3.375   0.339
 1402SOL    HW1 5105   6.959   3.458   0.326
 1402SOL    HW2 5106   6.944   3.322   0.414
 1403SOL     OW 5107   2.639   1.377   2.494
 1403SOL    HW1 5108   2.675   1.431   2.418
 1403SOL    HW2 5109   2.622   1.283   2.463
 1404SOL     OW 5110   5.413   0.514   0.432
 1404SOL    HW1 5111   5.346   0.573   0.477
 1404SOL    HW2 5112   5.389   0.503   0.336
 1405SOL     OW 5113   2.323   3.681   0.920
 1405SOL    HW1 5114   2.386   3.755   0.895
 1405SOL    HW2 5115   2.238   3.721   0.955
 1406SOL     OW 5116   1.398   4.271   1.012
 1406SOL    HW1 5117   1.367   4.356   1.054
 1406SOL    HW2 5118   1.434   4.210   1.082
 1407SOL     OW 5119   6.480   2.119   2.515
 1407SOL    HW1 5120   6.415   2.189   2.544
 1407SOL    HW2 5121   6.534   2.153   2.438
 1408SOL     OW 5122   6.425   0.670   6.676
 1408SOL    HW1 5123   6.430   0.767   6.700
 1408SOL    HW2 5124   6.510   0.643   6.630
 1409SOL     OW 5125   0.565   1.010   4.676
 1409SOL    HW1 5126   0.520   0.922   4.689
 1409SOL    HW2 5127   0.659   0.996   4.645
 1410SOL     OW 5128   0.570   2.806   6.917
 1410SOL    HW1 5129   0.546   2.709   6.915
 1410SOL    HW2 5130   0.573   2.838   7.011
 1411SOL     OW 5131   1.926   6.774   1.330
 1411SOL    HW1 5132   1.924   6.861   1.380
 1411SOL    HW2 5133   2.008   6.770   1.273
 1412SOL     OW 5134   1.070   2.947   6.829
 1412SOL    HW1 5135   0.985   2.894   6.829
 1412SOL    HW2 5136   1.116   2.935   6.741
 1413SOL     OW 5137   2.528   0.488   3.875
 1413SOL    HW1 5138   2.521   0.493   3.974
 1413SOL    HW2 5139   2.465   0.418   3.840
 1414SOL     OW 5140   1.800   1.794   1.835
 1414SOL    HW1 5141   1.757   1.872   1.881
 1414SOL    HW2 5142   1.899   1.808   1.830
 1415SOL     OW 5143   4.284   5.872   5.878
 1415SOL    HW1 5144   4.322   5.787   5.841
 1415SOL    HW2 5145   4.287   5.870   5.978
 1416SOL     OW 5146   4.350   5.497   1.775
 1416SOL    HW1 5147   4.449   5.494   1.761
 1416SOL    HW2 5148   4.317   5.590   1.760
 1417SOL     OW 5149   3.332   1.792   5.883
 1417SOL    HW1 5150   3.318   1.823   5.977
 1417SOL    HW2 5151   3.263   1.834   5.824
 1418SOL     OW 5152   3.833   3.885   2.427
 1418SOL    HW1 5153   3.766   3.817   2.457
 1418SOL    HW2 5154   3.786   3.967   2.397
 1419SOL     OW 5155   4.261   6.680   4.780
 1419SOL    HW1 5156   4.262   6.625   4.863
 1419SOL    HW2 5157   4.173   6.727   4.772
 1420SOL     OW 5158   0.524   6.075   2.187
 1420SOL    HW1 5159   0.614   6.071   2.145
 1420SOL    HW2 5160   0.468   6.144   2.141
 1421SOL     OW 5161   3.545   1.462   2.422
 1421SOL    HW1 5162   3.487   1.542   2.439
 1421SOL    HW2 5163   3.499   1.402   2.356
 1422SOL     OW 5164   2.797   5.546   0.296
 1422SOL    HW1 5165   2.794   5.548   0.396
 1422SOL    HW2 5166   2.781   5.638   0.260
 1423SOL     OW 5167   5.106   0.049   2.801
 1423SOL    HW1 5168   5.166   0.093   2.735
 1423SOL    HW2 5169   5.018   0.029   2.758
 1424SOL     OW 5170   6.458   4.791   4.881
 1424SOL    HW1 5171   6.511   4.769   4.963
 1424SOL    HW2 5172   6.361   4.801   4.905
 1425SOL     OW 5173   2.771   6.900   4.192
 1425SOL    HW1 5174   2.682   6.875   4.230
 1425SOL    HW2 5175   2.763   6.912   4.093
 1426SOL     OW 5176   1.077   1.351   5.538
 1426SOL    HW1 5177   1.102   1.255   5.535
 1426SOL    HW2 5178   1.096   1.394   5.450
 1427SOL     OW 5179   6.063   0.783   4.555
 1427SOL    HW1 5180   6.029   0.694   4.585
 1427SOL    HW2 5181   5.986   0.847   4.549
 1428SOL     OW 5182   5.491   1.467   6.464
 1428SOL    HW1 5183   5.581   1.492   6.428
 1428SOL    HW2 5184   5.466   1.531   6.537
 1429SOL     OW 5185   0.152   0.948   0.480
 1429SOL    HW1 5186   0.234   0.999   0.507
 1429SOL    HW2 5187   0.160   0.919   0.385
 1430SOL     OW 5188   1.877   5.222   3.508
 1430SOL    HW1 5189   1.797   5.220   3.446
 1430SOL    HW2 5190   1.961   5.220   3.454
 1431SOL     OW 5191   1.716   1.223   0.753
 1431SOL    HW1 5192   1.712   1.133   0.796
 1431SOL    HW2 5193   1.811   1.244   0.730
 1432SOL     OW 5194   1.848   1.599   2.116
 1432SOL    HW1 5195   1.760   1.631   2.082
 1432SOL    HW2 5196   1.837   1.508   2.157
 1433SOL     OW 5197   4.332   0.990   4.195
 1433SOL    HW1 5198   4.288   1.078   4.208
 1433SOL    HW2 5199   4.333   0.940   4.282
 1434SOL     OW 5200   1.649   1.106   5.683
 1434SOL    HW1 5201   1.613   1.112   5.776
 1434SOL    HW2 5202   1.584   1.057   5.626
 1435SOL     OW 5203   6.350   1.864   2.654
 1435SOL    HW1 5204   6.422   1.810   2.698
 1435SOL    HW2 5205   6.357   1.856   2.555
 1436SOL     OW 5206   4.066   3.595   0.912
 1436SOL    HW1 5207   4.081   3.616   1.009
 1436SOL    HW2 5208   3.994   3.653   0.876
 1437SOL     OW 5209   3.429   0.875   2.336
 1437SOL    HW1 5210   3.528   0.864   2.348
 1437SOL    HW2 5211   3.402   0.846   2.244
 1438SOL     OW 5212   2.653   0.099   0.867
 1438SOL    HW1 5213   2.672   0.015   0.817
 1438SOL    HW2 5214   2.673   0.178   0.810
 1439SOL     OW 5215   0.648   5.878   2.542
 1439SOL    HW1 5216   0.611   5.786   2.537
 1439SOL    HW2 5217   0.582   5.943   2.504
 1440SOL     OW 5218   3.122   3.481   1.487
 1440SOL    HW1 5219   3.105   3.393   1.442
 1440SOL    HW2 5220   3.142   3.465   1.584
 1441SOL     OW 5221   5.679   6.422   0.929
 1441SOL    HW1 5222   5.682   6.416   0.829
 1441SOL    HW2 5223   5.619   6.498   0.956
 1442SOL     OW 5224   6.128   5.432   0.601
 1442SOL    HW1 5225   6.220   5.435   0.562
 1442SOL    HW2 5226   6.131   5.386   0.690
 1443SOL     OW 5227   0.352   2.622   2.942
 1443SOL    HW1 5228   0.364   2.653   2.847
 1443SOL    HW2 5229   0.267   2.659   2.978
 1444SOL     OW 5230   5.971   5.416   0.142
 1444SOL    HW1 5231   6.062   5.451   0.167
 1444SOL    HW2 5232   5.978   5.319   0.121
 1445SOL     OW 5233   1.349   3.291   2.376
 1445SOL    HW1 5234   1.290   3.279   2.296
 1445SOL    HW2 5235   1.325   3.223   2.445
 1446SOL     OW 5236   6.987   0.242   6.968
 1446SOL    HW1 5237   6.987   0.298   0.027
 1446SOL    HW2 5238   6.956   0.297   6.890
 1447SOL     OW 5239   6.024   5.146   4.837
 1447SOL    HW1 5240   6.013   5.080   4.762
 1447SOL    HW2 5241   6.121   5.160   4.855
 1448SOL     OW 5242   1.363   3.256   5.769
 1448SOL    HW1 5243   1.426   3.309   5.712
 1448SOL    HW2 5244   1.268   3.277   5.744
 1449SOL     OW 5245   2.165   3.786   4.003
 1449SOL    HW1 5246   2.139   3.715   4.069
 1449SOL    HW2 5247   2.127   3.764   3.913
 1450SOL     OW 5248   2.335   2.792   4.398
 1450SOL    HW1 5249   2.378   2.778   4.488
 1450SOL    HW2 5250   2.396   2.757   4.327
 1451SOL     OW 5251   2.108   0.658   2.040
 1451SOL    HW1 5252   2.135   0.589   2.107
 1451SOL    HW2 5253   2.183   0.722   2.025
 1452SOL     OW 5254   4.899   3.107   5.937
 1452SOL    HW1 5255   4.991   3.097   5.899
 1452SOL    HW2 5256   4.893   3.194   5.987
 1453SOL     OW 5257   7.021   4.921   5.426
 1453SOL    HW1 5258   0.073   4.895   5.486
 1453SOL    HW2 5259   6.972   4.998   5.466
 1454SOL     OW 5260   3.799   1.865   4.031
 1454SOL    HW1 5261   3.795   1.929   3.954
 1454SOL    HW2 5262   3.725   1.799   4.023
 1455SOL     OW 5263   1.085   5.958   1.572
 1455SOL    HW1 5264   1.067   6.052   1.600
 1455SOL    HW2 5265   1.079   5.951   1.472
 1456SOL     OW 5266   6.117   5.153   5.140
 1456SOL    HW1 5267   6.055   5.202   5.079
 1456SOL    HW2 5268   6.068   5.126   5.223
 1457SOL     OW 5269   1.029   4.273   6.067
 1457SOL    HW1 5270   0.943   4.302   6.025
 1457SOL    HW2 5271   1.074   4.353   6.108
 1458SOL     OW 5272   4.897   5.513   5.278
 1458SOL    HW1 5273   4.944   5.530   5.191
 1458SOL    HW2 5274   4.810   5.563   5.278
 1459SOL     OW 5275   4.860   6.301   4.671
 1459SOL    HW1 5276   4.935   6.291   4.736
 1459SOL    HW2 5277   4.875   6.241   4.593
 1460SOL     OW 5278   1.595   6.270   5.515
 1460SOL    HW1 5279   1.607   6.207   5.592
 1460SOL    HW2 5280   1.641   6.233   5.434
 1461SOL     OW 5281   6.917   3.226   3.516
 1461SOL    HW1 5282   6.981   3.166   3.564
 1461SOL    HW2 5283   6.864   3.173   3.449
 1462SOL     OW 5284   0.886   0.290   1.302
 1462SOL    HW1 5285   0.848   0.344   1.376
 1462SOL    HW2 5286   0.916   0.350   1.228
 1463SOL     OW 5287   2.067   5.558   0.329
 1463SOL    HW1 5288   2.031   5.636   0.380
 1463SOL    HW2 5289   2.093   5.587   0.237
 1464SOL     OW 5290   0.716   4.164   3.758
 1464SOL    HW1 5291   0.793   4.167   3.821
 1464SOL    HW2 5292   0.750   4.156   3.664
 1465SOL     OW 5293   1.299   2.564   3.507
 1465SOL    HW1 5294   1.203   2.578   3.483
 1465SOL    HW2 5295   1.316   2.466   3.521
 1466SOL     OW 5296   4.906   2.271   1.769
 1466SOL    HW1 5297   4.944   2.293   1.679
 1466SOL    HW2 5298   4.807   2.287   1.767
 1467SOL     OW 5299   1.204   1.336   4.284
 1467SOL    HW1 5300   1.118   1.333   4.334
 1467SOL    HW2 5301   1.197   1.280   4.201
 1468SOL     OW 5302   2.354   5.460   2.367
 1468SOL    HW1 5303   2.401   5.372   2.359
 1468SOL    HW2 5304   2.260   5.444   2.398
 1469SOL     OW 5305   6.326   4.294   3.476
 1469SOL    HW1 5306   6.258   4.278   3.547
 1469SOL    HW2 5307   6.289   4.262   3.388
 1470SOL     OW 5308   6.532   1.796   0.850
 1470SOL    HW1 5309   6.538   1.867   0.780
 1470SOL    HW2 5310   6.522   1.707   0.806
 1471SOL     OW 5311   5.278   0.021   1.789
 1471SOL    HW1 5312   5.285   0.111   1.747
 1471SOL    HW2 5313   5.343   6.982   1.746
 1472SOL     OW 5314   1.801   6.731   6.057
 1472SOL    HW1 5315   1.720   6.774   6.098
 1472SOL    HW2 5316   1.830   6.654   6.113
 1473SOL     OW 5317   2.175   5.608   4.141
 1473SOL    HW1 5318   2.158   5.642   4.234
 1473SOL    HW2 5319   2.092   5.567   4.104
 1474SOL     OW 5320   3.351   4.930   1.474
 1474SOL    HW1 5321   3.386   5.016   1.436
 1474SOL    HW2 5322   3.353   4.935   1.573
 1475SOL     OW 5323   4.986   6.984   0.230
 1475SOL    HW1 5324   4.993   0.022   0.152
 1475SOL    HW2 5325   4.914   7.017   0.292
 1476SOL     OW 5326   4.959   0.555   1.374
 1476SOL    HW1 5327   5.049   0.512   1.382
 1476SOL    HW2 5328   4.965   0.651   1.398
 1477SOL     OW 5329   3.689   4.880   1.560
 1477SOL    HW1 5330   3.695   4.945   1.484
 1477SOL    HW2 5331   3.614   4.907   1.621
 1478SOL     OW 5332   5.349   5.560   6.194
 1478SOL    HW1 5333   5.362   5.541   6.291
 1478SOL    HW2 5334   5.316   5.477   6.148
 1479SOL     OW 5335   3.771   3.933   1.211
 1479SOL    HW1 5336   3.809   3.841   1.219
 1479SOL    HW2 5337   3.845   4.000   1.202
 1480SOL     OW 5338   3.158   0.320   4.793
 1480SOL    HW1 5339   3.136   0.297   4.699
 1480SOL    HW2 5340   3.074   0.320   4.848
 1481SOL     OW 5341   5.226   2.681   6.398
 1481SOL    HW1 5342   5.194   2.761   6.449
 1481SOL    HW2 5343   5.309   2.704   6.348
 1482SOL     OW 5344   4.912   1.069   0.655
 1482SOL    HW1 5345   4.910   1.080   0.555
 1482SOL    HW2 5346   5.007   1.062   0.686
 1483SOL     OW 5347   5.388   1.517   5.806
 1483SOL    HW1 5348   5.309   1.456   5.805
 1483SOL    HW2 5349   5.360   1.608   5.774
 1484SOL     OW 5350   3.023   5.571   4.594
 1484SOL    HW1 5351   2.932   5.598   4.565
 1484SOL    HW2 5352   3.022   5.475   4.624
 1485SOL     OW 5353   5.220   2.394   3.207
 1485SOL    HW1 5354   5.259   2.414   3.117
 1485SOL    HW2 5355   5.144   2.330   3.197
 1486SOL     OW 5356   5.254   6.977   3.918
 1486SOL    HW1 5357   5.297   6.959   4.006
 1486SOL    HW2 5358   5.304   0.027   3.871
 1487SOL     OW 5359   6.595   0.524   1.048
 1487SOL    HW1 5360   6.665   0.539   0.978
 1487SOL    HW2 5361   6.623   0.570   1.133
 1488SOL     OW 5362   5.844   1.012   2.605
 1488SOL    HW1 5363   5.783   1.092   2.608
 1488SOL    HW2 5364   5.791   0.929   2.619
 1489SOL     OW 5365   3.794   4.443   0.056
 1489SOL    HW1 5366   3.765   4.512   0.122
 1489SOL    HW2 5367   3.885   4.465   0.022
 1490SOL     OW 5368   6.822   2.243   2.480
 1490SOL    HW1 5369   6.812   2.312   2.552
 1490SOL    HW2 5370   6.756   2.262   2.407
 1491SOL     OW 5371   6.451   2.703   3.325
 1491SOL    HW1 5372   6.423   2.617   3.369
 1491SOL    HW2 5373   6.464   2.687   3.227
 1492SOL     OW 5374   5.889   1.388   2.949
 1492SOL    HW1 5375   5.958   1.384   3.021
 1492SOL    HW2 5376   5.868   1.295   2.919
 1493SOL     OW 5377   4.406   2.632   5.686
 1493SOL    HW1 5378   4.326   2.615   5.629
 1493SOL    HW2 5379   4.424   2.552   5.744
 1494SOL     OW 5380   6.517   4.290   5.500
 1494SOL    HW1 5381   6.613   4.291   5.471
 1494SOL    HW2 5382   6.458   4.308   5.421
 1495SOL     OW 5383   6.318   3.967   4.402
 1495SOL    HW1 5384   6.341   3.883   4.452
 1495SOL    HW2 5385   6.338   4.046   4.460
 1496SOL     OW 5386   6.339   5.472   6.492
 1496SOL    HW1 5387   6.420   5.416   6.507
 1496SOL    HW2 5388   6.282   5.471   6.574
 1497SOL     OW 5389   5.772   3.113   2.907
 1497SOL    HW1 5390   5.813   3.203   2.920
 1497SOL    HW2 5391   5.725   3.110   2.819
 1498SOL     OW 5392   3.402   4.417   0.713
 1498SOL    HW1 5393   3.440   4.337   0.666
 1498SOL    HW2 5394   3.302   4.415   0.706
 1499SOL     OW 5395   0.421   4.232   4.972
 1499SOL    HW1 5396   0.361   4.272   5.040
 1499SOL    HW2 5397   0.505   4.286   4.965
 1500SOL     OW 5398   0.952   5.739   1.999
 1500SOL    HW1 5399   0.948   5.648   1.958
 1500SOL    HW2 5400   0.906   5.804   1.939
 1501SOL     OW 5401   5.581   2.062   0.002
 1501SOL    HW1 5402   5.586   2.151   0.048
 1501SOL    HW2 5403   5.503   2.011   0.036
 1502SOL     OW 5404   6.421   0.094   6.403
 1502SOL    HW1 5405   6.449   7.022   6.391
 1502SOL    HW2 5406   6.387   0.107   6.496
 1503SOL     OW 5407   0.384   4.791   2.080
 1503SOL    HW1 5408   0.334   4.775   1.995
 1503SOL    HW2 5409   0.482   4.793   2.060
 1504SOL     OW 5410   0.694   0.230   2.411
 1504SOL    HW1 5411   0.713   0.222   2.313
 1504SOL    HW2 5412   0.739   0.156   2.460
 1505SOL     OW 5413   4.938   6.253   4.954
 1505SOL    HW1 5414   4.865   6.303   5.001
 1505SOL    HW2 5415   4.904   6.163   4.926
 1506SOL     OW 5416   1.109   1.493   1.328
 1506SOL    HW1 5417   1.056   1.453   1.404
 1506SOL    HW2 5418   1.152   1.578   1.358
 1507SOL     OW 5419   1.495   2.893   4.588
 1507SOL    HW1 5420   1.407   2.900   4.542
 1507SOL    HW2 5421   1.560   2.845   4.530
 1508SOL     OW 5422   1.244   0.668   0.818
 1508SOL    HW1 5423   1.330   0.626   0.790
 1508SOL    HW2 5424   1.170   0.602   0.811
 1509SOL     OW 5425   4.924   0.806   4.268
 1509SOL    HW1 5426   4.907   0.892   4.317
 1509SOL    HW2 5427   5.023   0.789   4.266
 1510SOL     OW 5428   3.714   5.608   4.282
 1510SOL    HW1 5429   3.782   5.539   4.308
 1510SOL    HW2 5430   3.747   5.699   4.308
 1511SOL     OW 5431   3.591   3.488   4.630
 1511SOL    HW1 5432   3.582   3.416   4.561
 1511SOL    HW2 5433   3.664   3.551   4.603
 1512SOL     OW 5434   5.940   6.173   0.781
 1512SOL    HW1 5435   5.939   6.248   0.714
 1512SOL    HW2 5436   5.944   6.086   0.733
 1513SOL     OW 5437   3.056   6.892   6.023
 1513SOL    HW1 5438   3.001   6.930   5.949
 1513SOL    HW2 5439   3.012   6.912   6.111
 1514SOL     OW 5440   3.073   2.353   5.713
 1514SOL    HW1 5441   3.157   2.395   5.747
 1514SOL    HW2 5442   3.045   2.399   5.629
 1515SOL     OW 5443   5.424   1.991   1.841
 1515SOL    HW1 5444   5.397   1.987   1.938
 1515SOL    HW2 5445   5.380   1.917   1.791
 1516SOL     OW 5446   5.940   7.015   4.899
 1516SOL    HW1 5447   5.973   6.920   4.902
 1516SOL    HW2 5448   5.879   0.002   4.821
 1517SOL     OW 5449   4.332   6.364   3.475
 1517SOL    HW1 5450   4.425   6.399   3.466
 1517SOL    HW2 5451   4.286   6.368   3.386
 1518SOL     OW 5452   0.500   2.648   0.180
 1518SOL    HW1 5453   0.408   2.657   0.141
 1518SOL    HW2 5454   0.545   2.736   0.180
 1519SOL     OW 5455   0.065   4.536   6.894
 1519SOL    HW1 5456   0.065   4.447   6.849
 1519SOL    HW2 5457   0.157   4.556   6.927
 1520SOL     OW 5458   0.184   6.134   2.666
 1520SOL    HW1 5459   0.181   6.141   2.566
 1520SOL    HW2 5460   0.260   6.188   2.701
 1521SOL     OW 5461   1.856   5.561   6.137
 1521SOL    HW1 5462   1.815   5.585   6.225
 1521SOL    HW2 5463   1.949   5.596   6.133
 1522SOL     OW 5464   4.544   5.918   4.392
 1522SOL    HW1 5465   4.639   5.922   4.361
 1522SOL    HW2 5466   4.527   5.829   4.434
 1523SOL     OW 5467   3.937   6.227   0.503
 1523SOL    HW1 5468   3.842   6.196   0.494
 1523SOL    HW2 5469   3.978   6.185   0.584
 1524SOL     OW 5470   2.203   1.940   2.480
 1524SOL    HW1 5471   2.289   1.957   2.526
 1524SOL    HW2 5472   2.219   1.930   2.382
 1525SOL     OW 5473   5.741   2.551   6.513
 1525SOL    HW1 5474   5.765   2.582   6.421
 1525SOL    HW2 5475   5.642   2.553   6.524
 1526SOL     OW 5476   1.025   1.366   0.566
 1526SOL    HW1 5477   1.055   1.308   0.642
 1526SOL    HW2 5478   1.058   1.327   0.479
 1527SOL     OW 5479   3.856   1.044   3.826
 1527SOL    HW1 5480   3.839   1.141   3.805
 1527SOL    HW2 5481   3.866   0.993   3.741
 1528SOL     OW 5482   4.283   3.918   1.312
 1528SOL    HW1 5483   4.187   3.929   1.285
 1528SOL    HW2 5484   4.302   3.977   1.390
 1529SOL     OW 5485   4.777   0.949   5.409
 1529SOL    HW1 5486   4.738   0.923   5.497
 1529SOL    HW2 5487   4.703   0.966   5.344
 1530SOL     OW 5488   3.480   6.176   1.332
 1530SOL    HW1 5489   3.492   6.248   1.264
 1530SOL    HW2 5490   3.535   6.197   1.413
 1531SOL     OW 5491   3.739   6.748   3.714
 1531SOL    HW1 5492   3.826   6.753   3.762
 1531SOL    HW2 5493   3.685   6.672   3.749
 1532SOL     OW 5494   2.481   5.345   6.548
 1532SOL    HW1 5495   2.448   5.404   6.474
 1532SOL    HW2 5496   2.425   5.263   6.552
 1533SOL     OW 5497   6.066   5.276   1.541
 1533SOL    HW1 5498   6.163   5.300   1.533
 1533SOL    HW2 5499   6.023   5.283   1.451
 1534SOL     OW 5500   3.534   5.580   6.252
 1534SOL    HW1 5501   3.495   5.550   6.165
 1534SOL    HW2 5502   3.472   5.643   6.297
 1535SOL     OW 5503   5.859   6.337   4.584
 1535SOL    HW1 5504   5.783   6.401   4.593
 1535SOL    HW2 5505   5.937   6.382   4.541
 1536SOL     OW 5506   4.419   4.088   6.568
 1536SOL    HW1 5507   4.469   4.171   6.594
 1536SOL    HW2 5508   4.483   4.018   6.538
 1537SOL     OW 5509   3.248   5.236   3.628
 1537SOL    HW1 5510   3.281   5.265   3.538
 1537SOL    HW2 5511   3.184   5.160   3.617
 1538SOL     OW 5512   3.143   1.430   6.902
 1538SOL    HW1 5513   3.217   1.400   6.842
 1538SOL    HW2 5514   3.144   1.530   6.909
 1539SOL     OW 5515   6.024   3.440   0.530
 1539SOL    HW1 5516   6.055   3.529   0.497
 1539SOL    HW2 5517   5.995   3.449   0.626
 1540SOL     OW 5518   3.187   6.761   4.497
 1540SOL    HW1 5519   3.233   6.840   4.456
 1540SOL    HW2 5520   3.228   6.677   4.461
 1541SOL     OW 5521   3.175   3.147   4.925
 1541SOL    HW1 5522   3.084   3.188   4.929
 1541SOL    HW2 5523   3.167   3.047   4.925
 1542SOL     OW 5524   6.868   0.302   2.741
 1542SOL    HW1 5525   6.777   0.334   2.769
 1542SOL    HW2 5526   6.862   0.258   2.652
 1543SOL     OW 5527   2.618   4.337   6.781
 1543SOL    HW1 5528   2.690   4.397   6.747
 1543SOL    HW2 5529   2.622   4.249   6.734
 1544SOL     OW 5530   4.169   3.493   4.669
 1544SOL    HW1 5531   4.233   3.418   4.656
 1544SOL    HW2 5532   4.189   3.566   4.605
 1545SOL     OW 5533   5.982   6.388   2.462
 1545SOL    HW1 5534   5.905   6.372   2.523
 1545SOL    HW2 5535   5.988   6.315   2.394
 1546SOL     OW 5536   5.461   6.612   5.820
 1546SOL    HW1 5537   5.486   6.611   5.723
 1546SOL    HW2 5538   5.543   6.623   5.876
 1547SOL     OW 5539   1.926   3.484   6.826
 1547SOL    HW1 5540   1.849   3.536   6.788
 1547SOL    HW2 5541   1.916   3.388   6.802
 1548SOL     OW 5542   6.459   2.397   6.509
 1548SOL    HW1 5543   6.408   2.476   6.474
 1548SOL    HW2 5544   6.546   2.429   6.547
 1549SOL     OW 5545   4.585   0.837   5.048
 1549SOL    HW1 5546   4.551   0.869   5.137
 1549SOL    HW2 5547   4.510   0.795   4.997
 1550SOL     OW 5548   3.128   3.102   3.306
 1550SOL    HW1 5549   3.080   3.188   3.286
 1550SOL    HW2 5550   3.153   3.057   3.220
 1551SOL     OW 5551   6.663   4.897   6.382
 1551SOL    HW1 5552   6.566   4.879   6.370
 1551SOL    HW2 5553   6.689   4.878   6.477
 1552SOL     OW 5554   2.034   4.165   2.115
 1552SOL    HW1 5555   2.026   4.263   2.100
 1552SOL    HW2 5556   2.111   4.129   2.062
 1553SOL     OW 5557   0.955   1.745   5.910
 1553SOL    HW1 5558   0.947   1.845   5.907
 1553SOL    HW2 5559   1.031   1.716   5.852
 1554SOL     OW 5560   2.963   1.496   3.527
 1554SOL    HW1 5561   3.033   1.542   3.472
 1554SOL    HW2 5562   3.002   1.469   3.615
 1555SOL     OW 5563   6.781   3.772   6.315
 1555SOL    HW1 5564   6.862   3.808   6.270
 1555SOL    HW2 5565   6.798   3.679   6.346
 1556SOL     OW 5566   2.393   1.135   5.804
 1556SOL    HW1 5567   2.446   1.183   5.733
 1556SOL    HW2 5568   2.329   1.072   5.760
 1557SOL     OW 5569   0.511   2.694   6.326
 1557SOL    HW1 5570   0.545   2.717   6.234
 1557SOL    HW2 5571   0.537   2.766   6.390
 1558SOL     OW 5572   6.895   7.002   4.935
 1558SOL    HW1 5573   6.873   6.918   4.985
 1558SOL    HW2 5574   6.965   6.982   4.867
 1559SOL     OW 5575   0.935   1.773   6.444
 1559SOL    HW1 5576   0.980   1.829   6.513
 1559SOL    HW2 5577   0.949   1.815   6.354
 1560SOL     OW 5578   0.030   0.779   6.812
 1560SOL    HW1 5579   0.027   0.873   6.847
 1560SOL    HW2 5580   0.004   0.779   6.715
 1561SOL     OW 5581   5.492   5.745   3.022
 1561SOL    HW1 5582   5.394   5.738   3.003
 1561SOL    HW2 5583   5.516   5.841   3.037
 1562SOL     OW 5584   5.526   0.972   3.350
 1562SOL    HW1 5585   5.564   0.918   3.426
 1562SOL    HW2 5586   5.598   0.987   3.282
 1563SOL     OW 5587   3.769   0.386   5.261
 1563SOL    HW1 5588   3.738   0.331   5.339
 1563SOL    HW2 5589   3.839   0.450   5.291
 1564SOL     OW 5590   1.805   2.021   2.941
 1564SOL    HW1 5591   1.722   1.997   2.890
 1564SOL    HW2 5592   1.882   1.968   2.905
 1565SOL     OW 5593   5.126   3.764   2.052
 1565SOL    HW1 5594   5.030   3.744   2.071
 1565SOL    HW2 5595   5.168   3.805   2.133
 1566SOL     OW 5596   5.778   4.322   3.345
 1566SOL    HW1 5597   5.774   4.233   3.299
 1566SOL    HW2 5598   5.694   4.336   3.397
 1567SOL     OW 5599   6.792   5.582   5.801
 1567SOL    HW1 5600   6.773   5.502   5.744
 1567SOL    HW2 5601   6.883   5.574   5.840
 1568SOL     OW 5602   0.295   0.118   0.877
 1568SOL    HW1 5603   0.197   0.137   0.868
 1568SOL    HW2 5604   0.342   0.143   0.793
 1569SOL     OW 5605   3.552   6.159   5.240
 1569SOL    HW1 5606   3.640   6.150   5.194
 1569SOL    HW2 5607   3.499   6.074   5.228
 1570SOL     OW 5608   3.921   2.139   1.572
 1570SOL    HW1 5609   3.926   2.052   1.623
 1570SOL    HW2 5610   3.958   2.126   1.481
 1571SOL     OW 5611   6.680   4.486   1.864
 1571SOL    HW1 5612   6.721   4.550   1.799
 1571SOL    HW2 5613   6.634   4.412   1.814
 1572SOL     OW 5614   1.522   6.634   2.485
 1572SOL    HW1 5615   1.436   6.595   2.451
 1572SOL    HW2 5616   1.569   6.680   2.409
 1573SOL     OW 5617   4.023   0.261   1.042
 1573SOL    HW1 5618   4.034   0.254   1.141
 1573SOL    HW2 5619   3.974   0.346   1.020
 1574SOL     OW 5620   6.547   2.653   2.219
 1574SOL    HW1 5621   6.467   2.615   2.173
 1574SOL    HW2 5622   6.519   2.730   2.277
 1575SOL     OW 5623   2.408   2.638   0.289
 1575SOL    HW1 5624   2.476   2.633   0.216
 1575SOL    HW2 5625   2.352   2.720   0.277
 1576SOL     OW 5626   6.676   6.043   4.063
 1576SOL    HW1 5627   6.639   5.954   4.038
 1576SOL    HW2 5628   6.761   6.031   4.114
 1577SOL     OW 5629   2.259   0.307   0.074
 1577SOL    HW1 5630   2.197   0.290   7.021
 1577SOL    HW2 5631   2.272   0.406   0.085
 1578SOL     OW 5632   5.576   4.939   4.918
 1578SOL    HW1 5633   5.480   4.919   4.937
 1578SOL    HW2 5634   5.623   4.855   4.893
 1579SOL     OW 5635   1.026   0.482   3.929
 1579SOL    HW1 5636   1.005   0.580   3.920
 1579SOL    HW2 5637   1.097   0.458   3.863
 1580SOL     OW 5638   3.163   4.013   5.629
 1580SOL    HW1 5639   3.138   3.917   5.639
 1580SOL    HW2 5640   3.242   4.033   5.687
 1581SOL     OW 5641   6.693   3.803   4.646
 1581SOL    HW1 5642   6.631   3.780   4.571
 1581SOL    HW2 5643   6.708   3.722   4.703
 1582SOL     OW 5644   6.289   5.392   4.386
 1582SOL    HW1 5645   6.238   5.311   4.416
 1582SOL    HW2 5646   6.277   5.465   4.453
 1583SOL     OW 5647   1.733   2.736   2.834
 1583SOL    HW1 5648   1.682   2.757   2.751
 1583SOL    HW2 5649   1.831   2.748   2.817
 1584SOL     OW 5650   2.382   6.999   6.352
 1584SOL    HW1 5651   2.458   0.020   6.306
 1584SOL    HW2 5652   2.388   6.900   6.339
 1585SOL     OW 5653   5.404   1.778   5.752
 1585SOL    HW1 5654   5.502   1.758   5.742
 1585SOL    HW2 5655   5.390   1.834   5.834
 1586SOL     OW 5656   4.006   3.923   2.627
 1586SOL    HW1 5657   3.951   3.907   2.545
 1586SOL    HW2 5658   4.102   3.932   2.601
 1587SOL     OW 5659   2.858   6.365   6.921
 1587SOL    HW1 5660   2.853   6.272   6.885
 1587SOL    HW2 5661   2.933   6.414   6.876
 1588SOL     OW 5662   5.887   3.716   1.759
 1588SOL    HW1 5663   5.913   3.620   1.758
 1588SOL    HW2 5664   5.959   3.769   1.805
 1589SOL     OW 5665   5.442   3.708   4.082
 1589SOL    HW1 5666   5.420   3.780   4.148
 1589SOL    HW2 5667   5.367   3.641   4.081
 1590SOL     OW 5668   2.104   0.652   6.042
 1590SOL    HW1 5669   2.202   0.666   6.056
 1590SOL    HW2 5670   2.090   0.579   5.976
 1591SOL     OW 5671   0.995   4.558   1.635
 1591SOL    HW1 5672   0.976   4.543   1.732
 1591SOL    HW2 5673   0.992   4.656   1.615
 1592SOL     OW 5674   3.203   3.405   2.652
 1592SOL    HW1 5675   3.207   3.459   2.736
 1592SOL    HW2 5676   3.109   3.375   2.636
 1593SOL     OW 5677   1.037   5.469   5.408
 1593SOL    HW1 5678   1.043   5.393   5.472
 1593SOL    HW2 5679   0.964   5.452   5.342
 1594SOL     OW 5680   6.417   5.195   2.948
 1594SOL    HW1 5681   6.499   5.252   2.946
 1594SOL    HW2 5682   6.425   5.127   3.021
 1595SOL     OW 5683   6.896   4.759   6.022
 1595SOL    HW1 5684   6.984   4.795   5.990
 1595SOL    HW2 5685   6.873   4.676   5.970
 1596SOL     OW 5686   2.826   5.076   6.659
 1596SOL    HW1 5687   2.802   5.144   6.589
 1596SOL    HW2 5688   2.906   5.024   6.629
 1597SOL     OW 5689   2.578   0.102   1.371
 1597SOL    HW1 5690   2.596   0.143   1.282
 1597SOL    HW2 5691   2.518   0.162   1.424
 1598SOL     OW 5692   0.363   5.305   1.419
 1598SOL    HW1 5693   0.449   5.255   1.424
 1598SOL    HW2 5694   0.360   5.357   1.334
 1599SOL     OW 5695   3.469   4.991   6.851
 1599SOL    HW1 5696   3.483   5.086   6.823
 1599SOL    HW2 5697   3.428   4.988   6.942
 1600SOL     OW 5698   3.999   1.054   4.421
 1600SOL    HW1 5699   3.940   1.094   4.492
 1600SOL    HW2 5700   3.952   1.057   4.333
 1601SOL     OW 5701   0.591   4.744   3.596
 1601SOL    HW1 5702   0.585   4.650   3.563
 1601SOL    HW2 5703   0.682   4.781   3.575
 1602SOL     OW 5704   0.887   4.788   3.642
 1602SOL    HW1 5705   0.895   4.711   3.704
 1602SOL    HW2 5706   0.976   4.831   3.630
 1603SOL     OW 5707   6.599   6.572   1.168
 1603SOL    HW1 5708   6.621   6.585   1.265
 1603SOL    HW2 5709   6.505   6.542   1.158
 1604SOL     OW 5710   0.729   5.258   5.625
 1604SOL    HW1 5711   0.652   5.194   5.628
 1604SOL    HW2 5712   0.696   5.350   5.644
 1605SOL     OW 5713   5.187   6.374   3.200
 1605SOL    HW1 5714   5.128   6.302   3.164
 1605SOL    HW2 5715   5.205   6.441   3.128
 1606SOL     OW 5716   5.037   6.705   6.373
 1606SOL    HW1 5717   5.066   6.754   6.456
 1606SOL    HW2 5718   4.939   6.717   6.360
 1607SOL     OW 5719   4.094   2.243   0.673
 1607SOL    HW1 5720   4.031   2.274   0.601
 1607SOL    HW2 5721   4.090   2.306   0.750
 1608SOL     OW 5722   2.699   0.349   0.705
 1608SOL    HW1 5723   2.664   0.394   0.623
 1608SOL    HW2 5724   2.787   0.391   0.730
 1609SOL     OW 5725   4.907   1.899   5.549
 1609SOL    HW1 5726   4.938   1.989   5.581
 1609SOL    HW2 5727   4.828   1.869   5.604
 1610SOL     OW 5728   6.147   5.594   4.547
 1610SOL    HW1 5729   6.102   5.668   4.595
 1610SOL    HW2 5730   6.086   5.558   4.476
 1611SOL     OW 5731   2.669   3.513   1.315
 1611SOL    HW1 5732   2.598   3.558   1.261
 1611SOL    HW2 5733   2.759   3.539   1.280
 1612SOL     OW 5734   3.401   0.961   4.027
 1612SOL    HW1 5735   3.309   0.975   3.991
 1612SOL    HW2 5736   3.468   0.984   3.956
 1613SOL     OW 5737   1.938   6.136   0.803
 1613SOL    HW1 5738   1.895   6.113   0.890
 1613SOL    HW2 5739   1.871   6.124   0.729
 1614SOL     OW 5740   6.774   2.489   7.002
 1614SOL    HW1 5741   6.711   2.415   7.023
 1614SOL    HW2 5742   6.865   2.452   6.985
 1615SOL     OW 5743   6.389   4.976   6.384
 1615SOL    HW1 5744   6.334   4.899   6.415
 1615SOL    HW2 5745   6.362   5.000   6.290
 1616SOL     OW 5746   2.612   2.167   5.643
 1616SOL    HW1 5747   2.513   2.153   5.638
 1616SOL    HW2 5748   2.657   2.111   5.572
 1617SOL     OW 5749   4.447   0.794   3.896
 1617SOL    HW1 5750   4.371   0.806   3.959
 1617SOL    HW2 5751   4.414   0.753   3.811
 1618SOL     OW 5752   5.625   2.356   0.782
 1618SOL    HW1 5753   5.600   2.443   0.740
 1618SOL    HW2 5754   5.556   2.330   0.850
 1619SOL     OW 5755   1.608   3.297   4.580
 1619SOL    HW1 5756   1.535   3.269   4.518
 1619SOL    HW2 5757   1.667   3.219   4.599
 1620SOL     OW 5758   3.596   5.363   1.180
 1620SOL    HW1 5759   3.655   5.327   1.252
 1620SOL    HW2 5760   3.502   5.329   1.193
 1621SOL     OW 5761   1.691   0.870   1.665
 1621SOL    HW1 5762   1.788   0.857   1.682
 1621SOL    HW2 5763   1.677   0.899   1.570
 1622SOL     OW 5764   2.291   1.882   4.286
 1622SOL    HW1 5765   2.367   1.852   4.228
 1622SOL    HW2 5766   2.237   1.950   4.238
 1623SOL     OW 5767   2.691   2.135   4.752
 1623SOL    HW1 5768   2.732   2.112   4.664
 1623SOL    HW2 5769   2.751   2.197   4.802
 1624SOL     OW 5770   2.298   0.555   0.104
 1624SOL    HW1 5771   2.254   0.642   0.083
 1624SOL    HW2 5772   2.378   0.572   0.161
 1625SOL     OW 5773   6.934   5.330   2.004
 1625SOL    HW1 5774   7.020   5.299   1.962
 1625SOL    HW2 5775   6.946   5.335   2.103
 1626SOL     OW 5776   2.061   2.493   6.153
 1626SOL    HW1 5777   2.044   2.406   6.106
 1626SOL    HW2 5778   1.975   2.540   6.169
 1627SOL     OW 5779   5.160   2.916   4.099
 1627SOL    HW1 5780   5.187   2.979   4.172
 1627SOL    HW2 5781   5.213   2.831   4.107
 1628SOL     OW 5782   3.028   3.060   0.222
 1628SOL    HW1 5783   2.949   3.021   0.269
 1628SOL    HW2 5784   3.001   3.090   0.131
 1629SOL     OW 5785   4.819   2.465   3.580
 1629SOL    HW1 5786   4.742   2.402   3.570
 1629SOL    HW2 5787   4.786   2.552   3.617
 1630SOL     OW 5788   0.227   4.826   4.312
 1630SOL    HW1 5789   0.238   4.911   4.262
 1630SOL    HW2 5790   0.206   4.846   4.408
 1631SOL     OW 5791   0.669   6.827   5.706
 1631SOL    HW1 5792   0.766   6.814   5.684
 1631SOL    HW2 5793   0.657   6.822   5.806
 1632SOL     OW 5794   6.307   0.638   1.719
 1632SOL    HW1 5795   6.262   0.584   1.647
 1632SOL    HW2 5796   6.239   0.665   1.787
 1633SOL     OW 5797   5.500   3.030   3.644
 1633SOL    HW1 5798   5.525   3.115   3.598
 1633SOL    HW2 5799   5.553   3.019   3.727
 1634SOL     OW 5800   3.473   0.943   6.707
 1634SOL    HW1 5801   3.454   0.863   6.764
 1634SOL    HW2 5802   3.480   1.024   6.765
 1635SOL     OW 5803   0.484   5.444   4.226
 1635SOL    HW1 5804   0.408   5.508   4.223
 1635SOL    HW2 5805   0.500   5.407   4.135
 1636SOL     OW 5806   2.020   5.839   1.185
 1636SOL    HW1 5807   1.983   5.747   1.174
 1636SOL    HW2 5808   2.025   5.884   1.095
 1637SOL     OW 5809   0.380   3.024   2.451
 1637SOL    HW1 5810   0.325   3.015   2.368
 1637SOL    HW2 5811   0.398   3.121   2.468
 1638SOL     OW 5812   1.372   3.073   5.188
 1638SOL    HW1 5813   1.445   3.131   5.222
 1638SOL    HW2 5814   1.316   3.040   5.264
 1639SOL     OW 5815   5.002   4.860   2.175
 1639SOL    HW1 5816   5.048   4.899   2.255
 1639SOL    HW2 5817   5.069   4.842   2.103
 1640SOL     OW 5818   5.851   0.360   1.582
 1640SOL    HW1 5819   5.900   0.439   1.546
 1640SOL    HW2 5820   5.917   0.294   1.619
 1641SOL     OW 5821   6.335   2.565   5.609
 1641SOL    HW1 5822   6.288   2.477   5.618
 1641SOL    HW2 5823   6.270   2.639   5.621
 1642SOL     OW 5824   0.554   2.528   1.842
 1642SOL    HW1 5825   0.653   2.545   1.839
 1642SOL    HW2 5826   0.514   2.581   1.917
 1643SOL     OW 5827   3.968   0.527   5.384
 1643SOL    HW1 5828   3.943   0.581   5.465
 1643SOL    HW2 5829   3.972   0.586   5.304
 1644SOL     OW 5830   3.155   0.754   1.191
 1644SOL    HW1 5831   3.238   0.791   1.233
 1644SOL    HW2 5832   3.107   0.827   1.142
 1645SOL     OW 5833   1.958   0.013   6.383
 1645SOL    HW1 5834   1.998   6.983   6.309
 1645SOL    HW2 5835   1.971   0.111   6.364
 1646SOL     OW 5836   1.301   3.357   1.078
 1646SOL    HW1 5837   1.325   3.399   0.991
 1646SOL    HW2 5838   1.276   3.261   1.063
 1647SOL     OW 5839   6.019   2.878   3.979
 1647SOL    HW1 5840   5.998   2.937   3.901
 1647SOL    HW2 5841   5.970   2.911   4.059
 1648SOL     OW 5842   4.195   6.809   2.426
 1648SOL    HW1 5843   4.282   6.779   2.465
 1648SOL    HW2 5844   4.176   6.903   2.453
 1649SOL     OW 5845   3.176   1.025   3.183
 1649SOL    HW1 5846   3.103   0.961   3.207
 1649SOL    HW2 5847   3.262   0.976   3.170
 1650SOL     OW 5848   2.383   6.414   3.568
 1650SOL    HW1 5849   2.291   6.400   3.604
 1650SOL    HW2 5850   2.444   6.343   3.603
 1651SOL     OW 5851   1.651   6.609   0.861
 1651SOL    HW1 5852   1.729   6.661   0.895
 1651SOL    HW2 5853   1.643   6.523   0.911
 1652SOL     OW 5854   2.898   2.835   1.485
 1652SOL    HW1 5855   2.963   2.776   1.532
 1652SOL    HW2 5856   2.844   2.885   1.553
 1653SOL     OW 5857   1.057   5.571   0.835
 1653SOL    HW1 5858   0.975   5.515   0.849
 1653SOL    HW2 5859   1.119   5.560   0.913
 1654SOL     OW 5860   6.793   3.064   3.268
 1654SOL    HW1 5861   6.802   2.986   3.206
 1654SOL    HW2 5862   6.697   3.077   3.291
 1655SOL     OW 5863   4.670   4.854   5.759
 1655SOL    HW1 5864   4.705   4.771   5.803
 1655SOL    HW2 5865   4.579   4.836   5.721
 1656SOL     OW 5866   0.591   4.708   3.256
 1656SOL    HW1 5867   0.674   4.688   3.307
 1656SOL    HW2 5868   0.566   4.804   3.268
 1657SOL     OW 5869   1.370   0.342   5.667
 1657SOL    HW1 5870   1.306   0.417   5.681
 1657SOL    HW2 5871   1.323   0.266   5.622
 1658SOL     OW 5872   6.118   5.989   2.818
 1658SOL    HW1 5873   6.023   5.995   2.787
 1658SOL    HW2 5874   6.125   6.026   2.910
 1659SOL     OW 5875   4.274   2.240   5.711
 1659SOL    HW1 5876   4.313   2.165   5.659
 1659SOL    HW2 5877   4.210   2.291   5.654
 1660SOL     OW 5878   1.686   5.586   3.349
 1660SOL    HW1 5879   1.772   5.565   3.301
 1660SOL    HW2 5880   1.610   5.545   3.299
 1661SOL     OW 5881   2.723   0.275   2.465
 1661SOL    HW1 5882   2.681   0.358   2.501
 1661SOL    HW2 5883   2.804   0.252   2.520
 1662SOL     OW 5884   0.566   0.552   3.360
 1662SOL    HW1 5885   0.558   0.602   3.446
 1662SOL    HW2 5886   0.487   0.491   3.349
 1663SOL     OW 5887   2.953   0.048   3.538
 1663SOL    HW1 5888   2.953   0.048   3.638
 1663SOL    HW2 5889   3.009   6.996   3.504
 1664SOL     OW 5890   2.053   5.604   4.558
 1664SOL    HW1 5891   2.083   5.509   4.568
 1664SOL    HW2 5892   2.128   5.660   4.525
 1665SOL     OW 5893   0.362   6.994   4.810
 1665SOL    HW1 5894   0.354   6.959   4.903
 1665SOL    HW2 5895   0.455   0.007   4.796
 1666SOL     OW 5896   6.139   2.858   6.128
 1666SOL    HW1 5897   6.198   2.900   6.197
 1666SOL    HW2 5898   6.077   2.793   6.173
 1667SOL     OW 5899   6.764   0.565   6.281
 1667SOL    HW1 5900   6.782   0.554   6.379
 1667SOL    HW2 5901   6.808   0.491   6.231
 1668SOL     OW 5902   3.606   1.122   5.096
 1668SOL    HW1 5903   3.650   1.070   5.169
 1668SOL    HW2 5904   3.565   1.205   5.134
 1669SOL     OW 5905   6.102   6.991   6.540
 1669SOL    HW1 5906   6.018   6.944   6.511
 1669SOL    HW2 5907   6.117   0.048   6.482
 1670SOL     OW 5908   5.379   4.365   5.839
 1670SOL    HW1 5909   5.447   4.438   5.851
 1670SOL    HW2 5910   5.400   4.313   5.756
 1671SOL     OW 5911   5.278   3.915   0.309
 1671SOL    HW1 5912   5.347   3.866   0.255
 1671SOL    HW2 5913   5.316   4.002   0.340
 1672SOL     OW 5914   1.710   5.576   2.598
 1672SOL    HW1 5915   1.674   5.664   2.569
 1672SOL    HW2 5916   1.680   5.555   2.691
 1673SOL     OW 5917   6.549   1.912   4.336
 1673SOL    HW1 5918   6.519   1.871   4.421
 1673SOL    HW2 5919   6.539   1.846   4.261
 1674SOL     OW 5920   0.747   4.728   6.324
 1674SOL    HW1 5921   0.731   4.662   6.398
 1674SOL    HW2 5922   0.754   4.679   6.237
 1675SOL     OW 5923   4.897   2.321   6.947
 1675SOL    HW1 5924   4.915   2.248   7.013
 1675SOL    HW2 5925   4.908   2.409   6.992
 1676SOL     OW 5926   1.850   0.662   3.236
 1676SOL    HW1 5927   1.826   0.595   3.165
 1676SOL    HW2 5928   1.934   0.634   3.282
 1677SOL     OW 5929   6.675   1.470   5.644
 1677SOL    HW1 5930   6.720   1.388   5.679
 1677SOL    HW2 5931   6.723   1.551   5.676
 1678SOL     OW 5932   5.472   6.834   1.685
 1678SOL    HW1 5933   5.485   6.859   1.589
 1678SOL    HW2 5934   5.560   6.829   1.731
 1679SOL     OW 5935   0.152   3.783   0.052
 1679SOL    HW1 5936   0.079   3.828   0.002
 1679SOL    HW2 5937   0.236   3.784   7.021
 1680SOL     OW 5938   1.275   1.699   4.354
 1680SOL    HW1 5939   1.197   1.727   4.298
 1680SOL    HW2 5940   1.357   1.697   4.297
 1681SOL     OW 5941   5.885   5.390   1.296
 1681SOL    HW1 5942   5.893   5.290   1.298
 1681SOL    HW2 5943   5.863   5.420   1.203
 1682SOL     OW 5944   6.501   3.417   5.607
 1682SOL    HW1 5945   6.592   3.437   5.642
 1682SOL    HW2 5946   6.437   3.486   5.640
 1683SOL     OW 5947   5.422   5.777   0.386
 1683SOL    HW1 5948   5.432   5.687   0.344
 1683SOL    HW2 5949   5.334   5.783   0.433
 1684SOL     OW 5950   0.695   5.847   4.816
 1684SOL    HW1 5951   0.744   5.881   4.897
 1684SOL    HW2 5952   0.679   5.749   4.826
 1685SOL     OW 5953   1.192   1.909   0.082
 1685SOL    HW1 5954   1.096   1.936   0.098
 1685SOL    HW2 5955   1.227   1.956   0.001
 1686SOL     OW 5956   1.697   6.298   0.101
 1686SOL    HW1 5957   1.654   6.317   0.013
 1686SOL    HW2 5958   1.751   6.214   0.095
 1687SOL     OW 5959   1.693   0.225   1.753
 1687SOL    HW1 5960   1.625   0.172   1.804
 1687SOL    HW2 5961   1.662   0.235   1.658
 1688SOL     OW 5962   0.491   1.676   3.358
 1688SOL    HW1 5963   0.450   1.654   3.446
 1688SOL    HW2 5964   0.590   1.688   3.369
 1689SOL     OW 5965   2.253   1.527   2.418
 1689SOL    HW1 5966   2.260   1.428   2.413
 1689SOL    HW2 5967   2.217   1.563   2.332
 1690SOL     OW 5968   0.870   2.233   0.994
 1690SOL    HW1 5969   0.894   2.264   0.903
 1690SOL    HW2 5970   0.927   2.280   1.062
 1691SOL     OW 5971   5.197   5.090   2.551
 1691SOL    HW1 5972   5.111   5.063   2.596
 1691SOL    HW2 5973   5.272   5.085   2.617
 1692SOL     OW 5974   1.437   0.850   3.819
 1692SOL    HW1 5975   1.416   0.910   3.743
 1692SOL    HW2 5976   1.384   0.877   3.899
 1693SOL     OW 5977   2.675   2.439   3.490
 1693SOL    HW1 5978   2.664   2.349   3.533
 1693SOL    HW2 5979   2.607   2.450   3.417
 1694SOL     OW 5980   4.812   6.098   5.510
 1694SOL    HW1 5981   4.767   6.137   5.430
 1694SOL    HW2 5982   4.749   6.037   5.558
 1695SOL     OW 5983   2.677   2.080   6.151
 1695SOL    HW1 5984   2.740   2.099   6.226
 1695SOL    HW2 5985   2.705   2.132   6.070
 1696SOL     OW 5986   3.421   5.411   0.776
 1696SOL    HW1 5987   3.428   5.501   0.735
 1696SOL    HW2 5988   3.500   5.396   0.836
 1697SOL     OW 5989   0.966   1.288   2.107
 1697SOL    HW1 5990   0.893   1.356   2.109
 1697SOL    HW2 5991   1.001   1.274   2.200
 1698SOL     OW 5992   4.952   2.130   0.849
 1698SOL    HW1 5993   5.010   2.197   0.897
 1698SOL    HW2 5994   4.865   2.173   0.826
 1699SOL     OW 5995   2.283   3.523   0.686
 1699SOL    HW1 5996   2.335   3.574   0.618
 1699SOL    HW2 5997   2.291   3.568   0.775
 1700SOL     OW 5998   6.384   3.247   4.466
 1700SOL    HW1 5999   6.403   3.149   4.477
 1700SOL    HW2 6000   6.313   3.274   4.531
 1701SOL     OW 6001   5.635   3.691   4.697
 1701SOL    HW1 6002   5.688   3.713   4.615
 1701SOL    HW2 6003   5.581   3.770   4.723
 1702SOL     OW 6004   4.944   2.859   0.757
 1702SOL    HW1 6005   4.901   2.862   0.847
 1702SOL    HW2 6006   5.022   2.921   0.756
 1703SOL     OW 6007   1.954   4.018   0.194
 1703SOL    HW1 6008   2.023   4.080   0.157
 1703SOL    HW2 6009   1.943   4.035   0.292
 1704SOL     OW 6010   1.091   0.760   1.895
 1704SOL    HW1 6011   1.112   0.848   1.937
 1704SOL    HW2 6012   0.993   0.740   1.906
 1705SOL     OW 6013   3.863   3.093   2.026
 1705SOL    HW1 6014   3.890   3.007   1.982
 1705SOL    HW2 6015   3.944   3.152   2.035
 1706SOL     OW 6016   3.082   0.965   6.567
 1706SOL    HW1 6017   3.017   0.970   6.644
 1706SOL    HW2 6018   3.031   0.966   6.481
 1707SOL     OW 6019   5.938   1.783   3.144
 1707SOL    HW1 6020   5.904   1.876   3.132
 1707SOL    HW2 6021   6.008   1.781   3.215
 1708SOL     OW 6022   6.990   4.758   2.352
 1708SOL    HW1 6023   6.977   4.739   2.449
 1708SOL    HW2 6024   0.064   4.766   2.331
 1709SOL     OW 6025   3.423   5.925   3.457
 1709SOL    HW1 6026   3.329   5.917   3.424
 1709SOL    HW2 6027   3.422   5.933   3.557
 1710SOL     OW 6028   6.763   6.132   3.623
 1710SOL    HW1 6029   6.713   6.219   3.621
 1710SOL    HW2 6030   6.699   6.057   3.641
 1711SOL     OW 6031   1.898   4.804   5.976
 1711SOL    HW1 6032   1.883   4.758   6.063
 1711SOL    HW2 6033   1.996   4.825   5.966
 1712SOL     OW 6034   1.149   5.259   0.879
 1712SOL    HW1 6035   1.157   5.164   0.847
 1712SOL    HW2 6036   1.169   5.321   0.803
 1713SOL     OW 6037   1.547   3.268   0.606
 1713SOL    HW1 6038   1.542   3.259   0.507
 1713SOL    HW2 6039   1.569   3.362   0.630
 1714SOL     OW 6040   3.499   1.451   0.476
 1714SOL    HW1 6041   3.581   1.427   0.424
 1714SOL    HW2 6042   3.457   1.368   0.513
 1715SOL     OW 6043   0.279   3.329   4.062
 1715SOL    HW1 6044   0.252   3.281   4.145
 1715SOL    HW2 6045   0.320   3.417   4.086
 1716SOL     OW 6046   0.838   0.048   0.252
 1716SOL    HW1 6047   0.807   7.003   0.318
 1716SOL    HW2 6048   0.933   0.028   0.226
 1717SOL     OW 6049   3.505   0.387   0.163
 1717SOL    HW1 6050   3.533   0.482   0.176
 1717SOL    HW2 6051   3.463   0.377   0.072
 1718SOL     OW 6052   1.109   4.807   5.354
 1718SOL    HW1 6053   1.072   4.826   5.263
 1718SOL    HW2 6054   1.121   4.709   5.366
 1719SOL     OW 6055   2.177   3.386   1.477
 1719SOL    HW1 6056   2.246   3.360   1.545
 1719SOL    HW2 6057   2.113   3.311   1.465
 1720SOL     OW 6058   0.121   1.814   1.329
 1720SOL    HW1 6059   0.072   1.835   1.413
 1720SOL    HW2 6060   0.154   1.898   1.287
 1721SOL     OW 6061   1.708   6.217   3.923
 1721SOL    HW1 6062   1.801   6.237   3.954
 1721SOL    HW2 6063   1.695   6.118   3.917
 1722SOL     OW 6064   5.635   6.553   1.805
 1722SOL    HW1 6065   5.666   6.646   1.825
 1722SOL    HW2 6066   5.661   6.492   1.880
 1723SOL     OW 6067   6.347   1.369   2.000
 1723SOL    HW1 6068   6.407   1.440   2.036
 1723SOL    HW2 6069   6.257   1.407   1.980
 1724SOL     OW 6070   4.871   0.426   0.241
 1724SOL    HW1 6071   4.816   0.506   0.218
 1724SOL    HW2 6072   4.929   0.446   0.319
 1725SOL     OW 6073   4.133   4.859   1.589
 1725SOL    HW1 6074   4.158   4.798   1.663
 1725SOL    HW2 6075   4.064   4.925   1.621
 1726SOL     OW 6076   0.513   4.994   4.790
 1726SOL    HW1 6077   0.523   4.895   4.803
 1726SOL    HW2 6078   0.440   5.012   4.724
 1727SOL     OW 6079   3.284   3.833   5.432
 1727SOL    HW1 6080   3.366   3.797   5.476
 1727SOL    HW2 6081   3.234   3.890   5.498
 1728SOL     OW 6082   4.717   4.201   3.402
 1728SOL    HW1 6083   4.783   4.276   3.408
 1728SOL    HW2 6084   4.629   4.237   3.372
 1729SOL     OW 6085   1.798   3.543   3.003
 1729SOL    HW1 6086   1.798   3.496   2.914
 1729SOL    HW2 6087   1.799   3.642   2.987
 1730SOL     OW 6088   5.797   2.462   5.164
 1730SOL    HW1 6089   5.760   2.370   5.154
 1730SOL    HW2 6090   5.863   2.480   5.090
 1731SOL     OW 6091   1.490   5.222   0.267
 1731SOL    HW1 6092   1.568   5.162   0.251
 1731SOL    HW2 6093   1.523   5.315   0.282
 1732SOL     OW 6094   0.453   4.788   0.038
 1732SOL    HW1 6095   0.356   4.790   0.062
 1732SOL    HW2 6096   0.503   4.740   0.110
 1733SOL     OW 6097   1.393   4.100   0.512
 1733SOL    HW1 6098   1.438   4.124   0.598
 1733SOL    HW2 6099   1.297   4.080   0.528
 1734SOL     OW 6100   4.957   3.308   0.620
 1734SOL    HW1 6101   5.001   3.306   0.710
 1734SOL    HW2 6102   4.915   3.398   0.606
 1735SOL     OW 6103   5.618   5.500   1.679
 1735SOL    HW1 6104   5.675   5.457   1.749
 1735SOL    HW2 6105   5.549   5.557   1.723
 1736SOL     OW 6106   3.492   3.700   0.813
 1736SOL    HW1 6107   3.524   3.762   0.885
 1736SOL    HW2 6108   3.450   3.753   0.740
 1737SOL     OW 6109   1.759   6.279   3.657
 1737SOL    HW1 6110   1.748   6.248   3.751
 1737SOL    HW2 6111   1.672   6.315   3.623
 1738SOL     OW 6112   1.182   2.676   2.025
 1738SOL    HW1 6113   1.105   2.737   2.004
 1738SOL    HW2 6114   1.252   2.685   1.954
 1739SOL     OW 6115   3.845   1.799   5.337
 1739SOL    HW1 6116   3.865   1.834   5.428
 1739SOL    HW2 6117   3.904   1.721   5.317
 1740SOL     OW 6118   0.902   1.133   5.826
 1740SOL    HW1 6119   0.806   1.145   5.804
 1740SOL    HW2 6120   0.911   1.108   5.923
 1741SOL     OW 6121   1.736   0.193   2.968
 1741SOL    HW1 6122   1.643   0.164   2.990
 1741SOL    HW2 6123   1.771   0.250   3.042
 1742SOL     OW 6124   5.846   0.337   4.444
 1742SOL    HW1 6125   5.776   0.281   4.488
 1742SOL    HW2 6126   5.933   0.288   4.445
 1743SOL     OW 6127   4.526   0.808   0.831
 1743SOL    HW1 6128   4.523   0.865   0.749
 1743SOL    HW2 6129   4.468   0.847   0.902
 1744SOL     OW 6130   2.573   0.846   1.594
 1744SOL    HW1 6131   2.573   0.747   1.587
 1744SOL    HW2 6132   2.667   0.878   1.610
 1745SOL     OW 6133   6.952   2.236   4.222
 1745SOL    HW1 6134   6.911   2.326   4.234
 1745SOL    HW2 6135   6.890   2.166   4.258
 1746SOL     OW 6136   3.256   0.379   6.049
 1746SOL    HW1 6137   3.282   0.283   6.039
 1746SOL    HW2 6138   3.166   0.385   6.094
 1747SOL     OW 6139   4.125   0.497   1.266
 1747SOL    HW1 6140   4.110   0.405   1.303
 1747SOL    HW2 6141   4.076   0.564   1.321
 1748SOL     OW 6142   5.767   2.174   1.946
 1748SOL    HW1 6143   5.743   2.156   1.850
 1748SOL    HW2 6144   5.787   2.271   1.958
 1749SOL     OW 6145   4.347   6.793   5.965
 1749SOL    HW1 6146   4.325   6.753   5.877
 1749SOL    HW2 6147   4.327   6.727   6.038
 1750SOL     OW 6148   5.332   0.613   3.962
 1750SOL    HW1 6149   5.426   0.579   3.958
 1750SOL    HW2 6150   5.268   0.537   3.949
 1751SOL     OW 6151   1.673   5.713   3.761
 1751SOL    HW1 6152   1.688   5.773   3.682
 1751SOL    HW2 6153   1.719   5.626   3.746
 1752SOL     OW 6154   6.071   2.290   0.481
 1752SOL    HW1 6155   5.983   2.289   0.434
 1752SOL    HW2 6156   6.129   2.218   0.444
 1753SOL     OW 6157   2.315   0.559   2.441
 1753SOL    HW1 6158   2.243   0.514   2.493
 1753SOL    HW2 6159   2.310   0.532   2.345
 1754SOL     OW 6160   3.958   2.933   0.645
 1754SOL    HW1 6161   3.919   2.849   0.684
 1754SOL    HW2 6162   3.958   3.004   0.714
 1755SOL     OW 6163   5.142   3.676   0.433
 1755SOL    HW1 6164   5.189   3.756   0.396
 1755SOL    HW2 6165   5.171   3.662   0.528
 1756SOL     OW 6166   6.153   5.820   4.183
 1756SOL    HW1 6167   6.205   5.749   4.136
 1756SOL    HW2 6168   6.202   5.846   4.267
 1757SOL     OW 6169   2.858   6.095   3.948
 1757SOL    HW1 6170   2.765   6.126   3.966
 1757SOL    HW2 6171   2.911   6.169   3.906
 1758SOL     OW 6172   2.220   1.130   3.340
 1758SOL    HW1 6173   2.245   1.114   3.435
 1758SOL    HW2 6174   2.122   1.150   3.334
 1759SOL     OW 6175   0.391   5.617   6.156
 1759SOL    HW1 6176   0.335   5.547   6.200
 1759SOL    HW2 6177   0.431   5.579   6.072
 1760SOL     OW 6178   5.924   0.439   2.424
 1760SOL    HW1 6179   5.841   0.393   2.455
 1760SOL    HW2 6180   5.900   0.529   2.388
 1761SOL     OW 6181   6.363   2.615   1.149
 1761SOL    HW1 6182   6.325   2.690   1.094
 1761SOL    HW2 6183   6.372   2.645   1.244
 1762SOL     OW 6184   6.081   1.767   6.498
 1762SOL    HW1 6185   6.044   1.674   6.507
 1762SOL    HW2 6186   6.006   1.831   6.481
 1763SOL     OW 6187   2.258   4.017   3.883
 1763SOL    HW1 6188   2.281   4.013   3.785
 1763SOL    HW2 6189   2.254   3.924   3.920
 1764SOL     OW 6190   6.536   3.073   4.026
 1764SOL    HW1 6191   6.436   3.074   4.020
 1764SOL    HW2 6192   6.565   3.000   4.088
 1765SOL     OW 6193   2.973   2.764   5.990
 1765SOL    HW1 6194   2.917   2.805   6.062
 1765SOL    HW2 6195   3.059   2.732   6.030
 1766SOL     OW 6196   5.438   3.227   5.162
 1766SOL    HW1 6197   5.420   3.251   5.257
 1766SOL    HW2 6198   5.533   3.247   5.139
 1767SOL     OW 6199   5.709   3.403   2.187
 1767SOL    HW1 6200   5.808   3.407   2.182
 1767SOL    HW2 6201   5.678   3.450   2.270
 1768SOL     OW 6202   5.943   6.793   4.321
 1768SOL    HW1 6203   5.857   6.833   4.351
 1768SOL    HW2 6204   5.935   6.693   4.323
 1769SOL     OW 6205   4.972   1.554   2.597
 1769SOL    HW1 6206   4.919   1.611   2.661
 1769SOL    HW2 6207   4.932   1.561   2.506
 1770SOL     OW 6208   2.529   5.576   5.205
 1770SOL    HW1 6209   2.599   5.507   5.185
 1770SOL    HW2 6210   2.569   5.667   5.196
 1771SOL     OW 6211   4.860   5.939   6.342
 1771SOL    HW1 6212   4.791   5.880   6.299
 1771SOL    HW2 6213   4.833   5.958   6.436
 1772SOL     OW 6214   3.197   6.845   2.851
 1772SOL    HW1 6215   3.203   6.880   2.757
 1772SOL    HW2 6216   3.122   6.889   2.899
 1773SOL     OW 6217   0.828   5.223   7.020
 1773SOL    HW1 6218   0.872   5.156   6.959
 1773SOL    HW2 6219   0.764   5.175   0.057
 1774SOL     OW 6220   3.805   5.377   1.722
 1774SOL    HW1 6221   3.794   5.415   1.813
 1774SOL    HW2 6222   3.898   5.340   1.711
 1775SOL     OW 6223   0.834   4.574   2.025
 1775SOL    HW1 6224   0.794   4.493   2.068
 1775SOL    HW2 6225   0.921   4.550   1.982
 1776SOL     OW 6226   2.768   5.793   4.960
 1776SOL    HW1 6227   2.799   5.731   5.032
 1776SOL    HW2 6228   2.847   5.836   4.917
 1777SOL     OW 6229   4.142   6.241   0.931
 1777SOL    HW1 6230   4.233   6.266   0.962
 1777SOL    HW2 6231   4.075   6.269   0.999
 1778SOL     OW 6232   5.310   3.786   5.594
 1778SOL    HW1 6233   5.222   3.831   5.582
 1778SOL    HW2 6234   5.342   3.751   5.506
 1779SOL     OW 6235   2.797   6.555   5.167
 1779SOL    HW1 6236   2.802   6.590   5.261
 1779SOL    HW2 6237   2.790   6.455   5.170
 1780SOL     OW 6238   3.245   3.144   6.791
 1780SOL    HW1 6239   3.278   3.203   6.864
 1780SOL    HW2 6240   3.307   3.066   6.781
 1781SOL     OW 6241   3.563   5.475   3.237
 1781SOL    HW1 6242   3.570   5.558   3.291
 1781SOL    HW2 6243   3.470   5.438   3.245
 1782SOL     OW 6244   3.544   1.778   3.894
 1782SOL    HW1 6245   3.474   1.733   3.949
 1782SOL    HW2 6246   3.520   1.874   3.881
 1783SOL     OW 6247   1.951   5.816   0.423
 1783SOL    HW1 6248   1.980   5.908   0.451
 1783SOL    HW2 6249   1.868   5.823   0.368
 1784SOL     OW 6250   3.489   6.743   5.141
 1784SOL    HW1 6251   3.445   6.712   5.225
 1784SOL    HW2 6252   3.437   6.711   5.062
 1785SOL     OW 6253   6.595   3.994   2.658
 1785SOL    HW1 6254   6.629   3.966   2.747
 1785SOL    HW2 6255   6.529   3.927   2.625
 1786SOL     OW 6256   3.164   2.619   1.089
 1786SOL    HW1 6257   3.099   2.627   1.013
 1786SOL    HW2 6258   3.149   2.694   1.154
 1787SOL     OW 6259   3.688   0.407   5.790
 1787SOL    HW1 6260   3.668   0.454   5.703
 1787SOL    HW2 6261   3.776   0.361   5.783
 1788SOL     OW 6262   1.885   5.056   5.033
 1788SOL    HW1 6263   1.828   5.086   5.109
 1788SOL    HW2 6264   1.973   5.104   5.036
 1789SOL     OW 6265   6.337   1.490   0.310
 1789SOL    HW1 6266   6.297   1.535   0.390
 1789SOL    HW2 6267   6.393   1.555   0.260
 1790SOL     OW 6268   3.625   6.949   3.586
 1790SOL    HW1 6269   3.665   6.933   3.496
 1790SOL    HW2 6270   3.649   6.874   3.647
 1791SOL     OW 6271   7.005   6.669   2.616
 1791SOL    HW1 6272   6.983   6.766   2.609
 1791SOL    HW2 6273   6.999   6.640   2.712
 1792SOL     OW 6274   1.184   2.961   4.736
 1792SOL    HW1 6275   1.226   3.048   4.711
 1792SOL    HW2 6276   1.228   2.925   4.819
 1793SOL     OW 6277   0.199   0.250   4.001
 1793SOL    HW1 6278   0.156   0.184   4.063
 1793SOL    HW2 6279   0.275   0.295   4.047
 1794SOL     OW 6280   4.298   5.521   6.062
 1794SOL    HW1 6281   4.206   5.501   6.027
 1794SOL    HW2 6282   4.366   5.493   5.995
 1795SOL     OW 6283   0.753   2.952   0.538
 1795SOL    HW1 6284   0.840   2.931   0.583
 1795SOL    HW2 6285   0.718   2.869   0.494
 1796SOL     OW 6286   3.418   0.644   6.413
 1796SOL    HW1 6287   3.392   0.634   6.317
 1796SOL    HW2 6288   3.340   0.679   6.466
 1797SOL     OW 6289   1.290   6.851   1.119
 1797SOL    HW1 6290   1.214   6.812   1.068
 1797SOL    HW2 6291   1.371   6.854   1.060
 1798SOL     OW 6292   4.972   2.226   3.191
 1798SOL    HW1 6293   4.956   2.163   3.116
 1798SOL    HW2 6294   4.888   2.278   3.209
 1799SOL     OW 6295   1.470   1.867   6.733
 1799SOL    HW1 6296   1.469   1.966   6.723
 1799SOL    HW2 6297   1.377   1.831   6.726
 1800SOL     OW 6298   4.000   5.111   1.663
 1800SOL    HW1 6299   4.059   5.178   1.707
 1800SOL    HW2 6300   3.923   5.091   1.724
 1801SOL     OW 6301   6.328   6.450   1.208
 1801SOL    HW1 6302   6.274   6.487   1.284
 1801SOL    HW2 6303   6.271   6.391   1.152
 1802SOL     OW 6304   5.010   5.751   4.266
 1802SOL    HW1 6305   4.988   5.654   4.273
 1802SOL    HW2 6306   4.936   5.805   4.306
 1803SOL     OW 6307   0.015   5.484   1.126
 1803SOL    HW1 6308   7.012   5.481   1.029
 1803SOL    HW2 6309   0.114   5.476   1.133
 1804SOL     OW 6310   2.894   3.359   5.188
 1804SOL    HW1 6311   2.911   3.270   5.230
 1804SOL    HW2 6312   2.814   3.401   5.230
 1805SOL     OW 6313   4.759   2.999   6.655
 1805SOL    HW1 6314   4.674   2.951   6.638
 1805SOL    HW2 6315   4.835   2.934   6.655
 1806SOL     OW 6316   0.412   6.797   1.645
 1806SOL    HW1 6317   0.400   6.832   1.552
 1806SOL    HW2 6318   0.499   6.830   1.682
 1807SOL     OW 6319   6.004   1.117   5.210
 1807SOL    HW1 6320   6.094   1.153   5.235
 1807SOL    HW2 6321   5.933   1.170   5.255
 1808SOL     OW 6322   1.752   4.782   4.032
 1808SOL    HW1 6323   1.826   4.716   4.012
 1808SOL    HW2 6324   1.749   4.799   4.130
 1809SOL     OW 6325   3.768   1.146   6.234
 1809SOL    HW1 6326   3.675   1.145   6.269
 1809SOL    HW2 6327   3.774   1.208   6.155
 1810SOL     OW 6328   2.699   6.315   2.869
 1810SOL    HW1 6329   2.692   6.396   2.927
 1810SOL    HW2 6330   2.784   6.318   2.817
 1811SOL     OW 6331   6.219   5.357   3.685
 1811SOL    HW1 6332   6.219   5.266   3.643
 1811SOL    HW2 6333   6.289   5.362   3.756
 1812SOL     OW 6334   4.082   5.449   6.365
 1812SOL    HW1 6335   4.169   5.401   6.360
 1812SOL    HW2 6336   4.045   5.461   6.272
 1813SOL     OW 6337   6.498   4.739   6.164
 1813SOL    HW1 6338   6.491   4.838   6.157
 1813SOL    HW2 6339   6.503   4.700   6.072
 1814SOL     OW 6340   4.203   6.554   2.723
 1814SOL    HW1 6341   4.278   6.576   2.662
 1814SOL    HW2 6342   4.126   6.518   2.670
 1815SOL     OW 6343   0.392   0.344   3.633
 1815SOL    HW1 6344   0.395   0.304   3.541
 1815SOL    HW2 6345   0.382   0.271   3.701
 1816SOL     OW 6346   1.020   4.124   0.004
 1816SOL    HW1 6347   0.990   4.034   6.996
 1816SOL    HW2 6348   1.108   4.116   0.051
 1817SOL     OW 6349   2.099   5.794   2.368
 1817SOL    HW1 6350   2.042   5.860   2.318
 1817SOL    HW2 6351   2.185   5.782   2.320
 1818SOL     OW 6352   2.002   1.363   3.221
 1818SOL    HW1 6353   1.944   1.383   3.141
 1818SOL    HW2 6354   2.096   1.391   3.202
 1819SOL     OW 6355   1.763   5.370   1.799
 1819SOL    HW1 6356   1.742   5.367   1.897
 1819SOL    HW2 6357   1.851   5.328   1.782
 1820SOL     OW 6358   4.909   0.115   2.630
 1820SOL    HW1 6359   4.866   0.074   2.549
 1820SOL    HW2 6360   4.849   0.184   2.669
 1821SOL     OW 6361   3.189   2.029   2.838
 1821SOL    HW1 6362   3.274   2.077   2.860
 1821SOL    HW2 6363   3.133   2.087   2.779
 1822SOL     OW 6364   3.239   3.364   1.728
 1822SOL    HW1 6365   3.289   3.347   1.813
 1822SOL    HW2 6366   3.200   3.278   1.695
 1823SOL     OW 6367   3.799   6.612   2.596
 1823SOL    HW1 6368   3.802   6.624   2.497
 1823SOL    HW2 6369   3.714   6.650   2.632
 1824SOL     OW 6370   5.246   2.766   1.534
 1824SOL    HW1 6371   5.208   2.674   1.549
 1824SOL    HW2 6372   5.186   2.834   1.577
 1825SOL     OW 6373   1.170   0.567   2.079
 1825SOL    HW1 6374   1.129   0.484   2.041
 1825SOL    HW2 6375   1.126   0.647   2.038
 1826SOL     OW 6376   3.912   6.450   6.375
 1826SOL    HW1 6377   3.910   6.472   6.472
 1826SOL    HW2 6378   3.845   6.377   6.356
 1827SOL     OW 6379   6.505   6.251   1.331
 1827SOL    HW1 6380   6.517   6.253   1.430
 1827SOL    HW2 6381   6.440   6.321   1.303
 1828SOL     OW 6382   1.544   2.135   6.411
 1828SOL    HW1 6383   1.590   2.216   6.376
 1828SOL    HW2 6384   1.525   2.146   6.508
 1829SOL     OW 6385   5.205   5.568   2.118
 1829SOL    HW1 6386   5.275   5.497   2.115
 1829SOL    HW2 6387   5.249   5.658   2.124
 1830SOL     OW 6388   5.049   6.562   3.700
 1830SOL    HW1 6389   5.057   6.660   3.720
 1830SOL    HW2 6390   5.129   6.514   3.736
 1831SOL     OW 6391   5.263   6.854   2.597
 1831SOL    HW1 6392   5.284   6.950   2.582
 1831SOL    HW2 6393   5.348   6.802   2.604
 1832SOL     OW 6394   4.696   3.027   0.635
 1832SOL    HW1 6395   4.777   3.011   0.692
 1832SOL    HW2 6396   4.668   3.123   0.643
 1833SOL     OW 6397   5.386   1.379   5.492
 1833SOL    HW1 6398   5.390   1.446   5.566
 1833SOL    HW2 6399   5.294   1.340   5.487
 1834SOL     OW 6400   2.725   3.096   1.003
 1834SOL    HW1 6401   2.688   3.111   0.911
 1834SOL    HW2 6402   2.823   3.116   1.002
 1835SOL     OW 6403   1.862   4.749   0.628
 1835SOL    HW1 6404   1.928   4.821   0.649
 1835SOL    HW2 6405   1.823   4.765   0.538
 1836SOL     OW 6406   0.397   6.679   0.744
 1836SOL    HW1 6407   0.423   6.623   0.666
 1836SOL    HW2 6408   0.449   6.764   0.743
 1837SOL     OW 6409   0.894   2.278   4.760
 1837SOL    HW1 6410   0.826   2.349   4.778
 1837SOL    HW2 6411   0.979   2.320   4.730
 1838SOL     OW 6412   6.436   2.150   4.253
 1838SOL    HW1 6413   6.511   2.155   4.187
 1838SOL    HW2 6414   6.455   2.078   4.320
 1839SOL     OW 6415   0.105   2.377   5.713
 1839SOL    HW1 6416   0.064   2.289   5.736
 1839SOL    HW2 6417   0.138   2.375   5.619
 1840SOL     OW 6418   1.965   5.821   0.880
 1840SOL    HW1 6419   2.064   5.829   0.882
 1840SOL    HW2 6420   1.937   5.766   0.801
 1841SOL     OW 6421   1.701   2.862   3.444
 1841SOL    HW1 6422   1.644   2.943   3.452
 1841SOL    HW2 6423   1.643   2.781   3.437
 1842SOL     OW 6424   1.013   4.673   6.971
 1842SOL    HW1 6425   0.958   4.706   0.024
 1842SOL    HW2 6426   1.047   4.581   6.992
 1843SOL     OW 6427   2.831   2.311   4.460
 1843SOL    HW1 6428   2.872   2.241   4.518
 1843SOL    HW2 6429   2.848   2.288   4.364
 1844SOL     OW 6430   4.855   3.004   3.737
 1844SOL    HW1 6431   4.895   3.068   3.671
 1844SOL    HW2 6432   4.874   3.035   3.830
 1845SOL     OW 6433   4.018   0.693   6.955
 1845SOL    HW1 6434   3.926   0.654   6.961
 1845SOL    HW2 6435   4.061   0.663   6.870
 1846SOL     OW 6436   3.188   1.325   5.656
 1846SOL    HW1 6437   3.197   1.281   5.567
 1846SOL    HW2 6438   3.226   1.417   5.652
 1847SOL     OW 6439   0.238   0.266   0.591
 1847SOL    HW1 6440   0.309   0.303   0.531
 1847SOL    HW2 6441   0.182   0.201   0.541
 1848SOL     OW 6442   2.632   6.953   2.375
 1848SOL    HW1 6443   2.601   0.008   2.323
 1848SOL    HW2 6444   2.579   6.872   2.350
 1849SOL     OW 6445   3.016   1.572   6.652
 1849SOL    HW1 6446   3.012   1.671   6.655
 1849SOL    HW2 6447   3.033   1.537   6.745
 1850SOL     OW 6448   5.829   2.403   2.680
 1850SOL    HW1 6449   5.919   2.383   2.640
 1850SOL    HW2 6450   5.767   2.435   2.608
 1851SOL     OW 6451   6.835   2.450   2.671
 1851SOL    HW1 6452   6.819   2.549   2.674
 1851SOL    HW2 6453   6.928   2.430   2.703
 1852SOL     OW 6454   5.051   2.973   0.279
 1852SOL    HW1 6455   5.075   3.052   0.335
 1852SOL    HW2 6456   5.071   2.889   0.329
 1853SOL     OW 6457   1.265   4.752   0.808
 1853SOL    HW1 6458   1.244   4.776   0.714
 1853SOL    HW2 6459   1.262   4.834   0.865
 1854SOL     OW 6460   2.476   5.580   4.447
 1854SOL    HW1 6461   2.415   5.519   4.498
 1854SOL    HW2 6462   2.553   5.606   4.505
 1855SOL     OW 6463   4.887   4.944   1.549
 1855SOL    HW1 6464   4.829   4.935   1.468
 1855SOL    HW2 6465   4.948   5.023   1.539
 1856SOL     OW 6466   4.977   2.189   5.535
 1856SOL    HW1 6467   4.977   2.262   5.466
 1856SOL    HW2 6468   5.001   2.227   5.624
 1857SOL     OW 6469   4.370   0.932   3.463
 1857SOL    HW1 6470   4.378   0.904   3.368
 1857SOL    HW2 6471   4.461   0.930   3.506
 1858SOL     OW 6472   4.981   3.555   3.313
 1858SOL    HW1 6473   4.994   3.457   3.297
 1858SOL    HW2 6474   4.935   3.568   3.400
 1859SOL     OW 6475   4.742   1.791   3.204
 1859SOL    HW1 6476   4.830   1.788   3.251
 1859SOL    HW2 6477   4.671   1.756   3.264
 1860SOL     OW 6478   5.257   1.198   4.722
 1860SOL    HW1 6479   5.256   1.289   4.764
 1860SOL    HW2 6480   5.344   1.182   4.676
 1861SOL     OW 6481   5.656   6.511   2.842
 1861SOL    HW1 6482   5.672   6.578   2.915
 1861SOL    HW2 6483   5.725   6.438   2.848
 1862SOL     OW 6484   2.159   1.608   7.014
 1862SOL    HW1 6485   2.097   1.588   0.066
 1862SOL    HW2 6486   2.129   1.690   6.966
 1863SOL     OW 6487   3.186   2.834   1.270
 1863SOL    HW1 6488   3.230   2.844   1.359
 1863SOL    HW2 6489   3.198   2.919   1.217
 1864SOL     OW 6490   1.391   6.483   4.206
 1864SOL    HW1 6491   1.455   6.526   4.270
 1864SOL    HW2 6492   1.355   6.399   4.247
 1865SOL     OW 6493   4.561   2.416   6.395
 1865SOL    HW1 6494   4.478   2.452   6.351
 1865SOL    HW2 6495   4.547   2.320   6.419
 1866SOL     OW 6496   4.720   5.091   2.686
 1866SOL    HW1 6497   4.652   5.019   2.700
 1866SOL    HW2 6498   4.810   5.050   2.672
 1867SOL     OW 6499   0.665   4.155   6.574
 1867SOL    HW1 6500   0.608   4.095   6.518
 1867SOL    HW2 6501   0.751   4.109   6.595
 1868SOL     OW 6502   6.057   4.157   5.644
 1868SOL    HW1 6503   6.127   4.196   5.703
 1868SOL    HW2 6504   6.058   4.057   5.652
 1869SOL     OW 6505   6.244   1.177   5.321
 1869SOL    HW1 6506   6.338   1.173   5.357
 1869SOL    HW2 6507   6.214   1.272   5.318
 1870SOL     OW 6508   1.657   5.682   4.259
 1870SOL    HW1 6509   1.722   5.692   4.335
 1870SOL    HW2 6510   1.706   5.682   4.172
 1871SOL     OW 6511   1.660   0.157   1.133
 1871SOL    HW1 6512   1.749   0.113   1.140
 1871SOL    HW2 6513   1.628   0.155   1.038
 1872SOL     OW 6514   2.219   4.498   0.013
 1872SOL    HW1 6515   2.125   4.462   0.010
 1872SOL    HW2 6516   2.283   4.423   0.031
 1873SOL     OW 6517   4.658   1.416   6.682
 1873SOL    HW1 6518   4.567   1.449   6.657
 1873SOL    HW2 6519   4.667   1.320   6.656
 1874SOL     OW 6520   1.233   2.227   2.732
 1874SOL    HW1 6521   1.277   2.303   2.781
 1874SOL    HW2 6522   1.216   2.254   2.637
 1875SOL     OW 6523   0.471   6.802   0.199
 1875SOL    HW1 6524   0.463   6.831   0.104
 1875SOL    HW2 6525   0.567   6.794   0.224
 1876SOL     OW 6526   2.757   0.311   4.276
 1876SOL    HW1 6527   2.829   0.247   4.250
 1876SOL    HW2 6528   2.673   0.288   4.226
 1877SOL     OW 6529   0.765   0.019   3.463
 1877SOL    HW1 6530   0.731   6.970   3.403
 1877SOL    HW2 6531   0.810   7.001   3.542
 1878SOL     OW 6532   6.385   2.578   5.314
 1878SOL    HW1 6533   6.369   2.582   5.413
 1878SOL    HW2 6534   6.366   2.485   5.281
 1879SOL     OW 6535   0.890   3.875   5.429
 1879SOL    HW1 6536   0.791   3.873   5.440
 1879SOL    HW2 6537   0.923   3.970   5.429
 1880SOL     OW 6538   6.176   0.484   5.822
 1880SOL    HW1 6539   6.270   0.515   5.840
 1880SOL    HW2 6540   6.173   0.435   5.736
 1881SOL     OW 6541   6.838   2.266   0.362
 1881SOL    HW1 6542   6.867   2.359   0.385
 1881SOL    HW2 6543   6.841   2.209   0.444
 1882SOL     OW 6544   0.723   4.633   6.046
 1882SOL    HW1 6545   0.656   4.658   5.976
 1882SOL    HW2 6546   0.746   4.537   6.037
 1883SOL     OW 6547   0.131   2.230   3.866
 1883SOL    HW1 6548   0.141   2.212   3.768
 1883SOL    HW2 6549   0.221   2.251   3.906
 1884SOL     OW 6550   0.490   2.668   1.263
 1884SOL    HW1 6551   0.574   2.680   1.211
 1884SOL    HW2 6552   0.483   2.738   1.333
 1885SOL     OW 6553   1.769   2.063   4.822
 1885SOL    HW1 6554   1.721   1.977   4.838
 1885SOL    HW2 6555   1.715   2.139   4.859
 1886SOL     OW 6556   1.302   6.390   3.234
 1886SOL    HW1 6557   1.227   6.381   3.300
 1886SOL    HW2 6558   1.341   6.482   3.241
 1887SOL     OW 6559   1.824   6.047   6.546
 1887SOL    HW1 6560   1.781   6.113   6.484
 1887SOL    HW2 6561   1.887   5.989   6.494
 1888SOL     OW 6562   2.422   0.954   1.806
 1888SOL    HW1 6563   2.474   1.021   1.858
 1888SOL    HW2 6564   2.481   0.911   1.738
 1889SOL     OW 6565   0.527   3.421   3.417
 1889SOL    HW1 6566   0.487   3.337   3.381
 1889SOL    HW2 6567   0.461   3.467   3.476
 1890SOL     OW 6568   0.094   5.987   3.618
 1890SOL    HW1 6569   0.052   6.056   3.676
 1890SOL    HW2 6570   0.177   6.025   3.576
 1891SOL     OW 6571   3.398   3.243   2.820
 1891SOL    HW1 6572   3.348   3.274   2.739
 1891SOL    HW2 6573   3.334   3.224   2.894
 1892SOL     OW 6574   0.312   0.785   2.467
 1892SOL    HW1 6575   0.250   0.741   2.402
 1892SOL    HW2 6576   0.390   0.824   2.417
 1893SOL     OW 6577   3.058   3.139   3.833
 1893SOL    HW1 6578   3.010   3.184   3.757
 1893SOL    HW2 6579   3.130   3.080   3.797
 1894SOL     OW 6580   3.082   3.865   4.179
 1894SOL    HW1 6581   3.148   3.936   4.207
 1894SOL    HW2 6582   3.034   3.831   4.259
 1895SOL     OW 6583   2.586   5.956   6.848
 1895SOL    HW1 6584   2.621   6.043   6.815
 1895SOL    HW2 6585   2.486   5.959   6.851
 1896SOL     OW 6586   5.374   2.575   0.988
 1896SOL    HW1 6587   5.460   2.616   0.959
 1896SOL    HW2 6588   5.305   2.646   1.001
 1897SOL     OW 6589   2.166   4.766   4.415
 1897SOL    HW1 6590   2.108   4.834   4.370
 1897SOL    HW2 6591   2.243   4.812   4.458
 1898SOL     OW 6592   1.340   5.936   3.507
 1898SOL    HW1 6593   1.309   5.859   3.451
 1898SOL    HW2 6594   1.306   6.021   3.468
 1899SOL     OW 6595   7.007   0.220   2.453
 1899SOL    HW1 6596   6.911   0.243   2.435
 1899SOL    HW2 6597   0.032   0.301   2.486
 1900SOL     OW 6598   2.834   6.797   0.200
 1900SOL    HW1 6599   2.833   6.726   0.130
 1900SOL    HW2 6600   2.872   6.882   0.162
 1901SOL     OW 6601   2.956   3.606   1.300
 1901SOL    HW1 6602   3.012   3.564   1.371
 1901SOL    HW2 6603   2.907   3.685   1.339
 1902SOL     OW 6604   1.322   6.754   4.272
 1902SOL    HW1 6605   1.256   6.785   4.203
 1902SOL    HW2 6606   1.339   6.656   4.260
 1903SOL     OW 6607   0.906   2.772   4.425
 1903SOL    HW1 6608   0.941   2.866   4.430
 1903SOL    HW2 6609   0.812   2.770   4.458
 1904SOL     OW 6610   5.459   5.524   2.410
 1904SOL    HW1 6611   5.539   5.484   2.456
 1904SOL    HW2 6612   5.451   5.620   2.437
 1905SOL     OW 6613   6.720   0.492   4.042
 1905SOL    HW1 6614   6.796   0.496   4.106
 1905SOL    HW2 6615   6.751   0.515   3.950
 1906SOL     OW 6616   1.830   0.053   5.395
 1906SOL    HW1 6617   1.835   0.076   5.493
 1906SOL    HW2 6618   1.738   0.071   5.361
 1907SOL     OW 6619   5.718   2.564   6.866
 1907SOL    HW1 6620   5.804   2.512   6.858
 1907SOL    HW2 6621   5.734   2.659   6.842
 1908SOL     OW 6622   3.276   1.062   1.285
 1908SOL    HW1 6623   3.295   1.067   1.187
 1908SOL    HW2 6624   3.193   1.112   1.306
 1909SOL     OW 6625   6.847   4.511   5.084
 1909SOL    HW1 6626   6.852   4.493   4.986
 1909SOL    HW2 6627   6.801   4.435   5.130
 1910SOL     OW 6628   6.914   6.425   5.747
 1910SOL    HW1 6629   6.940   6.442   5.653
 1910SOL    HW2 6630   6.982   6.367   5.792
 1911SOL     OW 6631   0.029   4.961   4.044
 1911SOL    HW1 6632   0.122   4.967   4.080
 1911SOL    HW2 6633   6.988   4.990   4.114
 1912SOL     OW 6634   2.557   5.533   2.069
 1912SOL    HW1 6635   2.524   5.577   2.153
 1912SOL    HW2 6636   2.519   5.441   2.063
 1913SOL     OW 6637   2.765   4.462   5.849
 1913SOL    HW1 6638   2.764   4.499   5.755
 1913SOL    HW2 6639   2.857   4.472   5.887
 1914SOL     OW 6640   1.982   4.892   6.320
 1914SOL    HW1 6641   2.026   4.877   6.409
 1914SOL    HW2 6642   1.919   4.970   6.327
 1915SOL     OW 6643   4.075   2.390   5.571
 1915SOL    HW1 6644   3.984   2.347   5.571
 1915SOL    HW2 6645   4.069   2.482   5.610
 1916SOL     OW 6646   4.070   0.847   2.106
 1916SOL    HW1 6647   4.060   0.945   2.091
 1916SOL    HW2 6648   4.074   0.828   2.204
 1917SOL     OW 6649   2.307   4.019   1.610
 1917SOL    HW1 6650   2.268   4.106   1.579
 1917SOL    HW2 6651   2.235   3.961   1.648
 1918SOL     OW 6652   5.553   2.670   4.285
 1918SOL    HW1 6653   5.630   2.658   4.221
 1918SOL    HW2 6654   5.589   2.683   4.377
 1919SOL     OW 6655   0.396   2.370   1.157
 1919SOL    HW1 6656   0.435   2.340   1.244
 1919SOL    HW2 6657   0.455   2.339   1.082
 1920SOL     OW 6658   5.202   2.557   0.772
 1920SOL    HW1 6659   5.270   2.521   0.836
 1920SOL    HW2 6660   5.113   2.562   0.816
 1921SOL     OW 6661   1.798   2.703   0.088
 1921SOL    HW1 6662   1.700   2.685   0.073
 1921SOL    HW2 6663   1.852   2.652   0.022
 1922SOL     OW 6664   3.468   3.293   2.246
 1922SOL    HW1 6665   3.378   3.328   2.221
 1922SOL    HW2 6666   3.465   3.257   2.339
 1923SOL     OW 6667   4.103   0.548   4.987
 1923SOL    HW1 6668   4.138   0.553   4.894
 1923SOL    HW2 6669   4.180   0.536   5.051
 1924SOL     OW 6670   3.928   0.299   0.142
 1924SOL    HW1 6671   3.870   0.241   0.199
 1924SOL    HW2 6672   3.879   0.324   0.058
 1925SOL     OW 6673   1.384   4.416   0.627
 1925SOL    HW1 6674   1.435   4.481   0.684
 1925SOL    HW2 6675   1.401   4.323   0.659
 1926SOL     OW 6676   3.374   0.105   2.167
 1926SOL    HW1 6677   3.392   0.072   2.074
 1926SOL    HW2 6678   3.387   0.031   2.232
 1927SOL     OW 6679   2.194   5.295   1.990
 1927SOL    HW1 6680   2.199   5.219   1.924
 1927SOL    HW2 6681   2.247   5.271   2.072
 1928SOL     OW 6682   5.259   4.288   3.286
 1928SOL    HW1 6683   5.177   4.278   3.230
 1928SOL    HW2 6684   5.330   4.227   3.252
 1929SOL     OW 6685   3.447   0.001   3.207
 1929SOL    HW1 6686   3.421   0.096   3.226
 1929SOL    HW2 6687   3.524   7.022   3.144
 1930SOL     OW 6688   4.371   3.031   6.717
 1930SOL    HW1 6689   4.298   2.998   6.776
 1930SOL    HW2 6690   4.428   2.953   6.688
 1931SOL     OW 6691   0.236   1.827   4.755
 1931SOL    HW1 6692   0.285   1.782   4.830
 1931SOL    HW2 6693   0.262   1.783   4.669
 1932SOL     OW 6694   4.352   2.420   1.660
 1932SOL    HW1 6695   4.417   2.468   1.718
 1932SOL    HW2 6696   4.263   2.465   1.665
 1933SOL     OW 6697   0.997   1.001   1.371
 1933SOL    HW1 6698   0.933   0.924   1.376
 1933SOL    HW2 6699   1.069   0.990   1.440
 1934SOL     OW 6700   0.296   0.463   6.991
 1934SOL    HW1 6701   0.346   0.466   6.905
 1934SOL    HW2 6702   0.197   0.469   6.972
 1935SOL     OW 6703   6.329   5.052   4.272
 1935SOL    HW1 6704   6.424   5.020   4.282
 1935SOL    HW2 6705   6.326   5.123   4.202
 1936SOL     OW 6706   4.617   2.794   5.721
 1936SOL    HW1 6707   4.541   2.729   5.720
 1936SOL    HW2 6708   4.702   2.745   5.698
 1937SOL     OW 6709   5.461   5.017   6.361
 1937SOL    HW1 6710   5.400   5.094   6.382
 1937SOL    HW2 6711   5.437   4.939   6.418
 1938SOL     OW 6712   6.987   3.380   6.375
 1938SOL    HW1 6713   0.063   3.368   6.381
 1938SOL    HW2 6714   6.961   3.464   6.422
 1939SOL     OW 6715   1.081   0.568   4.769
 1939SOL    HW1 6716   1.109   0.662   4.751
 1939SOL    HW2 6717   1.147   0.505   4.727
 1940SOL     OW 6718   6.822   5.083   0.551
 1940SOL    HW1 6719   6.868   5.005   0.592
 1940SOL    HW2 6720   6.765   5.128   0.619
 1941SOL     OW 6721   5.742   1.737   4.519
 1941SOL    HW1 6722   5.645   1.714   4.509
 1941SOL    HW2 6723   5.776   1.776   4.434
 1942SOL     OW 6724   6.460   3.741   2.665
 1942SOL    HW1 6725   6.455   3.754   2.566
 1942SOL    HW2 6726   6.372   3.766   2.706
 1943SOL     OW 6727   0.809   2.207   2.594
 1943SOL    HW1 6728   0.823   2.275   2.521
 1943SOL    HW2 6729   0.887   2.144   2.596
 1944SOL     OW 6730   6.682   2.572   3.457
 1944SOL    HW1 6731   6.749   2.644   3.440
 1944SOL    HW2 6732   6.682   2.548   3.554
 1945SOL     OW 6733   4.780   1.409   1.513
 1945SOL    HW1 6734   4.727   1.425   1.597
 1945SOL    HW2 6735   4.720   1.370   1.443
 1946SOL     OW 6736   6.306   4.955   1.048
 1946SOL    HW1 6737   6.257   5.040   1.070
 1946SOL    HW2 6738   6.362   4.929   1.127
 1947SOL     OW 6739   6.214   4.794   3.615
 1947SOL    HW1 6740   6.180   4.827   3.527
 1947SOL    HW2 6741   6.236   4.697   3.607
 1948SOL     OW 6742   4.981   3.571   3.046
 1948SOL    HW1 6743   4.943   3.659   3.017
 1948SOL    HW2 6744   4.976   3.563   3.145
 1949SOL     OW 6745   3.602   5.262   7.008
 1949SOL    HW1 6746   3.583   5.207   0.066
 1949SOL    HW2 6747   3.524   5.324   6.990
 1950SOL     OW 6748   3.404   3.862   3.204
 1950SOL    HW1 6749   3.460   3.818   3.274
 1950SOL    HW2 6750   3.349   3.934   3.246
 1951SOL     OW 6751   5.973   4.800   5.424
 1951SOL    HW1 6752   5.891   4.803   5.366
 1951SOL    HW2 6753   6.041   4.740   5.382
 1952SOL     OW 6754   5.878   5.083   0.541
 1952SOL    HW1 6755   5.931   5.150   0.489
 1952SOL    HW2 6756   5.793   5.125   0.573
 1953SOL     OW 6757   0.793   1.403   6.710
 1953SOL    HW1 6758   0.838   1.388   6.798
 1953SOL    HW2 6759   0.862   1.415   6.639
 1954SOL     OW 6760   4.386   6.852   1.953
 1954SOL    HW1 6761   4.387   6.865   2.052
 1954SOL    HW2 6762   4.292   6.845   1.920
 1955SOL     OW 6763   0.093   2.104   3.319
 1955SOL    HW1 6764   0.035   2.151   3.253
 1955SOL    HW2 6765   0.068   2.008   3.324
 1956SOL     OW 6766   5.781   0.258   2.035
 1956SOL    HW1 6767   5.728   0.185   2.079
 1956SOL    HW2 6768   5.749   0.347   2.069
 1957SOL     OW 6769   6.155   1.965   4.571
 1957SOL    HW1 6770   6.202   2.040   4.618
 1957SOL    HW2 6771   6.157   1.883   4.629
 1958SOL     OW 6772   4.409   1.728   0.199
 1958SOL    HW1 6773   4.459   1.808   0.233
 1958SOL    HW2 6774   4.364   1.752   0.113
 1959SOL     OW 6775   0.506   1.154   4.914
 1959SOL    HW1 6776   0.528   1.097   4.835
 1959SOL    HW2 6777   0.471   1.096   4.988
 1960SOL     OW 6778   5.989   4.300   3.996
 1960SOL    HW1 6779   6.065   4.253   4.040
 1960SOL    HW2 6780   5.943   4.359   4.062
 1961SOL     OW 6781   0.070   3.541   4.271
 1961SOL    HW1 6782   0.041   3.614   4.209
 1961SOL    HW2 6783   0.115   3.581   4.350
 1962SOL     OW 6784   0.979   0.516   2.771
 1962SOL    HW1 6785   1.069   0.473   2.766
 1962SOL    HW2 6786   0.938   0.499   2.860
 1963SOL     OW 6787   0.406   2.956   1.108
 1963SOL    HW1 6788   0.426   2.946   1.205
 1963SOL    HW2 6789   0.370   3.047   1.090
 1964SOL     OW 6790   5.976   3.713   1.068
 1964SOL    HW1 6791   5.982   3.646   1.142
 1964SOL    HW2 6792   6.063   3.762   1.061
 1965SOL     OW 6793   6.891   4.146   4.014
 1965SOL    HW1 6794   6.874   4.060   3.966
 1965SOL    HW2 6795   6.820   4.161   4.083
 1966SOL     OW 6796   1.654   4.770   0.180
 1966SOL    HW1 6797   1.584   4.759   0.251
 1966SOL    HW2 6798   1.732   4.820   0.218
 1967SOL     OW 6799   6.301   3.307   3.689
 1967SOL    HW1 6800   6.211   3.304   3.732
 1967SOL    HW2 6801   6.303   3.245   3.611
 1968SOL     OW 6802   2.745   1.541   4.928
 1968SOL    HW1 6803   2.767   1.562   5.023
 1968SOL    HW2 6804   2.826   1.554   4.871
 1969SOL     OW 6805   2.544   6.537   0.204
 1969SOL    HW1 6806   2.620   6.563   0.263
 1969SOL    HW2 6807   2.464   6.514   0.260
 1970SOL     OW 6808   5.893   5.327   5.168
 1970SOL    HW1 6809   5.824   5.385   5.211
 1970SOL    HW2 6810   5.850   5.242   5.137
 1971SOL     OW 6811   1.761   5.242   4.879
 1971SOL    HW1 6812   1.664   5.233   4.900
 1971SOL    HW2 6813   1.812   5.169   4.924
 1972SOL     OW 6814   6.055   2.926   2.512
 1972SOL    HW1 6815   6.008   2.916   2.600
 1972SOL    HW2 6816   6.153   2.932   2.528
 1973SOL     OW 6817   2.358   2.931   0.694
 1973SOL    HW1 6818   2.387   3.027   0.692
 1973SOL    HW2 6819   2.379   2.892   0.783
 1974SOL     OW 6820   2.604   5.788   4.745
 1974SOL    HW1 6821   2.671   5.806   4.817
 1974SOL    HW2 6822   2.535   5.723   4.780
 1975SOL     OW 6823   2.274   2.709   3.221
 1975SOL    HW1 6824   2.248   2.700   3.317
 1975SOL    HW2 6825   2.203   2.759   3.171
 1976SOL     OW 6826   0.501   0.105   5.880
 1976SOL    HW1 6827   0.586   0.113   5.828
 1976SOL    HW2 6828   0.472   0.009   5.881
 1977SOL     OW 6829   1.757   4.688   5.483
 1977SOL    HW1 6830   1.778   4.777   5.443
 1977SOL    HW2 6831   1.663   4.661   5.459
 1978SOL     OW 6832   3.053   0.149   1.778
 1978SOL    HW1 6833   3.049   0.215   1.703
 1978SOL    HW2 6834   2.989   0.074   1.760
 1979SOL     OW 6835   6.422   4.994   6.102
 1979SOL    HW1 6836   6.363   5.019   6.025
 1979SOL    HW2 6837   6.516   5.019   6.080
 1980SOL     OW 6838   3.255   1.576   0.789
 1980SOL    HW1 6839   3.345   1.618   0.801
 1980SOL    HW2 6840   3.265   1.476   0.787
 1981SOL     OW 6841   3.431   2.148   2.923
 1981SOL    HW1 6842   3.440   2.209   3.002
 1981SOL    HW2 6843   3.510   2.159   2.863
 1982SOL     OW 6844   0.865   2.738   5.222
 1982SOL    HW1 6845   0.881   2.704   5.130
 1982SOL    HW2 6846   0.799   2.679   5.269
 1983SOL     OW 6847   0.221   0.673   2.184
 1983SOL    HW1 6848   0.244   0.767   2.158
 1983SOL    HW2 6849   0.142   0.642   2.131
 1984SOL     OW 6850   4.302   2.879   5.984
 1984SOL    HW1 6851   4.260   2.890   5.894
 1984SOL    HW2 6852   4.231   2.882   6.054
 1985SOL     OW 6853   6.526   3.366   2.423
 1985SOL    HW1 6854   6.428   3.348   2.433
 1985SOL    HW2 6855   6.542   3.420   2.341
 1986SOL     OW 6856   3.556   2.815   1.991
 1986SOL    HW1 6857   3.549   2.744   1.921
 1986SOL    HW2 6858   3.649   2.851   1.992
 1987SOL     OW 6859   2.739   1.379   1.062
 1987SOL    HW1 6860   2.822   1.396   1.116
 1987SOL    HW2 6861   2.761   1.316   0.987
 1988SOL     OW 6862   0.295   2.202   1.456
 1988SOL    HW1 6863   0.366   2.163   1.398
 1988SOL    HW2 6864   0.331   2.282   1.504
 1989SOL     OW 6865   3.107   4.915   4.601
 1989SOL    HW1 6866   3.070   4.882   4.687
 1989SOL    HW2 6867   3.035   4.962   4.549
 1990SOL     OW 6868   3.942   0.577   0.263
 1990SOL    HW1 6869   3.855   0.569   0.215
 1990SOL    HW2 6870   3.977   0.485   0.283
 1991SOL     OW 6871   2.922   4.905   0.798
 1991SOL    HW1 6872   2.847   4.909   0.732
 1991SOL    HW2 6873   2.991   4.973   0.774
 1992SOL     OW 6874   0.422   6.494   1.637
 1992SOL    HW1 6875   0.505   6.464   1.684
 1992SOL    HW2 6876   0.399   6.587   1.667
 1993SOL     OW 6877   2.477   2.278   3.296
 1993SOL    HW1 6878   2.538   2.200   3.288
 1993SOL    HW2 6879   2.390   2.248   3.337
 1994SOL     OW 6880   3.211   3.086   1.135
 1994SOL    HW1 6881   3.237   3.165   1.191
 1994SOL    HW2 6882   3.289   3.058   1.079
 1995SOL     OW 6883   5.460   1.678   4.447
 1995SOL    HW1 6884   5.455   1.579   4.462
 1995SOL    HW2 6885   5.367   1.714   4.438
 1996SOL     OW 6886   4.229   1.054   1.082
 1996SOL    HW1 6887   4.313   1.001   1.077
 1996SOL    HW2 6888   4.249   1.150   1.063
 1997SOL     OW 6889   3.799   0.377   4.168
 1997SOL    HW1 6890   3.814   0.453   4.231
 1997SOL    HW2 6891   3.798   0.291   4.219
 1998SOL     OW 6892   2.002   3.650   1.306
 1998SOL    HW1 6893   1.976   3.739   1.270
 1998SOL    HW2 6894   1.924   3.610   1.355
 1999SOL     OW 6895   1.591   0.120   0.891
 1999SOL    HW1 6896   1.552   0.030   0.873
 1999SOL    HW2 6897   1.683   0.124   0.854
 2000SOL     OW 6898   3.965   4.291   6.005
 2000SOL    HW1 6899   3.908   4.309   5.925
 2000SOL    HW2 6900   3.927   4.213   6.055
 2001SOL     OW 6901   2.054   1.750   0.684
 2001SOL    HW1 6902   1.995   1.827   0.658
 2001SOL    HW2 6903   2.135   1.786   0.731
 2002SOL     OW 6904   0.004   5.090   0.273
 2002SOL    HW1 6905   6.987   5.181   0.277
 2002SOL    HW2 6906   6.964   5.027   0.229
 2003SOL     OW 6907   6.214   4.391   2.675
 2003SOL    HW1 6908   6.229   4.444   2.758
 2003SOL    HW2 6909   6.118   4.395   2.649
 2004SOL     OW 6910   3.954   6.998   3.407
 2004SOL    HW1 6911   3.924   0.031   3.484
 2004SOL    HW2 6912   3.900   7.021   3.326
 2005SOL     OW 6913   1.511   6.368   6.933
 2005SOL    HW1 6914   1.558   6.358   6.845
 2005SOL    HW2 6915   1.467   6.457   6.938
 2006SOL     OW 6916   5.712   5.883   2.553
 2006SOL    HW1 6917   5.703   5.787   2.578
 2006SOL    HW2 6918   5.647   5.904   2.480
 2007SOL     OW 6919   5.373   4.372   0.063
 2007SOL    HW1 6920   5.323   4.443   0.112
 2007SOL    HW2 6921   5.443   4.413   0.005
 2008SOL     OW 6922   1.724   3.193   3.618
 2008SOL    HW1 6923   1.803   3.143   3.654
 2008SOL    HW2 6924   1.640   3.142   3.638
 2009SOL     OW 6925   6.319   0.005   2.711
 2009SOL    HW1 6926   6.287   0.082   2.656
 2009SOL    HW2 6927   6.287   6.943   2.669
 2010SOL     OW 6928   0.559   2.157   1.324
 2010SOL    HW1 6929   0.566   2.143   1.225
 2010SOL    HW2 6930   0.632   2.218   1.354
 2011SOL     OW 6931   1.388   6.931   5.117
 2011SOL    HW1 6932   1.330   6.887   5.186
 2011SOL    HW2 6933   1.359   0.002   5.104
 2012SOL     OW 6934   1.366   2.992   1.973
 2012SOL    HW1 6935   1.319   2.981   1.886
 2012SOL    HW2 6936   1.417   3.078   1.974
 2013SOL     OW 6937   0.765   3.491   2.100
 2013SOL    HW1 6938   0.762   3.591   2.106
 2013SOL    HW2 6939   0.857   3.459   2.121
 2014SOL     OW 6940   3.789   0.843   4.586
 2014SOL    HW1 6941   3.852   0.793   4.646
 2014SOL    HW2 6942   3.825   0.845   4.493
 2015SOL     OW 6943   4.103   0.574   1.933
 2015SOL    HW1 6944   4.012   0.589   1.896
 2015SOL    HW2 6945   4.131   0.653   1.988
 2016SOL     OW 6946   1.852   0.426   4.810
 2016SOL    HW1 6947   1.900   0.382   4.735
 2016SOL    HW2 6948   1.905   0.414   4.895
 2017SOL     OW 6949   4.176   6.568   3.639
 2017SOL    HW1 6950   4.235   6.489   3.624
 2017SOL    HW2 6951   4.133   6.595   3.552
 2018SOL     OW 6952   1.495   0.798   4.239
 2018SOL    HW1 6953   1.586   0.761   4.257
 2018SOL    HW2 6954   1.461   0.845   4.320
 2019SOL     OW 6955   5.840   5.209   6.478
 2019SOL    HW1 6956   5.794   5.168   6.400
 2019SOL    HW2 6957   5.939   5.208   6.462
 2020SOL     OW 6958   2.281   6.394   7.005
 2020SOL    HW1 6959   2.201   6.435   6.961
 2020SOL    HW2 6960   2.364   6.433   6.965
 2021SOL     OW 6961   6.904   5.959   4.248
 2021SOL    HW1 6962   6.883   5.958   4.346
 2021SOL    HW2 6963   6.932   5.867   4.220
 2022SOL     OW 6964   1.942   3.877   4.476
 2022SOL    HW1 6965   1.983   3.830   4.554
 2022SOL    HW2 6966   2.012   3.894   4.407
 2023SOL     OW 6967   6.828   6.933   0.534
 2023SOL    HW1 6968   6.751   6.871   0.521
 2023SOL    HW2 6969   6.876   6.945   0.447
 2024SOL     OW 6970   0.518   5.934   4.258
 2024SOL    HW1 6971   0.452   5.911   4.187
 2024SOL    HW2 6972   0.483   5.903   4.347
 2025SOL     OW 6973   1.566   6.144   4.270
 2025SOL    HW1 6974   1.657   6.109   4.248
 2025SOL    HW2 6975   1.513   6.154   4.186
 2026SOL     OW 6976   0.267   0.261   5.914
 2026SOL    HW1 6977   0.347   0.206   5.891
 2026SOL    HW2 6978   0.270   0.285   6.012
 2027SOL     OW 6979   6.562   6.065   1.881
 2027SOL    HW1 6980   6.594   5.983   1.835
 2027SOL    HW2 6981   6.542   6.044   1.977
 2028SOL     OW 6982   3.395   5.530   4.732
 2028SOL    HW1 6983   3.321   5.586   4.694
 2028SOL    HW2 6984   3.421   5.565   4.822
 2029SOL     OW 6985   6.550   2.563   6.729
 2029SOL    HW1 6986   6.456   2.537   6.709
 2029SOL    HW2 6987   6.613   2.495   6.691
 2030SOL     OW 6988   2.062   0.166   1.922
 2030SOL    HW1 6989   2.137   0.123   1.872
 2030SOL    HW2 6990   2.011   0.096   1.972
 2031SOL     OW 6991   0.167   5.991   4.342
 2031SOL    HW1 6992   0.201   5.923   4.277
 2031SOL    HW2 6993   0.189   6.083   4.310
 2032SOL     OW 6994   2.413   2.374   5.866
 2032SOL    HW1 6995   2.377   2.323   5.788
 2032SOL    HW2 6996   2.399   2.322   5.950
 2033SOL     OW 6997   2.726   2.058   0.694
 2033SOL    HW1 6998   2.776   1.976   0.721
 2033SOL    HW2 6999   2.637   2.031   0.657
 2034SOL     OW 7000   0.511   3.728   4.641
 2034SOL    HW1 7001   0.493   3.728   4.542
 2034SOL    HW2 7002   0.576   3.656   4.663
 2035SOL     OW 7003   5.334   6.954   2.948
 2035SOL    HW1 7004   5.358   6.874   2.892
 2035SOL    HW2 7005   5.263   7.006   2.901
 2036SOL     OW 7006   0.366   4.674   6.821
 2036SOL    HW1 7007   0.444   4.635   6.869
 2036SOL    HW2 7008   0.361   4.772   6.839
 2037SOL     OW 7009   0.934   2.422   6.748
 2037SOL    HW1 7010   0.924   2.469   6.661
 2037SOL    HW2 7011   0.850   2.432   6.802
 2038SOL     OW 7012   0.995   1.199   6.432
 2038SOL    HW1 7013   1.034   1.203   6.340
 2038SOL    HW2 7014   1.067   1.214   6.500
 2039SOL     OW 7015   5.206   6.491   3.476
 2039SOL    HW1 7016   5.126   6.533   3.518
 2039SOL    HW2 7017   5.185   6.465   3.382
 2040SOL     OW 7018   2.118   2.456   0.213
 2040SOL    HW1 7019   2.142   2.485   0.306
 2040SOL    HW2 7020   2.170   2.373   0.190
 2041SOL     OW 7021   2.604   0.847   6.561
 2041SOL    HW1 7022   2.516   0.804   6.580
 2041SOL    HW2 7023   2.608   0.871   6.464
 2042SOL     OW 7024   6.529   1.230   5.818
 2042SOL    HW1 7025   6.540   1.144   5.768
 2042SOL    HW2 7026   6.447   1.277   5.785
 2043SOL     OW 7027   0.478   3.898   1.114
 2043SOL    HW1 7028   0.395   3.927   1.067
 2043SOL    HW2 7029   0.507   3.809   1.079
 2044SOL     OW 7030   3.933   0.621   1.442
 2044SOL    HW1 7031   3.930   0.715   1.475
 2044SOL    HW2 7032   3.844   0.578   1.455
 2045SOL     OW 7033   1.371   6.435   4.539
 2045SOL    HW1 7034   1.363   6.424   4.638
 2045SOL    HW2 7035   1.467   6.436   4.513
 2046SOL     OW 7036   0.539   1.981   4.936
 2046SOL    HW1 7037   0.547   2.028   5.023
 2046SOL    HW2 7038   0.502   2.043   4.867
 2047SOL     OW 7039   0.286   0.743   0.776
 2047SOL    HW1 7040   0.322   0.822   0.728
 2047SOL    HW2 7041   0.250   0.677   0.710
 2048SOL     OW 7042   1.034   2.207   3.935
 2048SOL    HW1 7043   0.966   2.252   3.994
 2048SOL    HW2 7044   1.074   2.274   3.873
 2049SOL     OW 7045   4.555   2.204   4.662
 2049SOL    HW1 7046   4.574   2.138   4.589
 2049SOL    HW2 7047   4.497   2.278   4.626
 2050SOL     OW 7048   0.857   1.179   4.095
 2050SOL    HW1 7049   0.880   1.107   4.029
 2050SOL    HW2 7050   0.860   1.268   4.049
 2051SOL     OW 7051   2.607   6.438   6.973
 2051SOL    HW1 7052   2.699   6.398   6.981
 2051SOL    HW2 7053   2.572   6.458   0.041
 2052SOL     OW 7054   0.910   4.034   6.646
 2052SOL    HW1 7055   1.003   4.003   6.664
 2052SOL    HW2 7056   0.858   4.035   6.732
 2053SOL     OW 7057   6.813   5.464   3.191
 2053SOL    HW1 7058   6.894   5.479   3.246
 2053SOL    HW2 7059   6.839   5.434   3.099
 2054SOL     OW 7060   2.920   3.865   2.900
 2054SOL    HW1 7061   2.858   3.867   2.978
 2054SOL    HW2 7062   2.883   3.805   2.829
 2055SOL     OW 7063   3.784   2.377   5.556
 2055SOL    HW1 7064   3.793   2.464   5.508
 2055SOL    HW2 7065   3.754   2.395   5.650
 2056SOL     OW 7066   3.257   4.722   1.345
 2056SOL    HW1 7067   3.321   4.647   1.360
 2056SOL    HW2 7068   3.283   4.800   1.402
 2057SOL     OW 7069   5.176   2.850   4.698
 2057SOL    HW1 7070   5.137   2.890   4.780
 2057SOL    HW2 7071   5.230   2.919   4.649
 2058SOL     OW 7072   6.847   6.918   3.169
 2058SOL    HW1 7073   6.840   7.009   3.212
 2058SOL    HW2 7074   6.756   6.886   3.144
 2059SOL     OW 7075   1.411   1.036   5.326
 2059SOL    HW1 7076   1.504   1.059   5.297
 2059SOL    HW2 7077   1.391   1.080   5.413
 2060SOL     OW 7078   1.907   3.036   0.071
 2060SOL    HW1 7079   1.883   3.015   0.166
 2060SOL    HW2 7080   1.828   3.018   0.012
 2061SOL     OW 7081   1.754   2.585   2.547
 2061SOL    HW1 7082   1.841   2.597   2.595
 2061SOL    HW2 7083   1.755   2.640   2.463
 2062SOL     OW 7084   7.016   4.931   5.137
 2062SOL    HW1 7085   0.046   4.973   5.210
 2062SOL    HW2 7086   6.918   4.943   5.157
 2063SOL     OW 7087   1.052   1.571   4.485
 2063SOL    HW1 7088   1.145   1.557   4.452
 2063SOL    HW2 7089   1.040   1.667   4.512
 2064SOL     OW 7090   1.089   3.429   3.683
 2064SOL    HW1 7091   1.089   3.333   3.655
 2064SOL    HW2 7092   1.112   3.435   3.780
 2065SOL     OW 7093   4.025   3.720   5.665
 2065SOL    HW1 7094   3.964   3.642   5.650
 2065SOL    HW2 7095   4.002   3.793   5.601
 2066SOL     OW 7096   1.122   3.325   5.668
 2066SOL    HW1 7097   1.034   3.296   5.632
 2066SOL    HW2 7098   1.129   3.425   5.665
 2067SOL     OW 7099   6.322   5.291   1.513
 2067SOL    HW1 7100   6.345   5.247   1.600
 2067SOL    HW2 7101   6.379   5.373   1.502
 2068SOL     OW 7102   4.503   0.573   4.735
 2068SOL    HW1 7103   4.489   0.672   4.742
 2068SOL    HW2 7104   4.492   0.544   4.640
 2069SOL     OW 7105   0.151   1.049   3.328
 2069SOL    HW1 7106   0.164   1.123   3.262
 2069SOL    HW2 7107   0.083   1.077   3.395
 2070SOL     OW 7108   1.264   5.190   1.151
 2070SOL    HW1 7109   1.194   5.223   1.214
 2070SOL    HW2 7110   1.253   5.236   1.063
 2071SOL     OW 7111   0.475   2.003   5.237
 2071SOL    HW1 7112   0.501   1.912   5.205
 2071SOL    HW2 7113   0.379   2.021   5.213
 2072SOL     OW 7114   5.262   4.419   5.416
 2072SOL    HW1 7115   5.305   4.461   5.496
 2072SOL    HW2 7116   5.330   4.366   5.365
 2073SOL     OW 7117   3.120   5.380   6.799
 2073SOL    HW1 7118   3.146   5.421   6.711
 2073SOL    HW2 7119   3.022   5.357   6.797
 2074SOL     OW 7120   1.434   4.856   6.144
 2074SOL    HW1 7121   1.410   4.828   6.051
 2074SOL    HW2 7122   1.522   4.903   6.143
 2075SOL     OW 7123   6.088   3.055   1.175
 2075SOL    HW1 7124   5.991   3.028   1.174
 2075SOL    HW2 7125   6.109   3.106   1.091
 2076SOL     OW 7126   6.195   6.892   4.534
 2076SOL    HW1 7127   6.172   6.921   4.442
 2076SOL    HW2 7128   6.253   6.961   4.577
 2077SOL     OW 7129   6.535   4.809   1.240
 2077SOL    HW1 7130   6.529   4.710   1.224
 2077SOL    HW2 7131   6.592   4.851   1.168
 2078SOL     OW 7132   0.738   3.162   5.632
 2078SOL    HW1 7133   0.782   3.228   5.571
 2078SOL    HW2 7134   0.683   3.098   5.578
 2079SOL     OW 7135   5.389   0.967   2.601
 2079SOL    HW1 7136   5.436   1.053   2.621
 2079SOL    HW2 7137   5.402   0.904   2.677
 2080SOL     OW 7138   2.399   3.578   6.134
 2080SOL    HW1 7139   2.364   3.587   6.227
 2080SOL    HW2 7140   2.447   3.662   6.107
 2081SOL     OW 7141   5.782   6.049   2.170
 2081SOL    HW1 7142   5.854   5.980   2.161
 2081SOL    HW2 7143   5.814   6.123   2.229
 2082SOL     OW 7144   6.497   6.179   4.220
 2082SOL    HW1 7145   6.532   6.159   4.311
 2082SOL    HW2 7146   6.540   6.117   4.154
 2083SOL     OW 7147   0.245   6.730   3.771
 2083SOL    HW1 7148   0.342   6.739   3.748
 2083SOL    HW2 7149   0.234   6.656   3.837
 2084SOL     OW 7150   6.488   2.265   0.602
 2084SOL    HW1 7151   6.391   2.287   0.592
 2084SOL    HW2 7152   6.515   2.278   0.697
 2085SOL     OW 7153   5.926   5.912   1.256
 2085SOL    HW1 7154   5.983   5.960   1.324
 2085SOL    HW2 7155   5.984   5.855   1.198
 2086SOL     OW 7156   4.612   0.721   6.882
 2086SOL    HW1 7157   4.562   0.731   6.968
 2086SOL    HW2 7158   4.611   0.808   6.833
 2087SOL     OW 7159   4.344   1.498   6.940
 2087SOL    HW1 7160   4.314   1.593   6.927
 2087SOL    HW2 7161   4.296   1.439   6.875
 2088SOL     OW 7162   1.001   5.256   5.592
 2088SOL    HW1 7163   0.906   5.224   5.586
 2088SOL    HW2 7164   1.038   5.235   5.682
 2089SOL     OW 7165   2.487   3.217   6.509
 2089SOL    HW1 7166   2.527   3.231   6.419
 2089SOL    HW2 7167   2.393   3.252   6.509
 2090SOL     OW 7168   5.359   2.876   5.861
 2090SOL    HW1 7169   5.271   2.895   5.818
 2090SOL    HW2 7170   5.355   2.788   5.908
 2091SOL     OW 7171   5.252   6.124   1.213
 2091SOL    HW1 7172   5.224   6.060   1.285
 2091SOL    HW2 7173   5.271   6.213   1.254
 2092SOL     OW 7174   3.837   3.518   1.425
 2092SOL    HW1 7175   3.907   3.448   1.435
 2092SOL    HW2 7176   3.853   3.591   1.492
 2093SOL     OW 7177   4.201   1.296   1.402
 2093SOL    HW1 7178   4.196   1.224   1.471
 2093SOL    HW2 7179   4.165   1.262   1.315
 2094SOL     OW 7180   5.587   1.893   6.410
 2094SOL    HW1 7181   5.554   1.829   6.480
 2094SOL    HW2 7182   5.566   1.986   6.437
 2095SOL     OW 7183   4.779   5.813   3.848
 2095SOL    HW1 7184   4.833   5.740   3.890
 2095SOL    HW2 7185   4.824   5.901   3.863
 2096SOL     OW 7186   3.834   6.678   1.626
 2096SOL    HW1 7187   3.850   6.730   1.710
 2096SOL    HW2 7188   3.852   6.581   1.643
 2097SOL     OW 7189   0.760   5.931   6.140
 2097SOL    HW1 7190   0.850   5.968   6.164
 2097SOL    HW2 7191   0.771   5.845   6.091
 2098SOL     OW 7192   2.780   5.941   3.562
 2098SOL    HW1 7193   2.856   6.006   3.569
 2098SOL    HW2 7194   2.741   5.926   3.653
 2099SOL     OW 7195   4.699   1.929   6.218
 2099SOL    HW1 7196   4.607   1.892   6.221
 2099SOL    HW2 7197   4.756   1.883   6.287
 2100SOL     OW 7198   5.082   6.853   1.685
 2100SOL    HW1 7199   5.130   6.938   1.707
 2100SOL    HW2 7200   5.074   6.844   1.586
 2101SOL     OW 7201   0.695   0.360   3.059
 2101SOL    HW1 7202   0.599   0.353   3.032
 2101SOL    HW2 7203   0.707   0.319   3.150
 2102SOL     OW 7204   3.801   2.032   1.101
 2102SOL    HW1 7205   3.759   2.096   1.165
 2102SOL    HW2 7206   3.899   2.047   1.098
 2103SOL     OW 7207   2.210   6.534   0.890
 2103SOL    HW1 7208   2.194   6.581   0.802
 2103SOL    HW2 7209   2.272   6.458   0.876
 2104SOL     OW 7210   1.989   4.091   3.468
 2104SOL    HW1 7211   2.019   4.126   3.379
 2104SOL    HW2 7212   1.933   4.160   3.514
 2105SOL     OW 7213   5.410   6.591   4.860
 2105SOL    HW1 7214   5.363   6.672   4.823
 2105SOL    HW2 7215   5.398   6.589   4.959
 2106SOL     OW 7216   4.213   3.054   1.209
 2106SOL    HW1 7217   4.297   3.009   1.240
 2106SOL    HW2 7218   4.222   3.078   1.112
 2107SOL     OW 7219   5.082   5.031   5.079
 2107SOL    HW1 7220   4.990   5.051   5.048
 2107SOL    HW2 7221   5.115   5.105   5.139
 2108SOL     OW 7222   4.896   0.329   5.085
 2108SOL    HW1 7223   4.928   0.239   5.057
 2108SOL    HW2 7224   4.847   0.373   5.010
 2109SOL     OW 7225   2.961   6.473   2.330
 2109SOL    HW1 7226   3.011   6.536   2.390
 2109SOL    HW2 7227   2.929   6.395   2.384
 2110SOL     OW 7228   3.114   6.186   0.083
 2110SOL    HW1 7229   3.115   6.284   0.102
 2110SOL    HW2 7230   3.037   6.164   0.022
 2111SOL     OW 7231   1.063   2.224   5.637
 2111SOL    HW1 7232   1.089   2.278   5.717
 2111SOL    HW2 7233   1.117   2.140   5.636
 2112SOL     OW 7234   1.088   0.306   0.329
 2112SOL    HW1 7235   1.120   0.293   0.235
 2112SOL    HW2 7236   1.141   0.246   0.390
 2113SOL     OW 7237   6.781   1.067   4.574
 2113SOL    HW1 7238   6.877   1.044   4.589
 2113SOL    HW2 7239   6.770   1.109   4.484
 2114SOL     OW 7240   2.145   1.382   5.852
 2114SOL    HW1 7241   2.114   1.292   5.884
 2114SOL    HW2 7242   2.158   1.442   5.931
 2115SOL     OW 7243   6.246   6.412   3.210
 2115SOL    HW1 7244   6.149   6.389   3.204
 2115SOL    HW2 7245   6.301   6.340   3.168
 2116SOL     OW 7246   2.046   1.833   6.805
 2116SOL    HW1 7247   2.046   1.858   6.708
 2116SOL    HW2 7248   2.086   1.908   6.858
 2117SOL     OW 7249   6.156   1.396   2.767
 2117SOL    HW1 7250   6.105   1.329   2.714
 2117SOL    HW2 7251   6.092   1.454   2.818
 2118SOL     OW 7252   6.869   2.179   3.100
 2118SOL    HW1 7253   6.863   2.091   3.147
 2118SOL    HW2 7254   6.796   2.239   3.133
 2119SOL     OW 7255   1.169   1.587   0.594
 2119SOL    HW1 7256   1.114   1.504   0.590
 2119SOL    HW2 7257   1.266   1.563   0.581
 2120SOL     OW 7258   5.439   1.541   0.628
 2120SOL    HW1 7259   5.471   1.624   0.675
 2120SOL    HW2 7260   5.360   1.504   0.677
 2121SOL     OW 7261   1.778   0.303   0.389
 2121SOL    HW1 7262   1.736   0.214   0.369
 2121SOL    HW2 7263   1.876   0.291   0.403
 2122SOL     OW 7264   6.423   0.276   4.463
 2122SOL    HW1 7265   6.369   0.335   4.404
 2122SOL    HW2 7266   6.431   0.317   4.554
 2123SOL     OW 7267   1.593   4.982   2.672
 2123SOL    HW1 7268   1.495   4.963   2.663
 2123SOL    HW2 7269   1.607   5.053   2.741
 2124SOL     OW 7270   4.255   3.918   6.815
 2124SOL    HW1 7271   4.156   3.933   6.814
 2124SOL    HW2 7272   4.274   3.822   6.800
 2125SOL     OW 7273   1.473   5.946   4.605
 2125SOL    HW1 7274   1.502   5.914   4.515
 2125SOL    HW2 7275   1.404   5.884   4.642
 2126SOL     OW 7276   2.996   3.932   6.740
 2126SOL    HW1 7277   2.961   3.850   6.786
 2126SOL    HW2 7278   3.055   3.906   6.664
 2127SOL     OW 7279   0.970   3.039   4.432
 2127SOL    HW1 7280   1.018   3.117   4.391
 2127SOL    HW2 7281   0.951   3.059   4.529
 2128SOL     OW 7282   5.277   3.059   2.058
 2128SOL    HW1 7283   5.348   3.008   2.009
 2128SOL    HW2 7284   5.221   3.110   1.993
 2129SOL     OW 7285   5.353   4.721   4.481
 2129SOL    HW1 7286   5.356   4.722   4.381
 2129SOL    HW2 7287   5.440   4.755   4.518
 2130SOL     OW 7288   3.035   1.198   1.323
 2130SOL    HW1 7289   3.018   1.285   1.278
 2130SOL    HW2 7290   2.948   1.153   1.344
 2131SOL     OW 7291   5.446   0.478   5.533
 2131SOL    HW1 7292   5.528   0.501   5.584
 2131SOL    HW2 7293   5.365   0.505   5.586
 2132SOL     OW 7294   2.320   2.509   7.001
 2132SOL    HW1 7295   2.259   2.551   0.045
 2132SOL    HW2 7296   2.407   2.559   6.999
 2133SOL     OW 7297   3.069   2.593   1.689
 2133SOL    HW1 7298   3.053   2.551   1.600
 2133SOL    HW2 7299   3.034   2.533   1.761
 2134SOL     OW 7300   2.212   6.295   5.416
 2134SOL    HW1 7301   2.197   6.298   5.514
 2134SOL    HW2 7302   2.188   6.384   5.376
 2135SOL     OW 7303   0.639   5.779   3.711
 2135SOL    HW1 7304   0.719   5.720   3.707
 2135SOL    HW2 7305   0.655   5.854   3.774
 2136SOL     OW 7306   1.423   4.558   3.686
 2136SOL    HW1 7307   1.461   4.583   3.596
 2136SOL    HW2 7308   1.329   4.593   3.692
 2137SOL     OW 7309   1.408   1.364   4.611
 2137SOL    HW1 7310   1.316   1.370   4.650
 2137SOL    HW2 7311   1.415   1.282   4.555
 2138SOL     OW 7312   1.307   2.319   5.880
 2138SOL    HW1 7313   1.284   2.417   5.876
 2138SOL    HW2 7314   1.365   2.295   5.803
 2139SOL     OW 7315   2.571   0.272   4.958
 2139SOL    HW1 7316   2.650   0.331   4.977
 2139SOL    HW2 7317   2.490   0.309   5.004
 2140SOL     OW 7318   1.635   5.868   3.487
 2140SOL    HW1 7319   1.665   5.794   3.428
 2140SOL    HW2 7320   1.535   5.868   3.494
 2141SOL     OW 7321   0.075   1.531   0.360
 2141SOL    HW1 7322   0.073   1.437   0.396
 2141SOL    HW2 7323   0.075   1.596   0.436
 2142SOL     OW 7324   2.677   1.569   3.444
 2142SOL    HW1 7325   2.636   1.487   3.404
 2142SOL    HW2 7326   2.752   1.543   3.505
 2143SOL     OW 7327   3.919   6.136   6.549
 2143SOL    HW1 7328   3.989   6.091   6.605
 2143SOL    HW2 7329   3.957   6.160   6.460
 2144SOL     OW 7330   0.235   0.934   2.080
 2144SOL    HW1 7331   0.328   0.967   2.067
 2144SOL    HW2 7332   0.175   0.974   2.010
 2145SOL     OW 7333   4.138   5.746   3.098
 2145SOL    HW1 7334   4.070   5.715   3.165
 2145SOL    HW2 7335   4.178   5.832   3.129
 2146SOL     OW 7336   3.359   2.830   0.955
 2146SOL    HW1 7337   3.287   2.760   0.948
 2146SOL    HW2 7338   3.439   2.791   1.001
 2147SOL     OW 7339   7.014   0.888   5.532
 2147SOL    HW1 7340   6.946   0.817   5.550
 2147SOL    HW2 7341   0.048   0.900   5.614
 2148SOL     OW 7342   5.518   3.113   3.170
 2148SOL    HW1 7343   5.579   3.107   3.249
 2148SOL    HW2 7344   5.490   3.021   3.142
 2149SOL     OW 7345   3.392   0.760   2.843
 2149SOL    HW1 7346   3.419   0.855   2.833
 2149SOL    HW2 7347   3.363   0.742   2.937
 2150SOL     OW 7348   3.685   1.248   1.956
 2150SOL    HW1 7349   3.607   1.291   1.911
 2150SOL    HW2 7350   3.654   1.204   2.041
 2151SOL     OW 7351   3.579   2.963   5.823
 2151SOL    HW1 7352   3.489   3.004   5.811
 2151SOL    HW2 7353   3.586   2.882   5.765
 2152SOL     OW 7354   5.793   6.084   1.826
 2152SOL    HW1 7355   5.834   6.034   1.749
 2152SOL    HW2 7356   5.769   6.020   1.898
 2153SOL     OW 7357   4.938   2.482   2.411
 2153SOL    HW1 7358   4.871   2.512   2.479
 2153SOL    HW2 7359   4.968   2.389   2.432
 2154SOL     OW 7360   3.881   6.195   5.178
 2154SOL    HW1 7361   3.835   6.158   5.097
 2154SOL    HW2 7362   3.978   6.174   5.174
 2155SOL     OW 7363   5.822   3.735   6.515
 2155SOL    HW1 7364   5.870   3.667   6.570
 2155SOL    HW2 7365   5.793   3.694   6.429
 2156SOL     OW 7366   0.571   0.750   1.287
 2156SOL    HW1 7367   0.486   0.739   1.236
 2156SOL    HW2 7368   0.581   0.676   1.353
 2157SOL     OW 7369   6.723   1.186   4.347
 2157SOL    HW1 7370   6.786   1.230   4.283
 2157SOL    HW2 7371   6.638   1.162   4.299
 2158SOL     OW 7372   4.042   6.276   2.781
 2158SOL    HW1 7373   4.050   6.358   2.838
 2158SOL    HW2 7374   4.001   6.299   2.694
 2159SOL     OW 7375   2.166   6.535   5.268
 2159SOL    HW1 7376   2.100   6.592   5.219
 2159SOL    HW2 7377   2.200   6.584   5.348
 2160SOL     OW 7378   2.826   2.835   1.023
 2160SOL    HW1 7379   2.770   2.917   1.023
 2160SOL    HW2 7380   2.806   2.780   1.104
 2161SOL     OW 7381   4.772   2.167   4.061
 2161SOL    HW1 7382   4.823   2.091   4.021
 2161SOL    HW2 7383   4.833   2.245   4.075
 2162SOL     OW 7384   2.046   1.278   0.174
 2162SOL    HW1 7385   1.978   1.351   0.176
 2162SOL    HW2 7386   2.105   1.285   0.254
 2163SOL     OW 7387   2.908   1.579   1.366
 2163SOL    HW1 7388   2.812   1.553   1.378
 2163SOL    HW2 7389   2.965   1.523   1.426
 2164SOL     OW 7390   0.402   0.584   1.682
 2164SOL    HW1 7391   0.481   0.582   1.622
 2164SOL    HW2 7392   0.389   0.494   1.724
 2165SOL     OW 7393   3.106   0.116   1.489
 2165SOL    HW1 7394   3.090   0.029   1.536
 2165SOL    HW2 7395   3.056   0.116   1.402
 2166SOL     OW 7396   6.394   2.879   6.294
 2166SOL    HW1 7397   6.397   2.944   6.370
 2166SOL    HW2 7398   6.477   2.889   6.239
 2167SOL     OW 7399   2.738   0.702   2.377
 2167SOL    HW1 7400   2.760   0.756   2.458
 2167SOL    HW2 7401   2.822   0.667   2.335
 2168SOL     OW 7402   5.583   5.557   5.173
 2168SOL    HW1 7403   5.604   5.512   5.259
 2168SOL    HW2 7404   5.493   5.527   5.140
 2169SOL     OW 7405   6.416   1.467   5.547
 2169SOL    HW1 7406   6.515   1.478   5.550
 2169SOL    HW2 7407   6.372   1.545   5.592
 2170SOL     OW 7408   5.569   5.081   4.437
 2170SOL    HW1 7409   5.611   5.172   4.437
 2170SOL    HW2 7410   5.518   5.069   4.351
 2171SOL     OW 7411   0.035   2.803   0.350
 2171SOL    HW1 7412   0.029   2.763   0.442
 2171SOL    HW2 7413   6.978   2.779   0.297
 2172SOL     OW 7414   2.669   0.686   1.128
 2172SOL    HW1 7415   2.616   0.715   1.048
 2172SOL    HW2 7416   2.620   0.612   1.175
 2173SOL     OW 7417   4.965   1.929   5.143
 2173SOL    HW1 7418   5.024   1.989   5.197
 2173SOL    HW2 7419   4.905   1.985   5.085
 2174SOL     OW 7420   1.450   5.577   4.874
 2174SOL    HW1 7421   1.474   5.674   4.862
 2174SOL    HW2 7422   1.513   5.521   4.821
 2175SOL     OW 7423   1.797   6.136   5.730
 2175SOL    HW1 7424   1.786   6.046   5.688
 2175SOL    HW2 7425   1.884   6.140   5.779
 2176SOL     OW 7426   1.885   2.812   2.393
 2176SOL    HW1 7427   1.940   2.731   2.370
 2176SOL    HW2 7428   1.904   2.885   2.328
 2177SOL     OW 7429   6.757   1.195   2.405
 2177SOL    HW1 7430   6.820   1.127   2.445
 2177SOL    HW2 7431   6.699   1.150   2.337
 2178SOL     OW 7432   0.651   5.294   0.971
 2178SOL    HW1 7433   0.615   5.331   1.056
 2178SOL    HW2 7434   0.588   5.225   0.935
 2179SOL     OW 7435   1.391   4.019   4.114
 2179SOL    HW1 7436   1.474   4.009   4.167
 2179SOL    HW2 7437   1.404   3.978   4.023
 2180SOL     OW 7438   3.985   2.858   1.249
 2180SOL    HW1 7439   4.053   2.919   1.207
 2180SOL    HW2 7440   4.031   2.779   1.288
 2181SOL     OW 7441   4.090   6.648   1.056
 2181SOL    HW1 7442   4.033   6.728   1.078
 2181SOL    HW2 7443   4.149   6.669   0.978
 2182SOL     OW 7444   5.499   1.962   0.472
 2182SOL    HW1 7445   5.511   1.900   0.549
 2182SOL    HW2 7446   5.416   1.937   0.422
 2183SOL     OW 7447   2.770   2.402   0.387
 2183SOL    HW1 7448   2.672   2.384   0.391
 2183SOL    HW2 7449   2.786   2.500   0.398
 2184SOL     OW 7450   4.085   2.950   6.121
 2184SOL    HW1 7451   4.026   3.021   6.162
 2184SOL    HW2 7452   4.035   2.904   6.048
 2185SOL     OW 7453   0.816   0.167   1.863
 2185SOL    HW1 7454   0.807   0.075   1.902
 2185SOL    HW2 7455   0.897   0.171   1.806
 2186SOL     OW 7456   0.059   4.921   2.771
 2186SOL    HW1 7457   6.999   4.885   2.813
 2186SOL    HW2 7458   0.139   4.883   2.817
 2187SOL     OW 7459   6.652   1.404   6.837
 2187SOL    HW1 7460   6.662   1.484   6.897
 2187SOL    HW2 7461   6.677   1.430   6.743
 2188SOL     OW 7462   4.904   1.034   3.395
 2188SOL    HW1 7463   4.857   1.120   3.377
 2188SOL    HW2 7464   4.982   1.050   3.456
 2189SOL     OW 7465   3.106   0.148   6.342
 2189SOL    HW1 7466   3.065   0.228   6.299
 2189SOL    HW2 7467   3.200   0.137   6.311
 2190SOL     OW 7468   5.010   2.110   1.168
 2190SOL    HW1 7469   5.091   2.083   1.221
 2190SOL    HW2 7470   4.976   2.031   1.117
 2191SOL     OW 7471   3.151   1.463   0.197
 2191SOL    HW1 7472   3.208   1.513   0.262
 2191SOL    HW2 7473   3.195   1.462   0.107
 2192SOL     OW 7474   3.822   5.865   3.362
 2192SOL    HW1 7475   3.915   5.829   3.366
 2192SOL    HW2 7476   3.782   5.846   3.272
 2193SOL     OW 7477   6.781   5.688   5.287
 2193SOL    HW1 7478   6.866   5.721   5.328
 2193SOL    HW2 7479   6.764   5.594   5.317
 2194SOL     OW 7480   3.294   6.934   1.113
 2194SOL    HW1 7481   3.213   6.918   1.169
 2194SOL    HW2 7482   3.282   7.016   1.058
 2195SOL     OW 7483   1.328   5.070   2.754
 2195SOL    HW1 7484   1.234   5.100   2.763
 2195SOL    HW2 7485   1.332   4.970   2.756
 2196SOL     OW 7486   4.538   2.824   6.622
 2196SOL    HW1 7487   4.509   2.823   6.526
 2196SOL    HW2 7488   4.573   2.734   6.647
 2197SOL     OW 7489   4.513   4.551   6.806
 2197SOL    HW1 7490   4.580   4.583   6.740
 2197SOL    HW2 7491   4.428   4.527   6.758
 2198SOL     OW 7492   6.319   4.375   0.773
 2198SOL    HW1 7493   6.362   4.390   0.683
 2198SOL    HW2 7494   6.233   4.426   0.777
 2199SOL     OW 7495   4.280   0.588   2.242
 2199SOL    HW1 7496   4.327   0.516   2.292
 2199SOL    HW2 7497   4.207   0.547   2.186
 2200SOL     OW 7498   1.989   6.670   4.185
 2200SOL    HW1 7499   1.953   6.741   4.246
 2200SOL    HW2 7500   1.942   6.584   4.202
 2201SOL     OW 7501   4.891   4.006   3.541
 2201SOL    HW1 7502   4.876   3.957   3.627
 2201SOL    HW2 7503   4.803   4.037   3.505
 2202SOL     OW 7504   4.818   6.150   3.700
 2202SOL    HW1 7505   4.724   6.118   3.689
 2202SOL    HW2 7506   4.860   6.105   3.779
 2203SOL     OW 7507   3.454   1.866   2.944
 2203SOL    HW1 7508   3.362   1.827   2.940
 2203SOL    HW2 7509   3.449   1.964   2.922
 2204SOL     OW 7510   2.505   2.891   1.170
 2204SOL    HW1 7511   2.544   2.811   1.216
 2204SOL    HW2 7512   2.474   2.957   1.238
 2205SOL     OW 7513   2.202   0.850   1.689
 2205SOL    HW1 7514   2.278   0.897   1.735
 2205SOL    HW2 7515   2.236   0.767   1.645
 2206SOL     OW 7516   2.445   3.290   0.118
 2206SOL    HW1 7517   2.476   3.361   0.054
 2206SOL    HW2 7518   2.347   3.301   0.135
 2207SOL     OW 7519   0.819   4.676   4.211
 2207SOL    HW1 7520   0.780   4.742   4.147
 2207SOL    HW2 7521   0.878   4.612   4.162
 2208SOL     OW 7522   6.654   4.668   2.113
 2208SOL    HW1 7523   6.693   4.620   2.035
 2208SOL    HW2 7524   6.718   4.665   2.190
 2209SOL     OW 7525   1.556   6.431   1.458
 2209SOL    HW1 7526   1.612   6.430   1.375
 2209SOL    HW2 7527   1.611   6.468   1.534
 2210SOL     OW 7528   1.918   5.104   3.775
 2210SOL    HW1 7529   1.968   5.025   3.810
 2210SOL    HW2 7530   1.920   5.103   3.675
 2211SOL     OW 7531   0.014   1.517   5.624
 2211SOL    HW1 7532   7.010   1.521   5.527
 2211SOL    HW2 7533   6.956   1.514   5.681
 2212SOL     OW 7534   2.040   6.876   6.189
 2212SOL    HW1 7535   1.960   6.829   6.152
 2212SOL    HW2 7536   2.109   6.809   6.215
 2213SOL     OW 7537   3.612   0.793   3.320
 2213SOL    HW1 7538   3.592   0.701   3.354
 2213SOL    HW2 7539   3.569   0.860   3.380
 2214SOL     OW 7540   3.936   6.878   5.523
 2214SOL    HW1 7541   3.923   6.875   5.622
 2214SOL    HW2 7542   3.929   6.785   5.486
 2215SOL     OW 7543   5.762   2.612   5.384
 2215SOL    HW1 7544   5.729   2.552   5.456
 2215SOL    HW2 7545   5.757   2.566   5.296
 2216SOL     OW 7546   2.549   0.991   2.580
 2216SOL    HW1 7547   2.517   1.036   2.664
 2216SOL    HW2 7548   2.477   0.932   2.545
 2217SOL     OW 7549   4.628   0.989   1.869
 2217SOL    HW1 7550   4.612   1.041   1.953
 2217SOL    HW2 7551   4.638   1.053   1.792
 2218SOL     OW 7552   1.280   6.819   3.107
 2218SOL    HW1 7553   1.330   6.894   3.063
 2218SOL    HW2 7554   1.340   6.740   3.116
 2219SOL     OW 7555   1.557   2.241   2.683
 2219SOL    HW1 7556   1.636   2.180   2.685
 2219SOL    HW2 7557   1.474   2.186   2.676
 2220SOL     OW 7558   0.457   0.168   1.537
 2220SOL    HW1 7559   0.383   0.102   1.525
 2220SOL    HW2 7560   0.432   0.254   1.491
 2221SOL     OW 7561   1.146   1.517   6.732
 2221SOL    HW1 7562   1.155   1.428   6.777
 2221SOL    HW2 7563   1.071   1.514   6.666
 2222SOL     OW 7564   6.295   5.848   2.635
 2222SOL    HW1 7565   6.230   5.781   2.599
 2222SOL    HW2 7566   6.245   5.918   2.687
 2223SOL     OW 7567   6.300   5.703   1.701
 2223SOL    HW1 7568   6.249   5.618   1.711
 2223SOL    HW2 7569   6.236   5.778   1.681
 2224SOL     OW 7570   1.137   4.982   2.054
 2224SOL    HW1 7571   1.110   4.989   1.958
 2224SOL    HW2 7572   1.232   5.011   2.064
 2225SOL     OW 7573   0.211   4.615   1.112
 2225SOL    HW1 7574   0.112   4.628   1.105
 2225SOL    HW2 7575   0.240   4.548   1.044
 2226SOL     OW 7576   4.141   3.693   1.484
 2226SOL    HW1 7577   4.222   3.727   1.530
 2226SOL    HW2 7578   4.086   3.771   1.452
 2227SOL     OW 7579   0.223   2.960   4.439
 2227SOL    HW1 7580   0.154   2.909   4.491
 2227SOL    HW2 7581   0.309   2.909   4.438
 2228SOL     OW 7582   3.356   5.035   4.670
 2228SOL    HW1 7583   3.276   4.978   4.651
 2228SOL    HW2 7584   3.344   5.125   4.627
 2229SOL     OW 7585   5.638   0.181   3.548
 2229SOL    HW1 7586   5.569   0.109   3.556
 2229SOL    HW2 7587   5.621   0.234   3.465
 2230SOL     OW 7588   2.368   5.286   1.664
 2230SOL    HW1 7589   2.460   5.274   1.627
 2230SOL    HW2 7590   2.363   5.244   1.755
 2231SOL     OW 7591   2.607   5.805   1.093
 2231SOL    HW1 7592   2.541   5.828   1.164
 2231SOL    HW2 7593   2.694   5.850   1.112
 2232SOL     OW 7594   5.509   3.001   3.987
 2232SOL    HW1 7595   5.488   2.905   3.968
 2232SOL    HW2 7596   5.442   3.036   4.053
 2233SOL     OW 7597   2.548   2.067   6.469
 2233SOL    HW1 7598   2.642   2.100   6.462
 2233SOL    HW2 7599   2.536   1.987   6.410
 2234SOL     OW 7600   3.671   2.202   1.274
 2234SOL    HW1 7601   3.667   2.156   1.362
 2234SOL    HW2 7602   3.749   2.264   1.272
 2235SOL     OW 7603   2.528   1.559   0.997
 2235SOL    HW1 7604   2.583   1.491   1.045
 2235SOL    HW2 7605   2.437   1.521   0.979
 2236SOL     OW 7606   0.275   4.293   5.889
 2236SOL    HW1 7607   0.303   4.206   5.849
 2236SOL    HW2 7608   0.219   4.343   5.823
 2237SOL     OW 7609   6.168   3.213   4.246
 2237SOL    HW1 7610   6.180   3.183   4.152
 2237SOL    HW2 7611   6.210   3.147   4.308
 2238SOL     OW 7612   6.339   5.963   1.349
 2238SOL    HW1 7613   6.313   6.059   1.356
 2238SOL    HW2 7614   6.430   5.956   1.306
 2239SOL     OW 7615   5.448   5.717   2.638
 2239SOL    HW1 7616   5.371   5.759   2.589
 2239SOL    HW2 7617   5.450   5.751   2.732
 2240SOL     OW 7618   5.613   3.682   1.728
 2240SOL    HW1 7619   5.550   3.760   1.732
 2240SOL    HW2 7620   5.707   3.716   1.728
 2241SOL     OW 7621   0.906   0.062   2.515
 2241SOL    HW1 7622   0.940   6.993   2.535
 2241SOL    HW2 7623   0.984   0.123   2.500
 2242SOL     OW 7624   4.081   1.728   3.126
 2242SOL    HW1 7625   4.066   1.631   3.107
 2242SOL    HW2 7626   4.000   1.767   3.170
 2243SOL     OW 7627   2.598   6.527   5.442
 2243SOL    HW1 7628   2.646   6.440   5.453
 2243SOL    HW2 7629   2.563   6.557   5.531
 2244SOL     OW 7630   3.426   0.941   4.946
 2244SOL    HW1 7631   3.483   1.016   4.978
 2244SOL    HW2 7632   3.355   0.976   4.885
 2245SOL     OW 7633   0.339   2.148   2.082
 2245SOL    HW1 7634   0.370   2.243   2.075
 2245SOL    HW2 7635   0.242   2.147   2.107
 2246SOL     OW 7636   1.562   4.799   4.896
 2246SOL    HW1 7637   1.660   4.814   4.883
 2246SOL    HW2 7638   1.513   4.822   4.812
 2247SOL     OW 7639   1.925   1.666   4.741
 2247SOL    HW1 7640   1.945   1.579   4.787
 2247SOL    HW2 7641   2.006   1.696   4.690
 2248SOL     OW 7642   4.363   4.144   5.554
 2248SOL    HW1 7643   4.309   4.112   5.632
 2248SOL    HW2 7644   4.456   4.107   5.560
 2249SOL     OW 7645   3.823   5.005   4.703
 2249SOL    HW1 7646   3.742   5.024   4.649
 2249SOL    HW2 7647   3.841   5.081   4.765
 2250SOL     OW 7648   5.125   4.935   0.825
 2250SOL    HW1 7649   5.038   4.886   0.835
 2250SOL    HW2 7650   5.170   4.906   0.740
 2251SOL     OW 7651   0.400   0.559   6.301
 2251SOL    HW1 7652   0.339   0.618   6.355
 2251SOL    HW2 7653   0.452   0.615   6.237
 2252SOL     OW 7654   3.474   0.961   6.095
 2252SOL    HW1 7655   3.413   0.912   6.033
 2252SOL    HW2 7656   3.568   0.928   6.082
 2253SOL     OW 7657   1.578   2.738   6.139
 2253SOL    HW1 7658   1.530   2.814   6.096
 2253SOL    HW2 7659   1.598   2.667   6.071
 2254SOL     OW 7660   1.562   4.000   5.557
 2254SOL    HW1 7661   1.654   3.987   5.520
 2254SOL    HW2 7662   1.500   4.024   5.483
 2255SOL     OW 7663   5.341   3.359   0.507
 2255SOL    HW1 7664   5.376   3.353   0.414
 2255SOL    HW2 7665   5.281   3.438   0.516
 2256SOL     OW 7666   3.320   4.873   2.152
 2256SOL    HW1 7667   3.370   4.925   2.222
 2256SOL    HW2 7668   3.383   4.845   2.080
 2257SOL     OW 7669   2.101   3.583   4.154
 2257SOL    HW1 7670   2.078   3.558   4.249
 2257SOL    HW2 7671   2.107   3.501   4.098
 2258SOL     OW 7672   1.842   4.939   5.371
 2258SOL    HW1 7673   1.774   4.998   5.327
 2258SOL    HW2 7674   1.927   4.941   5.319
 2259SOL     OW 7675   6.328   3.280   6.451
 2259SOL    HW1 7676   6.390   3.212   6.488
 2259SOL    HW2 7677   6.262   3.235   6.391
 2260SOL     OW 7678   4.680   3.638   1.015
 2260SOL    HW1 7679   4.604   3.588   1.056
 2260SOL    HW2 7680   4.730   3.688   1.086
 2261SOL     OW 7681   3.490   6.303   4.863
 2261SOL    HW1 7682   3.430   6.290   4.784
 2261SOL    HW2 7683   3.585   6.282   4.837
 2262SOL     OW 7684   3.424   1.786   3.397
 2262SOL    HW1 7685   3.520   1.811   3.405
 2262SOL    HW2 7686   3.399   1.725   3.472
 2263SOL     OW 7687   0.133   3.859   5.015
 2263SOL    HW1 7688   0.077   3.777   5.004
 2263SOL    HW2 7689   0.212   3.854   4.954
 2264SOL     OW 7690   3.233   4.121   3.304
 2264SOL    HW1 7691   3.297   4.144   3.377
 2264SOL    HW2 7692   3.208   4.203   3.254
 2265SOL     OW 7693   0.580   6.868   3.349
 2265SOL    HW1 7694   0.535   6.921   3.277
 2265SOL    HW2 7695   0.546   6.898   3.439
 2266SOL     OW 7696   6.287   0.450   6.579
 2266SOL    HW1 7697   6.238   0.484   6.499
 2266SOL    HW2 7698   6.338   0.525   6.622
 2267SOL     OW 7699   5.942   2.062   5.592
 2267SOL    HW1 7700   6.022   2.074   5.651
 2267SOL    HW2 7701   5.946   2.129   5.518
 2268SOL     OW 7702   6.370   4.980   7.021
 2268SOL    HW1 7703   6.355   5.065   6.971
 2268SOL    HW2 7704   6.467   4.959   0.001
 2269SOL     OW 7705   0.168   5.789   3.397
 2269SOL    HW1 7706   0.265   5.798   3.419
 2269SOL    HW2 7707   0.137   5.870   3.347
 2270SOL     OW 7708   3.599   2.873   2.689
 2270SOL    HW1 7709   3.599   2.914   2.597
 2270SOL    HW2 7710   3.637   2.781   2.684
 2271SOL     OW 7711   0.474   4.062   2.568
 2271SOL    HW1 7712   0.408   3.990   2.588
 2271SOL    HW2 7713   0.445   4.112   2.486
 2272SOL     OW 7714   5.315   2.241   6.085
 2272SOL    HW1 7715   5.328   2.159   6.141
 2272SOL    HW2 7716   5.309   2.321   6.144
 2273SOL     OW 7717   0.591   0.854   3.540
 2273SOL    HW1 7718   0.521   0.905   3.489
 2273SOL    HW2 7719   0.546   0.783   3.594
 2274SOL     OW 7720   1.045   3.814   3.025
 2274SOL    HW1 7721   1.042   3.870   2.942
 2274SOL    HW2 7722   1.131   3.763   3.027
 2275SOL     OW 7723   4.597   6.429   3.483
 2275SOL    HW1 7724   4.669   6.432   3.552
 2275SOL    HW2 7725   4.620   6.490   3.407
 2276SOL     OW 7726   3.226   5.554   1.473
 2276SOL    HW1 7727   3.308   5.569   1.417
 2276SOL    HW2 7728   3.178   5.472   1.441
 2277SOL     OW 7729   3.216   3.842   1.083
 2277SOL    HW1 7730   3.206   3.766   1.019
 2277SOL    HW2 7731   3.305   3.837   1.128
 2278SOL     OW 7732   5.074   6.191   1.434
 2278SOL    HW1 7733   5.142   6.185   1.506
 2278SOL    HW2 7734   5.051   6.100   1.401
 2279SOL     OW 7735   5.470   4.018   5.428
 2279SOL    HW1 7736   5.516   4.070   5.356
 2279SOL    HW2 7737   5.444   4.079   5.503
 2280SOL     OW 7738   6.052   6.727   5.993
 2280SOL    HW1 7739   5.997   6.658   5.946
 2280SOL    HW2 7740   6.083   6.796   5.928
 2281SOL     OW 7741   3.427   2.399   0.389
 2281SOL    HW1 7742   3.391   2.321   0.440
 2281SOL    HW2 7743   3.362   2.475   0.394
 2282SOL     OW 7744   4.422   5.513   2.118
 2282SOL    HW1 7745   4.357   5.586   2.099
 2282SOL    HW2 7746   4.480   5.539   2.195
 2283SOL     OW 7747   6.989   4.028   2.021
 2283SOL    HW1 7748   6.932   4.110   2.019
 2283SOL    HW2 7749   6.998   3.996   2.115
 2284SOL     OW 7750   2.750   2.283   2.258
 2284SOL    HW1 7751   2.702   2.201   2.228
 2284SOL    HW2 7752   2.794   2.326   2.179
 2285SOL     OW 7753   1.807   3.929   6.432
 2285SOL    HW1 7754   1.743   3.926   6.509
 2285SOL    HW2 7755   1.781   4.003   6.370
 2286SOL     OW 7756   5.758   6.970   4.698
 2286SOL    HW1 7757   5.724   6.878   4.677
 2286SOL    HW2 7758   5.724   0.011   4.630
 2287SOL     OW 7759   2.221   2.273   1.120
 2287SOL    HW1 7760   2.249   2.233   1.032
 2287SOL    HW2 7761   2.293   2.333   1.154
 2288SOL     OW 7762   1.790   5.757   4.950
 2288SOL    HW1 7763   1.870   5.774   4.893
 2288SOL    HW2 7764   1.710   5.801   4.910
 2289SOL     OW 7765   4.616   1.005   0.154
 2289SOL    HW1 7766   4.576   0.915   0.171
 2289SOL    HW2 7767   4.545   1.075   0.162
 2290SOL     OW 7768   3.185   3.366   3.511
 2290SOL    HW1 7769   3.275   3.323   3.503
 2290SOL    HW2 7770   3.191   3.463   3.489
 2291SOL     OW 7771   1.035   2.541   6.171
 2291SOL    HW1 7772   1.067   2.531   6.077
 2291SOL    HW2 7773   1.042   2.453   6.218
 2292SOL     OW 7774   4.815   1.706   2.774
 2292SOL    HW1 7775   4.748   1.679   2.704
 2292SOL    HW2 7776   4.784   1.788   2.821
 2293SOL     OW 7777   0.712   0.990   0.198
 2293SOL    HW1 7778   0.654   0.974   0.278
 2293SOL    HW2 7779   0.656   1.010   0.119
 2294SOL     OW 7780   6.957   1.067   5.940
 2294SOL    HW1 7781   7.016   1.096   5.864
 2294SOL    HW2 7782   7.013   1.039   6.017
 2295SOL     OW 7783   5.970   5.739   0.823
 2295SOL    HW1 7784   5.908   5.670   0.784
 2295SOL    HW2 7785   6.037   5.766   0.754
 2296SOL     OW 7786   4.248   5.053   4.143
 2296SOL    HW1 7787   4.158   5.096   4.153
 2296SOL    HW2 7788   4.300   5.101   4.072
 2297SOL     OW 7789   5.053   3.812   5.529
 2297SOL    HW1 7790   4.975   3.750   5.541
 2297SOL    HW2 7791   5.022   3.895   5.483
 2298SOL     OW 7792   3.135   3.979   4.646
 2298SOL    HW1 7793   3.184   4.039   4.582
 2298SOL    HW2 7794   3.151   4.010   4.739
 2299SOL     OW 7795   5.600   2.956   4.395
 2299SOL    HW1 7796   5.533   2.923   4.329
 2299SOL    HW2 7797   5.668   2.885   4.413
 2300SOL     OW 7798   4.726   6.914   2.176
 2300SOL    HW1 7799   4.808   6.947   2.222
 2300SOL    HW2 7800   4.710   6.969   2.094
 2301SOL     OW 7801   3.817   3.164   4.733
 2301SOL    HW1 7802   3.834   3.262   4.744
 2301SOL    HW2 7803   3.849   3.134   4.643
 2302SOL     OW 7804   6.360   3.220   6.068
 2302SOL    HW1 7805   6.350   3.131   6.023
 2302SOL    HW2 7806   6.393   3.288   6.002
 2303SOL     OW 7807   2.774   2.606   0.074
 2303SOL    HW1 7808   2.835   2.636   0.001
 2303SOL    HW2 7809   2.692   2.565   0.034
 2304SOL     OW 7810   6.548   6.105   2.292
 2304SOL    HW1 7811   6.620   6.167   2.261
 2304SOL    HW2 7812   6.564   6.078   2.386
 2305SOL     OW 7813   2.459   6.754   5.030
 2305SOL    HW1 7814   2.431   6.849   5.043
 2305SOL    HW2 7815   2.400   6.711   4.961
 2306SOL     OW 7816   1.763   4.962   4.584
 2306SOL    HW1 7817   1.687   5.010   4.627
 2306SOL    HW2 7818   1.806   4.900   4.650
 2307SOL     OW 7819   6.186   3.301   5.434
 2307SOL    HW1 7820   6.175   3.207   5.400
 2307SOL    HW2 7821   6.096   3.338   5.458
 2308SOL     OW 7822   1.381   5.337   2.024
 2308SOL    HW1 7823   1.428   5.328   2.112
 2308SOL    HW2 7824   1.299   5.393   2.036
 2309SOL     OW 7825   1.994   0.289   4.630
 2309SOL    HW1 7826   1.959   0.358   4.567
 2309SOL    HW2 7827   2.087   0.264   4.605
 2310SOL     OW 7828   4.462   6.860   1.183
 2310SOL    HW1 7829   4.409   6.799   1.242
 2310SOL    HW2 7830   4.527   6.911   1.238
 2311SOL     OW 7831   2.226   4.998   0.912
 2311SOL    HW1 7832   2.285   4.938   0.858
 2311SOL    HW2 7833   2.269   5.019   0.999
 2312SOL     OW 7834   3.282   4.776   1.813
 2312SOL    HW1 7835   3.333   4.803   1.731
 2312SOL    HW2 7836   3.345   4.761   1.889
 2313SOL     OW 7837   5.014   4.972   1.168
 2313SOL    HW1 7838   5.056   5.056   1.203
 2313SOL    HW2 7839   4.949   4.995   1.095
 2314SOL     OW 7840   2.744   4.881   4.308
 2314SOL    HW1 7841   2.738   4.832   4.395
 2314SOL    HW2 7842   2.780   4.819   4.238
 2315SOL     OW 7843   4.314   2.537   6.340
 2315SOL    HW1 7844   4.243   2.597   6.302
 2315SOL    HW2 7845   4.288   2.510   6.433
 2316SOL     OW 7846   5.424   3.737   1.971
 2316SOL    HW1 7847   5.328   3.736   1.999
 2316SOL    HW2 7848   5.435   3.685   1.887
 2317SOL     OW 7849   0.138   5.840   2.676
 2317SOL    HW1 7850   0.039   5.828   2.671
 2317SOL    HW2 7851   0.159   5.936   2.689
 2318SOL     OW 7852   6.746   0.980   4.078
 2318SOL    HW1 7853   6.796   0.939   4.001
 2318SOL    HW2 7854   6.693   0.910   4.125
 2319SOL     OW 7855   0.996   5.713   2.613
 2319SOL    HW1 7856   0.930   5.654   2.659
 2319SOL    HW2 7857   0.991   5.699   2.514
 2320SOL     OW 7858   6.163   4.497   5.062
 2320SOL    HW1 7859   6.174   4.543   5.150
 2320SOL    HW2 7860   6.235   4.429   5.050
 2321SOL     OW 7861   3.606   5.010   4.526
 2321SOL    HW1 7862   3.583   4.964   4.440
 2321SOL    HW2 7863   3.524   5.019   4.582
 2322SOL     OW 7864   2.969   0.295   4.997
 2322SOL    HW1 7865   2.876   0.328   4.984
 2322SOL    HW2 7866   2.989   0.290   5.095
 2323SOL     OW 7867   5.225   3.560   2.643
 2323SOL    HW1 7868   5.180   3.585   2.557
 2323SOL    HW2 7869   5.163   3.504   2.698
 2324SOL     OW 7870   0.088   4.871   3.320
 2324SOL    HW1 7871   0.116   4.923   3.400
 2324SOL    HW2 7872   0.136   4.783   3.318
 2325SOL     OW 7873   0.719   2.533   0.436
 2325SOL    HW1 7874   0.741   2.588   0.356
 2325SOL    HW2 7875   0.736   2.587   0.519
 2326SOL     OW 7876   0.840   4.054   0.602
 2326SOL    HW1 7877   0.803   4.138   0.642
 2326SOL    HW2 7878   0.784   3.976   0.632
 2327SOL     OW 7879   5.391   1.915   3.717
 2327SOL    HW1 7880   5.371   1.986   3.784
 2327SOL    HW2 7881   5.478   1.935   3.673
 2328SOL     OW 7882   5.875   6.674   3.380
 2328SOL    HW1 7883   5.812   6.618   3.434
 2328SOL    HW2 7884   5.967   6.667   3.417
 2329SOL     OW 7885   6.561   5.614   3.265
 2329SOL    HW1 7886   6.660   5.601   3.256
 2329SOL    HW2 7887   6.531   5.684   3.200
 2330SOL     OW 7888   0.445   3.858   1.450
 2330SOL    HW1 7889   0.510   3.934   1.456
 2330SOL    HW2 7890   0.487   3.780   1.405
 2331SOL     OW 7891   1.074   4.642   5.670
 2331SOL    HW1 7892   1.134   4.705   5.721
 2331SOL    HW2 7893   1.118   4.616   5.584
 2332SOL     OW 7894   5.194   2.275   5.165
 2332SOL    HW1 7895   5.176   2.266   5.067
 2332SOL    HW2 7896   5.108   2.294   5.213
 2333SOL     OW 7897   2.511   4.610   3.510
 2333SOL    HW1 7898   2.505   4.617   3.411
 2333SOL    HW2 7899   2.490   4.516   3.538
 2334SOL     OW 7900   2.840   0.063   0.141
 2334SOL    HW1 7901   2.855   0.096   0.048
 2334SOL    HW2 7902   2.745   0.033   0.151
 2335SOL     OW 7903   4.489   5.687   4.511
 2335SOL    HW1 7904   4.580   5.646   4.518
 2335SOL    HW2 7905   4.421   5.626   4.552
 2336SOL     OW 7906   3.845   2.792   5.642
 2336SOL    HW1 7907   3.755   2.754   5.622
 2336SOL    HW2 7908   3.864   2.868   5.580
 2337SOL     OW 7909   6.160   0.700   4.311
 2337SOL    HW1 7910   6.101   0.728   4.387
 2337SOL    HW2 7911   6.239   0.761   4.305
 2338SOL     OW 7912   1.162   0.408   6.531
 2338SOL    HW1 7913   1.252   0.396   6.488
 2338SOL    HW2 7914   1.147   0.506   6.547
 2339SOL     OW 7915   4.153   5.053   6.518
 2339SOL    HW1 7916   4.141   5.093   6.427
 2339SOL    HW2 7917   4.142   5.125   6.587
 2340SOL     OW 7918   4.059   4.891   3.463
 2340SOL    HW1 7919   4.074   4.851   3.554
 2340SOL    HW2 7920   3.961   4.895   3.444
 2341SOL     OW 7921   5.635   4.631   6.189
 2341SOL    HW1 7922   5.540   4.601   6.198
 2341SOL    HW2 7923   5.692   4.584   6.257
 2342SOL     OW 7924   6.966   0.001   5.592
 2342SOL    HW1 7925   7.012   0.011   5.503
 2342SOL    HW2 7926   6.892   6.957   5.584
 2343SOL     OW 7927   0.943   0.045   0.975
 2343SOL    HW1 7928   0.884   0.096   1.037
 2343SOL    HW2 7929   1.030   0.093   0.964
 2344SOL     OW 7930   2.834   1.678   2.985
 2344SOL    HW1 7931   2.828   1.581   3.005
 2344SOL    HW2 7932   2.882   1.724   3.061
 2345SOL     OW 7933   1.168   1.761   3.239
 2345SOL    HW1 7934   1.250   1.814   3.219
 2345SOL    HW2 7935   1.088   1.808   3.202
 2346SOL     OW 7936   4.747   3.134   5.464
 2346SOL    HW1 7937   4.761   3.188   5.381
 2346SOL    HW2 7938   4.796   3.176   5.540
 2347SOL     OW 7939   1.591   3.172   1.003
 2347SOL    HW1 7940   1.597   3.260   0.956
 2347SOL    HW2 7941   1.564   3.101   0.938
 2348SOL     OW 7942   2.688   6.285   1.857
 2348SOL    HW1 7943   2.661   6.197   1.897
 2348SOL    HW2 7944   2.657   6.290   1.762
 2349SOL     OW 7945   4.250   4.737   6.300
 2349SOL    HW1 7946   4.314   4.666   6.329
 2349SOL    HW2 7947   4.236   4.802   6.374
 2350SOL     OW 7948   2.098   5.643   5.239
 2350SOL    HW1 7949   2.115   5.653   5.336
 2350SOL    HW2 7950   2.092   5.733   5.196
 2351SOL     OW 7951   2.228   5.239   2.926
 2351SOL    HW1 7952   2.285   5.263   3.005
 2351SOL    HW2 7953   2.206   5.141   2.930
 2352SOL     OW 7954   6.166   4.336   1.315
 2352SOL    HW1 7955   6.119   4.273   1.378
 2352SOL    HW2 7956   6.252   4.366   1.355
 2353SOL     OW 7957   2.784   3.743   6.430
 2353SOL    HW1 7958   2.788   3.689   6.515
 2353SOL    HW2 7959   2.702   3.800   6.431
 2354SOL     OW 7960   4.102   2.532   1.686
 2354SOL    HW1 7961   4.024   2.564   1.632
 2354SOL    HW2 7962   4.076   2.450   1.737
 2355SOL     OW 7963   6.837   1.567   1.553
 2355SOL    HW1 7964   6.896   1.645   1.532
 2355SOL    HW2 7965   6.888   1.482   1.539
 2356SOL     OW 7966   2.923   5.361   3.529
 2356SOL    HW1 7967   2.859   5.297   3.485
 2356SOL    HW2 7968   2.943   5.331   3.622
 2357SOL     OW 7969   6.955   4.615   1.033
 2357SOL    HW1 7970   6.925   4.617   1.128
 2357SOL    HW2 7971   6.917   4.535   0.987
 2358SOL     OW 7972   3.506   1.349   5.190
 2358SOL    HW1 7973   3.570   1.426   5.193
 2358SOL    HW2 7974   3.448   1.358   5.108
 2359SOL     OW 7975   2.357   1.691   5.698
 2359SOL    HW1 7976   2.338   1.756   5.771
 2359SOL    HW2 7977   2.285   1.622   5.695
 2360SOL     OW 7978   2.936   5.011   0.045
 2360SOL    HW1 7979   2.976   5.076   0.109
 2360SOL    HW2 7980   3.008   4.970   7.013
 2361SOL     OW 7981   3.417   5.703   1.324
 2361SOL    HW1 7982   3.513   5.712   1.348
 2361SOL    HW2 7983   3.408   5.684   1.226
 2362SOL     OW 7984   3.336   4.881   3.676
 2362SOL    HW1 7985   3.258   4.856   3.733
 2362SOL    HW2 7986   3.404   4.929   3.732
 2363SOL     OW 7987   1.908   3.440   0.090
 2363SOL    HW1 7988   1.885   3.433   7.016
 2363SOL    HW2 7989   1.928   3.535   0.113
 2364SOL     OW 7990   3.828   1.626   2.724
 2364SOL    HW1 7991   3.900   1.591   2.784
 2364SOL    HW2 7992   3.868   1.652   2.636
 2365SOL     OW 7993   5.086   4.167   3.067
 2365SOL    HW1 7994   5.116   4.167   2.971
 2365SOL    HW2 7995   4.993   4.131   3.073
 2366SOL     OW 7996   2.777   4.893   5.418
 2366SOL    HW1 7997   2.844   4.949   5.370
 2366SOL    HW2 7998   2.820   4.806   5.446
 2367SOL     OW 7999   5.773   4.959   5.577
 2367SOL    HW1 8000   5.756   4.954   5.676
 2367SOL    HW2 8001   5.863   4.920   5.557
 2368SOL     OW 8002   5.866   6.986   5.183
 2368SOL    HW1 8003   5.963   6.993   5.206
 2368SOL    HW2 8004   5.828   6.904   5.226
 2369SOL     OW 8005   3.728   2.099   4.207
 2369SOL    HW1 8006   3.754   2.008   4.174
 2369SOL    HW2 8007   3.807   2.143   4.249
 2370SOL     OW 8008   5.290   2.170   1.667
 2370SOL    HW1 8009   5.193   2.146   1.669
 2370SOL    HW2 8010   5.344   2.096   1.708
 2371SOL     OW 8011   0.965   6.229   1.920
 2371SOL    HW1 8012   1.036   6.265   1.980
 2371SOL    HW2 8013   0.949   6.292   1.844
 2372SOL     OW 8014   6.652   6.636   0.036
 2372SOL    HW1 8015   6.563   6.621   0.079
 2372SOL    HW2 8016   6.646   6.615   6.961
 2373SOL     OW 8017   6.409   4.616   6.611
 2373SOL    HW1 8018   6.377   4.673   6.687
 2373SOL    HW2 8019   6.509   4.614   6.610
 2374SOL     OW 8020   5.733   6.685   2.367
 2374SOL    HW1 8021   5.764   6.602   2.320
 2374SOL    HW2 8022   5.812   6.744   2.385
 2375SOL     OW 8023   2.155   0.498   4.385
 2375SOL    HW1 8024   2.084   0.513   4.454
 2375SOL    HW2 8025   2.113   0.465   4.301
 2376SOL     OW 8026   5.210   2.363   2.864
 2376SOL    HW1 8027   5.212   2.268   2.832
 2376SOL    HW2 8028   5.304   2.396   2.875
 2377SOL     OW 8029   4.724   3.572   5.907
 2377SOL    HW1 8030   4.720   3.569   6.007
 2377SOL    HW2 8031   4.691   3.485   5.870
 2378SOL     OW 8032   0.495   1.351   0.494
 2378SOL    HW1 8033   0.546   1.369   0.410
 2378SOL    HW2 8034   0.559   1.331   0.569
 2379SOL     OW 8035   0.038   5.309   2.729
 2379SOL    HW1 8036   6.965   5.325   2.748
 2379SOL    HW2 8037   0.082   5.396   2.704
 2380SOL     OW 8038   4.945   5.639   6.256
 2380SOL    HW1 8039   5.012   5.643   6.330
 2380SOL    HW2 8040   4.978   5.692   6.178
 2381SOL     OW 8041   2.327   4.213   4.046
 2381SOL    HW1 8042   2.316   4.145   3.973
 2381SOL    HW2 8043   2.280   4.181   4.128
 2382SOL     OW 8044   6.739   5.148   2.760
 2382SOL    HW1 8045   6.648   5.108   2.768
 2382SOL    HW2 8046   6.734   5.234   2.709
 2383SOL     OW 8047   5.149   4.221   5.900
 2383SOL    HW1 8048   5.223   4.289   5.907
 2383SOL    HW2 8049   5.170   4.143   5.959
 2384SOL     OW 8050   6.889   1.632   2.820
 2384SOL    HW1 8051   6.985   1.656   2.803
 2384SOL    HW2 8052   6.837   1.644   2.735
 2385SOL     OW 8053   0.541   1.123   0.891
 2385SOL    HW1 8054   0.467   1.184   0.918
 2385SOL    HW2 8055   0.602   1.172   0.828
 2386SOL     OW 8056   5.816   5.919   5.043
 2386SOL    HW1 8057   5.872   5.890   5.121
 2386SOL    HW2 8058   5.863   5.993   4.994
 2387SOL     OW 8059   1.046   1.571   3.985
 2387SOL    HW1 8060   1.085   1.531   4.068
 2387SOL    HW2 8061   1.018   1.665   4.004
 2388SOL     OW 8062   0.409   2.783   5.603
 2388SOL    HW1 8063   0.364   2.726   5.672
 2388SOL    HW2 8064   0.502   2.804   5.634
 2389SOL     OW 8065   3.813   5.132   3.320
 2389SOL    HW1 8066   3.792   5.223   3.356
 2389SOL    HW2 8067   3.862   5.141   3.233
 2390SOL     OW 8068   4.478   2.724   6.110
 2390SOL    HW1 8069   4.422   2.797   6.071
 2390SOL    HW2 8070   4.428   2.637   6.106
 2391SOL     OW 8071   3.481   4.447   6.412
 2391SOL    HW1 8072   3.413   4.484   6.349
 2391SOL    HW2 8073   3.540   4.383   6.363
 2392SOL     OW 8074   4.152   4.096   5.733
 2392SOL    HW1 8075   4.143   3.997   5.735
 2392SOL    HW2 8076   4.208   4.126   5.810
 2393SOL     OW 8077   4.782   4.509   0.873
 2393SOL    HW1 8078   4.721   4.437   0.904
 2393SOL    HW2 8079   4.807   4.494   0.777
 2394SOL     OW 8080   0.302   1.769   3.181
 2394SOL    HW1 8081   0.356   1.724   3.252
 2394SOL    HW2 8082   0.348   1.855   3.155
 2395SOL     OW 8083   1.376   2.989   4.224
 2395SOL    HW1 8084   1.347   2.907   4.174
 2395SOL    HW2 8085   1.447   3.037   4.173
 2396SOL     OW 8086   1.116   0.363   6.086
 2396SOL    HW1 8087   1.055   0.384   6.010
 2396SOL    HW2 8088   1.067   0.307   6.153
 2397SOL     OW 8089   0.599   3.533   4.937
 2397SOL    HW1 8090   0.623   3.543   4.840
 2397SOL    HW2 8091   0.501   3.518   4.945
 2398SOL     OW 8092   4.100   7.008   3.681
 2398SOL    HW1 8093   4.061   6.917   3.693
 2398SOL    HW2 8094   4.182   7.002   3.624
 2399SOL     OW 8095   3.320   2.147   3.246
 2399SOL    HW1 8096   3.412   2.177   3.219
 2399SOL    HW2 8097   3.307   2.163   3.344
 2400SOL     OW 8098   1.335   3.506   0.835
 2400SOL    HW1 8099   1.340   3.589   0.891
 2400SOL    HW2 8100   1.242   3.497   0.798
 2401SOL     OW 8101   1.478   0.160   6.698
 2401SOL    HW1 8102   1.535   0.113   6.766
 2401SOL    HW2 8103   1.411   0.096   6.660
 2402SOL     OW 8104   0.666   4.139   2.211
 2402SOL    HW1 8105   0.680   4.104   2.118
 2402SOL    HW2 8106   0.637   4.065   2.271
 2403SOL     OW 8107   3.627   4.047   4.529
 2403SOL    HW1 8108   3.569   4.084   4.602
 2403SOL    HW2 8109   3.601   3.952   4.510
 2404SOL     OW 8110   5.799   1.645   0.911
 2404SOL    HW1 8111   5.700   1.633   0.905
 2404SOL    HW2 8112   5.840   1.623   0.822
 2405SOL     OW 8113   1.013   3.137   0.666
 2405SOL    HW1 8114   1.003   3.050   0.715
 2405SOL    HW2 8115   1.110   3.155   0.649
 2406SOL     OW 8116   2.574   5.851   4.232
 2406SOL    HW1 8117   2.555   5.868   4.328
 2406SOL    HW2 8118   2.504   5.894   4.176
 2407SOL     OW 8119   2.891   1.011   3.344
 2407SOL    HW1 8120   2.893   0.969   3.435
 2407SOL    HW2 8121   2.877   0.940   3.275
 2408SOL     OW 8122   2.955   6.225   5.585
 2408SOL    HW1 8123   2.881   6.251   5.647
 2408SOL    HW2 8124   2.984   6.132   5.605
 2409SOL     OW 8125   1.086   3.362   0.348
 2409SOL    HW1 8126   1.144   3.297   0.299
 2409SOL    HW2 8127   1.115   3.455   0.325
 2410SOL     OW 8128   0.090   2.487   4.404
 2410SOL    HW1 8129   0.034   2.524   4.478
 2410SOL    HW2 8130   0.036   2.482   4.320
 2411SOL     OW 8131   3.418   1.978   6.859
 2411SOL    HW1 8132   3.335   2.021   6.893
 2411SOL    HW2 8133   3.497   2.011   6.910
 2412SOL     OW 8134   3.262   1.572   5.591
 2412SOL    HW1 8135   3.310   1.586   5.504
 2412SOL    HW2 8136   3.179   1.627   5.592
 2413SOL     OW 8137   0.338   3.154   0.051
 2413SOL    HW1 8138   0.366   3.139   0.146
 2413SOL    HW2 8139   0.300   3.069   0.014
 2414SOL     OW 8140   6.752   1.452   4.976
 2414SOL    HW1 8141   6.735   1.390   4.899
 2414SOL    HW2 8142   6.693   1.428   5.052
 2415SOL     OW 8143   2.579   5.002   6.605
 2415SOL    HW1 8144   2.558   5.014   6.508
 2415SOL    HW2 8145   2.671   5.037   6.623
 2416SOL     OW 8146   0.095   2.744   2.896
 2416SOL    HW1 8147   0.148   2.829   2.893
 2416SOL    HW2 8148   0.061   2.730   2.989
 2417SOL     OW 8149   2.651   2.860   1.649
 2417SOL    HW1 8150   2.710   2.784   1.676
 2417SOL    HW2 8151   2.593   2.831   1.573
 2418SOL     OW 8152   5.043   3.830   6.656
 2418SOL    HW1 8153   5.007   3.907   6.709
 2418SOL    HW2 8154   5.057   3.752   6.716
 2419SOL     OW 8155   2.856   0.846   3.578
 2419SOL    HW1 8156   2.815   0.779   3.640
 2419SOL    HW2 8157   2.952   0.862   3.604
 2420SOL     OW 8158   1.459   4.302   2.430
 2420SOL    HW1 8159   1.418   4.273   2.516
 2420SOL    HW2 8160   1.462   4.225   2.366
 2421SOL     OW 8161   2.911   6.560   3.651
 2421SOL    HW1 8162   2.923   6.563   3.552
 2421SOL    HW2 8163   2.834   6.618   3.677
 2422SOL     OW 8164   4.203   5.096   1.346
 2422SOL    HW1 8165   4.158   5.007   1.336
 2422SOL    HW2 8166   4.134   5.168   1.358
 2423SOL     OW 8167   2.428   5.919   2.680
 2423SOL    HW1 8168   2.380   5.976   2.747
 2423SOL    HW2 8169   2.378   5.833   2.669
 2424SOL     OW 8170   5.486   6.942   6.494
 2424SOL    HW1 8171   5.580   6.975   6.500
 2424SOL    HW2 8172   5.485   6.842   6.486
 2425SOL     OW 8173   4.746   5.610   4.838
 2425SOL    HW1 8174   4.817   5.582   4.903
 2425SOL    HW2 8175   4.696   5.529   4.806
 2426SOL     OW 8176   2.061   2.698   5.253
 2426SOL    HW1 8177   2.082   2.790   5.222
 2426SOL    HW2 8178   2.146   2.648   5.270
 2427SOL     OW 8179   5.206   0.668   0.549
 2427SOL    HW1 8180   5.236   0.660   0.644
 2427SOL    HW2 8181   5.191   0.765   0.527
 2428SOL     OW 8182   1.231   1.269   2.770
 2428SOL    HW1 8183   1.136   1.299   2.768
 2428SOL    HW2 8184   1.291   1.349   2.772
 2429SOL     OW 8185   5.713   5.194   1.851
 2429SOL    HW1 8186   5.682   5.188   1.756
 2429SOL    HW2 8187   5.649   5.251   1.903
 2430SOL     OW 8188   6.043   0.890   6.669
 2430SOL    HW1 8189   6.111   0.890   6.596
 2430SOL    HW2 8190   6.064   0.963   6.735
 2431SOL     OW 8191   0.354   3.707   1.656
 2431SOL    HW1 8192   0.382   3.617   1.622
 2431SOL    HW2 8193   0.379   3.777   1.590
 2432SOL     OW 8194   1.991   5.195   1.700
 2432SOL    HW1 8195   2.048   5.141   1.762
 2432SOL    HW2 8196   1.990   5.151   1.610
 2433SOL     OW 8197   0.019   4.114   5.172
 2433SOL    HW1 8198   0.066   4.044   5.119
 2433SOL    HW2 8199   6.951   4.129   5.134
 2434SOL     OW 8200   4.136   0.390   2.477
 2434SOL    HW1 8201   4.098   0.464   2.533
 2434SOL    HW2 8202   4.072   0.314   2.476
 2435SOL     OW 8203   6.129   6.957   6.853
 2435SOL    HW1 8204   6.113   0.022   6.897
 2435SOL    HW2 8205   6.133   6.970   6.754
 2436SOL     OW 8206   1.070   2.438   1.680
 2436SOL    HW1 8207   1.026   2.348   1.688
 2436SOL    HW2 8208   1.153   2.438   1.736
 2437SOL     OW 8209   6.784   3.945   2.875
 2437SOL    HW1 8210   6.801   3.853   2.840
 2437SOL    HW2 8211   6.795   3.946   2.974
 2438SOL     OW 8212   3.956   1.734   4.840
 2438SOL    HW1 8213   3.913   1.757   4.927
 2438SOL    HW2 8214   4.055   1.727   4.853
 2439SOL     OW 8215   1.639   5.867   1.478
 2439SOL    HW1 8216   1.738   5.853   1.478
 2439SOL    HW2 8217   1.619   5.961   1.451
 2440SOL     OW 8218   6.050   1.452   5.585
 2440SOL    HW1 8219   5.998   1.513   5.526
 2440SOL    HW2 8220   6.110   1.506   5.645
 2441SOL     OW 8221   6.010   0.315   0.544
 2441SOL    HW1 8222   6.060   0.356   0.468
 2441SOL    HW2 8223   5.945   0.248   0.509
 2442SOL     OW 8224   5.406   3.067   1.225
 2442SOL    HW1 8225   5.359   3.096   1.308
 2442SOL    HW2 8226   5.350   2.999   1.177
 2443SOL     OW 8227   1.105   3.276   1.977
 2443SOL    HW1 8228   1.116   3.364   1.929
 2443SOL    HW2 8229   1.080   3.294   2.072
 2444SOL     OW 8230   3.197   5.710   2.202
 2444SOL    HW1 8231   3.136   5.786   2.224
 2444SOL    HW2 8232   3.276   5.744   2.150
 2445SOL     OW 8233   0.826   2.612   1.801
 2445SOL    HW1 8234   0.856   2.596   1.895
 2445SOL    HW2 8235   0.769   2.694   1.798
 2446SOL     OW 8236   0.897   5.464   1.974
 2446SOL    HW1 8237   0.879   5.369   1.999
 2446SOL    HW2 8238   0.858   5.482   1.883
 2447SOL     OW 8239   2.165   6.806   0.105
 2447SOL    HW1 8240   2.242   6.862   0.137
 2447SOL    HW2 8241   2.102   6.863   0.052
 2448SOL     OW 8242   5.547   1.225   4.677
 2448SOL    HW1 8243   5.568   1.190   4.586
 2448SOL    HW2 8244   5.623   1.206   4.739
 2449SOL     OW 8245   1.376   4.236   1.800
 2449SOL    HW1 8246   1.293   4.227   1.855
 2449SOL    HW2 8247   1.352   4.276   1.711
 2450SOL     OW 8248   1.053   6.848   5.427
 2450SOL    HW1 8249   1.000   6.845   5.511
 2450SOL    HW2 8250   1.032   6.932   5.377
 2451SOL     OW 8251   1.012   6.375   5.159
 2451SOL    HW1 8252   1.067   6.293   5.142
 2451SOL    HW2 8253   1.019   6.400   5.256
 2452SOL     OW 8254   2.255   2.093   3.306
 2452SOL    HW1 8255   2.163   2.130   3.313
 2452SOL    HW2 8256   2.252   2.004   3.261
 2453SOL     OW 8257   0.791   1.040   5.423
 2453SOL    HW1 8258   0.811   0.986   5.506
 2453SOL    HW2 8259   0.744   0.982   5.357
 2454SOL     OW 8260   3.468   5.666   0.756
 2454SOL    HW1 8261   3.554   5.694   0.798
 2454SOL    HW2 8262   3.434   5.739   0.697
 2455SOL     OW 8263   4.069   2.491   0.347
 2455SOL    HW1 8264   4.030   2.535   0.428
 2455SOL    HW2 8265   4.151   2.440   0.373
 2456SOL     OW 8266   0.896   3.064   6.031
 2456SOL    HW1 8267   0.828   3.114   6.085
 2456SOL    HW2 8268   0.914   2.975   6.073
 2457SOL     OW 8269   4.634   2.048   5.310
 2457SOL    HW1 8270   4.622   2.061   5.408
 2457SOL    HW2 8271   4.678   2.129   5.271
 2458SOL     OW 8272   0.778   0.300   2.812
 2458SOL    HW1 8273   0.850   0.356   2.771
 2458SOL    HW2 8274   0.744   0.344   2.894
 2459SOL     OW 8275   2.378   6.959   0.207
 2459SOL    HW1 8276   2.426   6.895   0.267
 2459SOL    HW2 8277   2.428   0.022   0.203
 2460SOL     OW 8278   1.135   1.341   4.723
 2460SOL    HW1 8279   1.086   1.424   4.747
 2460SOL    HW2 8280   1.070   1.266   4.711
 2461SOL     OW 8281   4.708   0.233   3.612
 2461SOL    HW1 8282   4.684   0.291   3.690
 2461SOL    HW2 8283   4.650   0.151   3.612
 2462SOL     OW 8284   0.186   4.774   0.105
 2462SOL    HW1 8285   0.100   4.791   0.056
 2462SOL    HW2 8286   0.168   4.711   0.180
 2463SOL     OW 8287   6.514   0.815   0.430
 2463SOL    HW1 8288   6.483   0.848   0.342
 2463SOL    HW2 8289   6.555   0.724   0.419
 2464SOL     OW 8290   0.822   2.551   4.090
 2464SOL    HW1 8291   0.755   2.591   4.152
 2464SOL    HW2 8292   0.915   2.572   4.123
 2465SOL     OW 8293   0.369   6.868   5.832
 2465SOL    HW1 8294   0.270   6.877   5.817
 2465SOL    HW2 8295   0.410   6.824   5.752
 2466SOL     OW 8296   0.636   2.074   1.926
 2466SOL    HW1 8297   0.678   2.008   1.988
 2466SOL    HW2 8298   0.637   2.165   1.968
 2467SOL     OW 8299   6.040   2.668   5.343
 2467SOL    HW1 8300   5.940   2.670   5.339
 2467SOL    HW2 8301   6.072   2.577   5.319
 2468SOL     OW 8302   3.143   6.662   5.056
 2468SOL    HW1 8303   3.137   6.761   5.072
 2468SOL    HW2 8304   3.100   6.613   5.132
 2469SOL     OW 8305   3.593   1.976   5.783
 2469SOL    HW1 8306   3.548   2.041   5.722
 2469SOL    HW2 8307   3.573   1.883   5.753
 2470SOL     OW 8308   2.754   4.688   6.317
 2470SOL    HW1 8309   2.792   4.711   6.228
 2470SOL    HW2 8310   2.669   4.635   6.304
 2471SOL     OW 8311   2.797   5.667   2.077
 2471SOL    HW1 8312   2.794   5.763   2.050
 2471SOL    HW2 8313   2.706   5.627   2.066
 2472SOL     OW 8314   5.196   1.605   3.411
 2472SOL    HW1 8315   5.288   1.609   3.374
 2472SOL    HW2 8316   5.140   1.678   3.372
 2473SOL     OW 8317   0.642   4.199   4.345
 2473SOL    HW1 8318   0.664   4.296   4.352
 2473SOL    HW2 8319   0.613   4.165   4.435
 2474SOL     OW 8320   1.405   6.275   1.758
 2474SOL    HW1 8321   1.416   6.180   1.788
 2474SOL    HW2 8322   1.495   6.318   1.754
 2475SOL     OW 8323   5.246   0.578   0.840
 2475SOL    HW1 8324   5.206   0.593   0.930
 2475SOL    HW2 8325   5.210   0.492   0.802
 2476SOL     OW 8326   5.325   0.757   0.136
 2476SOL    HW1 8327   5.229   0.756   0.163
 2476SOL    HW2 8328   5.336   0.811   0.053
 2477SOL     OW 8329   3.822   0.534   3.242
 2477SOL    HW1 8330   3.891   0.523   3.171
 2477SOL    HW2 8331   3.855   0.596   3.312
 2478SOL     OW 8332   4.489   6.887   4.805
 2478SOL    HW1 8333   4.457   6.974   4.844
 2478SOL    HW2 8334   4.411   6.836   4.771
 2479SOL     OW 8335   5.920   3.176   6.903
 2479SOL    HW1 8336   5.967   3.152   6.818
 2479SOL    HW2 8337   5.976   3.149   6.981
 2480SOL     OW 8338   3.381   2.596   1.614
 2480SOL    HW1 8339   3.396   2.658   1.537
 2480SOL    HW2 8340   3.295   2.620   1.660
 2481SOL     OW 8341   3.142   0.367   1.146
 2481SOL    HW1 8342   3.227   0.394   1.191
 2481SOL    HW2 8343   3.086   0.448   1.129
 2482SOL     OW 8344   6.009   2.988   6.391
 2482SOL    HW1 8345   6.053   2.898   6.392
 2482SOL    HW2 8346   6.061   3.050   6.332
 2483SOL     OW 8347   1.045   2.550   0.524
 2483SOL    HW1 8348   1.143   2.540   0.509
 2483SOL    HW2 8349   0.996   2.476   0.478
 2484SOL     OW 8350   5.320   1.031   1.157
 2484SOL    HW1 8351   5.347   1.041   1.253
 2484SOL    HW2 8352   5.237   1.083   1.140
 2485SOL     OW 8353   6.531   2.083   6.522
 2485SOL    HW1 8354   6.510   2.151   6.592
 2485SOL    HW2 8355   6.600   2.019   6.557
 2486SOL     OW 8356   6.752   4.918   5.256
 2486SOL    HW1 8357   6.829   4.896   5.315
 2486SOL    HW2 8358   6.700   4.993   5.296
 2487SOL     OW 8359   5.167   5.598   6.859
 2487SOL    HW1 8360   5.255   5.607   6.812
 2487SOL    HW2 8361   5.093   5.603   6.792
 2488SOL     OW 8362   6.478   3.987   0.909
 2488SOL    HW1 8363   6.555   3.924   0.905
 2488SOL    HW2 8364   6.415   3.967   0.834
 2489SOL     OW 8365   0.187   6.277   4.316
 2489SOL    HW1 8366   0.180   6.277   4.416
 2489SOL    HW2 8367   0.283   6.276   4.289
 2490SOL     OW 8368   2.683   5.896   2.329
 2490SOL    HW1 8369   2.641   5.806   2.342
 2490SOL    HW2 8370   2.635   5.964   2.385
 2491SOL     OW 8371   3.758   4.559   1.410
 2491SOL    HW1 8372   3.756   4.586   1.314
 2491SOL    HW2 8373   3.829   4.491   1.425
 2492SOL     OW 8374   0.022   4.497   2.032
 2492SOL    HW1 8375   0.067   4.575   1.989
 2492SOL    HW2 8376   0.077   4.415   2.016
 2493SOL     OW 8377   6.268   6.940   1.229
 2493SOL    HW1 8378   6.176   6.973   1.252
 2493SOL    HW2 8379   6.269   6.906   1.135
 2494SOL     OW 8380   6.306   3.611   1.990
 2494SOL    HW1 8381   6.275   3.675   2.061
 2494SOL    HW2 8382   6.340   3.662   1.912
 2495SOL     OW 8383   6.353   4.536   3.631
 2495SOL    HW1 8384   6.360   4.437   3.618
 2495SOL    HW2 8385   6.432   4.580   3.590
 2496SOL     OW 8386   6.070   4.798   6.181
 2496SOL    HW1 8387   6.168   4.782   6.186
 2496SOL    HW2 8388   6.023   4.741   6.249
 2497SOL     OW 8389   0.334   0.219   2.218
 2497SOL    HW1 8390   0.263   0.151   2.235
 2497SOL    HW2 8391   0.378   0.244   2.304
 2498SOL     OW 8392   1.824   3.600   6.146
 2498SOL    HW1 8393   1.917   3.624   6.116
 2498SOL    HW2 8394   1.759   3.625   6.075
 2499SOL     OW 8395   6.685   3.648   1.887
 2499SOL    HW1 8396   6.654   3.553   1.893
 2499SOL    HW2 8397   6.728   3.675   1.973
 2500SOL     OW 8398   3.985   3.999   6.860
 2500SOL    HW1 8399   4.021   4.072   6.918
 2500SOL    HW2 8400   3.890   3.981   6.885
 2501SOL     OW 8401   5.840   5.744   0.258
 2501SOL    HW1 8402   5.927   5.696   0.249
 2501SOL    HW2 8403   5.812   5.745   0.354
 2502SOL     OW 8404   2.964   5.119   4.114
 2502SOL    HW1 8405   3.039   5.137   4.051
 2502SOL    HW2 8406   2.890   5.184   4.098
 2503SOL     OW 8407   2.485   6.389   5.820
 2503SOL    HW1 8408   2.398   6.419   5.783
 2503SOL    HW2 8409   2.519   6.311   5.767
 2504SOL     OW 8410   3.287   6.181   3.049
 2504SOL    HW1 8411   3.273   6.150   2.954
 2504SOL    HW2 8412   3.383   6.169   3.074
 2505SOL     OW 8413   0.037   5.124   3.211
 2505SOL    HW1 8414   0.066   5.032   3.237
 2505SOL    HW2 8415   0.092   5.156   3.134
 2506SOL     OW 8416   5.164   5.592   5.871
 2506SOL    HW1 8417   5.081   5.567   5.821
 2506SOL    HW2 8418   5.234   5.623   5.807
 2507SOL     OW 8419   6.650   3.528   0.246
 2507SOL    HW1 8420   6.727   3.496   0.192
 2507SOL    HW2 8421   6.578   3.561   0.185
 2508SOL     OW 8422   4.515   2.262   4.100
 2508SOL    HW1 8423   4.474   2.289   4.013
 2508SOL    HW2 8424   4.594   2.204   4.084
 2509SOL     OW 8425   0.275   3.554   5.334
 2509SOL    HW1 8426   0.196   3.520   5.284
 2509SOL    HW2 8427   0.250   3.572   5.429
 2510SOL     OW 8428   3.383   4.161   1.769
 2510SOL    HW1 8429   3.442   4.185   1.846
 2510SOL    HW2 8430   3.313   4.097   1.800
 2511SOL     OW 8431   1.984   0.419   5.060
 2511SOL    HW1 8432   1.940   0.358   5.127
 2511SOL    HW2 8433   2.056   0.471   5.106
 2512SOL     OW 8434   3.779   4.867   4.117
 2512SOL    HW1 8435   3.697   4.840   4.067
 2512SOL    HW2 8436   3.857   4.872   4.055
 2513SOL     OW 8437   2.234   5.890   6.192
 2513SOL    HW1 8438   2.295   5.936   6.128
 2513SOL    HW2 8439   2.268   5.904   6.285
 2514SOL     OW 8440   1.394   2.875   3.201
 2514SOL    HW1 8441   1.459   2.816   3.154
 2514SOL    HW2 8442   1.442   2.939   3.261
 2515SOL     OW 8443   1.431   1.503   1.802
 2515SOL    HW1 8444   1.443   1.422   1.861
 2515SOL    HW2 8445   1.408   1.582   1.859
 2516SOL     OW 8446   5.790   1.943   4.012
 2516SOL    HW1 8447   5.723   1.895   3.956
 2516SOL    HW2 8448   5.793   2.039   3.985
 2517SOL     OW 8449   1.513   1.786   4.015
 2517SOL    HW1 8450   1.473   1.878   4.011
 2517SOL    HW2 8451   1.464   1.726   3.953
 2518SOL     OW 8452   2.766   4.179   1.396
 2518SOL    HW1 8453   2.756   4.217   1.488
 2518SOL    HW2 8454   2.846   4.119   1.393
 2519SOL     OW 8455   1.698   1.333   0.425
 2519SOL    HW1 8456   1.725   1.237   0.430
 2519SOL    HW2 8457   1.687   1.369   0.518
 2520SOL     OW 8458   3.345   2.338   0.828
 2520SOL    HW1 8459   3.414   2.324   0.898
 2520SOL    HW2 8460   3.302   2.427   0.840
 2521SOL     OW 8461   5.282   1.580   5.054
 2521SOL    HW1 8462   5.322   1.499   5.098
 2521SOL    HW2 8463   5.214   1.621   5.115
 2522SOL     OW 8464   0.691   1.827   5.874
 2522SOL    HW1 8465   0.644   1.903   5.920
 2522SOL    HW2 8466   0.781   1.814   5.914
 2523SOL     OW 8467   2.028   4.774   0.055
 2523SOL    HW1 8468   2.087   4.812   7.007
 2523SOL    HW2 8469   1.964   4.844   0.085
 2524SOL     OW 8470   1.302   6.677   3.955
 2524SOL    HW1 8471   1.330   6.599   4.010
 2524SOL    HW2 8472   1.228   6.726   4.002
 2525SOL     OW 8473   6.808   1.991   4.317
 2525SOL    HW1 8474   6.815   2.017   4.413
 2525SOL    HW2 8475   6.712   1.970   4.296
 2526SOL     OW 8476   1.402   6.496   0.709
 2526SOL    HW1 8477   1.490   6.543   0.718
 2526SOL    HW2 8478   1.352   6.503   0.796
 2527SOL     OW 8479   5.071   4.976   6.486
 2527SOL    HW1 8480   5.138   4.942   6.552
 2527SOL    HW2 8481   5.024   5.056   6.523
 2528SOL     OW 8482   4.738   5.069   6.419
 2528SOL    HW1 8483   4.715   5.039   6.512
 2528SOL    HW2 8484   4.828   5.112   6.419
 2529SOL     OW 8485   0.423   0.156   6.471
 2529SOL    HW1 8486   0.439   0.251   6.499
 2529SOL    HW2 8487   0.346   0.119   6.522
 2530SOL     OW 8488   2.163   5.631   5.502
 2530SOL    HW1 8489   2.171   5.537   5.534
 2530SOL    HW2 8490   2.141   5.691   5.579
 2531SOL     OW 8491   6.415   5.571   5.879
 2531SOL    HW1 8492   6.489   5.529   5.931
 2531SOL    HW2 8493   6.331   5.570   5.933
 2532SOL     OW 8494   6.909   6.623   1.314
 2532SOL    HW1 8495   6.815   6.624   1.348
 2532SOL    HW2 8496   6.913   6.671   1.226
 2533SOL     OW 8497   4.916   0.900   3.104
 2533SOL    HW1 8498   4.959   0.961   3.170
 2533SOL    HW2 8499   4.863   0.830   3.152
 2534SOL     OW 8500   4.643   1.833   2.335
 2534SOL    HW1 8501   4.550   1.829   2.370
 2534SOL    HW2 8502   4.671   1.928   2.322
 2535SOL     OW 8503   3.680   2.964   6.079
 2535SOL    HW1 8504   3.629   2.963   5.993
 2535SOL    HW2 8505   3.645   3.038   6.137
 2536SOL     OW 8506   1.566   0.739   6.805
 2536SOL    HW1 8507   1.555   0.693   6.894
 2536SOL    HW2 8508   1.572   0.838   6.819
 2537SOL     OW 8509   3.986   1.035   6.970
 2537SOL    HW1 8510   3.942   1.123   6.990
 2537SOL    HW2 8511   3.918   0.962   6.978
 2538SOL     OW 8512   6.851   3.407   4.132
 2538SOL    HW1 8513   6.947   3.380   4.142
 2538SOL    HW2 8514   6.835   3.439   4.039
 2539SOL     OW 8515   4.830   1.638   5.112
 2539SOL    HW1 8516   4.835   1.540   5.094
 2539SOL    HW2 8517   4.922   1.673   5.131
 2540SOL     OW 8518   3.767   1.550   2.304
 2540SOL    HW1 8519   3.742   1.582   2.212
 2540SOL    HW2 8520   3.684   1.539   2.359
 2541SOL     OW 8521   3.394   6.350   5.130
 2541SOL    HW1 8522   3.453   6.342   5.050
 2541SOL    HW2 8523   3.422   6.284   5.200
 2542SOL     OW 8524   0.917   5.039   6.359
 2542SOL    HW1 8525   0.966   4.956   6.387
 2542SOL    HW2 8526   0.841   5.055   6.421
 2543SOL     OW 8527   1.503   1.628   4.214
 2543SOL    HW1 8528   1.570   1.650   4.285
 2543SOL    HW2 8529   1.508   1.696   4.141
 2544SOL     OW 8530   0.759   5.515   0.279
 2544SOL    HW1 8531   0.714   5.508   0.368
 2544SOL    HW2 8532   0.689   5.524   0.207
 2545SOL     OW 8533   2.064   6.407   2.712
 2545SOL    HW1 8534   2.038   6.490   2.662
 2545SOL    HW2 8535   2.020   6.328   2.669
 2546SOL     OW 8536   6.282   2.007   0.853
 2546SOL    HW1 8537   6.251   2.101   0.843
 2546SOL    HW2 8538   6.346   2.001   0.930
 2547SOL     OW 8539   0.324   3.429   4.961
 2547SOL    HW1 8540   0.276   3.502   5.010
 2547SOL    HW2 8541   0.291   3.425   4.867
 2548SOL     OW 8542   0.299   5.942   4.095
 2548SOL    HW1 8543   0.281   6.027   4.044
 2548SOL    HW2 8544   0.321   5.869   4.031
 2549SOL     OW 8545   0.819   1.066   1.004
 2549SOL    HW1 8546   0.797   1.097   1.096
 2549SOL    HW2 8547   0.737   1.068   0.947
 2550SOL     OW 8548   5.766   6.505   0.633
 2550SOL    HW1 8549   5.798   6.486   0.540
 2550SOL    HW2 8550   5.666   6.512   0.634
 2551SOL     OW 8551   1.565   4.102   6.602
 2551SOL    HW1 8552   1.639   4.168   6.591
 2551SOL    HW2 8553   1.498   4.114   6.529
 2552SOL     OW 8554   2.176   5.651   2.937
 2552SOL    HW1 8555   2.126   5.567   2.918
 2552SOL    HW2 8556   2.208   5.690   2.850
 2553SOL     OW 8557   4.390   3.704   6.681
 2553SOL    HW1 8558   4.436   3.766   6.618
 2553SOL    HW2 8559   4.392   3.611   6.644
 2554SOL     OW 8560   1.614   1.520   0.246
 2554SOL    HW1 8561   1.585   1.452   0.179
 2554SOL    HW2 8562   1.624   1.477   0.336
 2555SOL     OW 8563   6.118   2.505   6.492
 2555SOL    HW1 8564   6.048   2.435   6.502
 2555SOL    HW2 8565   6.183   2.478   6.421
 2556SOL     OW 8566   3.521   6.149   0.920
 2556SOL    HW1 8567   3.552   6.055   0.902
 2556SOL    HW2 8568   3.426   6.147   0.949
 2557SOL     OW 8569   1.961   4.207   6.766
 2557SOL    HW1 8570   1.935   4.124   6.815
 2557SOL    HW2 8571   1.891   4.228   6.697
 2558SOL     OW 8572   4.619   0.808   5.616
 2558SOL    HW1 8573   4.616   0.733   5.549
 2558SOL    HW2 8574   4.646   0.771   5.705
 2559SOL     OW 8575   0.382   4.556   4.877
 2559SOL    HW1 8576   0.378   4.532   4.974
 2559SOL    HW2 8577   0.323   4.493   4.825
 2560SOL     OW 8578   5.987   1.977   5.968
 2560SOL    HW1 8579   5.893   2.004   5.991
 2560SOL    HW2 8580   6.044   1.985   6.050
 2561SOL     OW 8581   2.690   5.397   5.048
 2561SOL    HW1 8582   2.596   5.370   5.030
 2561SOL    HW2 8583   2.751   5.320   5.029
 2562SOL     OW 8584   1.618   3.674   0.131
 2562SOL    HW1 8585   1.600   3.616   0.211
 2562SOL    HW2 8586   1.542   3.737   0.118
 2563SOL     OW 8587   2.682   1.257   6.734
 2563SOL    HW1 8588   2.631   1.301   6.660
 2563SOL    HW2 8589   2.675   1.312   6.817
 2564SOL     OW 8590   1.349   5.472   1.782
 2564SOL    HW1 8591   1.384   5.397   1.838
 2564SOL    HW2 8592   1.298   5.536   1.840
 2565SOL     OW 8593   1.458   0.739   1.623
 2565SOL    HW1 8594   1.501   0.691   1.546
 2565SOL    HW2 8595   1.523   0.803   1.663
 2566SOL     OW 8596   1.876   6.668   6.934
 2566SOL    HW1 8597   1.805   6.657   7.004
 2566SOL    HW2 8598   1.905   6.763   6.930
 2567SOL     OW 8599   1.252   6.359   0.355
 2567SOL    HW1 8600   1.249   6.327   0.450
 2567SOL    HW2 8601   1.197   6.442   0.345
 2568SOL     OW 8602   4.636   2.381   0.092
 2568SOL    HW1 8603   4.609   2.472   0.063
 2568SOL    HW2 8604   4.723   2.386   0.142
 2569SOL     OW 8605   3.210   0.224   3.517
 2569SOL    HW1 8606   3.126   0.170   3.506
 2569SOL    HW2 8607   3.270   0.207   3.439
 2570SOL     OW 8608   5.275   1.524   6.189
 2570SOL    HW1 8609   5.257   1.572   6.275
 2570SOL    HW2 8610   5.189   1.488   6.151
 2571SOL     OW 8611   1.127   4.922   3.589
 2571SOL    HW1 8612   1.206   4.888   3.640
 2571SOL    HW2 8613   1.138   5.021   3.574
 2572SOL     OW 8614   2.164   4.621   2.692
 2572SOL    HW1 8615   2.122   4.660   2.774
 2572SOL    HW2 8616   2.196   4.528   2.712
 2573SOL     OW 8617   0.387   0.360   1.350
 2573SOL    HW1 8618   0.289   0.370   1.367
 2573SOL    HW2 8619   0.407   0.379   1.254
 2574SOL     OW 8620   6.390   3.538   0.090
 2574SOL    HW1 8621   6.369   3.626   0.046
 2574SOL    HW2 8622   6.358   3.463   0.032
 2575SOL     OW 8623   6.839   5.801   6.411
 2575SOL    HW1 8624   6.816   5.836   6.320
 2575SOL    HW2 8625   6.936   5.776   6.414
 2576SOL     OW 8626   4.717   6.490   4.004
 2576SOL    HW1 8627   4.782   6.557   3.967
 2576SOL    HW2 8628   4.675   6.439   3.929
 2577SOL     OW 8629   2.579   4.524   2.205
 2577SOL    HW1 8630   2.601   4.560   2.295
 2577SOL    HW2 8631   2.644   4.559   2.138
 2578SOL     OW 8632   4.010   1.893   3.699
 2578SOL    HW1 8633   3.996   1.891   3.600
 2578SOL    HW2 8634   3.962   1.971   3.738
 2579SOL     OW 8635   0.776   6.473   3.699
 2579SOL    HW1 8636   0.710   6.475   3.624
 2579SOL    HW2 8637   0.856   6.420   3.671
 2580SOL     OW 8638   2.241   2.860   0.196
 2580SOL    HW1 8639   2.248   2.893   0.102
 2580SOL    HW2 8640   2.182   2.922   0.248
 2581SOL     OW 8641   2.872   6.696   5.434
 2581SOL    HW1 8642   2.785   6.700   5.485
 2581SOL    HW2 8643   2.896   6.788   5.402
 2582SOL     OW 8644   0.149   3.126   1.310
 2582SOL    HW1 8645   0.147   3.213   1.359
 2582SOL    HW2 8646   0.217   3.130   1.236
 2583SOL     OW 8647   5.997   6.893   1.062
 2583SOL    HW1 8648   5.913   6.858   1.022
 2583SOL    HW2 8649   5.981   6.914   1.159
 2584SOL     OW 8650   4.454   4.696   5.366
 2584SOL    HW1 8651   4.422   4.789   5.347
 2584SOL    HW2 8652   4.509   4.697   5.449
 2585SOL     OW 8653   3.275   5.135   6.977
 2585SOL    HW1 8654   3.262   5.225   6.936
 2585SOL    HW2 8655   3.211   5.071   6.936
 2586SOL     OW 8656   2.109   0.610   4.777
 2586SOL    HW1 8657   2.139   0.518   4.803
 2586SOL    HW2 8658   2.018   0.627   4.815
 2587SOL     OW 8659   6.705   1.459   3.119
 2587SOL    HW1 8660   6.781   1.395   3.135
 2587SOL    HW2 8661   6.666   1.442   3.029
 2588SOL     OW 8662   4.506   0.919   5.322
 2588SOL    HW1 8663   4.467   0.990   5.380
 2588SOL    HW2 8664   4.462   0.832   5.342
 2589SOL     OW 8665   1.612   6.778   6.920
 2589SOL    HW1 8666   1.624   6.735   7.009
 2589SOL    HW2 8667   1.578   6.710   6.855
 2590SOL     OW 8668   2.954   4.924   0.394
 2590SOL    HW1 8669   3.011   4.966   0.323
 2590SOL    HW2 8670   2.877   4.984   0.415
 2591SOL     OW 8671   5.951   5.513   3.998
 2591SOL    HW1 8672   5.966   5.482   3.904
 2591SOL    HW2 8673   5.886   5.451   4.043
 2592SOL     OW 8674   2.261   4.656   0.266
 2592SOL    HW1 8675   2.228   4.627   0.356
 2592SOL    HW2 8676   2.213   4.604   0.195
 2593SOL     OW 8677   3.136   3.803   0.671
 2593SOL    HW1 8678   3.167   3.767   0.759
 2593SOL    HW2 8679   3.102   3.896   0.683
 2594SOL     OW 8680   1.766   4.078   4.487
 2594SOL    HW1 8681   1.708   4.070   4.568
 2594SOL    HW2 8682   1.838   4.009   4.491
 2595SOL     OW 8683   1.767   0.874   3.506
 2595SOL    HW1 8684   1.784   0.909   3.598
 2595SOL    HW2 8685   1.695   0.804   3.509
 2596SOL     OW 8686   1.107   2.447   0.083
 2596SOL    HW1 8687   1.176   2.425   0.151
 2596SOL    HW2 8688   1.077   2.363   0.038
 2597SOL     OW 8689   6.711   6.076   6.683
 2597SOL    HW1 8690   6.687   5.979   6.675
 2597SOL    HW2 8691   6.665   6.128   6.611
 2598SOL     OW 8692   5.543   2.880   2.534
 2598SOL    HW1 8693   5.555   2.894   2.436
 2598SOL    HW2 8694   5.454   2.838   2.551
 2599SOL     OW 8695   2.658   6.831   2.073
 2599SOL    HW1 8696   2.571   6.786   2.052
 2599SOL    HW2 8697   2.721   6.764   2.113
 2600SOL     OW 8698   6.163   3.890   4.199
 2600SOL    HW1 8699   6.232   3.917   4.265
 2600SOL    HW2 8700   6.197   3.813   4.145
 2601SOL     OW 8701   0.366   2.046   3.251
 2601SOL    HW1 8702   0.398   2.129   3.204
 2601SOL    HW2 8703   0.272   2.060   3.282
 2602SOL     OW 8704   1.710   5.002   3.887
 2602SOL    HW1 8705   1.757   4.916   3.909
 2602SOL    HW2 8706   1.777   5.068   3.853
 2603SOL     OW 8707   2.837   0.306   3.023
 2603SOL    HW1 8708   2.774   0.353   3.084
 2603SOL    HW2 8709   2.853   0.361   2.941
 2604SOL     OW 8710   4.506   2.282   2.873
 2604SOL    HW1 8711   4.510   2.340   2.955
 2604SOL    HW2 8712   4.479   2.189   2.900
 2605SOL     OW 8713   1.679   3.615   2.030
 2605SOL    HW1 8714   1.699   3.645   2.123
 2605SOL    HW2 8715   1.760   3.628   1.972
 2606SOL     OW 8716   4.380   3.719   1.124
 2606SOL    HW1 8717   4.308   3.781   1.155
 2606SOL    HW2 8718   4.391   3.645   1.190
 2607SOL     OW 8719   2.600   1.958   1.236
 2607SOL    HW1 8720   2.679   1.900   1.260
 2607SOL    HW2 8721   2.631   2.053   1.226
 2608SOL     OW 8722   2.384   5.428   5.867
 2608SOL    HW1 8723   2.318   5.456   5.797
 2608SOL    HW2 8724   2.349   5.348   5.916
 2609SOL     OW 8725   0.124   1.392   1.091
 2609SOL    HW1 8726   0.166   1.459   1.153
 2609SOL    HW2 8727   0.101   1.436   1.005
 2610SOL     OW 8728   1.237   4.563   4.452
 2610SOL    HW1 8729   1.300   4.600   4.521
 2610SOL    HW2 8730   1.243   4.463   4.452
 2611SOL     OW 8731   5.725   0.050   6.526
 2611SOL    HW1 8732   5.705   0.096   6.613
 2611SOL    HW2 8733   5.777   0.112   6.467
 2612SOL     OW 8734   6.422   6.951   5.800
 2612SOL    HW1 8735   6.323   6.957   5.815
 2612SOL    HW2 8736   6.440   6.934   5.703
 2613SOL     OW 8737   1.194   5.859   6.838
 2613SOL    HW1 8738   1.246   5.848   6.922
 2613SOL    HW2 8739   1.166   5.955   6.829
 2614SOL     OW 8740   6.867   1.293   6.407
 2614SOL    HW1 8741   6.928   1.216   6.425
 2614SOL    HW2 8742   6.905   1.349   6.333
 2615SOL     OW 8743   0.756   3.217   0.612
 2615SOL    HW1 8744   0.852   3.220   0.639
 2615SOL    HW2 8745   0.730   3.122   0.594
 2616SOL     OW 8746   1.512   0.115   5.412
 2616SOL    HW1 8747   1.513   0.127   5.313
 2616SOL    HW2 8748   1.489   0.202   5.455
 2617SOL     OW 8749   5.467   0.301   1.439
 2617SOL    HW1 8750   5.518   0.290   1.354
 2617SOL    HW2 8751   5.516   0.255   1.514
 2618SOL     OW 8752   1.130   6.516   6.299
 2618SOL    HW1 8753   1.038   6.494   6.332
 2618SOL    HW2 8754   1.147   6.470   6.212
 2619SOL     OW 8755   4.753   1.189   2.454
 2619SOL    HW1 8756   4.699   1.108   2.477
 2619SOL    HW2 8757   4.801   1.173   2.368
 2620SOL     OW 8758   6.190   0.749   1.017
 2620SOL    HW1 8759   6.240   0.718   0.936
 2620SOL    HW2 8760   6.179   0.848   1.013
 2621SOL     OW 8761   1.701   6.222   1.853
 2621SOL    HW1 8762   1.689   6.122   1.852
 2621SOL    HW2 8763   1.732   6.252   1.943
 2622SOL     OW 8764   3.453   3.318   6.470
 2622SOL    HW1 8765   3.514   3.278   6.538
 2622SOL    HW2 8766   3.395   3.247   6.431
 2623SOL     OW 8767   1.065   6.383   3.385
 2623SOL    HW1 8768   0.995   6.324   3.425
 2623SOL    HW2 8769   1.029   6.476   3.375
 2624SOL     OW 8770   0.344   1.641   4.951
 2624SOL    HW1 8771   0.368   1.593   4.866
 2624SOL    HW2 8772   0.425   1.689   4.986
 2625SOL     OW 8773   2.027   5.305   6.255
 2625SOL    HW1 8774   2.016   5.278   6.160
 2625SOL    HW2 8775   2.045   5.404   6.260
 2626SOL     OW 8776   6.709   5.469   6.587
 2626SOL    HW1 8777   6.786   5.416   6.552
 2626SOL    HW2 8778   6.694   5.549   6.529
 2627SOL     OW 8779   1.919   6.820   5.428
 2627SOL    HW1 8780   1.963   6.776   5.350
 2627SOL    HW2 8781   1.911   6.918   5.411
 2628SOL     OW 8782   0.255   4.972   2.540
 2628SOL    HW1 8783   0.265   5.054   2.597
 2628SOL    HW2 8784   0.185   4.913   2.579
 2629SOL     OW 8785   3.361   3.969   2.791
 2629SOL    HW1 8786   3.273   3.951   2.746
 2629SOL    HW2 8787   3.391   3.887   2.839
 2630SOL     OW 8788   3.907   0.841   3.646
 2630SOL    HW1 8789   3.940   0.789   3.725
 2630SOL    HW2 8790   3.985   0.873   3.593
 2631SOL     OW 8791   6.093   0.377   6.775
 2631SOL    HW1 8792   6.157   0.391   6.699
 2631SOL    HW2 8793   6.077   0.464   6.822
 2632SOL     OW 8794   5.278   4.459   2.337
 2632SOL    HW1 8795   5.302   4.463   2.240
 2632SOL    HW2 8796   5.188   4.416   2.347
 2633SOL     OW 8797   0.186   3.363   5.913
 2633SOL    HW1 8798   0.221   3.360   6.006
 2633SOL    HW2 8799   0.086   3.356   5.915
 2634SOL     OW 8800   0.335   1.126   6.046
 2634SOL    HW1 8801   0.315   1.148   5.951
 2634SOL    HW2 8802   0.329   1.209   6.102
 2635SOL     OW 8803   5.568   5.104   3.320
 2635SOL    HW1 8804   5.588   5.168   3.246
 2635SOL    HW2 8805   5.545   5.156   3.403
 2636SOL     OW 8806   3.578   5.861   5.088
 2636SOL    HW1 8807   3.489   5.900   5.113
 2636SOL    HW2 8808   3.624   5.923   5.024
 2637SOL     OW 8809   0.505   1.572   3.622
 2637SOL    HW1 8810   0.500   1.570   3.722
 2637SOL    HW2 8811   0.587   1.524   3.592
 2638SOL     OW 8812   0.883   6.172   4.137
 2638SOL    HW1 8813   0.972   6.219   4.140
 2638SOL    HW2 8814   0.898   6.075   4.120
 2639SOL     OW 8815   4.168   4.782   5.344
 2639SOL    HW1 8816   4.237   4.837   5.391
 2639SOL    HW2 8817   4.077   4.818   5.364
 2640SOL     OW 8818   1.681   6.886   3.834
 2640SOL    HW1 8819   1.596   6.879   3.781
 2640SOL    HW2 8820   1.738   6.805   3.816
 2641SOL     OW 8821   5.781   2.919   6.902
 2641SOL    HW1 8822   5.793   3.012   6.937
 2641SOL    HW2 8823   5.825   2.911   6.812
 2642SOL     OW 8824   5.915   1.520   3.790
 2642SOL    HW1 8825   5.908   1.443   3.726
 2642SOL    HW2 8826   5.838   1.518   3.854
 2643SOL     OW 8827   2.346   4.679   3.816
 2643SOL    HW1 8828   2.361   4.586   3.850
 2643SOL    HW2 8829   2.433   4.715   3.781
 2644SOL     OW 8830   4.586   5.390   4.760
 2644SOL    HW1 8831   4.613   5.318   4.824
 2644SOL    HW2 8832   4.553   5.349   4.675
 2645SOL     OW 8833   4.971   5.376   3.589
 2645SOL    HW1 8834   4.997   5.456   3.644
 2645SOL    HW2 8835   5.049   5.346   3.535
 2646SOL     OW 8836   0.728   2.443   6.205
 2646SOL    HW1 8837   0.749   2.515   6.138
 2646SOL    HW2 8838   0.814   2.402   6.237
 2647SOL     OW 8839   5.470   0.632   1.891
 2647SOL    HW1 8840   5.544   0.583   1.846
 2647SOL    HW2 8841   5.480   0.730   1.874
 2648SOL     OW 8842   0.938   0.405   6.826
 2648SOL    HW1 8843   0.908   0.411   6.731
 2648SOL    HW2 8844   1.009   0.335   6.834
 2649SOL     OW 8845   4.971   2.039   1.905
 2649SOL    HW1 8846   4.982   1.971   1.833
 2649SOL    HW2 8847   4.943   2.126   1.865
 2650SOL     OW 8848   2.562   6.384   4.256
 2650SOL    HW1 8849   2.556   6.471   4.305
 2650SOL    HW2 8850   2.657   6.364   4.235
 2651SOL     OW 8851   4.434   2.469   4.288
 2651SOL    HW1 8852   4.459   2.565   4.276
 2651SOL    HW2 8853   4.488   2.412   4.225
 2652SOL     OW 8854   5.027   4.073   5.411
 2652SOL    HW1 8855   5.052   4.145   5.475
 2652SOL    HW2 8856   5.001   4.114   5.323
 2653SOL     OW 8857   2.596   5.328   0.504
 2653SOL    HW1 8858   2.534   5.286   0.571
 2653SOL    HW2 8859   2.546   5.345   0.419
 2654SOL     OW 8860   6.667   1.078   0.155
 2654SOL    HW1 8861   6.610   1.160   0.144
 2654SOL    HW2 8862   6.757   1.094   0.113
 2655SOL     OW 8863   4.584   6.179   2.462
 2655SOL    HW1 8864   4.555   6.089   2.495
 2655SOL    HW2 8865   4.503   6.233   2.438
 2656SOL     OW 8866   3.584   6.377   3.306
 2656SOL    HW1 8867   3.604   6.298   3.248
 2656SOL    HW2 8868   3.485   6.390   3.312
 2657SOL     OW 8869   0.588   3.989   0.288
 2657SOL    HW1 8870   0.534   3.907   0.268
 2657SOL    HW2 8871   0.685   3.966   0.286
 2658SOL     OW 8872   3.513   5.528   0.068
 2658SOL    HW1 8873   3.465   5.499   0.150
 2658SOL    HW2 8874   3.610   5.506   0.075
 2659SOL     OW 8875   0.254   2.102   5.121
 2659SOL    HW1 8876   0.257   2.201   5.115
 2659SOL    HW2 8877   0.202   2.065   5.043
 2660SOL     OW 8878   0.458   1.861   1.919
 2660SOL    HW1 8879   0.419   1.874   2.010
 2660SOL    HW2 8880   0.510   1.942   1.892
 2661SOL     OW 8881   1.449   1.256   0.808
 2661SOL    HW1 8882   1.445   1.156   0.804
 2661SOL    HW2 8883   1.541   1.286   0.783
 2662SOL     OW 8884   2.706   1.517   2.245
 2662SOL    HW1 8885   2.684   1.461   2.165
 2662SOL    HW2 8886   2.667   1.608   2.234
 2663SOL     OW 8887   4.156   6.559   0.161
 2663SOL    HW1 8888   4.216   6.638   0.150
 2663SOL    HW2 8889   4.210   6.475   0.151
 2664SOL     OW 8890   4.256   3.828   5.677
 2664SOL    HW1 8891   4.340   3.796   5.720
 2664SOL    HW2 8892   4.184   3.759   5.689
 2665SOL     OW 8893   2.172   3.793   4.697
 2665SOL    HW1 8894   2.157   3.740   4.781
 2665SOL    HW2 8895   2.192   3.888   4.721
 2666SOL     OW 8896   2.222   3.949   2.294
 2666SOL    HW1 8897   2.304   3.896   2.313
 2666SOL    HW2 8898   2.240   4.017   2.223
 2667SOL     OW 8899   6.938   2.915   4.884
 2667SOL    HW1 8900   6.943   2.816   4.870
 2667SOL    HW2 8901   0.002   2.948   4.921
 2668SOL     OW 8902   6.496   0.444   3.378
 2668SOL    HW1 8903   6.562   0.508   3.338
 2668SOL    HW2 8904   6.418   0.495   3.414
 2669SOL     OW 8905   2.580   0.525   6.949
 2669SOL    HW1 8906   2.636   0.595   6.904
 2669SOL    HW2 8907   2.495   0.512   6.897
 2670SOL     OW 8908   0.695   0.491   6.717
 2670SOL    HW1 8909   0.666   0.447   6.802
 2670SOL    HW2 8910   0.647   0.449   6.640
 2671SOL     OW 8911   4.951   4.523   6.121
 2671SOL    HW1 8912   4.858   4.546   6.149
 2671SOL    HW2 8913   4.954   4.428   6.089
 2672SOL     OW 8914   3.533   1.104   2.167
 2672SOL    HW1 8915   3.465   1.176   2.182
 2672SOL    HW2 8916   3.487   1.019   2.142
 2673SOL     OW 8917   3.867   0.163   2.287
 2673SOL    HW1 8918   3.922   0.173   2.370
 2673SOL    HW2 8919   3.927   0.161   2.207
 2674SOL     OW 8920   0.304   5.202   2.707
 2674SOL    HW1 8921   0.375   5.259   2.748
 2674SOL    HW2 8922   0.215   5.227   2.747
 2675SOL     OW 8923   5.198   0.738   4.218
 2675SOL    HW1 8924   5.215   0.678   4.140
 2675SOL    HW2 8925   5.209   0.833   4.190
 2676SOL     OW 8926   4.061   3.604   3.024
 2676SOL    HW1 8927   4.095   3.512   3.009
 2676SOL    HW2 8928   4.084   3.633   3.117
 2677SOL     OW 8929   2.480   5.011   1.123
 2677SOL    HW1 8930   2.474   4.933   1.185
 2677SOL    HW2 8931   2.550   5.074   1.156
 2678SOL     OW 8932   4.281   1.862   3.025
 2678SOL    HW1 8933   4.205   1.815   3.068
 2678SOL    HW2 8934   4.352   1.795   3.002
 2679SOL     OW 8935   2.066   3.405   3.035
 2679SOL    HW1 8936   1.983   3.457   3.053
 2679SOL    HW2 8937   2.064   3.371   2.941
 2680SOL     OW 8938   5.868   1.548   0.192
 2680SOL    HW1 8939   5.954   1.596   0.173
 2680SOL    HW2 8940   5.885   1.449   0.190
 2681SOL     OW 8941   1.966   2.154   4.213
 2681SOL    HW1 8942   1.877   2.173   4.254
 2681SOL    HW2 8943   2.038   2.167   4.282
 2682SOL     OW 8944   4.065   3.962   1.527
 2682SOL    HW1 8945   3.990   4.025   1.546
 2682SOL    HW2 8946   4.150   3.999   1.564
 2683SOL     OW 8947   2.385   4.375   1.853
 2683SOL    HW1 8948   2.381   4.389   1.952
 2683SOL    HW2 8949   2.420   4.283   1.834
 2684SOL     OW 8950   6.767   6.696   3.743
 2684SOL    HW1 8951   6.702   6.763   3.778
 2684SOL    HW2 8952   6.844   6.743   3.700
 2685SOL     OW 8953   0.679   5.613   5.925
 2685SOL    HW1 8954   0.768   5.632   5.966
 2685SOL    HW2 8955   0.649   5.692   5.871
 2686SOL     OW 8956   0.435   1.599   5.383
 2686SOL    HW1 8957   0.535   1.590   5.380
 2686SOL    HW2 8958   0.402   1.575   5.474
 2687SOL     OW 8959   4.082   1.944   1.349
 2687SOL    HW1 8960   4.124   1.956   1.439
 2687SOL    HW2 8961   4.024   1.863   1.349
 2688SOL     OW 8962   3.731   3.069   6.405
 2688SOL    HW1 8963   3.787   3.147   6.376
 2688SOL    HW2 8964   3.754   2.989   6.350
 2689SOL     OW 8965   1.584   4.186   3.414
 2689SOL    HW1 8966   1.562   4.098   3.458
 2689SOL    HW2 8967   1.539   4.191   3.325
 2690SOL     OW 8968   4.170   1.580   5.480
 2690SOL    HW1 8969   4.190   1.671   5.515
 2690SOL    HW2 8970   4.196   1.512   5.548
 2691SOL     OW 8971   6.716   3.599   4.858
 2691SOL    HW1 8972   6.659   3.671   4.897
 2691SOL    HW2 8973   6.660   3.517   4.844
 2692SOL     OW 8974   2.467   6.426   1.960
 2692SOL    HW1 8975   2.555   6.379   1.944
 2692SOL    HW2 8976   2.403   6.402   1.887
 2693SOL     OW 8977   1.586   6.151   3.080
 2693SOL    HW1 8978   1.638   6.181   3.160
 2693SOL    HW2 8979   1.543   6.063   3.099
 2694SOL     OW 8980   2.983   0.438   2.771
 2694SOL    HW1 8981   3.040   0.425   2.690
 2694SOL    HW2 8982   2.964   0.536   2.782
 2695SOL     OW 8983   6.828   5.633   3.862
 2695SOL    HW1 8984   6.852   5.604   3.770
 2695SOL    HW2 8985   6.901   5.691   3.899
 2696SOL     OW 8986   5.180   4.683   6.113
 2696SOL    HW1 8987   5.181   4.778   6.142
 2696SOL    HW2 8988   5.086   4.652   6.100
 2697SOL     OW 8989   4.194   2.463   6.575
 2697SOL    HW1 8990   4.220   2.367   6.585
 2697SOL    HW2 8991   4.095   2.471   6.587
 2698SOL     OW 8992   1.695   4.907   5.787
 2698SOL    HW1 8993   1.764   4.858   5.840
 2698SOL    HW2 8994   1.649   4.975   5.845
 2699SOL     OW 8995   2.860   6.620   2.131
 2699SOL    HW1 8996   2.867   6.573   2.043
 2699SOL    HW2 8997   2.881   6.556   2.205
 2700SOL     OW 8998   3.948   1.925   1.714
 2700SOL    HW1 8999   3.957   1.826   1.711
 2700SOL    HW2 9000   4.008   1.963   1.784
 2701SOL     OW 9001   5.298   3.012   5.075
 2701SOL    HW1 9002   5.344   3.098   5.095
 2701SOL    HW2 9003   5.361   2.950   5.029
 2702SOL     OW 9004   2.541   0.901   4.997
 2702SOL    HW1 9005   2.560   0.941   5.087
 2702SOL    HW2 9006   2.544   0.974   4.927
 2703SOL     OW 9007   1.936   0.065   2.757
 2703SOL    HW1 9008   1.922   0.146   2.699
 2703SOL    HW2 9009   1.914   0.087   2.852
 2704SOL     OW 9010   5.410   1.001   3.671
 2704SOL    HW1 9011   5.488   0.951   3.634
 2704SOL    HW2 9012   5.343   0.936   3.709
 2705SOL     OW 9013   0.425   0.647   5.605
 2705SOL    HW1 9014   0.383   0.560   5.577
 2705SOL    HW2 9015   0.426   0.710   5.527
 2706SOL     OW 9016   0.065   3.889   3.640
 2706SOL    HW1 9017   6.996   3.925   3.653
 2706SOL    HW2 9018   0.091   3.898   3.544
 2707SOL     OW 9019   4.352   1.375   2.874
 2707SOL    HW1 9020   4.375   1.326   2.790
 2707SOL    HW2 9021   4.426   1.365   2.940
 2708SOL     OW 9022   5.525   3.812   6.236
 2708SOL    HW1 9023   5.579   3.734   6.268
 2708SOL    HW2 9024   5.580   3.867   6.173
 2709SOL     OW 9025   5.115   1.345   5.475
 2709SOL    HW1 9026   5.042   1.278   5.465
 2709SOL    HW2 9027   5.079   1.436   5.458
 2710SOL     OW 9028   0.615   2.521   4.284
 2710SOL    HW1 9029   0.525   2.517   4.241
 2710SOL    HW2 9030   0.616   2.592   4.355
 2711SOL     OW 9031   3.356   0.906   2.069
 2711SOL    HW1 9032   3.310   0.987   2.106
 2711SOL    HW2 9033   3.321   0.887   1.977
 2712SOL     OW 9034   3.469   6.166   1.975
 2712SOL    HW1 9035   3.467   6.129   2.068
 2712SOL    HW2 9036   3.514   6.101   1.915
 2713SOL     OW 9037   3.627   4.592   5.845
 2713SOL    HW1 9038   3.570   4.518   5.807
 2713SOL    HW2 9039   3.585   4.625   5.929
 2714SOL     OW 9040   3.260   4.847   6.320
 2714SOL    HW1 9041   3.160   4.849   6.325
 2714SOL    HW2 9042   3.298   4.887   6.403
 2715SOL     OW 9043   4.211   1.040   6.830
 2715SOL    HW1 9044   4.127   1.031   6.883
 2715SOL    HW2 9045   4.197   1.000   6.739
 2716SOL     OW 9046   4.058   1.558   2.843
 2716SOL    HW1 9047   4.136   1.557   2.780
 2716SOL    HW2 9048   4.054   1.472   2.894
 2717SOL     OW 9049   0.440   1.352   2.415
 2717SOL    HW1 9050   0.437   1.281   2.344
 2717SOL    HW2 9051   0.387   1.431   2.386
 2718SOL     OW 9052   0.486   0.574   5.841
 2718SOL    HW1 9053   0.456   0.604   5.750
 2718SOL    HW2 9054   0.421   0.607   5.909
 2719SOL     OW 9055   1.674   4.785   2.485
 2719SOL    HW1 9056   1.747   4.724   2.514
 2719SOL    HW2 9057   1.639   4.836   2.563
 2720SOL     OW 9058   2.201   6.217   6.521
 2720SOL    HW1 9059   2.248   6.270   6.450
 2720SOL    HW2 9060   2.234   6.123   6.521
 2721SOL     OW 9061   3.040   6.513   1.606
 2721SOL    HW1 9062   2.986   6.502   1.523
 2721SOL    HW2 9063   3.124   6.563   1.584
 2722SOL     OW 9064   4.096   5.863   0.025
 2722SOL    HW1 9065   4.151   5.783   0.050
 2722SOL    HW2 9066   4.071   5.858   6.952
 2723SOL     OW 9067   3.241   6.385   6.550
 2723SOL    HW1 9068   3.272   6.328   6.474
 2723SOL    HW2 9069   3.308   6.381   6.624
 2724SOL     OW 9070   0.747   6.508   1.240
 2724SOL    HW1 9071   0.709   6.437   1.298
 2724SOL    HW2 9072   0.793   6.576   1.297
 2725SOL     OW 9073   6.266   4.124   4.783
 2725SOL    HW1 9074   6.280   4.172   4.696
 2725SOL    HW2 9075   6.330   4.048   4.790
 2726SOL     OW 9076   5.904   1.900   2.539
 2726SOL    HW1 9077   5.958   1.877   2.620
 2726SOL    HW2 9078   5.928   1.839   2.464
 2727SOL     OW 9079   1.530   5.023   3.497
 2727SOL    HW1 9080   1.450   4.973   3.464
 2727SOL    HW2 9081   1.509   5.066   3.585
 2728SOL     OW 9082   4.788   5.284   5.327
 2728SOL    HW1 9083   4.829   5.370   5.297
 2728SOL    HW2 9084   4.782   5.282   5.426
 2729SOL     OW 9085   5.510   0.056   6.045
 2729SOL    HW1 9086   5.433   0.102   6.090
 2729SOL    HW2 9087   5.509   0.079   5.947
 2730SOL     OW 9088   1.099   5.999   1.980
 2730SOL    HW1 9089   1.041   5.923   1.952
 2730SOL    HW2 9090   1.060   6.085   1.946
 2731SOL     OW 9091   3.468   3.915   4.210
 2731SOL    HW1 9092   3.472   3.943   4.114
 2731SOL    HW2 9093   3.451   3.817   4.216
 2732SOL     OW 9094   5.700   0.559   1.708
 2732SOL    HW1 9095   5.734   0.479   1.658
 2732SOL    HW2 9096   5.756   0.639   1.684
 2733SOL     OW 9097   1.333   6.713   6.577
 2733SOL    HW1 9098   1.307   6.704   6.673
 2733SOL    HW2 9099   1.382   6.632   6.548
 2734SOL     OW 9100   3.189   6.658   2.430
 2734SOL    HW1 9101   3.211   6.719   2.506
 2734SOL    HW2 9102   3.217   6.701   2.344
 2735SOL     OW 9103   0.727   1.347   1.668
 2735SOL    HW1 9104   0.762   1.261   1.633
 2735SOL    HW2 9105   0.801   1.398   1.711
 2736SOL     OW 9106   5.147   4.598   2.819
 2736SOL    HW1 9107   5.052   4.631   2.820
 2736SOL    HW2 9108   5.152   4.515   2.764
 2737SOL     OW 9109   3.230   0.506   5.253
 2737SOL    HW1 9110   3.131   0.517   5.262
 2737SOL    HW2 9111   3.266   0.581   5.198
 2738SOL     OW 9112   4.977   6.517   1.716
 2738SOL    HW1 9113   5.002   6.573   1.796
 2738SOL    HW2 9114   4.884   6.482   1.728
 2739SOL     OW 9115   6.720   5.556   1.512
 2739SOL    HW1 9116   6.749   5.480   1.570
 2739SOL    HW2 9117   6.759   5.641   1.548
 2740SOL     OW 9118   6.610   5.884   3.583
 2740SOL    HW1 9119   6.571   5.812   3.640
 2740SOL    HW2 9120   6.707   5.866   3.568
 2741SOL     OW 9121   1.827   1.063   6.057
 2741SOL    HW1 9122   1.802   1.159   6.045
 2741SOL    HW2 9123   1.761   1.018   6.116
 2742SOL     OW 9124   2.974   5.675   1.547
 2742SOL    HW1 9125   3.022   5.719   1.623
 2742SOL    HW2 9126   3.038   5.616   1.497
 2743SOL     OW 9127   5.914   2.713   2.332
 2743SOL    HW1 9128   5.865   2.677   2.412
 2743SOL    HW2 9129   5.957   2.800   2.355
 2744SOL     OW 9130   3.413   3.942   2.522
 2744SOL    HW1 9131   3.357   3.971   2.599
 2744SOL    HW2 9132   3.413   4.014   2.453
 2745SOL     OW 9133   0.719   6.734   0.274
 2745SOL    HW1 9134   0.757   6.649   0.236
 2745SOL    HW2 9135   0.783   6.772   0.340
 2746SOL     OW 9136   0.727   1.386   3.678
 2746SOL    HW1 9137   0.725   1.399   3.777
 2746SOL    HW2 9138   0.750   1.291   3.657
 2747SOL     OW 9139   3.741   4.773   0.717
 2747SOL    HW1 9140   3.680   4.790   0.639
 2747SOL    HW2 9141   3.820   4.833   0.711
 2748SOL     OW 9142   3.858   6.911   0.743
 2748SOL    HW1 9143   3.884   7.006   0.761
 2748SOL    HW2 9144   3.759   6.905   0.731
 2749SOL     OW 9145   3.458   2.652   0.149
 2749SOL    HW1 9146   3.519   2.695   0.215
 2749SOL    HW2 9147   3.363   2.677   0.169
 2750SOL     OW 9148   3.086   5.951   1.972
 2750SOL    HW1 9149   3.089   5.947   2.072
 2750SOL    HW2 9150   3.043   6.036   1.943
 2751SOL     OW 9151   5.887   4.541   1.148
 2751SOL    HW1 9152   5.882   4.640   1.135
 2751SOL    HW2 9153   5.977   4.508   1.122
 2752SOL     OW 9154   3.783   5.049   0.091
 2752SOL    HW1 9155   3.838   4.969   0.067
 2752SOL    HW2 9156   3.748   5.092   0.007
 2753SOL     OW 9157   6.380   5.498   5.459
 2753SOL    HW1 9158   6.315   5.565   5.494
 2753SOL    HW2 9159   6.370   5.490   5.359
 2754SOL     OW 9160   1.318   6.726   6.194
 2754SOL    HW1 9161   1.304   6.635   6.233
 2754SOL    HW2 9162   1.271   6.732   6.106
 2755SOL     OW 9163   3.234   0.653   2.417
 2755SOL    HW1 9164   3.137   0.665   2.394
 2755SOL    HW2 9165   3.275   0.743   2.432
 2756SOL     OW 9166   4.759   6.330   0.753
 2756SOL    HW1 9167   4.762   6.299   0.658
 2756SOL    HW2 9168   4.747   6.251   0.813
 2757SOL     OW 9169   0.585   5.116   1.424
 2757SOL    HW1 9170   0.547   5.025   1.443
 2757SOL    HW2 9171   0.685   5.111   1.425
 2758SOL     OW 9172   4.733   0.440   6.083
 2758SOL    HW1 9173   4.655   0.419   6.025
 2758SOL    HW2 9174   4.722   0.532   6.122
 2759SOL     OW 9175   4.974   5.555   5.008
 2759SOL    HW1 9176   5.032   5.635   5.019
 2759SOL    HW2 9177   5.024   5.484   4.958
 2760SOL     OW 9178   2.569   5.621   3.289
 2760SOL    HW1 9179   2.650   5.627   3.231
 2760SOL    HW2 9180   2.597   5.615   3.385
 2761SOL     OW 9181   1.984   5.495   3.342
 2761SOL    HW1 9182   2.062   5.446   3.380
 2761SOL    HW2 9183   1.961   5.458   3.252
 2762SOL     OW 9184   1.216   6.770   4.922
 2762SOL    HW1 9185   1.256   6.689   4.880
 2762SOL    HW2 9186   1.282   6.811   4.985
 2763SOL     OW 9187   5.633   1.807   1.809
 2763SOL    HW1 9188   5.660   1.801   1.713
 2763SOL    HW2 9189   5.561   1.875   1.819
 2764SOL     OW 9190   6.453   1.127   1.937
 2764SOL    HW1 9191   6.401   1.211   1.950
 2764SOL    HW2 9192   6.391   1.049   1.944
 2765SOL     OW 9193   5.319   1.779   1.727
 2765SOL    HW1 9194   5.377   1.706   1.762
 2765SOL    HW2 9195   5.252   1.742   1.663
 2766SOL     OW 9196   5.847   0.673   2.341
 2766SOL    HW1 9197   5.913   0.734   2.384
 2766SOL    HW2 9198   5.755   0.694   2.374
 2767SOL     OW 9199   5.777   4.451   6.422
 2767SOL    HW1 9200   5.816   4.360   6.432
 2767SOL    HW2 9201   5.755   4.488   6.513
 2768SOL     OW 9202   6.145   1.270   6.760
 2768SOL    HW1 9203   6.048   1.269   6.740
 2768SOL    HW2 9204   6.196   1.308   6.683
 2769SOL     OW 9205   1.387   3.724   0.989
 2769SOL    HW1 9206   1.304   3.747   1.039
 2769SOL    HW2 9207   1.459   3.700   1.054
 2770SOL     OW 9208   6.755   5.499   1.234
 2770SOL    HW1 9209   6.844   5.469   1.198
 2770SOL    HW2 9210   6.748   5.474   1.331
 2771SOL     OW 9211   4.987   1.004   1.375
 2771SOL    HW1 9212   4.992   1.066   1.454
 2771SOL    HW2 9213   5.061   0.937   1.381
 2772SOL     OW 9214   3.424   2.680   5.893
 2772SOL    HW1 9215   3.379   2.768   5.911
 2772SOL    HW2 9216   3.449   2.638   5.980
 2773SOL     OW 9217   3.511   3.764   6.571
 2773SOL    HW1 9218   3.433   3.726   6.622
 2773SOL    HW2 9219   3.593   3.712   6.594
 2774SOL     OW 9220   5.648   3.594   2.385
 2774SOL    HW1 9221   5.692   3.675   2.346
 2774SOL    HW2 9222   5.549   3.606   2.384
 2775SOL     OW 9223   6.883   6.016   1.744
 2775SOL    HW1 9224   6.915   6.082   1.676
 2775SOL    HW2 9225   6.934   6.029   1.829
 2776SOL     OW 9226   3.035   5.900   6.049
 2776SOL    HW1 9227   2.995   5.922   5.960
 2776SOL    HW2 9228   3.050   5.801   6.055
 2777SOL     OW 9229   3.566   1.654   2.785
 2777SOL    HW1 9230   3.661   1.628   2.771
 2777SOL    HW2 9231   3.559   1.722   2.858
 2778SOL     OW 9232   2.513   1.864   5.387
 2778SOL    HW1 9233   2.574   1.786   5.373
 2778SOL    HW2 9234   2.421   1.832   5.409
 2779SOL     OW 9235   5.950   0.995   0.035
 2779SOL    HW1 9236   5.852   0.988   0.019
 2779SOL    HW2 9237   5.971   0.967   0.129
 2780SOL     OW 9238   5.146   5.174   6.844
 2780SOL    HW1 9239   5.142   5.257   6.900
 2780SOL    HW2 9240   5.219   5.115   6.878
 2781SOL     OW 9241   4.823   4.582   0.201
 2781SOL    HW1 9242   4.842   4.484   0.195
 2781SOL    HW2 9243   4.729   4.599   0.171
 2782SOL     OW 9244   2.999   2.453   6.327
 2782SOL    HW1 9245   3.032   2.462   6.233
 2782SOL    HW2 9246   2.899   2.458   6.328
 2783SOL     OW 9247   0.315   4.474   5.158
 2783SOL    HW1 9248   0.290   4.538   5.230
 2783SOL    HW2 9249   0.233   4.446   5.108
 2784SOL     OW 9250   2.240   1.924   2.199
 2784SOL    HW1 9251   2.310   1.993   2.217
 2784SOL    HW2 9252   2.185   1.952   2.120
 2785SOL     OW 9253   6.259   1.052   1.139
 2785SOL    HW1 9254   6.256   1.152   1.129
 2785SOL    HW2 9255   6.346   1.025   1.180
 2786SOL     OW 9256   3.954   6.843   1.427
 2786SOL    HW1 9257   3.907   6.790   1.498
 2786SOL    HW2 9258   3.891   6.863   1.353
 2787SOL     OW 9259   2.074   2.371   5.692
 2787SOL    HW1 9260   2.113   2.455   5.654
 2787SOL    HW2 9261   2.142   2.298   5.691
 2788SOL     OW 9262   1.153   3.718   0.575
 2788SOL    HW1 9263   1.091   3.640   0.571
 2788SOL    HW2 9264   1.133   3.780   0.498
 2789SOL     OW 9265   0.059   1.901   4.290
 2789SOL    HW1 9266   0.027   1.916   4.196
 2789SOL    HW2 9267   0.019   1.970   4.350
 2790SOL     OW 9268   3.741   5.359   3.429
 2790SOL    HW1 9269   3.699   5.414   3.356
 2790SOL    HW2 9270   3.714   5.395   3.518
 2791SOL     OW 9271   1.730   2.940   3.987
 2791SOL    HW1 9272   1.645   2.941   3.934
 2791SOL    HW2 9273   1.712   2.980   4.077
 2792SOL     OW 9274   0.893   2.334   5.406
 2792SOL    HW1 9275   0.928   2.267   5.341
 2792SOL    HW2 9276   0.941   2.324   5.493
 2793SOL     OW 9277   4.957   1.453   3.487
 2793SOL    HW1 9278   4.998   1.414   3.570
 2793SOL    HW2 9279   5.029   1.483   3.425
 2794SOL     OW 9280   1.043   0.574   1.305
 2794SOL    HW1 9281   1.143   0.579   1.308
 2794SOL    HW2 9282   1.014   0.528   1.222
 2795SOL     OW 9283   2.526   4.109   1.744
 2795SOL    HW1 9284   2.439   4.094   1.696
 2795SOL    HW2 9285   2.574   4.022   1.752
 2796SOL     OW 9286   5.363   4.140   2.570
 2796SOL    HW1 9287   5.304   4.060   2.563
 2796SOL    HW2 9288   5.422   4.132   2.650
 2797SOL     OW 9289   4.435   4.609   4.804
 2797SOL    HW1 9290   4.388   4.681   4.753
 2797SOL    HW2 9291   4.371   4.566   4.867
 2798SOL     OW 9292   1.570   3.630   4.172
 2798SOL    HW1 9293   1.610   3.683   4.247
 2798SOL    HW2 9294   1.490   3.580   4.205
 2799SOL     OW 9295   6.285   4.816   5.815
 2799SOL    HW1 9296   6.319   4.724   5.835
 2799SOL    HW2 9297   6.216   4.811   5.744
 2800SOL     OW 9298   3.093   3.409   6.851
 2800SOL    HW1 9299   3.045   3.360   6.922
 2800SOL    HW2 9300   3.151   3.480   6.892
 2801SOL     OW 9301   4.739   5.466   2.388
 2801SOL    HW1 9302   4.742   5.500   2.482
 2801SOL    HW2 9303   4.831   5.463   2.350
 2802SOL     OW 9304   4.941   0.743   6.050
 2802SOL    HW1 9305   4.852   0.702   6.070
 2802SOL    HW2 9306   5.008   0.711   6.117
 2803SOL     OW 9307   2.290   5.932   6.466
 2803SOL    HW1 9308   2.381   5.974   6.464
 2803SOL    HW2 9309   2.293   5.847   6.520
 2804SOL     OW 9310   6.877   4.565   3.253
 2804SOL    HW1 9311   6.862   4.642   3.191
 2804SOL    HW2 9312   6.813   4.491   3.230
 2805SOL     OW 9313   5.750   3.648   0.028
 2805SOL    HW1 9314   5.759   3.729   0.086
 2805SOL    HW2 9315   5.841   3.614   0.004
 2806SOL     OW 9316   6.396   6.054   3.677
 2806SOL    HW1 9317   6.446   6.019   3.597
 2806SOL    HW2 9318   6.315   6.104   3.645
 2807SOL     OW 9319   4.390   4.922   3.642
 2807SOL    HW1 9320   4.407   5.014   3.607
 2807SOL    HW2 9321   4.476   4.880   3.671
 2808SOL     OW 9322   4.970   0.011   4.018
 2808SOL    HW1 9323   4.927   0.101   4.026
 2808SOL    HW2 9324   5.065   0.021   3.992
 2809SOL     OW 9325   5.567   2.913   0.528
 2809SOL    HW1 9326   5.659   2.925   0.566
 2809SOL    HW2 9327   5.566   2.832   0.469
 2810SOL     OW 9328   1.694   0.143   5.166
 2810SOL    HW1 9329   1.640   0.214   5.119
 2810SOL    HW2 9330   1.790   0.172   5.168
 2811SOL     OW 9331   0.214   0.753   3.590
 2811SOL    HW1 9332   0.272   0.673   3.605
 2811SOL    HW2 9333   0.259   0.815   3.525
 2812SOL     OW 9334   4.853   3.821   2.567
 2812SOL    HW1 9335   4.834   3.723   2.560
 2812SOL    HW2 9336   4.925   3.837   2.634
 2813SOL     OW 9337   6.123   1.289   6.329
 2813SOL    HW1 9338   6.168   1.239   6.255
 2813SOL    HW2 9339   6.025   1.295   6.311
 2814SOL     OW 9340   4.796   3.955   5.169
 2814SOL    HW1 9341   4.753   4.002   5.245
 2814SOL    HW2 9342   4.818   4.021   5.097
 2815SOL     OW 9343   0.153   0.658   5.369
 2815SOL    HW1 9344   0.247   0.675   5.341
 2815SOL    HW2 9345   0.119   0.736   5.421
 2816SOL     OW 9346   5.597   0.018   3.252
 2816SOL    HW1 9347   5.579   0.109   3.290
 2816SOL    HW2 9348   5.696   0.002   3.249
 2817SOL     OW 9349   1.383   2.426   1.445
 2817SOL    HW1 9350   1.441   2.504   1.421
 2817SOL    HW2 9351   1.299   2.459   1.490
 2818SOL     OW 9352   7.016   4.718   5.003
 2818SOL    HW1 9353   6.960   4.652   5.052
 2818SOL    HW2 9354   0.007   4.799   5.060
 2819SOL     OW 9355   6.552   2.943   0.832
 2819SOL    HW1 9356   6.646   2.915   0.812
 2819SOL    HW2 9357   6.510   2.980   0.749
 2820SOL     OW 9358   6.577   3.122   4.865
 2820SOL    HW1 9359   6.574   3.025   4.891
 2820SOL    HW2 9360   6.671   3.155   4.870
 2821SOL     OW 9361   1.442   3.913   4.706
 2821SOL    HW1 9362   1.476   4.003   4.732
 2821SOL    HW2 9363   1.503   3.842   4.742
 2822SOL     OW 9364   3.989   1.583   0.173
 2822SOL    HW1 9365   3.986   1.677   0.141
 2822SOL    HW2 9366   4.084   1.556   0.189
 2823SOL     OW 9367   1.504   6.642   3.558
 2823SOL    HW1 9368   1.439   6.705   3.599
 2823SOL    HW2 9369   1.591   6.690   3.542
 2824SOL     OW 9370   3.234   1.558   4.519
 2824SOL    HW1 9371   3.277   1.642   4.551
 2824SOL    HW2 9372   3.142   1.577   4.485
 2825SOL     OW 9373   6.335   5.592   0.810
 2825SOL    HW1 9374   6.373   5.677   0.846
 2825SOL    HW2 9375   6.318   5.601   0.712
 2826SOL     OW 9376   4.993   2.192   4.583
 2826SOL    HW1 9377   5.039   2.103   4.590
 2826SOL    HW2 9378   5.037   2.247   4.512
 2827SOL     OW 9379   6.066   0.298   5.611
 2827SOL    HW1 9380   6.002   0.303   5.687
 2827SOL    HW2 9381   6.016   0.300   5.525
 2828SOL     OW 9382   3.730   1.390   5.701
 2828SOL    HW1 9383   3.651   1.344   5.662
 2828SOL    HW2 9384   3.712   1.413   5.796
 2829SOL     OW 9385   2.398   6.510   6.525
 2829SOL    HW1 9386   2.388   6.583   6.592
 2829SOL    HW2 9387   2.345   6.533   6.443
 2830SOL     OW 9388   3.712   3.700   6.871
 2830SOL    HW1 9389   3.799   3.664   6.905
 2830SOL    HW2 9390   3.705   3.797   6.892
 2831SOL     OW 9391   5.853   5.934   4.386
 2831SOL    HW1 9392   5.948   5.966   4.382
 2831SOL    HW2 9393   5.791   6.012   4.379
 2832SOL     OW 9394   0.090   1.018   1.857
 2832SOL    HW1 9395   0.023   1.050   1.790
 2832SOL    HW2 9396   0.141   0.941   1.818
 2833SOL     OW 9397   6.173   2.911   1.821
 2833SOL    HW1 9398   6.168   2.957   1.910
 2833SOL    HW2 9399   6.230   2.965   1.759
 2834SOL     OW 9400   3.607   1.068   5.491
 2834SOL    HW1 9401   3.539   1.044   5.422
 2834SOL    HW2 9402   3.697   1.033   5.462
 2835SOL     OW 9403   0.345   6.421   2.509
 2835SOL    HW1 9404   0.353   6.391   2.604
 2835SOL    HW2 9405   0.412   6.493   2.491
 2836SOL     OW 9406   6.922   0.848   1.208
 2836SOL    HW1 9407   7.013   0.881   1.182
 2836SOL    HW2 9408   6.861   0.854   1.129
 2837SOL     OW 9409   5.614   3.526   3.591
 2837SOL    HW1 9410   5.643   3.606   3.538
 2837SOL    HW2 9411   5.644   3.536   3.686
 2838SOL     OW 9412   3.318   5.103   2.951
 2838SOL    HW1 9413   3.340   5.048   3.032
 2838SOL    HW2 9414   3.329   5.200   2.974
 2839SOL     OW 9415   5.109   2.156   0.571
 2839SOL    HW1 9416   5.105   2.065   0.532
 2839SOL    HW2 9417   5.171   2.156   0.650
 2840SOL     OW 9418   6.835   1.524   5.409
 2840SOL    HW1 9419   6.798   1.612   5.378
 2840SOL    HW2 9420   6.774   1.484   5.477
 2841SOL     OW 9421   1.038   6.008   1.281
 2841SOL    HW1 9422   0.964   6.059   1.236
 2841SOL    HW2 9423   1.115   6.070   1.297
 2842SOL     OW 9424   6.362   3.045   3.204
 2842SOL    HW1 9425   6.446   3.045   3.258
 2842SOL    HW2 9426   6.379   3.089   3.115
 2843SOL     OW 9427   4.284   1.603   4.824
 2843SOL    HW1 9428   4.377   1.641   4.824
 2843SOL    HW2 9429   4.240   1.623   4.911
 2844SOL     OW 9430   6.923   4.254   5.846
 2844SOL    HW1 9431   6.951   4.274   5.939
 2844SOL    HW2 9432   6.979   4.307   5.782
 2845SOL     OW 9433   0.104   4.415   5.700
 2845SOL    HW1 9434   0.177   4.410   5.631
 2845SOL    HW2 9435   0.070   4.508   5.706
 2846SOL     OW 9436   4.698   1.846   6.521
 2846SOL    HW1 9437   4.665   1.754   6.499
 2846SOL    HW2 9438   4.771   1.839   6.589
 2847SOL     OW 9439   5.849   4.462   4.146
 2847SOL    HW1 9440   5.757   4.426   4.128
 2847SOL    HW2 9441   5.855   4.491   4.242
 2848SOL     OW 9442   0.574   5.204   4.346
 2848SOL    HW1 9443   0.537   5.133   4.286
 2848SOL    HW2 9444   0.537   5.293   4.318
 2849SOL     OW 9445   2.722   2.735   1.288
 2849SOL    HW1 9446   2.798   2.777   1.337
 2849SOL    HW2 9447   2.743   2.638   1.273
 2850SOL     OW 9448   3.722   1.187   0.046
 2850SOL    HW1 9449   3.678   1.098   0.060
 2850SOL    HW2 9450   3.804   1.193   0.102
 2851SOL     OW 9451   1.649   4.389   6.191
 2851SOL    HW1 9452   1.677   4.476   6.150
 2851SOL    HW2 9453   1.550   4.382   6.191
 2852SOL     OW 9454   0.228   3.323   6.442
 2852SOL    HW1 9455   0.297   3.385   6.479
 2852SOL    HW2 9456   0.248   3.229   6.472
 2853SOL     OW 9457   3.188   3.869   1.391
 2853SOL    HW1 9458   3.151   3.846   1.301
 2853SOL    HW2 9459   3.257   3.802   1.417
 2854SOL     OW 9460   2.427   1.827   4.019
 2854SOL    HW1 9461   2.519   1.789   4.025
 2854SOL    HW2 9462   2.360   1.754   4.026
 2855SOL     OW 9463   2.990   0.613   5.092
 2855SOL    HW1 9464   3.017   0.687   5.154
 2855SOL    HW2 9465   3.018   0.636   4.999
 2856SOL     OW 9466   2.329   2.731   5.074
 2856SOL    HW1 9467   2.368   2.822   5.091
 2856SOL    HW2 9468   2.319   2.682   5.160
 2857SOL     OW 9469   3.365   3.337   1.975
 2857SOL    HW1 9470   3.464   3.330   1.990
 2857SOL    HW2 9471   3.332   3.422   2.016
 2858SOL     OW 9472   6.834   3.518   2.997
 2858SOL    HW1 9473   6.884   3.544   3.079
 2858SOL    HW2 9474   6.830   3.419   2.990
 2859SOL     OW 9475   5.926   6.858   0.385
 2859SOL    HW1 9476   5.897   6.901   0.300
 2859SOL    HW2 9477   5.978   6.924   0.440
 2860SOL     OW 9478   4.403   1.365   1.727
 2860SOL    HW1 9479   4.467   1.291   1.709
 2860SOL    HW2 9480   4.315   1.345   1.683
 2861SOL     OW 9481   3.411   5.827   5.578
 2861SOL    HW1 9482   3.325   5.800   5.534
 2861SOL    HW2 9483   3.479   5.848   5.508
 2862SOL     OW 9484   5.685   1.239   4.342
 2862SOL    HW1 9485   5.767   1.295   4.351
 2862SOL    HW2 9486   5.707   1.154   4.296
 2863SOL     OW 9487   6.733   1.928   6.717
 2863SOL    HW1 9488   6.681   1.867   6.777
 2863SOL    HW2 9489   6.831   1.919   6.738
 2864SOL     OW 9490   3.631   1.573   6.988
 2864SOL    HW1 9491   3.652   1.489   6.937
 2864SOL    HW2 9492   3.568   1.552   0.039
 2865SOL     OW 9493   4.568   4.555   5.099
 2865SOL    HW1 9494   4.605   4.621   5.165
 2865SOL    HW2 9495   4.469   4.565   5.093
 2866SOL     OW 9496   0.355   6.917   6.810
 2866SOL    HW1 9497   0.329   6.824   6.834
 2866SOL    HW2 9498   0.291   6.982   6.852
 2867SOL     OW 9499   6.657   4.484   4.164
 2867SOL    HW1 9500   6.662   4.544   4.244
 2867SOL    HW2 9501   6.718   4.518   4.093
 2868SOL     OW 9502   1.629   4.352   5.819
 2868SOL    HW1 9503   1.674   4.379   5.733
 2868SOL    HW2 9504   1.603   4.256   5.814
 2869SOL     OW 9505   6.161   1.415   2.246
 2869SOL    HW1 9506   6.259   1.423   2.263
 2869SOL    HW2 9507   6.143   1.429   2.148
 2870SOL     OW 9508   5.371   1.994   2.131
 2870SOL    HW1 9509   5.438   1.946   2.187
 2870SOL    HW2 9510   5.329   2.067   2.184
 2871SOL     OW 9511   1.597   1.893   6.314
 2871SOL    HW1 9512   1.587   1.991   6.328
 2871SOL    HW2 9513   1.507   1.851   6.308
 2872SOL     OW 9514   2.762   6.951   3.929
 2872SOL    HW1 9515   2.812   0.014   3.932
 2872SOL    HW2 9516   2.681   6.961   3.872
 2873SOL     OW 9517   0.145   4.962   1.406
 2873SOL    HW1 9518   0.172   4.905   1.483
 2873SOL    HW2 9519   0.135   5.057   1.437
 2874SOL     OW 9520   5.693   2.540   2.488
 2874SOL    HW1 9521   5.710   2.623   2.541
 2874SOL    HW2 9522   5.607   2.550   2.438
 2875SOL     OW 9523   3.419   4.839   6.590
 2875SOL    HW1 9524   3.427   4.829   6.689
 2875SOL    HW2 9525   3.477   4.772   6.544
 2876SOL     OW 9526   0.182   1.267   1.921
 2876SOL    HW1 9527   0.280   1.257   1.937
 2876SOL    HW2 9528   0.142   1.177   1.905
 2877SOL     OW 9529   3.130   2.993   5.762
 2877SOL    HW1 9530   3.032   2.998   5.781
 2877SOL    HW2 9531   3.148   2.917   5.699
 2878SOL     OW 9532   2.995   4.882   6.392
 2878SOL    HW1 9533   2.952   4.970   6.372
 2878SOL    HW2 9534   2.926   4.810   6.390
 2879SOL     OW 9535   5.150   4.746   0.227
 2879SOL    HW1 9536   5.100   4.833   0.217
 2879SOL    HW2 9537   5.157   4.701   0.138
 2880SOL     OW 9538   1.217   6.185   1.325
 2880SOL    HW1 9539   1.314   6.182   1.302
 2880SOL    HW2 9540   1.205   6.236   1.411
 2881SOL     OW 9541   0.154   6.702   0.875
 2881SOL    HW1 9542   0.239   6.698   0.823
 2881SOL    HW2 9543   0.087   6.755   0.823
 2882SOL     OW 9544   0.152   3.085   3.565
 2882SOL    HW1 9545   0.172   3.182   3.575
 2882SOL    HW2 9546   0.173   3.037   3.650
 2883SOL     OW 9547   3.895   0.314   2.017
 2883SOL    HW1 9548   3.935   0.304   1.926
 2883SOL    HW2 9549   3.967   0.334   2.083
 2884SOL     OW 9550   0.861   6.248   3.050
 2884SOL    HW1 9551   0.794   6.321   3.060
 2884SOL    HW2 9552   0.910   6.236   3.136
 2885SOL     OW 9553   0.747   2.591   3.429
 2885SOL    HW1 9554   0.662   2.544   3.455
 2885SOL    HW2 9555   0.736   2.632   3.339
 2886SOL     OW 9556   2.437   2.103   6.039
 2886SOL    HW1 9557   2.522   2.101   6.093
 2886SOL    HW2 9558   2.445   2.039   5.963
 2887SOL     OW 9559   1.602   0.609   4.734
 2887SOL    HW1 9560   1.680   0.548   4.751
 2887SOL    HW2 9561   1.568   0.596   4.642
 2888SOL     OW 9562   5.959   5.183   6.804
 2888SOL    HW1 9563   6.041   5.191   6.860
 2888SOL    HW2 9564   5.919   5.092   6.815
 2889SOL     OW 9565   0.045   0.142   1.640
 2889SOL    HW1 9566   0.121   0.104   1.692
 2889SOL    HW2 9567   0.032   0.088   1.556
 2890SOL     OW 9568   3.999   0.041   1.589
 2890SOL    HW1 9569   4.094   0.069   1.574
 2890SOL    HW2 9570   3.978   6.986   1.530
 2891SOL     OW 9571   2.485   4.844   3.622
 2891SOL    HW1 9572   2.481   4.766   3.560
 2891SOL    HW2 9573   2.575   4.846   3.667
 2892SOL     OW 9574   4.875   3.852   5.926
 2892SOL    HW1 9575   4.916   3.792   5.994
 2892SOL    HW2 9576   4.799   3.805   5.882
 2893SOL     OW 9577   2.347   0.113   5.734
 2893SOL    HW1 9578   2.410   0.163   5.673
 2893SOL    HW2 9579   2.253   0.125   5.701
 2894SOL     OW 9580   3.833   2.908   0.389
 2894SOL    HW1 9581   3.895   2.849   0.338
 2894SOL    HW2 9582   3.872   2.929   0.479
 2895SOL     OW 9583   3.621   3.506   6.387
 2895SOL    HW1 9584   3.642   3.550   6.474
 2895SOL    HW2 9585   3.565   3.425   6.404
 2896SOL     OW 9586   2.762   4.874   1.237
 2896SOL    HW1 9587   2.803   4.942   1.176
 2896SOL    HW2 9588   2.830   4.803   1.258
 2897SOL     OW 9589   1.977   6.309   3.989
 2897SOL    HW1 9590   2.031   6.245   4.044
 2897SOL    HW2 9591   2.039   6.374   3.944
 2898SOL     OW 9592   3.016   5.208   2.156
 2898SOL    HW1 9593   3.048   5.130   2.102
 2898SOL    HW2 9594   3.035   5.293   2.108
 2899SOL     OW 9595   0.072   6.825   0.065
 2899SOL    HW1 9596   0.150   6.767   0.043
 2899SOL    HW2 9597   7.018   6.801   0.006
 2900SOL     OW 9598   2.122   5.183   5.062
 2900SOL    HW1 9599   2.136   5.245   5.139
 2900SOL    HW2 9600   2.111   5.237   4.978
 2901SOL     OW 9601   2.616   1.322   1.569
 2901SOL    HW1 9602   2.671   1.285   1.644
 2901SOL    HW2 9603   2.557   1.250   1.533
 2902SOL     OW 9604   5.631   5.901   1.662
 2902SOL    HW1 9605   5.696   5.973   1.684
 2902SOL    HW2 9606   5.659   5.854   1.578
 2903SOL     OW 9607   2.361   1.726   1.819
 2903SOL    HW1 9608   2.409   1.700   1.902
 2903SOL    HW2 9609   2.402   1.810   1.782
 2904SOL     OW 9610   1.706   2.809   4.941
 2904SOL    HW1 9611   1.661   2.778   5.025
 2904SOL    HW2 9612   1.716   2.732   4.878
 2905SOL     OW 9613   1.842   2.448   2.039
 2905SOL    HW1 9614   1.891   2.522   1.992
 2905SOL    HW2 9615   1.749   2.441   2.003
 2906SOL     OW 9616   5.623   5.635   2.152
 2906SOL    HW1 9617   5.599   5.693   2.230
 2906SOL    HW2 9618   5.722   5.637   2.138
 2907SOL     OW 9619   6.496   1.137   4.179
 2907SOL    HW1 9620   6.509   1.144   4.080
 2907SOL    HW2 9621   6.427   1.067   4.199
 2908SOL     OW 9622   3.343   6.286   4.639
 2908SOL    HW1 9623   3.272   6.353   4.659
 2908SOL    HW2 9624   3.301   6.200   4.612
 2909SOL     OW 9625   1.536   5.873   4.864
 2909SOL    HW1 9626   1.539   5.920   4.952
 2909SOL    HW2 9627   1.512   5.938   4.792
 2910SOL     OW 9628   5.925   6.078   6.674
 2910SOL    HW1 9629   5.853   6.081   6.743
 2910SOL    HW2 9630   5.996   6.145   6.697
 2911SOL     OW 9631   2.061   4.154   3.213
 2911SOL    HW1 9632   1.977   4.169   3.160
 2911SOL    HW2 9633   2.140   4.170   3.154
 2912SOL     OW 9634   2.726   5.980   0.823
 2912SOL    HW1 9635   2.670   5.909   0.780
 2912SOL    HW2 9636   2.668   6.042   0.876
 2913SOL     OW 9637   1.263   3.660   3.091
 2913SOL    HW1 9638   1.318   3.700   3.165
 2913SOL    HW2 9639   1.324   3.621   3.022
 2914SOL     OW 9640   5.816   5.533   6.115
 2914SOL    HW1 9641   5.896   5.536   6.175
 2914SOL    HW2 9642   5.736   5.566   6.165
 2915SOL     OW 9643   4.809   1.530   4.133
 2915SOL    HW1 9644   4.792   1.553   4.037
 2915SOL    HW2 9645   4.860   1.604   4.177
 2916SOL     OW 9646   5.605   5.864   4.878
 2916SOL    HW1 9647   5.635   5.846   4.785
 2916SOL    HW2 9648   5.685   5.873   4.938
 2917SOL     OW 9649   4.600   0.497   2.304
 2917SOL    HW1 9650   4.618   0.576   2.362
 2917SOL    HW2 9651   4.519   0.448   2.338
 2918SOL     OW 9652   0.274   4.191   3.633
 2918SOL    HW1 9653   0.364   4.196   3.677
 2918SOL    HW2 9654   0.203   4.203   3.703
 2919SOL     OW 9655   6.481   5.689   0.358
 2919SOL    HW1 9656   6.462   5.763   0.423
 2919SOL    HW2 9657   6.508   5.728   0.270
 2920SOL     OW 9658   4.081   2.257   3.427
 2920SOL    HW1 9659   4.038   2.341   3.395
 2920SOL    HW2 9660   4.014   2.182   3.427
 2921SOL     OW 9661   0.438   0.118   1.974
 2921SOL    HW1 9662   0.406   0.138   2.066
 2921SOL    HW2 9663   0.534   0.090   1.978
 2922SOL     OW 9664   4.344   6.363   5.328
 2922SOL    HW1 9665   4.310   6.273   5.355
 2922SOL    HW2 9666   4.411   6.353   5.254
 2923SOL     OW 9667   6.289   4.814   2.094
 2923SOL    HW1 9668   6.235   4.736   2.128
 2923SOL    HW2 9669   6.264   4.832   1.999
 2924SOL     OW 9670   6.901   0.910   5.290
 2924SOL    HW1 9671   6.967   0.921   5.216
 2924SOL    HW2 9672   6.949   0.898   5.377
 2925SOL     OW 9673   5.298   3.819   1.329
 2925SOL    HW1 9674   5.208   3.844   1.293
 2925SOL    HW2 9675   5.334   3.895   1.383
 2926SOL     OW 9676   0.274   1.370   4.481
 2926SOL    HW1 9677   0.373   1.361   4.470
 2926SOL    HW2 9678   0.229   1.293   4.437
 2927SOL     OW 9679   0.684   2.577   2.741
 2927SOL    HW1 9680   0.626   2.580   2.823
 2927SOL    HW2 9681   0.762   2.516   2.758
 2928SOL     OW 9682   6.324   6.374   0.833
 2928SOL    HW1 9683   6.418   6.392   0.805
 2928SOL    HW2 9684   6.272   6.460   0.833
 2929SOL     OW 9685   0.907   0.089   6.111
 2929SOL    HW1 9686   0.813   0.120   6.103
 2929SOL    HW2 9687   0.934   0.086   6.208
 2930SOL     OW 9688   3.654   6.643   4.716
 2930SOL    HW1 9689   3.684   6.628   4.810
 2930SOL    HW2 9690   3.561   6.609   4.705
 2931SOL     OW 9691   4.251   6.260   5.697
 2931SOL    HW1 9692   4.286   6.178   5.653
 2931SOL    HW2 9693   4.320   6.333   5.693
 2932SOL     OW 9694   0.934   4.375   1.436
 2932SOL    HW1 9695   0.981   4.428   1.507
 2932SOL    HW2 9696   0.985   4.384   1.350
 2933SOL     OW 9697   5.025   1.766   3.257
 2933SOL    HW1 9698   5.006   1.857   3.294
 2933SOL    HW2 9699   5.101   1.771   3.192
 2934SOL     OW 9700   2.589   0.712   0.129
 2934SOL    HW1 9701   2.565   0.639   0.065
 2934SOL    HW2 9702   2.573   0.681   0.223
 2935SOL     OW 9703   6.122   2.352   1.223
 2935SOL    HW1 9704   6.205   2.366   1.276
 2935SOL    HW2 9705   6.077   2.440   1.207
 2936SOL     OW 9706   4.640   5.923   0.686
 2936SOL    HW1 9707   4.546   5.940   0.716
 2936SOL    HW2 9708   4.643   5.838   0.634
 2937SOL     OW 9709   3.482   4.740   6.949
 2937SOL    HW1 9710   3.498   4.835   6.921
 2937SOL    HW2 9711   3.408   4.701   6.893
 2938SOL     OW 9712   4.563   5.595   5.501
 2938SOL    HW1 9713   4.553   5.628   5.407
 2938SOL    HW2 9714   4.621   5.658   5.552
 2939SOL     OW 9715   0.837   6.548   5.491
 2939SOL    HW1 9716   0.865   6.594   5.406
 2939SOL    HW2 9717   0.794   6.461   5.469
 2940SOL     OW 9718   4.844   6.907   5.082
 2940SOL    HW1 9719   4.801   6.938   4.997
 2940SOL    HW2 9720   4.777   6.861   5.139
 2941SOL     OW 9721   1.798   1.800   5.433
 2941SOL    HW1 9722   1.862   1.780   5.506
 2941SOL    HW2 9723   1.732   1.869   5.463
 2942SOL     OW 9724   3.414   6.498   3.090
 2942SOL    HW1 9725   3.370   6.408   3.084
 2942SOL    HW2 9726   3.410   6.543   3.000
 2943SOL     OW 9727   5.888   3.833   3.710
 2943SOL    HW1 9728   5.851   3.790   3.629
 2943SOL    HW2 9729   5.826   3.904   3.742
 2944SOL     OW 9730   4.287   5.805   6.147
 2944SOL    HW1 9731   4.298   5.706   6.133
 2944SOL    HW2 9732   4.191   5.826   6.163
 2945SOL     OW 9733   2.980   3.606   3.254
 2945SOL    HW1 9734   3.022   3.696   3.246
 2945SOL    HW2 9735   2.948   3.592   3.348
 2946SOL     OW 9736   0.085   6.101   6.840
 2946SOL    HW1 9737   0.088   6.189   6.888
 2946SOL    HW2 9738   0.033   6.036   6.894
 2947SOL     OW 9739   6.527   4.592   0.293
 2947SOL    HW1 9740   6.428   4.587   0.305
 2947SOL    HW2 9741   6.549   4.595   0.195
 2948SOL     OW 9742   6.061   4.331   4.400
 2948SOL    HW1 9743   5.993   4.405   4.398
 2948SOL    HW2 9744   6.103   4.321   4.310
 2949SOL     OW 9745   1.419   0.260   0.581
 2949SOL    HW1 9746   1.434   0.281   0.678
 2949SOL    HW2 9747   1.451   0.336   0.525
 2950SOL     OW 9748   4.915   3.369   4.392
 2950SOL    HW1 9749   4.929   3.457   4.437
 2950SOL    HW2 9750   4.870   3.306   4.456
 2951SOL     OW 9751   0.178   2.040   1.188
 2951SOL    HW1 9752   0.108   2.111   1.200
 2951SOL    HW2 9753   0.252   2.076   1.131
 2952SOL     OW 9754   1.962   3.866   2.261
 2952SOL    HW1 9755   1.893   3.938   2.263
 2952SOL    HW2 9756   2.052   3.906   2.280
 2953SOL     OW 9757   4.583   1.692   2.022
 2953SOL    HW1 9758   4.595   1.758   2.096
 2953SOL    HW2 9759   4.672   1.652   1.999
 2954SOL     OW 9760   6.149   6.180   2.052
 2954SOL    HW1 9761   6.156   6.130   1.965
 2954SOL    HW2 9762   6.230   6.237   2.064
 2955SOL     OW 9763   0.298   3.007   0.625
 2955SOL    HW1 9764   0.244   3.039   0.703
 2955SOL    HW2 9765   0.347   3.084   0.584
 2956SOL     OW 9766   6.683   5.411   2.110
 2956SOL    HW1 9767   6.606   5.348   2.107
 2956SOL    HW2 9768   6.759   5.374   2.057
 2957SOL     OW 9769   0.772   3.733   1.787
 2957SOL    HW1 9770   0.716   3.650   1.783
 2957SOL    HW2 9771   0.757   3.780   1.874
 2958SOL     OW 9772   2.114   4.629   6.250
 2958SOL    HW1 9773   2.153   4.579   6.327
 2958SOL    HW2 9774   2.060   4.706   6.284
 2959SOL     OW 9775   3.967   5.605   6.713
 2959SOL    HW1 9776   3.955   5.566   6.804
 2959SOL    HW2 9777   3.878   5.631   6.676
 2960SOL     OW 9778   1.987   1.782   0.237
 2960SOL    HW1 9779   2.067   1.812   0.186
 2960SOL    HW2 9780   1.981   1.832   0.323
 2961SOL     OW 9781   5.609   3.377   3.954
 2961SOL    HW1 9782   5.638   3.473   3.956
 2961SOL    HW2 9783   5.564   3.355   4.041
 2962SOL     OW 9784   4.613   0.776   3.571
 2962SOL    HW1 9785   4.692   0.760   3.513
 2962SOL    HW2 9786   4.629   0.858   3.628
 2963SOL     OW 9787   2.186   2.552   4.473
 2963SOL    HW1 9788   2.183   2.507   4.384
 2963SOL    HW2 9789   2.265   2.615   4.476
 2964SOL     OW 9790   3.559   6.299   0.697
 2964SOL    HW1 9791   3.472   6.300   0.647
 2964SOL    HW2 9792   3.546   6.254   0.786
 2965SOL     OW 9793   0.388   1.865   6.444
 2965SOL    HW1 9794   0.387   1.958   6.408
 2965SOL    HW2 9795   0.482   1.839   6.466
 2966SOL     OW 9796   4.496   4.433   3.915
 2966SOL    HW1 9797   4.490   4.437   4.015
 2966SOL    HW2 9798   4.484   4.338   3.885
 2967SOL     OW 9799   6.045   2.624   4.338
 2967SOL    HW1 9800   5.961   2.575   4.359
 2967SOL    HW2 9801   6.099   2.572   4.271
 2968SOL     OW 9802   0.171   4.197   3.390
 2968SOL    HW1 9803   0.181   4.206   3.489
 2968SOL    HW2 9804   0.236   4.130   3.356
 2969SOL     OW 9805   4.832   1.775   4.867
 2969SOL    HW1 9806   4.832   1.867   4.904
 2969SOL    HW2 9807   4.832   1.708   4.942
 2970SOL     OW 9808   0.753   4.363   6.014
 2970SOL    HW1 9809   0.778   4.280   6.064
 2970SOL    HW2 9810   0.716   4.338   5.925
 2971SOL     OW 9811   5.279   2.689   2.873
 2971SOL    HW1 9812   5.327   2.735   2.798
 2971SOL    HW2 9813   5.335   2.612   2.906
 2972SOL     OW 9814   7.000   3.697   5.419
 2972SOL    HW1 9815   6.988   3.621   5.483
 2972SOL    HW2 9816   6.945   3.681   5.337
 2973SOL     OW 9817   5.235   6.398   4.214
 2973SOL    HW1 9818   5.322   6.431   4.249
 2973SOL    HW2 9819   5.184   6.353   4.287
 2974SOL     OW 9820   0.109   3.831   2.511
 2974SOL    HW1 9821   0.097   3.827   2.412
 2974SOL    HW2 9822   0.100   3.925   2.542
 2975SOL     OW 9823   0.246   1.106   5.537
 2975SOL    HW1 9824   0.336   1.139   5.510
 2975SOL    HW2 9825   0.241   1.101   5.637
 2976SOL     OW 9826   3.280   0.438   2.123
 2976SOL    HW1 9827   3.345   0.456   2.196
 2976SOL    HW2 9828   3.237   0.349   2.137
 2977SOL     OW 9829   3.086   6.255   4.232
 2977SOL    HW1 9830   3.179   6.261   4.196
 2977SOL    HW2 9831   3.054   6.160   4.224
 2978SOL     OW 9832   4.644   5.339   6.767
 2978SOL    HW1 9833   4.701   5.321   6.848
 2978SOL    HW2 9834   4.552   5.365   6.796
 2979SOL     OW 9835   3.409   0.900   3.133
 2979SOL    HW1 9836   3.418   0.870   3.228
 2979SOL    HW2 9837   3.487   0.957   3.108
 2980SOL     OW 9838   0.472   6.218   4.250
 2980SOL    HW1 9839   0.501   6.241   4.157
 2980SOL    HW2 9840   0.483   6.120   4.264
 2981SOL     OW 9841   2.694   0.807   5.745
 2981SOL    HW1 9842   2.731   0.802   5.838
 2981SOL    HW2 9843   2.646   0.723   5.723
 2982SOL     OW 9844   5.034   6.632   2.423
 2982SOL    HW1 9845   4.980   6.642   2.340
 2982SOL    HW2 9846   5.016   6.710   2.484
 2983SOL     OW 9847   6.756   0.688   3.572
 2983SOL    HW1 9848   6.849   0.724   3.584
 2983SOL    HW2 9849   6.746   0.606   3.628
 2984SOL     OW 9850   5.342   5.664   1.626
 2984SOL    HW1 9851   5.276   5.738   1.635
 2984SOL    HW2 9852   5.380   5.665   1.533
 2985SOL     OW 9853   6.013   2.520   2.924
 2985SOL    HW1 9854   5.919   2.520   2.889
 2985SOL    HW2 9855   6.071   2.577   2.865
 2986SOL     OW 9856   2.087   3.722   5.337
 2986SOL    HW1 9857   2.108   3.797   5.273
 2986SOL    HW2 9858   2.121   3.746   5.428
 2987SOL     OW 9859   4.354   2.352   4.543
 2987SOL    HW1 9860   4.257   2.337   4.524
 2987SOL    HW2 9861   4.399   2.384   4.460
 2988SOL     OW 9862   0.793   0.594   1.892
 2988SOL    HW1 9863   0.804   0.633   1.800
 2988SOL    HW2 9864   0.718   0.529   1.892
 2989SOL     OW 9865   6.616   5.137   1.437
 2989SOL    HW1 9866   6.592   5.112   1.530
 2989SOL    HW2 9867   6.713   5.162   1.432
 2990SOL     OW 9868   3.811   1.026   1.720
 2990SOL    HW1 9869   3.734   0.980   1.676
 2990SOL    HW2 9870   3.779   1.075   1.801
 2991SOL     OW 9871   6.742   3.949   0.048
 2991SOL    HW1 9872   6.754   4.036   7.023
 2991SOL    HW2 9873   6.729   3.967   0.146
 2992SOL     OW 9874   3.627   4.978   6.325
 2992SOL    HW1 9875   3.664   4.888   6.348
 2992SOL    HW2 9876   3.691   5.048   6.355
 2993SOL     OW 9877   1.651   5.414   0.927
 2993SOL    HW1 9878   1.653   5.402   1.026
 2993SOL    HW2 9879   1.616   5.505   0.904
 2994SOL     OW 9880   4.584   6.657   0.049
 2994SOL    HW1 9881   4.544   6.565   0.049
 2994SOL    HW2 9882   4.680   6.651   0.076
 2995SOL     OW 9883   2.542   1.494   6.345
 2995SOL    HW1 9884   2.459   1.478   6.291
 2995SOL    HW2 9885   2.576   1.586   6.327
 2996SOL     OW 9886   3.820   5.233   5.911
 2996SOL    HW1 9887   3.793   5.292   5.835
 2996SOL    HW2 9888   3.899   5.178   5.883
 2997SOL     OW 9889   5.311   6.331   0.959
 2997SOL    HW1 9890   5.390   6.365   1.011
 2997SOL    HW2 9891   5.325   6.235   0.936
 2998SOL     OW 9892   6.615   5.942   5.540
 2998SOL    HW1 9893   6.565   5.950   5.454
 2998SOL    HW2 9894   6.650   6.032   5.567
 2999SOL     OW 9895   2.945   0.020   3.189
 2999SOL    HW1 9896   3.025   6.987   3.210
 2999SOL    HW2 9897   2.943   0.039   3.091
 3000SOL     OW 9898   1.123   2.824   5.230
 3000SOL    HW1 9899   1.118   2.890   5.305
 3000SOL    HW2 9900   1.031   2.793   5.207
 3001SOL     OW 9901   4.892   6.974   5.983
 3001SOL    HW1 9902   4.912   6.882   5.948
 3001SOL    HW2 9903   4.795   6.993   5.969
 3002SOL     OW 9904   3.928   0.285   5.783
 3002SOL    HW1 9905   3.975   0.288   5.871
 3002SOL    HW2 9906   3.980   0.230   5.718
 3003SOL     OW 9907   2.572   6.792   6.040
 3003SOL    HW1 9908   2.586   6.838   5.952
 3003SOL    HW2 9909   2.599   6.854   6.114
 3004SOL     OW 9910   5.817   2.780   4.461
 3004SOL    HW1 9911   5.911   2.746   4.450
 3004SOL    HW2 9912   5.797   2.794   4.558
 3005SOL     OW 9913   4.579   2.408   1.120
 3005SOL    HW1 9914   4.637   2.327   1.112
 3005SOL    HW2 9915   4.591   2.448   1.211
 3006SOL     OW 9916   5.838   0.787   1.613
 3006SOL    HW1 9917   5.837   0.862   1.679
 3006SOL    HW2 9918   5.766   0.801   1.545
 3007SOL     OW 9919   6.174   5.026   2.740
 3007SOL    HW1 9920   6.125   5.113   2.741
 3007SOL    HW2 9921   6.175   4.987   2.832
 3008SOL     OW 9922   3.141   6.152   6.167
 3008SOL    HW1 9923   3.228   6.173   6.121
 3008SOL    HW2 9924   3.106   6.064   6.134
 3009SOL     OW 9925   1.735   0.539   2.970
 3009SOL    HW1 9926   1.774   0.456   3.010
 3009SOL    HW2 9927   1.636   0.536   2.975
 3010SOL     OW 9928   3.532   6.574   2.386
 3010SOL    HW1 9929   3.502   6.592   2.293
 3010SOL    HW2 9930   3.477   6.500   2.425
 3011SOL     OW 9931   5.536   0.288   0.136
 3011SOL    HW1 9932   5.480   0.369   0.151
 3011SOL    HW2 9933   5.614   0.311   0.077
 3012SOL     OW 9934   0.107   3.712   3.187
 3012SOL    HW1 9935   0.021   3.750   3.221
 3012SOL    HW2 9936   0.140   3.769   3.111
 3013SOL     OW 9937   5.949   4.984   2.400
 3013SOL    HW1 9938   5.994   4.985   2.489
 3013SOL    HW2 9939   5.864   4.933   2.406
 3014SOL     OW 9940   4.463   0.856   4.672
 3014SOL    HW1 9941   4.469   0.857   4.572
 3014SOL    HW2 9942   4.542   0.906   4.710
 3015SOL     OW 9943   3.027   2.074   0.348
 3015SOL    HW1 9944   2.993   2.158   0.390
 3015SOL    HW2 9945   3.091   2.098   0.275
 3016SOL     OW 9946   3.955   6.715   3.481
 3016SOL    HW1 9947   3.890   6.697   3.554
 3016SOL    HW2 9948   3.953   6.813   3.458
 3017SOL     OW 9949   0.480   5.655   1.117
 3017SOL    HW1 9950   0.436   5.735   1.077
 3017SOL    HW2 9951   0.567   5.638   1.071
 3018SOL     OW 9952   3.814   6.291   0.037
 3018SOL    HW1 9953   3.723   6.253   0.052
 3018SOL    HW2 9954   3.875   6.264   0.112
 3019SOL     OW 9955   4.152   6.902   1.845
 3019SOL    HW1 9956   4.202   6.861   1.769
 3019SOL    HW2 9957   4.054   6.887   1.832
 3020SOL     OW 9958   1.518   2.469   0.852
 3020SOL    HW1 9959   1.424   2.467   0.817
 3020SOL    HW2 9960   1.530   2.395   0.918
 3021SOL     OW 9961   2.414   1.885   6.766
 3021SOL    HW1 9962   2.415   1.862   6.669
 3021SOL    HW2 9963   2.322   1.915   6.792
 3022SOL     OW 9964   4.927   6.864   3.223
 3022SOL    HW1 9965   4.897   6.898   3.312
 3022SOL    HW2 9966   4.958   6.769   3.231
 3023SOL     OW 9967   4.672   6.429   2.324
 3023SOL    HW1 9968   4.718   6.431   2.413
 3023SOL    HW2 9969   4.573   6.422   2.338
 3024SOL     OW 9970   3.613   6.473   6.516
 3024SOL    HW1 9971   3.584   6.449   6.423
 3024SOL    HW2 9972   3.612   6.391   6.573
 3025SOL     OW 9973   2.174   2.076   1.322
 3025SOL    HW1 9974   2.175   2.087   1.422
 3025SOL    HW2 9975   2.216   2.156   1.280
 3026SOL     OW 9976   2.068   4.002   0.879
 3026SOL    HW1 9977   2.042   3.909   0.906
 3026SOL    HW2 9978   1.993   4.065   0.900
 3027SOL     OW 9979   1.060   1.957   3.538
 3027SOL    HW1 9980   0.984   1.907   3.496
 3027SOL    HW2 9981   1.076   2.041   3.486
 3028SOL     OW 9982   1.310   6.733   5.318
 3028SOL    HW1 9983   1.222   6.769   5.347
 3028SOL    HW2 9984   1.371   6.726   5.397
 3029SOL     OW 9985   5.277   6.051   5.416
 3029SOL    HW1 9986   5.230   5.995   5.348
 3029SOL    HW2 9987   5.363   6.008   5.441
 3030SOL     OW 9988   1.594   2.219   4.973
 3030SOL    HW1 9989   1.645   2.243   5.055
 3030SOL    HW2 9990   1.497   2.211   4.996
 3031SOL     OW 9991   0.273   5.037   6.508
 3031SOL    HW1 9992   0.297   4.992   6.422
 3031SOL    HW2 9993   0.348   5.026   6.574
 3032SOL     OW 9994   4.840   0.262   5.649
 3032SOL    HW1 9995   4.889   0.176   5.660
 3032SOL    HW2 9996   4.872   0.327   5.719
 3033SOL     OW 9997   6.188   3.368   6.697
 3033SOL    HW1 9998   6.253   3.364   6.621
 3033SOL    HW2 9999   6.134   3.284   6.699
 3034SOL     OW10000   2.496   6.806   4.697
 3034SOL    HW110001   2.530   6.893   4.661
 3034SOL    HW210002   2.570   6.759   4.745
 3035SOL     OW10003   6.045   0.595   6.959
 3035SOL    HW110004   6.010   0.571   0.027
 3035SOL    HW210005   6.123   0.657   6.969
 3036SOL     OW10006   0.971   4.325   6.478
 3036SOL    HW110007   1.042   4.373   6.427
 3036SOL    HW210008   0.881   4.350   6.442
 3037SOL     OW10009   6.515   6.504   5.519
 3037SOL    HW110010   6.460   6.479   5.598
 3037SOL    HW210011   6.600   6.452   5.520
 3038SOL     OW10012   5.665   6.682   5.997
 3038SOL    HW110013   5.717   6.683   5.911
 3038SOL    HW210014   5.725   6.709   6.072
 3039SOL     OW10015   1.170   4.911   1.096
 3039SOL    HW110016   1.204   5.001   1.123
 3039SOL    HW210017   1.122   4.870   1.174
 3040SOL     OW10018   2.606   3.179   6.762
 3040SOL    HW110019   2.568   3.204   6.673
 3040SOL    HW210020   2.578   3.086   6.785
 3041SOL     OW10021   1.754   2.112   5.899
 3041SOL    HW110022   1.743   2.115   5.998
 3041SOL    HW210023   1.764   2.205   5.864
 3042SOL     OW10024   4.540   0.423   1.835
 3042SOL    HW110025   4.586   0.411   1.923
 3042SOL    HW210026   4.490   0.510   1.835
 3043SOL     OW10027   0.302   5.386   0.261
 3043SOL    HW110028   0.226   5.411   0.321
 3043SOL    HW210029   0.355   5.313   0.304
 3044SOL     OW10030   3.090   4.469   6.246
 3044SOL    HW110031   3.084   4.504   6.340
 3044SOL    HW210032   3.038   4.384   6.239
 3045SOL     OW10033   5.434   2.644   3.235
 3045SOL    HW110034   5.401   2.725   3.187
 3045SOL    HW210035   5.357   2.593   3.272
 3046SOL     OW10036   2.117   3.224   5.559
 3046SOL    HW110037   2.118   3.126   5.540
 3046SOL    HW210038   2.039   3.266   5.512
 3047SOL     OW10039   6.207   4.993   2.327
 3047SOL    HW110040   6.109   4.998   2.344
 3047SOL    HW210041   6.230   4.904   2.289
 3048SOL     OW10042   3.317   2.879   1.506
 3048SOL    HW110043   3.394   2.937   1.478
 3048SOL    HW210044   3.322   2.861   1.604
 3049SOL     OW10045   0.423   0.489   2.200
 3049SOL    HW110046   0.416   0.390   2.189
 3049SOL    HW210047   0.332   0.529   2.207
 3050SOL     OW10048   4.515   6.245   4.055
 3050SOL    HW110049   4.519   6.311   3.980
 3050SOL    HW210050   4.572   6.166   4.033
 3051SOL     OW10051   2.434   4.496   6.603
 3051SOL    HW110052   2.494   4.574   6.585
 3051SOL    HW210053   2.391   4.507   6.692
 3052SOL     OW10054   4.319   6.915   3.006
 3052SOL    HW110055   4.328   6.887   2.911
 3052SOL    HW210056   4.288   7.010   3.010
 3053SOL     OW10057   5.471   6.416   0.441
 3053SOL    HW110058   5.485   6.324   0.477
 3053SOL    HW210059   5.386   6.419   0.388
 3054SOL     OW10060   1.260   3.240   6.521
 3054SOL    HW110061   1.355   3.233   6.493
 3054SOL    HW210062   1.200   3.210   6.447
 3055SOL     OW10063   5.866   6.958   3.263
 3055SOL    HW110064   5.898   7.015   3.338
 3055SOL    HW210065   5.861   6.863   3.293
 3056SOL     OW10066   0.019   0.572   0.904
 3056SOL    HW110067   0.061   0.652   0.861
 3056SOL    HW210068   0.048   0.567   0.999
 3057SOL     OW10069   5.986   5.265   2.707
 3057SOL    HW110070   5.928   5.216   2.642
 3057SOL    HW210071   5.928   5.311   2.775
 3058SOL     OW10072   6.570   5.056   1.686
 3058SOL    HW110073   6.620   5.099   1.762
 3058SOL    HW210074   6.473   5.055   1.707
 3059SOL     OW10075   1.595   2.544   4.580
 3059SOL    HW110076   1.591   2.629   4.528
 3059SOL    HW210077   1.586   2.565   4.678
 3060SOL     OW10078   6.738   6.589   0.912
 3060SOL    HW110079   6.671   6.559   0.845
 3060SOL    HW210080   6.735   6.528   0.992
 3061SOL     OW10081   0.016   0.305   6.594
 3061SOL    HW110082   0.086   0.279   6.661
 3061SOL    HW210083   7.013   0.225   6.540
 3062SOL     OW10084   3.559   6.558   6.940
 3062SOL    HW110085   3.575   6.546   6.842
 3062SOL    HW210086   3.631   6.512   6.992
 3063SOL     OW10087   1.787   4.566   1.366
 3063SOL    HW110088   1.831   4.588   1.453
 3063SOL    HW210089   1.854   4.568   1.293
 3064SOL     OW10090   6.199   3.924   3.621
 3064SOL    HW110091   6.126   3.864   3.652
 3064SOL    HW210092   6.287   3.882   3.641
 3065SOL     OW10093   1.819   0.981   6.970
 3065SOL    HW110094   1.903   1.036   6.976
 3065SOL    HW210095   1.752   1.028   6.913
 3066SOL     OW10096   5.706   4.881   1.612
 3066SOL    HW110097   5.620   4.930   1.622
 3066SOL    HW210098   5.691   4.784   1.629
 3067SOL     OW10099   5.402   6.964   4.162
 3067SOL    HW110100   5.395   0.040   4.174
 3067SOL    HW210101   5.493   6.933   4.191
 3068SOL     OW10102   6.237   4.606   0.322
 3068SOL    HW110103   6.237   4.562   0.412
 3068SOL    HW210104   6.217   4.703   0.332
 3069SOL     OW10105   0.730   6.158   2.816
 3069SOL    HW110106   0.801   6.192   2.877
 3069SOL    HW210107   0.737   6.059   2.809
 3070SOL     OW10108   4.217   1.457   4.152
 3070SOL    HW110109   4.127   1.496   4.172
 3070SOL    HW210110   4.288   1.514   4.192
 3071SOL     OW10111   5.551   6.757   3.416
 3071SOL    HW110112   5.529   6.853   3.396
 3071SOL    HW210113   5.560   6.707   3.331
 3072SOL     OW10114   0.428   0.280   2.456
 3072SOL    HW110115   0.391   0.366   2.492
 3072SOL    HW210116   0.528   0.281   2.462
 3073SOL     OW10117   1.012   3.419   5.147
 3073SOL    HW110118   0.928   3.468   5.128
 3073SOL    HW210119   1.053   3.386   5.061
 3074SOL     OW10120   4.514   3.088   6.057
 3074SOL    HW110121   4.484   3.105   6.151
 3074SOL    HW210122   4.456   3.019   6.015
 3075SOL     OW10123   1.900   5.856   1.439
 3075SOL    HW110124   1.918   5.761   1.465
 3075SOL    HW210125   1.929   5.870   1.345
 3076SOL     OW10126   0.149   0.521   4.931
 3076SOL    HW110127   0.120   0.558   5.019
 3076SOL    HW210128   0.102   0.569   4.857
 3077SOL     OW10129   5.311   4.869   3.825
 3077SOL    HW110130   5.327   4.954   3.874
 3077SOL    HW210131   5.354   4.874   3.735
 3078SOL     OW10132   1.715   3.755   1.655
 3078SOL    HW110133   1.755   3.738   1.745
 3078SOL    HW210134   1.626   3.801   1.666
 3079SOL     OW10135   0.002   2.243   5.431
 3079SOL    HW110136   0.076   2.310   5.423
 3079SOL    HW210137   0.039   2.154   5.453
 3080SOL     OW10138   6.281   5.181   0.721
 3080SOL    HW110139   6.363   5.229   0.753
 3080SOL    HW210140   6.199   5.229   0.754
 3081SOL     OW10141   0.211   5.194   5.573
 3081SOL    HW110142   0.295   5.249   5.579
 3081SOL    HW210143   0.134   5.245   5.611
 3082SOL     OW10144   2.983   0.156   2.671
 3082SOL    HW110145   2.953   0.250   2.684
 3082SOL    HW210146   3.076   0.156   2.634
 3083SOL     OW10147   3.320   0.611   1.769
 3083SOL    HW110148   3.289   0.519   1.794
 3083SOL    HW210149   3.386   0.643   1.837
 3084SOL     OW10150   5.153   5.784   4.632
 3084SOL    HW110151   5.080   5.716   4.630
 3084SOL    HW210152   5.225   5.755   4.695
 3085SOL     OW10153   0.561   5.389   2.058
 3085SOL    HW110154   0.606   5.389   2.147
 3085SOL    HW210155   0.606   5.322   1.998
 3086SOL     OW10156   4.724   1.613   3.840
 3086SOL    HW110157   4.694   1.537   3.782
 3086SOL    HW210158   4.824   1.616   3.841
 3087SOL     OW10159   6.840   3.696   2.789
 3087SOL    HW110160   6.824   3.639   2.870
 3087SOL    HW210161   6.809   3.647   2.708
 3088SOL     OW10162   2.993   5.021   6.097
 3088SOL    HW110163   3.091   5.026   6.113
 3088SOL    HW210164   2.974   5.028   5.999
 3089SOL     OW10165   1.647   2.542   0.331
 3089SOL    HW110166   1.596   2.611   0.384
 3089SOL    HW210167   1.739   2.575   0.315
 3090SOL     OW10168   1.421   1.735   0.910
 3090SOL    HW110169   1.497   1.718   0.972
 3090SOL    HW210170   1.415   1.832   0.889
 3091SOL     OW10171   3.237   6.752   0.140
 3091SOL    HW110172   3.328   6.764   0.101
 3091SOL    HW210173   3.172   6.810   0.091
 3092SOL     OW10174   5.279   6.633   0.493
 3092SOL    HW110175   5.350   6.562   0.488
 3092SOL    HW210176   5.231   6.626   0.580
 3093SOL     OW10177   5.504   5.720   4.498
 3093SOL    HW110178   5.527   5.788   4.568
 3093SOL    HW210179   5.587   5.692   4.450
 3094SOL     OW10180   2.830   5.907   5.852
 3094SOL    HW110181   2.790   5.816   5.846
 3094SOL    HW210182   2.765   5.968   5.898
 3095SOL     OW10183   3.041   4.860   4.866
 3095SOL    HW110184   3.007   4.789   4.929
 3095SOL    HW210185   3.126   4.898   4.901
 3096SOL     OW10186   1.437   0.697   6.047
 3096SOL    HW110187   1.352   0.740   6.079
 3096SOL    HW210188   1.441   0.603   6.080
 3097SOL     OW10189   1.673   2.966   6.932
 3097SOL    HW110190   1.664   2.889   6.868
 3097SOL    HW210191   1.637   3.048   6.889
 3098SOL     OW10192   3.219   2.535   0.515
 3098SOL    HW110193   3.179   2.583   0.437
 3098SOL    HW210194   3.176   2.445   0.524
 3099SOL     OW10195   0.748   5.816   5.154
 3099SOL    HW110196   0.838   5.772   5.157
 3099SOL    HW210197   0.682   5.753   5.112
 3100SOL     OW10198   0.187   0.062   7.012
 3100SOL    HW110199   0.147   6.998   0.015
 3100SOL    HW210200   0.117   0.133   7.015
 3101SOL     OW10201   4.512   0.032   0.818
 3101SOL    HW110202   4.433   0.074   0.773
 3101SOL    HW210203   4.538   6.972   0.768
 3102SOL     OW10204   1.717   4.294   1.266
 3102SOL    HW110205   1.711   4.374   1.325
 3102SOL    HW210206   1.709   4.321   1.170
 3103SOL     OW10207   3.971   2.903   1.883
 3103SOL    HW110208   4.025   2.916   1.800
 3103SOL    HW210209   3.971   2.807   1.909
 3104SOL     OW10210   6.325   6.106   3.950
 3104SOL    HW110211   6.379   6.145   3.875
 3104SOL    HW210212   6.387   6.066   4.018
 3105SOL     OW10213   5.825   6.503   4.266
 3105SOL    HW110214   5.883   6.469   4.192
 3105SOL    HW210215   5.871   6.488   4.353
 3106SOL     OW10216   6.829   2.290   3.927
 3106SOL    HW110217   6.905   2.337   3.972
 3106SOL    HW210218   6.865   2.234   3.852
 3107SOL     OW10219   2.744   0.613   4.228
 3107SOL    HW110220   2.646   0.630   4.218
 3107SOL    HW210221   2.761   0.514   4.219
 3108SOL     OW10222   3.328   0.840   3.408
 3108SOL    HW110223   3.324   0.741   3.419
 3108SOL    HW210224   3.245   0.881   3.445
 3109SOL     OW10225   4.532   5.229   3.300
 3109SOL    HW110226   4.438   5.260   3.290
 3109SOL    HW210227   4.543   5.139   3.256
 3110SOL     OW10228   0.704   2.941   2.302
 3110SOL    HW110229   0.627   2.890   2.340
 3110SOL    HW210230   0.789   2.905   2.340
 3111SOL     OW10231   0.151   5.062   3.508
 3111SOL    HW110232   0.082   5.126   3.541
 3111SOL    HW210233   0.146   4.977   3.562
 3112SOL     OW10234   4.300   4.017   6.199
 3112SOL    HW110235   4.397   4.025   6.219
 3112SOL    HW210236   4.246   4.051   6.276
 3113SOL     OW10237   2.565   6.221   3.710
 3113SOL    HW110238   2.664   6.233   3.707
 3113SOL    HW210239   2.542   6.127   3.683
 3114SOL     OW10240   6.051   5.295   0.818
 3114SOL    HW110241   5.998   5.214   0.845
 3114SOL    HW210242   6.047   5.363   0.890
 3115SOL     OW10243   2.514   3.691   1.116
 3115SOL    HW110244   2.517   3.788   1.141
 3115SOL    HW210245   2.419   3.664   1.101
 3116SOL     OW10246   0.186   2.110   0.405
 3116SOL    HW110247   0.125   2.032   0.424
 3116SOL    HW210248   0.278   2.076   0.388
 3117SOL     OW10249   3.793   3.420   5.373
 3117SOL    HW110250   3.706   3.453   5.409
 3117SOL    HW210251   3.867   3.444   5.435
 3118SOL     OW10252   6.192   3.721   0.731
 3118SOL    HW110253   6.173   3.792   0.799
 3118SOL    HW210254   6.228   3.640   0.777
 3119SOL     OW10255   1.836   4.301   5.644
 3119SOL    HW110256   1.884   4.381   5.609
 3119SOL    HW210257   1.865   4.219   5.594
 3120SOL     OW10258   3.047   5.535   4.904
 3120SOL    HW110259   2.997   5.604   4.851
 3120SOL    HW210260   3.068   5.457   4.845
 3121SOL     OW10261   6.702   6.942   2.200
 3121SOL    HW110262   6.725   0.008   2.161
 3121SOL    HW210263   6.783   6.902   2.242
 3122SOL     OW10264   3.125   5.545   7.004
 3122SOL    HW110265   3.134   5.469   6.939
 3122SOL    HW210266   3.099   5.628   6.954
 3123SOL     OW10267   3.574   6.505   3.730
 3123SOL    HW110268   3.636   6.448   3.676
 3123SOL    HW210269   3.521   6.564   3.669
 3124SOL     OW10270   4.095   1.112   6.066
 3124SOL    HW110271   4.090   1.212   6.076
 3124SOL    HW210272   4.166   1.088   6.000
 3125SOL     OW10273   0.298   1.475   6.009
 3125SOL    HW110274   0.380   1.522   5.975
 3125SOL    HW210275   0.304   1.466   6.108
 3126SOL     OW10276   4.573   5.993   0.226
 3126SOL    HW110277   4.487   5.958   0.263
 3126SOL    HW210278   4.576   6.092   0.237
 3127SOL     OW10279   0.163   1.427   4.138
 3127SOL    HW110280   0.197   1.521   4.129
 3127SOL    HW210281   0.185   1.393   4.229
 3128SOL     OW10282   1.640   1.282   1.130
 3128SOL    HW110283   1.581   1.217   1.083
 3128SOL    HW210284   1.604   1.375   1.119
 3129SOL     OW10285   0.840   3.157   4.658
 3129SOL    HW110286   0.766   3.189   4.599
 3129SOL    HW210287   0.806   3.143   4.751
 3130SOL     OW10288   1.524   5.389   2.913
 3130SOL    HW110289   1.484   5.433   2.833
 3130SOL    HW210290   1.590   5.452   2.956
 3131SOL     OW10291   6.504   3.335   3.400
 3131SOL    HW110292   6.471   3.256   3.453
 3131SOL    HW210293   6.549   3.400   3.462
 3132SOL     OW10294   5.796   6.013   5.958
 3132SOL    HW110295   5.829   6.108   5.964
 3132SOL    HW210296   5.701   6.009   5.989
 3133SOL     OW10297   3.000   1.711   3.214
 3133SOL    HW110298   3.077   1.773   3.220
 3133SOL    HW210299   3.030   1.623   3.177
 3134SOL     OW10300   4.919   3.135   2.264
 3134SOL    HW110301   4.914   3.072   2.341
 3134SOL    HW210302   4.866   3.099   2.188
 3135SOL     OW10303   3.234   1.891   3.226
 3135SOL    HW110304   3.250   1.990   3.232
 3135SOL    HW210305   3.291   1.844   3.293
 3136SOL     OW10306   5.656   6.138   5.263
 3136SOL    HW110307   5.606   6.060   5.300
 3136SOL    HW210308   5.711   6.108   5.185
 3137SOL     OW10309   5.938   2.225   4.145
 3137SOL    HW110310   5.943   2.137   4.192
 3137SOL    HW210311   5.881   2.216   4.063
 3138SOL     OW10312   5.760   1.214   4.841
 3138SOL    HW110313   5.820   1.276   4.892
 3138SOL    HW210314   5.769   1.122   4.878
 3139SOL     OW10315   5.133   6.027   5.037
 3139SOL    HW110316   5.069   6.103   5.052
 3139SOL    HW210317   5.224   6.064   5.017
 3140SOL     OW10318   6.320   5.990   0.151
 3140SOL    HW110319   6.418   5.977   0.166
 3140SOL    HW210320   6.297   5.965   0.057
 3141SOL     OW10321   1.062   5.151   0.286
 3141SOL    HW110322   0.972   5.177   0.321
 3141SOL    HW210323   1.055   5.065   0.237
 3142SOL     OW10324   4.657   6.249   6.718
 3142SOL    HW110325   4.591   6.218   6.650
 3142SOL    HW210326   4.636   6.343   6.745
 3143SOL     OW10327   6.187   1.445   0.890
 3143SOL    HW110328   6.224   1.381   0.958
 3143SOL    HW210329   6.171   1.534   0.933
 3144SOL     OW10330   1.950   3.238   6.729
 3144SOL    HW110331   1.851   3.233   6.739
 3144SOL    HW210332   1.973   3.269   6.636
 3145SOL     OW10333   3.018   6.093   3.579
 3145SOL    HW110334   3.067   6.179   3.569
 3145SOL    HW210335   3.071   6.019   3.539
 3146SOL     OW10336   1.631   0.618   3.398
 3146SOL    HW110337   1.664   0.568   3.478
 3146SOL    HW210338   1.704   0.626   3.330
 3147SOL     OW10339   4.596   4.402   0.510
 3147SOL    HW110340   4.549   4.325   0.552
 3147SOL    HW210341   4.585   4.398   0.411
 3148SOL     OW10342   3.484   5.631   4.450
 3148SOL    HW110343   3.494   5.587   4.539
 3148SOL    HW210344   3.574   5.641   4.407
 3149SOL     OW10345   3.611   6.802   5.597
 3149SOL    HW110346   3.684   6.808   5.528
 3149SOL    HW210347   3.533   6.753   5.559
 3150SOL     OW10348   6.136   0.195   4.814
 3150SOL    HW110349   6.069   0.135   4.858
 3150SOL    HW210350   6.195   0.141   4.754
 3151SOL     OW10351   4.348   1.452   5.880
 3151SOL    HW110352   4.448   1.457   5.891
 3151SOL    HW210353   4.307   1.538   5.910
 3152SOL     OW10354   1.631   5.651   0.782
 3152SOL    HW110355   1.571   5.660   0.861
 3152SOL    HW210356   1.591   5.699   0.704
 3153SOL     OW10357   6.786   3.993   2.449
 3153SOL    HW110358   6.717   3.994   2.521
 3153SOL    HW210359   6.820   4.086   2.433
 3154SOL     OW10360   6.004   2.700   6.329
 3154SOL    HW110361   5.909   2.685   6.301
 3154SOL    HW210362   6.036   2.621   6.382
 3155SOL     OW10363   5.377   5.724   0.810
 3155SOL    HW110364   5.307   5.703   0.742
 3155SOL    HW210365   5.439   5.793   0.773
 3156SOL     OW10366   3.637   3.822   3.685
 3156SOL    HW110367   3.589   3.781   3.762
 3156SOL    HW210368   3.669   3.914   3.710
 3157SOL     OW10369   2.024   3.448   4.379
 3157SOL    HW110370   2.060   3.357   4.403
 3157SOL    HW210371   1.939   3.464   4.428
 3158SOL     OW10372   4.587   6.249   0.330
 3158SOL    HW110373   4.647   6.230   0.407
 3158SOL    HW210374   4.544   6.339   0.342
 3159SOL     OW10375   5.637   5.154   0.594
 3159SOL    HW110376   5.619   5.238   0.646
 3159SOL    HW210377   5.555   5.127   0.544
 3160SOL     OW10378   5.736   3.957   0.065
 3160SOL    HW110379   5.696   4.008   0.141
 3160SOL    HW210380   5.836   3.969   0.065
 3161SOL     OW10381   0.564   2.129   2.716
 3161SOL    HW110382   0.485   2.189   2.730
 3161SOL    HW210383   0.635   2.178   2.666
 3162SOL     OW10384   0.066   5.862   6.049
 3162SOL    HW110385   0.025   5.882   5.960
 3162SOL    HW210386   0.121   5.941   6.078
 3163SOL     OW10387   2.601   3.765   6.052
 3163SOL    HW110388   2.568   3.845   6.101
 3163SOL    HW210389   2.695   3.780   6.021
 3164SOL     OW10390   5.564   5.440   6.707
 3164SOL    HW110391   5.613   5.457   6.622
 3164SOL    HW210392   5.626   5.399   6.774
 3165SOL     OW10393   0.004   2.012   1.588
 3165SOL    HW110394   7.012   2.088   1.525
 3165SOL    HW210395   0.086   2.029   1.642
 3166SOL     OW10396   5.147   2.825   6.134
 3166SOL    HW110397   5.115   2.886   6.062
 3166SOL    HW210398   5.069   2.799   6.192
 3167SOL     OW10399   1.032   4.656   2.228
 3167SOL    HW110400   0.936   4.630   2.238
 3167SOL    HW210401   1.053   4.669   2.131
 3168SOL     OW10402   5.471   3.427   1.026
 3168SOL    HW110403   5.469   3.508   1.084
 3168SOL    HW210404   5.470   3.455   0.930
 3169SOL     OW10405   1.584   1.978   5.534
 3169SOL    HW110406   1.604   1.940   5.624
 3169SOL    HW210407   1.636   2.062   5.520
 3170SOL     OW10408   4.219   0.674   6.470
 3170SOL    HW110409   4.251   0.767   6.485
 3170SOL    HW210410   4.191   0.664   6.374
 3171SOL     OW10411   6.264   6.784   3.324
 3171SOL    HW110412   6.247   6.721   3.249
 3171SOL    HW210413   6.235   6.742   3.410
 3172SOL     OW10414   6.109   6.634   5.366
 3172SOL    HW110415   6.163   6.557   5.335
 3172SOL    HW210416   6.113   6.641   5.466
 3173SOL     OW10417   1.841   1.434   1.520
 3173SOL    HW110418   1.806   1.464   1.609
 3173SOL    HW210419   1.939   1.455   1.515
 3174SOL     OW10420   1.935   3.326   6.051
 3174SOL    HW110421   1.900   3.413   6.086
 3174SOL    HW210422   2.004   3.343   5.981
 3175SOL     OW10423   0.702   6.624   0.869
 3175SOL    HW110424   0.616   6.602   0.916
 3175SOL    HW210425   0.726   6.719   0.886
 3176SOL     OW10426   0.307   5.331   6.616
 3176SOL    HW110427   0.337   5.397   6.685
 3176SOL    HW210428   0.277   5.247   6.661
 3177SOL     OW10429   6.743   6.856   5.600
 3177SOL    HW110430   6.663   6.911   5.624
 3177SOL    HW210431   6.719   6.790   5.529
 3178SOL     OW10432   1.270   3.454   1.598
 3178SOL    HW110433   1.317   3.366   1.584
 3178SOL    HW210434   1.173   3.443   1.577
 3179SOL     OW10435   1.987   1.857   2.829
 3179SOL    HW110436   2.026   1.802   2.902
 3179SOL    HW210437   1.994   1.808   2.742
 3180SOL     OW10438   6.180   0.999   5.941
 3180SOL    HW110439   6.132   1.064   5.881
 3180SOL    HW210440   6.161   0.906   5.912
 3181SOL     OW10441   0.597   1.488   2.986
 3181SOL    HW110442   0.620   1.421   2.915
 3181SOL    HW210443   0.569   1.574   2.942
 3182SOL     OW10444   1.518   4.587   5.399
 3182SOL    HW110445   1.466   4.597   5.314
 3182SOL    HW210446   1.489   4.505   5.447
 3183SOL     OW10447   4.146   3.106   1.469
 3183SOL    HW110448   4.193   3.100   1.381
 3183SOL    HW210449   4.084   3.185   1.468
 3184SOL     OW10450   2.406   1.306   2.796
 3184SOL    HW110451   2.464   1.227   2.814
 3184SOL    HW210452   2.462   1.381   2.761
 3185SOL     OW10453   0.120   6.274   5.812
 3185SOL    HW110454   0.204   6.284   5.760
 3185SOL    HW210455   0.141   6.243   5.905
 3186SOL     OW10456   3.019   0.736   1.785
 3186SOL    HW110457   2.945   0.693   1.836
 3186SOL    HW210458   3.107   0.704   1.820
 3187SOL     OW10459   2.794   4.346   0.019
 3187SOL    HW110460   2.795   4.254   7.004
 3187SOL    HW210461   2.802   4.414   6.969
 3188SOL     OW10462   4.430   6.255   3.075
 3188SOL    HW110463   4.446   6.161   3.105
 3188SOL    HW210464   4.514   6.308   3.084
 3189SOL     OW10465   1.367   6.945   2.214
 3189SOL    HW110466   1.402   6.923   2.123
 3189SOL    HW210467   1.444   6.963   2.275
 3190SOL     OW10468   0.325   6.651   2.105
 3190SOL    HW110469   0.264   6.620   2.032
 3190SOL    HW210470   0.279   6.722   2.159
 3191SOL     OW10471   3.741   0.669   0.893
 3191SOL    HW110472   3.651   0.647   0.855
 3191SOL    HW210473   3.739   0.760   0.933
 3192SOL     OW10474   6.844   2.860   3.086
 3192SOL    HW110475   6.857   2.761   3.088
 3192SOL    HW210476   6.928   2.904   3.054
 3193SOL     OW10477   4.794   3.582   6.963
 3193SOL    HW110478   4.708   3.632   6.949
 3193SOL    HW210479   4.852   3.591   6.882
 3194SOL     OW10480   0.710   3.738   5.722
 3194SOL    HW110481   0.728   3.642   5.744
 3194SOL    HW210482   0.796   3.790   5.730
 3195SOL     OW10483   0.203   3.649   3.431
 3195SOL    HW110484   0.178   3.648   3.335
 3195SOL    HW210485   0.284   3.705   3.444
 3196SOL     OW10486   0.526   0.287   5.568
 3196SOL    HW110487   0.486   0.196   5.560
 3196SOL    HW210488   0.574   0.294   5.656
 3197SOL     OW10489   1.361   4.039   4.450
 3197SOL    HW110490   1.366   3.988   4.536
 3197SOL    HW210491   1.448   4.033   4.403
 3198SOL     OW10492   0.025   1.267   0.406
 3198SOL    HW110493   6.983   1.192   0.418
 3198SOL    HW210494   0.099   1.258   0.473
 3199SOL     OW10495   3.977   2.034   2.679
 3199SOL    HW110496   3.940   2.031   2.772
 3199SOL    HW210497   4.074   2.059   2.683
 3200SOL     OW10498   6.971   2.330   0.951
 3200SOL    HW110499   0.022   2.271   0.918
 3200SOL    HW210500   7.010   2.416   0.985
 3201SOL     OW10501   4.496   4.534   3.000
 3201SOL    HW110502   4.418   4.565   2.945
 3201SOL    HW210503   4.523   4.443   2.971
 3202SOL     OW10504   2.360   5.767   1.760
 3202SOL    HW110505   2.351   5.795   1.665
 3202SOL    HW210506   2.432   5.697   1.768
 3203SOL     OW10507   6.295   0.279   1.965
 3203SOL    HW110508   6.270   0.307   1.873
 3203SOL    HW210509   6.217   0.292   2.027
 3204SOL     OW10510   5.816   5.735   1.802
 3204SOL    HW110511   5.740   5.771   1.749
 3204SOL    HW210512   5.885   5.697   1.741
 3205SOL     OW10513   1.570   3.824   3.041
 3205SOL    HW110514   1.592   3.915   3.006
 3205SOL    HW210515   1.624   3.805   3.123
 3206SOL     OW10516   1.613   0.091   0.316
 3206SOL    HW110517   1.593   0.037   0.398
 3206SOL    HW210518   1.530   0.100   0.261
 3207SOL     OW10519   0.536   0.898   4.022
 3207SOL    HW110520   0.444   0.884   3.987
 3207SOL    HW210521   0.575   0.980   3.980
 3208SOL     OW10522   6.300   0.131   5.560
 3208SOL    HW110523   6.220   0.186   5.583
 3208SOL    HW210524   6.276   0.034   5.563
 3209SOL     OW10525   2.347   0.883   3.417
 3209SOL    HW110526   2.443   0.894   3.443
 3209SOL    HW210527   2.306   0.809   3.469
 3210SOL     OW10528   6.856   5.010   2.958
 3210SOL    HW110529   6.823   5.070   2.885
 3210SOL    HW210530   6.925   5.059   3.013
 3211SOL     OW10531   1.147   4.265   2.024
 3211SOL    HW110532   1.094   4.181   2.010
 3211SOL    HW210533   1.139   4.294   2.119
 3212SOL     OW10534   4.740   2.662   6.075
 3212SOL    HW110535   4.795   2.737   6.038
 3212SOL    HW210536   4.647   2.694   6.090
 3213SOL     OW10537   5.433   5.917   1.917
 3213SOL    HW110538   5.453   5.978   1.994
 3213SOL    HW210539   5.488   5.942   1.839
 3214SOL     OW10540   4.004   4.852   6.222
 3214SOL    HW110541   4.070   4.778   6.215
 3214SOL    HW210542   4.052   4.937   6.248
 3215SOL     OW10543   6.279   1.210   0.192
 3215SOL    HW110544   6.282   1.303   0.228
 3215SOL    HW210545   6.332   1.205   0.107
 3216SOL     OW10546   5.671   6.547   4.570
 3216SOL    HW110547   5.649   6.617   4.502
 3216SOL    HW210548   5.603   6.548   4.643
 3217SOL     OW10549   6.648   4.030   1.535
 3217SOL    HW110550   6.610   3.974   1.461
 3217SOL    HW210551   6.626   3.990   1.623
 3218SOL     OW10552   2.948   0.905   2.191
 3218SOL    HW110553   2.967   0.956   2.107
 3218SOL    HW210554   2.955   0.807   2.174
 3219SOL     OW10555   6.781   6.921   3.931
 3219SOL    HW110556   6.863   6.926   3.873
 3219SOL    HW210557   6.803   6.874   4.016
 3220SOL     OW10558   5.905   3.086   5.531
 3220SOL    HW110559   5.955   3.150   5.589
 3220SOL    HW210560   5.827   3.132   5.489
 3221SOL     OW10561   3.687   0.045   2.421
 3221SOL    HW110562   3.767   0.088   2.377
 3221SOL    HW210563   3.707   0.028   2.517
 3222SOL     OW10564   6.000   3.255   3.036
 3222SOL    HW110565   5.973   3.267   3.131
 3222SOL    HW210566   6.013   3.345   2.994
 3223SOL     OW10567   2.557   5.066   5.160
 3223SOL    HW110568   2.602   5.144   5.203
 3223SOL    HW210569   2.619   4.988   5.159
 3224SOL     OW10570   3.881   5.567   0.829
 3224SOL    HW110571   3.964   5.602   0.873
 3224SOL    HW210572   3.801   5.608   0.872
 3225SOL     OW10573   1.933   2.757   1.090
 3225SOL    HW110574   1.957   2.806   1.005
 3225SOL    HW210575   1.890   2.670   1.067
 3226SOL     OW10576   0.375   0.689   4.394
 3226SOL    HW110577   0.442   0.685   4.468
 3226SOL    HW210578   0.411   0.745   4.320
 3227SOL     OW10579   2.636   0.980   5.231
 3227SOL    HW110580   2.704   0.918   5.271
 3227SOL    HW210581   2.674   1.072   5.224
 3228SOL     OW10582   4.859   3.008   5.100
 3228SOL    HW110583   4.805   3.091   5.109
 3228SOL    HW210584   4.800   2.928   5.107
 3229SOL     OW10585   3.812   2.134   5.024
 3229SOL    HW110586   3.812   2.039   4.993
 3229SOL    HW210587   3.902   2.156   5.062
 3230SOL     OW10588   1.215   0.577   3.661
 3230SOL    HW110589   1.265   0.558   3.577
 3230SOL    HW210590   1.273   0.555   3.740
 3231SOL     OW10591   5.632   5.366   0.757
 3231SOL    HW110592   5.674   5.327   0.840
 3231SOL    HW210593   5.660   5.461   0.748
 3232SOL     OW10594   2.143   4.408   3.761
 3232SOL    HW110595   2.086   4.326   3.764
 3232SOL    HW210596   2.164   4.438   3.854
 3233SOL     OW10597   1.048   4.375   1.181
 3233SOL    HW110598   1.130   4.432   1.189
 3233SOL    HW210599   1.027   4.362   1.084
 3234SOL     OW10600   6.281   1.599   4.718
 3234SOL    HW110601   6.348   1.541   4.764
 3234SOL    HW210602   6.201   1.544   4.693
 3235SOL     OW10603   5.528   0.560   3.299
 3235SOL    HW110604   5.625   0.569   3.276
 3235SOL    HW210605   5.510   0.601   3.389
 3236SOL     OW10606   0.575   2.929   2.043
 3236SOL    HW110607   0.621   2.896   2.125
 3236SOL    HW210608   0.540   3.022   2.059
 3237SOL     OW10609   3.236   6.488   4.352
 3237SOL    HW110610   3.253   6.440   4.438
 3237SOL    HW210611   3.279   6.438   4.277
 3238SOL     OW10612   6.377   6.910   7.014
 3238SOL    HW110613   6.403   6.841   6.947
 3238SOL    HW210614   6.317   6.977   6.972
 3239SOL     OW10615   0.287   6.561   5.671
 3239SOL    HW110616   0.213   6.602   5.724
 3239SOL    HW210617   0.256   6.475   5.631
 3240SOL     OW10618   0.797   0.902   4.563
 3240SOL    HW110619   0.819   0.908   4.466
 3240SOL    HW210620   0.841   0.822   4.603
 3241SOL     OW10621   4.377   1.284   5.153
 3241SOL    HW110622   4.315   1.304   5.229
 3241SOL    HW210623   4.329   1.225   5.087
 3242SOL     OW10624   3.045   6.477   0.488
 3242SOL    HW110625   3.089   6.561   0.456
 3242SOL    HW210626   2.996   6.495   0.573
 3243SOL     OW10627   3.297   5.759   0.141
 3243SOL    HW110628   3.365   5.757   0.214
 3243SOL    HW210629   3.229   5.687   0.157
 3244SOL     OW10630   2.379   5.947   5.973
 3244SOL    HW110631   2.296   5.968   5.921
 3244SOL    HW210632   2.393   5.848   5.974
 3245SOL     OW10633   3.308   1.885   6.137
 3245SOL    HW110634   3.253   1.854   6.214
 3245SOL    HW210635   3.293   1.983   6.122
 3246SOL     OW10636   5.385   6.698   3.903
 3246SOL    HW110637   5.432   6.660   3.824
 3246SOL    HW210638   5.337   6.782   3.876
 3247SOL     OW10639   6.862   1.690   4.908
 3247SOL    HW110640   6.852   1.721   4.814
 3247SOL    HW210641   6.819   1.600   4.919
 3248SOL     OW10642   5.740   3.891   2.338
 3248SOL    HW110643   5.837   3.896   2.312
 3248SOL    HW210644   5.683   3.900   2.257
 3249SOL     OW10645   2.894   4.335   5.329
 3249SOL    HW110646   2.850   4.400   5.267
 3249SOL    HW210647   2.826   4.267   5.358
 3250SOL     OW10648   4.179   5.953   1.926
 3250SOL    HW110649   4.243   6.028   1.940
 3250SOL    HW210650   4.167   5.937   1.828
 3251SOL     OW10651   3.276   1.245   3.301
 3251SOL    HW110652   3.254   1.164   3.248
 3251SOL    HW210653   3.371   1.272   3.283
 3252SOL     OW10654   3.158   2.124   3.457
 3252SOL    HW110655   3.104   2.175   3.390
 3252SOL    HW210656   3.097   2.087   3.527
 3253SOL     OW10657   4.312   3.775   0.868
 3253SOL    HW110658   4.320   3.699   0.803
 3253SOL    HW210659   4.306   3.740   0.961
 3254SOL     OW10660   4.920   5.177   2.171
 3254SOL    HW110661   4.862   5.221   2.102
 3254SOL    HW210662   4.864   5.122   2.232
 3255SOL     OW10663   4.235   4.785   0.749
 3255SOL    HW110664   4.154   4.771   0.805
 3255SOL    HW210665   4.308   4.723   0.780
 3256SOL     OW10666   6.232   6.447   5.932
 3256SOL    HW110667   6.142   6.431   5.891
 3256SOL    HW210668   6.223   6.458   6.031
 3257SOL     OW10669   2.299   2.139   0.903
 3257SOL    HW110670   2.218   2.115   0.848
 3257SOL    HW210671   2.343   2.055   0.935
 3258SOL     OW10672   5.816   0.017   1.684
 3258SOL    HW110673   5.872   0.083   1.736
 3258SOL    HW210674   5.874   6.965   1.654
 3259SOL     OW10675   6.107   6.125   3.051
 3259SOL    HW110676   6.076   6.218   3.032
 3259SOL    HW210677   6.106   6.110   3.150
 3260SOL     OW10678   1.508   3.263   0.332
 3260SOL    HW110679   1.424   3.210   0.341
 3260SOL    HW210680   1.570   3.215   0.270
 3261SOL     OW10681   5.168   0.354   3.688
 3261SOL    HW110682   5.165   0.364   3.788
 3261SOL    HW210683   5.093   0.294   3.659
 3262SOL     OW10684   3.749   1.368   4.322
 3262SOL    HW110685   3.840   1.382   4.360
 3262SOL    HW210686   3.680   1.399   4.388
 3263SOL     OW10687   3.231   5.544   2.395
 3263SOL    HW110688   3.237   5.597   2.480
 3263SOL    HW210689   3.209   5.604   2.319
 3264SOL     OW10690   4.752   4.569   6.326
 3264SOL    HW110691   4.715   4.656   6.357
 3264SOL    HW210692   4.676   4.507   6.304
 3265SOL     OW10693   4.678   0.687   6.154
 3265SOL    HW110694   4.646   0.652   6.242
 3265SOL    HW210695   4.617   0.760   6.123
 3266SOL     OW10696   0.443   1.809   6.805
 3266SOL    HW110697   0.427   1.767   6.895
 3266SOL    HW210698   0.418   1.744   6.733
 3267SOL     OW10699   4.900   2.353   1.269
 3267SOL    HW110700   4.920   2.266   1.222
 3267SOL    HW210701   4.949   2.427   1.223
 3268SOL     OW10702   1.142   4.806   6.543
 3268SOL    HW110703   1.192   4.755   6.473
 3268SOL    HW210704   1.044   4.786   6.534
 3269SOL     OW10705   4.911   3.591   0.560
 3269SOL    HW110706   4.876   3.658   0.626
 3269SOL    HW210707   4.989   3.631   0.512
 3270SOL     OW10708   7.008   5.506   4.380
 3270SOL    HW110709   7.019   5.428   4.443
 3270SOL    HW210710   6.915   5.505   4.343
 3271SOL     OW10711   5.447   1.525   1.756
 3271SOL    HW110712   5.369   1.520   1.694
 3271SOL    HW210713   5.518   1.461   1.726
 3272SOL     OW10714   4.715   6.872   0.428
 3272SOL    HW110715   4.747   6.959   0.466
 3272SOL    HW210716   4.659   6.890   0.347
 3273SOL     OW10717   0.218   0.044   3.358
 3273SOL    HW110718   0.194   0.064   3.453
 3273SOL    HW210719   0.163   6.990   3.326
 3274SOL     OW10720   3.781   1.922   6.253
 3274SOL    HW110721   3.692   1.879   6.237
 3274SOL    HW210722   3.795   1.996   6.188
 3275SOL     OW10723   3.932   0.834   0.272
 3275SOL    HW110724   3.928   0.870   0.366
 3275SOL    HW210725   3.944   0.735   0.275
 3276SOL     OW10726   2.561   6.670   0.573
 3276SOL    HW110727   2.565   6.753   0.518
 3276SOL    HW210728   2.548   6.693   0.669
 3277SOL     OW10729   6.962   6.438   5.452
 3277SOL    HW110730   6.964   6.348   5.408
 3277SOL    HW210731   0.009   6.496   5.412
 3278SOL     OW10732   1.368   1.188   0.405
 3278SOL    HW110733   1.403   1.268   0.454
 3278SOL    HW210734   1.444   1.143   0.357
 3279SOL     OW10735   2.117   6.436   1.167
 3279SOL    HW110736   2.167   6.523   1.164
 3279SOL    HW210737   2.032   6.446   1.115
 3280SOL     OW10738   2.109   5.334   4.857
 3280SOL    HW110739   2.096   5.430   4.882
 3280SOL    HW210740   2.102   5.324   4.758
 3281SOL     OW10741   2.477   6.422   0.575
 3281SOL    HW110742   2.499   6.518   0.560
 3281SOL    HW210743   2.561   6.371   0.595
 3282SOL     OW10744   2.200   6.349   2.091
 3282SOL    HW110745   2.269   6.325   2.023
 3282SOL    HW210746   2.109   6.342   2.050
 3283SOL     OW10747   2.089   0.378   4.146
 3283SOL    HW110748   2.044   0.443   4.086
 3283SOL    HW210749   2.062   0.285   4.121
 3284SOL     OW10750   0.892   4.035   5.908
 3284SOL    HW110751   0.910   4.067   6.001
 3284SOL    HW210752   0.804   4.071   5.877
 3285SOL     OW10753   6.889   2.306   4.926
 3285SOL    HW110754   6.970   2.320   4.870
 3285SOL    HW210755   6.912   2.248   5.004
 3286SOL     OW10756   3.883   4.692   5.750
 3286SOL    HW110757   3.887   4.698   5.850
 3286SOL    HW210758   3.788   4.694   5.720
 3287SOL     OW10759   0.255   4.616   1.862
 3287SOL    HW110760   0.192   4.588   1.790
 3287SOL    HW210761   0.343   4.570   1.849
 3288SOL     OW10762   1.809   6.721   6.674
 3288SOL    HW110763   1.747   6.798   6.688
 3288SOL    HW210764   1.829   6.678   6.762
 3289SOL     OW10765   1.023   5.420   4.457
 3289SOL    HW110766   0.962   5.353   4.415
 3289SOL    HW210767   1.041   5.494   4.392
 3290SOL     OW10768   6.632   5.321   2.580
 3290SOL    HW110769   6.659   5.410   2.542
 3290SOL    HW210770   6.604   5.260   2.506
 3291SOL     OW10771   2.431   6.988   1.732
 3291SOL    HW110772   2.436   7.005   1.830
 3291SOL    HW210773   2.344   6.943   1.711
 3292SOL     OW10774   0.580   5.298   5.333
 3292SOL    HW110775   0.521   5.223   5.364
 3292SOL    HW210776   0.666   5.296   5.384
 3293SOL     OW10777   6.280   0.700   2.774
 3293SOL    HW110778   6.209   0.630   2.780
 3293SOL    HW210779   6.354   0.667   2.715
 3294SOL     OW10780   1.042   0.216   0.650
 3294SOL    HW110781   1.040   0.228   0.749
 3294SOL    HW210782   0.949   0.208   0.615
 3295SOL     OW10783   1.677   2.370   6.352
 3295SOL    HW110784   1.610   2.440   6.326
 3295SOL    HW210785   1.757   2.414   6.394
 3296SOL     OW10786   1.134   6.738   1.737
 3296SOL    HW110787   1.045   6.733   1.692
 3296SOL    HW210788   1.121   6.745   1.836
 3297SOL     OW10789   3.186   1.577   5.953
 3297SOL    HW110790   3.157   1.571   5.858
 3297SOL    HW210791   3.241   1.660   5.966
 3298SOL     OW10792   6.255   3.625   3.296
 3298SOL    HW110793   6.202   3.541   3.306
 3298SOL    HW210794   6.352   3.605   3.314
 3299SOL     OW10795   0.828   0.877   5.089
 3299SOL    HW110796   0.786   0.797   5.045
 3299SOL    HW210797   0.871   0.935   5.019
 3300SOL     OW10798   6.737   0.141   5.101
 3300SOL    HW110799   6.795   0.080   5.047
 3300SOL    HW210800   6.762   0.236   5.081
 3301SOL     OW10801   0.096   3.793   2.832
 3301SOL    HW110802   0.118   3.889   2.813
 3301SOL    HW210803   0.013   3.768   2.782
 3302SOL     OW10804   0.884   5.242   4.341
 3302SOL    HW110805   0.937   5.161   4.364
 3302SOL    HW210806   0.787   5.219   4.339
 3303SOL     OW10807   3.224   4.013   3.655
 3303SOL    HW110808   3.134   3.988   3.618
 3303SOL    HW210809   3.229   3.986   3.751
 3304SOL     OW10810   1.358   0.547   3.442
 3304SOL    HW110811   1.336   0.476   3.376
 3304SOL    HW210812   1.448   0.585   3.421
 3305SOL     OW10813   0.982   2.066   1.323
 3305SOL    HW110814   1.079   2.079   1.299
 3305SOL    HW210815   0.928   2.138   1.280
 3306SOL     OW10816   0.688   3.399   2.539
 3306SOL    HW110817   0.619   3.383   2.610
 3306SOL    HW210818   0.774   3.355   2.566
 3307SOL     OW10819   0.932   6.469   0.761
 3307SOL    HW110820   0.852   6.524   0.786
 3307SOL    HW210821   0.926   6.441   0.666
 3308SOL     OW10822   5.325   6.688   0.770
 3308SOL    HW110823   5.400   6.746   0.739
 3308SOL    HW210824   5.262   6.743   0.826
 3309SOL     OW10825   1.269   5.828   2.278
 3309SOL    HW110826   1.315   5.752   2.232
 3309SOL    HW210827   1.318   5.913   2.259
 3310SOL     OW10828   1.299   6.643   2.207
 3310SOL    HW110829   1.257   6.652   2.117
 3310SOL    HW210830   1.339   6.731   2.234
 3311SOL     OW10831   3.764   6.843   1.236
 3311SOL    HW110832   3.829   6.880   1.170
 3311SOL    HW210833   3.677   6.893   1.228
 3312SOL     OW10834   2.102   3.690   6.604
 3312SOL    HW110835   2.092   3.707   6.702
 3312SOL    HW210836   2.090   3.776   6.555
 3313SOL     OW10837   6.644   6.238   5.434
 3313SOL    HW110838   6.545   6.247   5.433
 3313SOL    HW210839   6.674   6.204   5.523
 3314SOL     OW10840   0.459   3.323   6.690
 3314SOL    HW110841   0.430   3.336   6.785
 3314SOL    HW210842   0.442   3.229   6.663
 3315SOL     OW10843   6.504   3.628   2.953
 3315SOL    HW110844   6.533   3.669   2.866
 3315SOL    HW210845   6.541   3.535   2.960
 3316SOL     OW10846   4.570   0.911   0.566
 3316SOL    HW110847   4.606   1.005   0.560
 3316SOL    HW210848   4.646   0.847   0.575
 3317SOL     OW10849   4.630   2.326   1.658
 3317SOL    HW110850   4.611   2.371   1.745
 3317SOL    HW210851   4.578   2.240   1.652
 3318SOL     OW10852   2.418   5.110   4.891
 3318SOL    HW110853   2.336   5.161   4.915
 3318SOL    HW210854   2.482   5.110   4.968
 3319SOL     OW10855   6.987   6.170   6.233
 3319SOL    HW110856   7.010   6.124   6.318
 3319SOL    HW210857   6.953   6.262   6.252
 3320SOL     OW10858   0.541   1.607   5.896
 3320SOL    HW110859   0.456   1.629   5.847
 3320SOL    HW210860   0.608   1.679   5.880
 3321SOL     OW10861   3.778   3.788   4.006
 3321SOL    HW110862   3.750   3.883   4.009
 3321SOL    HW210863   3.846   3.775   3.933
 3322SOL     OW10864   4.883   2.684   1.121
 3322SOL    HW110865   4.801   2.666   1.175
 3322SOL    HW210866   4.862   2.750   1.049
 3323SOL     OW10867   2.657   4.618   6.877
 3323SOL    HW110868   2.607   4.537   6.908
 3323SOL    HW210869   2.622   4.648   6.789
 3324SOL     OW10870   6.810   3.142   0.793
 3324SOL    HW110871   6.767   3.215   0.845
 3324SOL    HW210872   6.741   3.073   0.770
 3325SOL     OW10873   1.434   3.129   6.821
 3325SOL    HW110874   1.384   3.125   6.735
 3325SOL    HW210875   1.372   3.156   6.895
 3326SOL     OW10876   6.672   0.898   1.832
 3326SOL    HW110877   6.684   0.852   1.744
 3326SOL    HW210878   6.575   0.922   1.844
 3327SOL     OW10879   3.283   6.376   1.876
 3327SOL    HW110880   3.338   6.298   1.906
 3327SOL    HW210881   3.210   6.393   1.941
 3328SOL     OW10882   4.850   0.529   3.594
 3328SOL    HW110883   4.752   0.518   3.580
 3328SOL    HW210884   4.893   0.439   3.603
 3329SOL     OW10885   5.664   0.467   5.670
 3329SOL    HW110886   5.702   0.541   5.615
 3329SOL    HW210887   5.731   0.437   5.737
 3330SOL     OW10888   6.647   5.957   3.271
 3330SOL    HW110889   6.608   5.893   3.336
 3330SOL    HW210890   6.679   5.907   3.190
 3331SOL     OW10891   1.666   3.500   2.507
 3331SOL    HW110892   1.731   3.443   2.457
 3331SOL    HW210893   1.587   3.520   2.449
 3332SOL     OW10894   3.554   4.894   0.305
 3332SOL    HW110895   3.651   4.887   0.330
 3332SOL    HW210896   3.538   4.978   0.254
 3333SOL     OW10897   2.367   3.293   1.649
 3333SOL    HW110898   2.376   3.372   1.709
 3333SOL    HW210899   2.457   3.252   1.633
 3334SOL     OW10900   2.215   2.089   1.965
 3334SOL    HW110901   2.157   2.169   1.948
 3334SOL    HW210902   2.287   2.084   1.896
 3335SOL     OW10903   3.675   4.006   5.260
 3335SOL    HW110904   3.624   3.922   5.244
 3335SOL    HW210905   3.746   4.016   5.189
 3336SOL     OW10906   4.335   5.824   5.059
 3336SOL    HW110907   4.377   5.879   5.131
 3336SOL    HW210908   4.380   5.735   5.056
 3337SOL     OW10909   3.154   2.979   2.458
 3337SOL    HW110910   3.184   3.029   2.376
 3337SOL    HW210911   3.127   2.887   2.432
 3338SOL     OW10912   2.588   3.174   1.226
 3338SOL    HW110913   2.614   3.131   1.140
 3338SOL    HW210914   2.634   3.263   1.235
 3339SOL     OW10915   1.729   0.284   6.681
 3339SOL    HW110916   1.635   0.287   6.717
 3339SOL    HW210917   1.786   0.230   6.743
 3340SOL     OW10918   3.962   1.162   5.017
 3340SOL    HW110919   3.908   1.103   4.957
 3340SOL    HW210920   3.911   1.178   5.102
 3341SOL     OW10921   1.114   4.311   2.296
 3341SOL    HW110922   1.050   4.341   2.365
 3341SOL    HW210923   1.201   4.360   2.306
 3342SOL     OW10924   6.250   0.900   2.576
 3342SOL    HW110925   6.307   0.827   2.614
 3342SOL    HW210926   6.291   0.989   2.598
 3343SOL     OW10927   4.535   5.476   0.255
 3343SOL    HW110928   4.465   5.433   0.198
 3343SOL    HW210929   4.594   5.533   0.198
 3344SOL     OW10930   0.520   3.464   2.266
 3344SOL    HW110931   0.610   3.433   2.235
 3344SOL    HW210932   0.531   3.533   2.337
 3345SOL     OW10933   5.700   5.634   0.730
 3345SOL    HW110934   5.688   5.665   0.636
 3345SOL    HW210935   5.658   5.700   0.793
 3346SOL     OW10936   2.000   0.827   6.849
 3346SOL    HW110937   2.068   0.857   6.916
 3346SOL    HW210938   1.909   0.854   6.879
 3347SOL     OW10939   0.499   3.531   5.569
 3347SOL    HW110940   0.587   3.548   5.526
 3347SOL    HW210941   0.450   3.460   5.519
 3348SOL     OW10942   3.608   4.147   5.984
 3348SOL    HW110943   3.685   4.126   6.044
 3348SOL    HW210944   3.522   4.140   6.035
 3349SOL     OW10945   2.106   6.010   2.596
 3349SOL    HW110946   2.130   5.933   2.537
 3349SOL    HW210947   2.172   6.017   2.670
 3350SOL     OW10948   1.745   4.922   4.327
 3350SOL    HW110949   1.681   4.845   4.321
 3350SOL    HW210950   1.759   4.947   4.422
 3351SOL     OW10951   5.483   0.925   1.924
 3351SOL    HW110952   5.540   1.006   1.930
 3351SOL    HW210953   5.416   0.935   1.850
 3352SOL     OW10954   5.688   1.644   0.014
 3352SOL    HW110955   5.664   1.568   6.977
 3352SOL    HW210956   5.761   1.615   0.076
 3353SOL     OW10957   4.033   0.059   7.009
 3353SOL    HW110958   3.936   0.038   7.020
 3353SOL    HW210959   4.045   0.126   6.937
 3354SOL     OW10960   3.137   3.775   6.567
 3354SOL    HW110961   3.222   3.780   6.516
 3354SOL    HW210962   3.060   3.783   6.504
 3355SOL     OW10963   1.336   0.182   5.149
 3355SOL    HW110964   1.255   0.211   5.200
 3355SOL    HW210965   1.317   0.188   5.051
 3356SOL     OW10966   1.886   0.476   6.577
 3356SOL    HW110967   1.810   0.417   6.604
 3356SOL    HW210968   1.851   0.563   6.543
 3357SOL     OW10969   3.122   3.022   2.746
 3357SOL    HW110970   3.116   3.010   2.647
 3357SOL    HW210971   3.064   3.098   2.775
 3358SOL     OW10972   6.888   0.943   2.023
 3358SOL    HW110973   6.822   0.902   1.959
 3358SOL    HW210974   6.947   1.007   1.973
 3359SOL     OW10975   0.916   6.376   4.898
 3359SOL    HW110976   0.897   6.472   4.879
 3359SOL    HW210977   0.961   6.368   4.987
 3360SOL     OW10978   2.298   4.993   4.183
 3360SOL    HW110979   2.199   4.983   4.179
 3360SOL    HW210980   2.338   4.916   4.233
 3361SOL     OW10981   6.752   6.773   5.872
 3361SOL    HW110982   6.682   6.706   5.896
 3361SOL    HW210983   6.742   6.799   5.776
 3362SOL     OW10984   3.673   0.364   3.917
 3362SOL    HW110985   3.599   0.428   3.940
 3362SOL    HW210986   3.740   0.363   3.991
 3363SOL     OW10987   5.801   4.237   0.286
 3363SOL    HW110988   5.754   4.158   0.325
 3363SOL    HW210989   5.864   4.206   0.214
 3364SOL     OW10990   1.849   3.804   2.931
 3364SOL    HW110991   1.834   3.889   2.880
 3364SOL    HW210992   1.930   3.814   2.988
 3365SOL     OW10993   1.201   3.351   3.151
 3365SOL    HW110994   1.272   3.414   3.183
 3365SOL    HW210995   1.238   3.292   3.080
 3366SOL     OW10996   5.704   3.542   4.907
 3366SOL    HW110997   5.791   3.493   4.902
 3366SOL    HW210998   5.687   3.588   4.820
 3367SOL     OW10999   3.279   3.595   3.777
 3367SOL    HW111000   3.260   3.516   3.834
 3367SOL    HW211001   3.364   3.638   3.807
 3368SOL     OW11002   2.539   0.797   2.926
 3368SOL    HW111003   2.468   0.804   2.856
 3368SOL    HW211004   2.506   0.741   3.002
 3369SOL     OW11005   5.162   2.483   1.198
 3369SOL    HW111006   5.231   2.510   1.265
 3369SOL    HW211007   5.164   2.548   1.121
 3370SOL     OW11008   0.491   5.636   2.524
 3370SOL    HW111009   0.403   5.661   2.482
 3370SOL    HW211010   0.505   5.537   2.516
 3371SOL     OW11011   1.986   2.639   1.929
 3371SOL    HW111012   2.069   2.586   1.947
 3371SOL    HW211013   2.004   2.736   1.945
 3372SOL     OW11014   6.225   3.789   2.782
 3372SOL    HW111015   6.143   3.761   2.731
 3372SOL    HW211016   6.203   3.794   2.879
 3373SOL     OW11017   0.243   4.033   1.638
 3373SOL    HW111018   0.208   3.940   1.632
 3373SOL    HW211019   0.253   4.071   1.546
 3374SOL     OW11020   0.717   6.330   3.942
 3374SOL    HW111021   0.714   6.394   3.865
 3374SOL    HW211022   0.767   6.372   4.018
 3375SOL     OW11023   0.426   5.880   6.022
 3375SOL    HW111024   0.481   5.883   5.939
 3375SOL    HW211025   0.406   5.785   6.045
 3376SOL     OW11026   3.555   2.930   3.986
 3376SOL    HW111027   3.611   2.851   3.964
 3376SOL    HW211028   3.544   2.936   4.086
 3377SOL     OW11029   6.816   5.002   4.343
 3377SOL    HW111030   6.801   5.054   4.428
 3377SOL    HW211031   6.854   5.063   4.274
 3378SOL     OW11032   1.956   6.155   1.116
 3378SOL    HW111033   2.041   6.122   1.158
 3378SOL    HW211034   1.971   6.246   1.077
 3379SOL     OW11035   6.028   3.818   4.521
 3379SOL    HW111036   6.125   3.817   4.496
 3379SOL    HW211037   5.989   3.907   4.501
 3380SOL     OW11038   2.448   4.503   0.658
 3380SOL    HW111039   2.515   4.488   0.730
 3380SOL    HW211040   2.491   4.493   0.569
 3381SOL     OW11041   2.101   3.836   5.780
 3381SOL    HW111042   2.112   3.737   5.774
 3381SOL    HW211043   2.169   3.874   5.842
 3382SOL     OW11044   6.719   3.683   6.984
 3382SOL    HW111045   6.804   3.637   7.007
 3382SOL    HW211046   6.715   3.771   0.008
 3383SOL     OW11047   4.342   5.342   0.105
 3383SOL    HW111048   4.244   5.335   0.120
 3383SOL    HW211049   4.361   5.350   0.007
 3384SOL     OW11050   2.492   3.304   6.234
 3384SOL    HW111051   2.569   3.367   6.242
 3384SOL    HW211052   2.411   3.355   6.202
 3385SOL     OW11053   6.187   2.258   4.374
 3385SOL    HW111054   6.266   2.198   4.365
 3385SOL    HW211055   6.105   2.210   4.343
 3386SOL     OW11056   0.124   6.035   4.611
 3386SOL    HW111057   0.089   5.971   4.679
 3386SOL    HW211058   0.123   5.992   4.521
 3387SOL     OW11059   5.736   0.865   3.146
 3387SOL    HW111060   5.724   0.768   3.166
 3387SOL    HW211061   5.648   0.906   3.124
 3388SOL     OW11062   6.725   4.146   0.957
 3388SOL    HW111063   6.729   4.146   0.857
 3388SOL    HW211064   6.682   4.062   0.989
 3389SOL     OW11065   5.702   5.461   6.476
 3389SOL    HW111066   5.748   5.373   6.480
 3389SOL    HW211067   5.669   5.478   6.384
 3390SOL     OW11068   2.876   5.248   6.875
 3390SOL    HW111069   2.844   5.204   6.791
 3390SOL    HW211070   2.894   5.179   6.945
 3391SOL     OW11071   4.686   4.225   4.465
 3391SOL    HW111072   4.678   4.133   4.504
 3391SOL    HW211073   4.774   4.233   4.418
 3392SOL     OW11074   4.716   6.496   6.162
 3392SOL    HW111075   4.708   6.596   6.170
 3392SOL    HW211076   4.793   6.465   6.217
 3393SOL     OW11077   3.667   6.190   0.339
 3393SOL    HW111078   3.649   6.138   0.255
 3393SOL    HW211079   3.662   6.129   0.418
 3394SOL     OW11080   3.069   5.355   1.445
 3394SOL    HW111081   3.086   5.261   1.416
 3394SOL    HW211082   3.062   5.358   1.545
 3395SOL     OW11083   1.885   6.854   3.039
 3395SOL    HW111084   1.930   6.804   2.966
 3395SOL    HW211085   1.948   6.921   3.078
 3396SOL     OW11086   4.559   6.973   4.216
 3396SOL    HW111087   4.609   6.939   4.136
 3396SOL    HW211088   4.572   6.910   4.293
 3397SOL     OW11089   2.328   5.656   6.557
 3397SOL    HW111090   2.416   5.620   6.586
 3397SOL    HW211091   2.314   5.636   6.460
 3398SOL     OW11092   6.812   1.865   5.543
 3398SOL    HW111093   6.904   1.840   5.571
 3398SOL    HW211094   6.803   1.964   5.539
 3399SOL     OW11095   6.456   5.934   2.107
 3399SOL    HW111096   6.495   5.841   2.110
 3399SOL    HW211097   6.483   5.984   2.189
 3400SOL     OW11098   4.049   3.156   5.638
 3400SOL    HW111099   4.145   3.174   5.619
 3400SOL    HW211100   4.032   3.163   5.736
 3401SOL     OW11101   6.942   3.888   4.563
 3401SOL    HW111102   6.851   3.875   4.603
 3401SOL    HW211103   6.939   3.959   4.493
 3402SOL     OW11104   6.658   3.767   0.853
 3402SOL    HW111105   6.618   3.690   0.805
 3402SOL    HW211106   6.706   3.825   0.787
 3403SOL     OW11107   5.165   0.014   6.838
 3403SOL    HW111108   5.099   0.015   6.763
 3403SOL    HW211109   5.231   6.965   6.823
 3404SOL     OW11110   5.379   4.682   4.174
 3404SOL    HW111111   5.308   4.687   4.104
 3404SOL    HW211112   5.428   4.770   4.178
 3405SOL     OW11113   4.309   6.019   0.111
 3405SOL    HW111114   4.241   5.958   0.071
 3405SOL    HW211115   4.395   6.010   0.060
 3406SOL     OW11116   3.128   5.464   1.196
 3406SOL    HW111117   3.094   5.421   1.280
 3406SOL    HW211118   3.077   5.548   1.179
 3407SOL     OW11119   0.936   4.073   6.368
 3407SOL    HW111120   0.938   4.140   6.443
 3407SOL    HW211121   0.966   3.984   6.402
 3408SOL     OW11122   5.333   0.193   3.510
 3408SOL    HW111123   5.280   0.244   3.577
 3408SOL    HW211124   5.370   0.110   3.552
 3409SOL     OW11125   3.963   1.379   7.017
 3409SOL    HW111126   3.967   1.440   0.073
 3409SOL    HW211127   3.890   1.409   6.955
 3410SOL     OW11128   6.489   0.457   2.986
 3410SOL    HW111129   6.399   0.483   3.020
 3410SOL    HW211130   6.559   0.489   3.050
 3411SOL     OW11131   6.007   3.277   5.721
 3411SOL    HW111132   5.986   3.338   5.797
 3411SOL    HW211133   5.966   3.313   5.637
 3412SOL     OW11134   5.413   3.663   2.295
 3412SOL    HW111135   5.398   3.654   2.196
 3412SOL    HW211136   5.326   3.651   2.343
 3413SOL     OW11137   6.457   1.525   0.755
 3413SOL    HW111138   6.516   1.445   0.761
 3413SOL    HW211139   6.365   1.501   0.788
 3414SOL     OW11140   3.433   3.457   1.549
 3414SOL    HW111141   3.354   3.453   1.611
 3414SOL    HW211142   3.445   3.368   1.506
 3415SOL     OW11143   2.216   1.998   5.666
 3415SOL    HW111144   2.151   1.929   5.633
 3415SOL    HW211145   2.306   1.956   5.677
 3416SOL     OW11146   6.421   6.614   0.189
 3416SOL    HW111147   6.332   6.643   0.154
 3416SOL    HW211148   6.410   6.577   0.282
 3417SOL     OW11149   6.521   0.015   3.091
 3417SOL    HW111150   6.543   0.095   3.148
 3417SOL    HW211151   6.552   0.031   2.998
 3418SOL     OW11152   4.308   5.653   7.014
 3418SOL    HW111153   4.242   5.599   6.962
 3418SOL    HW211154   4.393   5.662   6.962
 3419SOL     OW11155   2.356   4.856   5.179
 3419SOL    HW111156   2.327   4.840   5.085
 3419SOL    HW211157   2.412   4.939   5.183
 3420SOL     OW11158   4.429   1.450   2.174
 3420SOL    HW111159   4.395   1.390   2.102
 3420SOL    HW211160   4.502   1.509   2.138
 3421SOL     OW11161   0.124   1.644   5.131
 3421SOL    HW111162   0.190   1.669   5.061
 3421SOL    HW211163   0.058   1.578   5.094
 3422SOL     OW11164   2.935   6.919   0.936
 3422SOL    HW111165   2.880   6.951   1.013
 3422SOL    HW211166   2.929   6.984   0.861
 3423SOL     OW11167   2.334   4.660   5.351
 3423SOL    HW111168   2.352   4.730   5.281
 3423SOL    HW211169   2.362   4.571   5.317
 3424SOL     OW11170   5.405   0.884   2.185
 3424SOL    HW111171   5.444   0.886   2.093
 3424SOL    HW211172   5.343   0.962   2.196
 3425SOL     OW11173   6.549   3.792   6.041
 3425SOL    HW111174   6.596   3.836   6.118
 3425SOL    HW211175   6.607   3.794   5.960
 3426SOL     OW11176   6.381   4.197   0.360
 3426SOL    HW111177   6.316   4.132   0.322
 3426SOL    HW211178   6.446   4.149   0.419
 3427SOL     OW11179   1.304   2.309   0.265
 3427SOL    HW111180   1.239   2.234   0.275
 3427SOL    HW211181   1.394   2.271   0.244
 3428SOL     OW11182   4.763   6.947   4.837
 3428SOL    HW111183   4.669   6.929   4.809
 3428SOL    HW211184   4.826   6.899   4.776
 3429SOL     OW11185   4.365   6.607   0.874
 3429SOL    HW111186   4.420   6.663   0.936
 3429SOL    HW211187   4.361   6.514   0.909
 3430SOL     OW11188   2.970   4.031   6.419
 3430SOL    HW111189   2.942   4.091   6.493
 3430SOL    HW211190   2.890   3.985   6.381
 3431SOL     OW11191   0.703   4.280   2.599
 3431SOL    HW111192   0.722   4.191   2.641
 3431SOL    HW211193   0.607   4.285   2.572
 3432SOL     OW11194   0.675   4.652   0.218
 3432SOL    HW111195   0.747   4.582   0.213
 3432SOL    HW211196   0.684   4.702   0.304
 3433SOL     OW11197   2.219   0.831   0.081
 3433SOL    HW111198   2.165   0.860   0.160
 3433SOL    HW211199   2.284   0.904   0.057
 3434SOL     OW11200   3.608   2.636   1.779
 3434SOL    HW111201   3.535   2.636   1.711
 3434SOL    HW211202   3.625   2.542   1.809
 3435SOL     OW11203   1.540   2.221   1.271
 3435SOL    HW111204   1.610   2.167   1.317
 3435SOL    HW211205   1.521   2.304   1.323
 3436SOL     OW11206   4.145   6.766   6.378
 3436SOL    HW111207   4.152   6.860   6.344
 3436SOL    HW211208   4.071   6.760   6.445
 3437SOL     OW11209   1.393   0.101   0.142
 3437SOL    HW111210   1.424   0.062   0.055
 3437SOL    HW211211   1.338   0.183   0.125
 3438SOL     OW11212   2.416   3.905   0.806
 3438SOL    HW111213   2.349   3.894   0.732
 3438SOL    HW211214   2.467   3.990   0.791
 3439SOL     OW11215   2.934   5.745   0.610
 3439SOL    HW111216   2.868   5.672   0.594
 3439SOL    HW211217   2.939   5.804   0.529
 3440SOL     OW11218   3.506   3.701   5.556
 3440SOL    HW111219   3.589   3.749   5.584
 3440SOL    HW211220   3.531   3.615   5.511
 3441SOL     OW11221   6.327   4.776   5.258
 3441SOL    HW111222   6.296   4.685   5.286
 3441SOL    HW211223   6.296   4.844   5.324
 3442SOL     OW11224   1.675   2.831   1.201
 3442SOL    HW111225   1.771   2.804   1.201
 3442SOL    HW211226   1.667   2.927   1.230
 3443SOL     OW11227   0.329   6.304   1.875
 3443SOL    HW111228   0.419   6.337   1.906
 3443SOL    HW211229   0.331   6.204   1.867
 3444SOL     OW11230   6.831   3.969   5.338
 3444SOL    HW111231   6.902   3.949   5.405
 3444SOL    HW211232   6.742   3.946   5.376
 3445SOL     OW11233   6.283   4.928   4.538
 3445SOL    HW111234   6.371   4.888   4.562
 3445SOL    HW211235   6.291   4.976   4.451
 3446SOL     OW11236   4.745   1.179   0.847
 3446SOL    HW111237   4.692   1.238   0.786
 3446SOL    HW211238   4.772   1.096   0.799
 3447SOL     OW11239   5.812   0.998   6.332
 3447SOL    HW111240   5.731   1.008   6.274
 3447SOL    HW211241   5.889   0.965   6.277
 3448SOL     OW11242   1.209   4.586   4.904
 3448SOL    HW111243   1.125   4.594   4.851
 3448SOL    HW211244   1.223   4.490   4.929
 3449SOL     OW11245   0.639   4.375   4.947
 3449SOL    HW111246   0.628   4.455   4.888
 3449SOL    HW211247   0.707   4.395   5.018
 3450SOL     OW11248   2.396   0.242   1.958
 3450SOL    HW111249   2.482   0.287   1.984
 3450SOL    HW211250   2.394   0.150   1.996
 3451SOL     OW11251   1.713   2.236   0.761
 3451SOL    HW111252   1.644   2.213   0.830
 3451SOL    HW211253   1.668   2.262   0.676
 3452SOL     OW11254   4.200   1.320   5.328
 3452SOL    HW111255   4.139   1.359   5.258
 3452SOL    HW211256   4.172   1.353   5.418
 3453SOL     OW11257   4.537   6.532   6.764
 3453SOL    HW111258   4.569   6.622   6.794
 3453SOL    HW211259   4.448   6.513   6.806
 3454SOL     OW11260   0.276   3.246   1.734
 3454SOL    HW111261   0.204   3.307   1.700
 3454SOL    HW211262   0.364   3.272   1.694
 3455SOL     OW11263   0.686   3.761   6.166
 3455SOL    HW111264   0.627   3.698   6.116
 3455SOL    HW211265   0.650   3.854   6.155
 3456SOL     OW11266   5.028   5.745   3.688
 3456SOL    HW111267   4.954   5.737   3.755
 3456SOL    HW211268   5.042   5.842   3.667
 3457SOL     OW11269   3.669   4.459   6.793
 3457SOL    HW111270   3.637   4.488   6.883
 3457SOL    HW211271   3.663   4.537   6.730
 3458SOL     OW11272   4.226   1.613   2.307
 3458SOL    HW111273   4.244   1.551   2.231
 3458SOL    HW211274   4.183   1.697   2.273
 3459SOL     OW11275   5.521   5.800   2.322
 3459SOL    HW111276   5.503   5.893   2.354
 3459SOL    HW211277   5.452   5.773   2.255
 3460SOL     OW11278   3.699   1.976   4.686
 3460SOL    HW111279   3.629   1.998   4.755
 3460SOL    HW211280   3.788   2.010   4.717
 3461SOL     OW11281   4.805   4.972   4.726
 3461SOL    HW111282   4.790   4.889   4.779
 3461SOL    HW211283   4.774   4.958   4.632
 3462SOL     OW11284   1.183   3.771   6.067
 3462SOL    HW111285   1.190   3.761   5.968
 3462SOL    HW211286   1.201   3.866   6.093
 3463SOL     OW11287   5.593   4.038   0.321
 3463SOL    HW111288   5.508   4.090   0.314
 3463SOL    HW211289   5.590   3.980   0.403
 3464SOL     OW11290   0.238   4.415   4.043
 3464SOL    HW111291   0.238   4.515   4.047
 3464SOL    HW211292   0.284   4.385   3.959
 3465SOL     OW11293   0.569   2.179   2.364
 3465SOL    HW111294   0.650   2.126   2.387
 3465SOL    HW211295   0.487   2.129   2.393
 3466SOL     OW11296   0.246   3.389   4.704
 3466SOL    HW111297   0.173   3.458   4.702
 3466SOL    HW211298   0.205   3.298   4.702
 3467SOL     OW11299   2.014   2.015   5.337
 3467SOL    HW111300   2.025   2.115   5.343
 3467SOL    HW211301   2.046   1.974   5.422
 3468SOL     OW11302   3.929   6.184   2.130
 3468SOL    HW111303   3.866   6.175   2.207
 3468SOL    HW211304   3.887   6.146   2.048
 3469SOL     OW11305   5.474   3.638   1.240
 3469SOL    HW111306   5.558   3.682   1.208
 3469SOL    HW211307   5.412   3.707   1.277
 3470SOL     OW11308   0.321   5.431   1.179
 3470SOL    HW111309   0.386   5.507   1.186
 3470SOL    HW211310   0.313   5.402   1.084
 3471SOL     OW11311   4.215   0.055   4.486
 3471SOL    HW111312   4.223   6.994   4.433
 3471SOL    HW211313   4.301   0.105   4.484
 3472SOL     OW11314   4.229   1.153   4.959
 3472SOL    HW111315   4.133   1.145   4.987
 3472SOL    HW211316   4.269   1.062   4.951
 3473SOL     OW11317   4.098   6.709   4.060
 3473SOL    HW111318   4.023   6.644   4.072
 3473SOL    HW211319   4.066   6.802   4.077
 3474SOL     OW11320   4.955   4.276   1.284
 3474SOL    HW111321   4.931   4.222   1.202
 3474SOL    HW211322   5.015   4.222   1.342
 3475SOL     OW11323   1.661   6.158   4.773
 3475SOL    HW111324   1.648   6.210   4.688
 3475SOL    HW211325   1.747   6.107   4.769
 3476SOL     OW11326   4.404   1.831   5.116
 3476SOL    HW111327   4.437   1.919   5.083
 3476SOL    HW211328   4.451   1.757   5.068
 3477SOL     OW11329   4.184   5.490   1.523
 3477SOL    HW111330   4.249   5.455   1.591
 3477SOL    HW211331   4.206   5.585   1.501
 3478SOL     OW11332   4.300   4.514   0.197
 3478SOL    HW111333   4.254   4.501   0.109
 3478SOL    HW211334   4.390   4.472   0.193
 3479SOL     OW11335   1.627   0.008   1.503
 3479SOL    HW111336   1.595   6.941   1.529
 3479SOL    HW211337   1.568   0.046   1.432
 3480SOL     OW11338   1.117   7.013   3.987
 3480SOL    HW111339   1.106   6.918   4.017
 3480SOL    HW211340   1.080   0.001   3.895
 3481SOL     OW11341   1.818   6.316   0.351
 3481SOL    HW111342   1.907   6.353   0.323
 3481SOL    HW211343   1.756   6.316   0.273
 3482SOL     OW11344   0.871   2.313   2.074
 3482SOL    HW111345   0.785   2.354   2.043
 3482SOL    HW211346   0.860   2.214   2.081
 3483SOL     OW11347   3.909   1.877   0.604
 3483SOL    HW111348   3.967   1.871   0.523
 3483SOL    HW211349   3.965   1.898   0.684
 3484SOL     OW11350   3.895   2.997   4.054
 3484SOL    HW111351   3.930   2.922   3.997
 3484SOL    HW211352   3.971   3.045   4.096
 3485SOL     OW11353   6.345   1.811   5.025
 3485SOL    HW111354   6.432   1.777   5.059
 3485SOL    HW211355   6.277   1.737   5.029
 3486SOL     OW11356   5.148   0.959   2.490
 3486SOL    HW111357   5.245   0.959   2.513
 3486SOL    HW211358   5.097   1.003   2.564
 3487SOL     OW11359   0.614   0.941   0.574
 3487SOL    HW111360   0.549   0.939   0.498
 3487SOL    HW211361   0.679   1.016   0.560
 3488SOL     OW11362   6.344   3.423   4.199
 3488SOL    HW111363   6.434   3.393   4.232
 3488SOL    HW211364   6.278   3.349   4.210
 3489SOL     OW11365   2.073   5.336   0.681
 3489SOL    HW111366   1.986   5.375   0.712
 3489SOL    HW211367   2.138   5.409   0.664
 3490SOL     OW11368   4.789   2.946   0.978
 3490SOL    HW111369   4.828   3.038   0.985
 3490SOL    HW211370   4.689   2.953   0.971
 3491SOL     OW11371   0.457   2.985   5.893
 3491SOL    HW111372   0.416   3.069   5.858
 3491SOL    HW211373   0.545   2.968   5.848
 3492SOL     OW11374   5.740   4.491   0.168
 3492SOL    HW111375   5.700   4.554   0.234
 3492SOL    HW211376   5.756   4.402   0.211
 3493SOL     OW11377   7.015   4.879   1.821
 3493SOL    HW111378   6.974   4.889   1.912
 3493SOL    HW211379   6.969   4.941   1.757
 3494SOL     OW11380   2.797   6.930   1.183
 3494SOL    HW111381   2.777   6.839   1.220
 3494SOL    HW211382   2.724   6.993   1.208
 3495SOL     OW11383   6.062   4.352   0.423
 3495SOL    HW111384   6.137   4.375   0.362
 3495SOL    HW211385   5.982   4.325   0.369
 3496SOL     OW11386   0.880   4.649   0.652
 3496SOL    HW111387   0.868   4.698   0.739
 3496SOL    HW211388   0.949   4.577   0.664
 3497SOL     OW11389   4.473   6.450   4.371
 3497SOL    HW111390   4.458   6.352   4.363
 3497SOL    HW211391   4.423   6.498   4.298
 3498SOL     OW11392   1.298   1.498   0.945
 3498SOL    HW111393   1.349   1.424   0.903
 3498SOL    HW211394   1.341   1.585   0.922
 3499SOL     OW11395   0.141   3.757   4.507
 3499SOL    HW111396   0.057   3.807   4.528
 3499SOL    HW211397   0.192   3.806   4.436
 3500SOL     OW11398   6.585   3.516   0.734
 3500SOL    HW111399   6.511   3.450   0.726
 3500SOL    HW211400   6.644   3.491   0.811
 3501SOL     OW11401   1.112   4.090   3.410
 3501SOL    HW111402   1.154   4.164   3.462
 3501SOL    HW211403   1.159   4.081   3.322
 3502SOL     OW11404   1.079   4.953   1.790
 3502SOL    HW111405   1.018   4.901   1.731
 3502SOL    HW211406   1.159   4.981   1.737
 3503SOL     OW11407   3.439   6.676   3.535
 3503SOL    HW111408   3.404   6.757   3.582
 3503SOL    HW211409   3.529   6.696   3.496
 3504SOL     OW11410   2.188   2.914   2.843
 3504SOL    HW111411   2.112   2.850   2.854
 3504SOL    HW211412   2.162   2.985   2.777
 3505SOL     OW11413   4.361   6.339   4.809
 3505SOL    HW111414   4.349   6.396   4.729
 3505SOL    HW211415   4.437   6.276   4.795
 3506SOL     OW11416   5.625   5.118   2.278
 3506SOL    HW111417   5.540   5.111   2.330
 3506SOL    HW211418   5.623   5.055   2.201
 3507SOL     OW11419   0.684   0.778   6.354
 3507SOL    HW111420   0.780   0.752   6.352
 3507SOL    HW211421   0.639   0.745   6.271
 3508SOL     OW11422   6.006   3.991   7.011
 3508SOL    HW111423   6.026   3.893   7.014
 3508SOL    HW211424   6.090   4.042   6.995
 3509SOL     OW11425   5.857   0.540   0.456
 3509SOL    HW111426   5.937   0.481   0.452
 3509SOL    HW211427   5.778   0.487   0.487
 3510SOL     OW11428   2.246   2.511   2.464
 3510SOL    HW111429   2.279   2.421   2.490
 3510SOL    HW211430   2.277   2.579   2.530
 3511SOL     OW11431   0.687   0.801   5.311
 3511SOL    HW111432   0.755   0.807   5.239
 3511SOL    HW211433   0.688   0.710   5.352
 3512SOL     OW11434   2.988   2.667   0.884
 3512SOL    HW111435   2.929   2.588   0.869
 3512SOL    HW211436   2.933   2.743   0.919
 3513SOL     OW11437   5.068   4.539   1.132
 3513SOL    HW111438   4.998   4.610   1.128
 3513SOL    HW211439   5.075   4.493   1.044
 3514SOL     OW11440   1.732   6.988   1.853
 3514SOL    HW111441   1.808   6.923   1.862
 3514SOL    HW211442   1.751   0.026   1.777
 3515SOL     OW11443   3.703   6.340   3.542
 3515SOL    HW111444   3.664   6.375   3.456
 3515SOL    HW211445   3.774   6.273   3.521
 3516SOL     OW11446   2.214   1.319   0.392
 3516SOL    HW111447   2.311   1.340   0.400
 3516SOL    HW211448   2.160   1.391   0.436
 3517SOL     OW11449   0.811   0.510   6.222
 3517SOL    HW111450   0.841   0.420   6.190
 3517SOL    HW211451   0.891   0.570   6.231
 3518SOL     OW11452   4.358   3.557   5.812
 3518SOL    HW111453   4.272   3.541   5.862
 3518SOL    HW211454   4.410   3.628   5.859
 3519SOL     OW11455   3.474   6.558   0.423
 3519SOL    HW111456   3.474   6.514   0.333
 3519SOL    HW211457   3.558   6.535   0.471
 3520SOL     OW11458   4.002   4.832   0.969
 3520SOL    HW111459   3.927   4.898   0.964
 3520SOL    HW211460   3.975   4.754   1.025
 3521SOL     OW11461   5.636   2.434   6.107
 3521SOL    HW111462   5.549   2.400   6.072
 3521SOL    HW211463   5.696   2.457   6.030
 3522SOL     OW11464   2.666   0.186   1.139
 3522SOL    HW111465   2.758   0.196   1.177
 3522SOL    HW211466   2.672   0.143   1.049
 3523SOL     OW11467   2.569   4.584   5.128
 3523SOL    HW111468   2.558   4.564   5.031
 3523SOL    HW211469   2.667   4.586   5.151
 3524SOL     OW11470   1.936   0.351   1.734
 3524SOL    HW111471   2.002   0.315   1.800
 3524SOL    HW211472   1.853   0.295   1.737
 3525SOL     OW11473   1.458   3.595   2.838
 3525SOL    HW111474   1.510   3.600   2.753
 3525SOL    HW211475   1.507   3.645   2.910
 3526SOL     OW11476   3.810   0.233   3.388
 3526SOL    HW111477   3.748   0.259   3.463
 3526SOL    HW211478   3.882   0.302   3.379
 3527SOL     OW11479   5.412   2.821   6.261
 3527SOL    HW111480   5.338   2.840   6.197
 3527SOL    HW211481   5.497   2.862   6.227
 3528SOL     OW11482   1.081   6.992   4.561
 3528SOL    HW111483   1.160   6.931   4.567
 3528SOL    HW211484   1.061   7.011   4.465
 3529SOL     OW11485   3.978   6.236   0.236
 3529SOL    HW111486   4.016   6.323   0.204
 3529SOL    HW211487   3.971   6.238   0.336
 3530SOL     OW11488   1.485   6.444   2.832
 3530SOL    HW111489   1.417   6.384   2.874
 3530SOL    HW211490   1.539   6.488   2.903
 3531SOL     OW11491   4.702   4.641   6.636
 3531SOL    HW111492   4.793   4.637   6.595
 3531SOL    HW211493   4.672   4.736   6.642
 3532SOL     OW11494   1.731   6.451   0.590
 3532SOL    HW111495   1.773   6.439   0.680
 3532SOL    HW211496   1.750   6.371   0.533
 3533SOL     OW11497   1.303   1.458   3.630
 3533SOL    HW111498   1.249   1.416   3.558
 3533SOL    HW211499   1.257   1.541   3.663
 3534SOL     OW11500   5.112   0.675   5.212
 3534SOL    HW111501   5.081   0.762   5.250
 3534SOL    HW211502   5.187   0.692   5.148
 3535SOL     OW11503   4.739   6.223   6.987
 3535SOL    HW111504   4.708   6.200   6.895
 3535SOL    HW211505   4.818   6.166   7.011
 3536SOL     OW11506   0.812   4.062   2.782
 3536SOL    HW111507   0.731   4.007   2.800
 3536SOL    HW211508   0.878   4.049   2.856
 3537SOL     OW11509   2.558   4.222   1.222
 3537SOL    HW111510   2.494   4.294   1.247
 3537SOL    HW211511   2.636   4.223   1.285
 3538SOL     OW11512   4.153   1.022   3.601
 3538SOL    HW111513   4.219   0.969   3.548
 3538SOL    HW211514   4.196   1.050   3.687
 3539SOL     OW11515   5.312   5.887   6.559
 3539SOL    HW111516   5.316   5.787   6.556
 3539SOL    HW211517   5.402   5.923   6.586
 3540SOL     OW11518   2.510   4.500   6.183
 3540SOL    HW111519   2.454   4.423   6.156
 3540SOL    HW211520   2.491   4.578   6.124
 3541SOL     OW11521   1.423   2.580   1.895
 3541SOL    HW111522   1.426   2.496   1.841
 3541SOL    HW211523   1.462   2.562   1.985
 3542SOL     OW11524   6.342   1.815   6.981
 3542SOL    HW111525   6.372   1.911   6.975
 3542SOL    HW211526   6.264   1.801   6.920
 3543SOL     OW11527   0.538   2.025   3.849
 3543SOL    HW111528   0.590   2.055   3.929
 3543SOL    HW211529   0.566   2.079   3.769
 3544SOL     OW11530   3.095   3.779   0.096
 3544SOL    HW111531   3.164   3.714   0.065
 3544SOL    HW211532   3.110   3.868   0.054
 3545SOL     OW11533   3.798   0.121   0.312
 3545SOL    HW111534   3.808   0.023   0.292
 3545SOL    HW211535   3.709   0.137   0.355
 3546SOL     OW11536   6.801   4.253   2.080
 3546SOL    HW111537   6.823   4.301   1.995
 3546SOL    HW211538   6.759   4.317   2.145
 3547SOL     OW11539   1.154   3.937   4.745
 3547SOL    HW111540   1.240   3.925   4.695
 3547SOL    HW211541   1.086   3.979   4.685
 3548SOL     OW11542   6.056   0.101   6.062
 3548SOL    HW111543   5.959   0.089   6.080
 3548SOL    HW211544   6.085   0.190   6.096
 3549SOL     OW11545   2.619   6.659   6.794
 3549SOL    HW111546   2.565   6.721   6.850
 3549SOL    HW211547   2.616   6.567   6.833
 3550SOL     OW11548   5.544   1.011   5.291
 3550SOL    HW111549   5.548   0.934   5.355
 3550SOL    HW211550   5.581   1.093   5.335
 3551SOL     OW11551   5.105   1.918   4.639
 3551SOL    HW111552   5.108   1.872   4.550
 3551SOL    HW211553   5.174   1.879   4.699
 3552SOL     OW11554   6.250   0.030   3.566
 3552SOL    HW111555   6.227   0.041   3.469
 3552SOL    HW211556   6.323   0.094   3.590
 3553SOL     OW11557   6.251   6.040   6.887
 3553SOL    HW111558   6.185   6.115   6.881
 3553SOL    HW211559   6.344   6.077   6.889
 3554SOL     OW11560   4.981   4.613   6.995
 3554SOL    HW111561   4.935   4.648   0.054
 3554SOL    HW211562   4.994   4.689   6.931
 3555SOL     OW11563   2.806   1.958   5.148
 3555SOL    HW111564   2.828   2.048   5.112
 3555SOL    HW211565   2.880   1.926   5.207
 3556SOL     OW11566   5.719   1.348   0.722
 3556SOL    HW111567   5.734   1.443   0.694
 3556SOL    HW211568   5.806   1.309   0.754
 3557SOL     OW11569   5.477   6.872   1.415
 3557SOL    HW111570   5.559   6.922   1.389
 3557SOL    HW211571   5.398   6.933   1.412
 3558SOL     OW11572   3.578   5.431   2.478
 3558SOL    HW111573   3.509   5.362   2.452
 3558SOL    HW211574   3.552   5.519   2.439
 3559SOL     OW11575   4.581   6.571   6.511
 3559SOL    HW111576   4.571   6.537   6.604
 3559SOL    HW211577   4.655   6.521   6.466
 3560SOL     OW11578   0.957   5.374   4.121
 3560SOL    HW111579   0.954   5.473   4.135
 3560SOL    HW211580   0.945   5.328   4.209
 3561SOL     OW11581   4.492   3.461   5.378
 3561SOL    HW111582   4.434   3.383   5.353
 3561SOL    HW211583   4.519   3.510   5.295
 3562SOL     OW11584   3.206   1.905   0.532
 3562SOL    HW111585   3.185   1.824   0.478
 3562SOL    HW211586   3.162   1.985   0.492
 3563SOL     OW11587   6.551   2.322   6.198
 3563SOL    HW111588   6.558   2.355   6.292
 3563SOL    HW211589   6.588   2.390   6.136
 3564SOL     OW11590   6.431   3.768   2.392
 3564SOL    HW111591   6.398   3.675   2.411
 3564SOL    HW211592   6.388   3.803   2.309
 3565SOL     OW11593   4.685   5.907   5.874
 3565SOL    HW111594   4.689   6.002   5.842
 3565SOL    HW211595   4.617   5.899   5.946
 3566SOL     OW11596   1.204   0.834   4.793
 3566SOL    HW111597   1.162   0.892   4.863
 3566SOL    HW211598   1.302   0.829   4.808
 3567SOL     OW11599   6.885   3.585   6.526
 3567SOL    HW111600   6.911   3.646   6.601
 3567SOL    HW211601   6.788   3.564   6.533
 3568SOL     OW11602   6.027   3.469   6.428
 3568SOL    HW111603   5.928   3.454   6.427
 3568SOL    HW211604   6.054   3.515   6.512
 3569SOL     OW11605   1.494   0.308   3.745
 3569SOL    HW111606   1.567   0.330   3.681
 3569SOL    HW211607   1.454   0.393   3.780
 3570SOL     OW11608   5.490   1.393   4.456
 3570SOL    HW111609   5.521   1.375   4.550
 3570SOL    HW211610   5.547   1.342   4.392
 3571SOL     OW11611   6.878   6.772   5.218
 3571SOL    HW111612   6.856   6.764   5.315
 3571SOL    HW211613   6.794   6.772   5.165
 3572SOL     OW11614   6.432   6.392   5.759
 3572SOL    HW111615   6.360   6.417   5.824
 3572SOL    HW211616   6.435   6.293   5.749
 3573SOL     OW11617   0.395   1.895   2.194
 3573SOL    HW111618   0.420   1.907   2.290
 3573SOL    HW211619   0.389   1.984   2.149
 3574SOL     OW11620   6.142   4.063   0.271
 3574SOL    HW111621   6.128   4.040   0.368
 3574SOL    HW211622   6.120   3.983   0.215
 3575SOL     OW11623   6.556   5.796   1.702
 3575SOL    HW111624   6.471   5.748   1.721
 3575SOL    HW211625   6.558   5.824   1.606
 3576SOL     OW11626   0.530   1.404   6.865
 3576SOL    HW111627   0.612   1.357   6.832
 3576SOL    HW211628   0.464   1.411   6.790
 3577SOL     OW11629   2.305   3.505   6.706
 3577SOL    HW111630   2.293   3.419   6.656
 3577SOL    HW211631   2.231   3.568   6.683
 3578SOL     OW11632   3.527   4.544   1.678
 3578SOL    HW111633   3.562   4.600   1.753
 3578SOL    HW211634   3.430   4.526   1.693
 3579SOL     OW11635   1.499   4.197   5.213
 3579SOL    HW111636   1.420   4.176   5.155
 3579SOL    HW211637   1.583   4.168   5.167
 3580SOL     OW11638   6.959   2.960   1.301
 3580SOL    HW111639   6.932   2.910   1.383
 3580SOL    HW211640   0.022   3.006   1.317
 3581SOL     OW11641   5.674   1.473   3.140
 3581SOL    HW111642   5.770   1.471   3.113
 3581SOL    HW211643   5.636   1.564   3.120
 3582SOL     OW11644   0.311   0.349   5.240
 3582SOL    HW111645   0.276   0.398   5.319
 3582SOL    HW211646   0.341   0.257   5.268
 3583SOL     OW11647   2.154   5.343   1.241
 3583SOL    HW111648   2.246   5.365   1.207
 3583SOL    HW211649   2.099   5.306   1.167
 3584SOL     OW11650   5.774   6.851   5.763
 3584SOL    HW111651   5.685   6.864   5.719
 3584SOL    HW211652   5.846   6.876   5.699
 3585SOL     OW11653   2.587   4.877   3.953
 3585SOL    HW111654   2.572   4.957   3.895
 3585SOL    HW211655   2.529   4.883   4.034
 3586SOL     OW11656   0.716   1.422   5.956
 3586SOL    HW111657   0.778   1.415   5.878
 3586SOL    HW211658   0.648   1.494   5.939
 3587SOL     OW11659   3.916   0.050   6.644
 3587SOL    HW111660   3.964   0.110   6.709
 3587SOL    HW211661   3.901   0.099   6.559
 3588SOL     OW11662   1.849   1.084   5.132
 3588SOL    HW111663   1.913   1.155   5.160
 3588SOL    HW211664   1.808   1.109   5.044
 3589SOL     OW11665   3.457   0.377   4.819
 3589SOL    HW111666   3.364   0.348   4.838
 3589SOL    HW211667   3.474   0.372   4.720
 3590SOL     OW11668   1.325   5.012   6.847
 3590SOL    HW111669   1.297   4.924   6.884
 3590SOL    HW211670   1.336   5.078   6.921
 3591SOL     OW11671   5.300   2.190   5.782
 3591SOL    HW111672   5.216   2.242   5.765
 3591SOL    HW211673   5.320   2.193   5.880
 3592SOL     OW11674   5.318   2.356   1.870
 3592SOL    HW111675   5.318   2.280   1.805
 3592SOL    HW211676   5.232   2.357   1.920
 3593SOL     OW11677   0.556   4.727   3.994
 3593SOL    HW111678   0.655   4.742   3.996
 3593SOL    HW211679   0.535   4.656   3.927
 3594SOL     OW11680   4.030   1.331   4.734
 3594SOL    HW111681   3.975   1.345   4.817
 3594SOL    HW211682   4.122   1.301   4.760
 3595SOL     OW11683   1.969   6.021   6.139
 3595SOL    HW111684   1.953   6.097   6.201
 3595SOL    HW211685   2.047   5.968   6.171
 3596SOL     OW11686   0.459   3.732   3.426
 3596SOL    HW111687   0.538   3.759   3.481
 3596SOL    HW211688   0.491   3.687   3.342
 3597SOL     OW11689   3.466   6.210   3.541
 3597SOL    HW111690   3.548   6.264   3.522
 3597SOL    HW211691   3.492   6.116   3.563
 3598SOL     OW11692   1.694   0.124   0.622
 3598SOL    HW111693   1.658   0.197   0.564
 3598SOL    HW211694   1.652   0.037   0.595
 3599SOL     OW11695   6.827   1.519   3.889
 3599SOL    HW111696   6.846   1.445   3.954
 3599SOL    HW211697   6.889   1.595   3.906
 3600SOL     OW11698   6.465   0.808   1.421
 3600SOL    HW111699   6.514   0.855   1.346
 3600SOL    HW211700   6.410   0.734   1.383
 3601SOL     OW11701   5.914   3.388   5.496
 3601SOL    HW111702   5.946   3.468   5.446
 3601SOL    HW211703   5.830   3.354   5.453
 3602SOL     OW11704   2.484   1.929   0.557
 3602SOL    HW111705   2.557   1.944   0.490
 3602SOL    HW211706   2.466   1.831   0.566
 3603SOL     OW11707   4.703   4.660   4.569
 3603SOL    HW111708   4.683   4.671   4.667
 3603SOL    HW211709   4.652   4.582   4.533
 3604SOL     OW11710   0.180   3.568   3.768
 3604SOL    HW111711   0.155   3.632   3.695
 3604SOL    HW211712   0.252   3.608   3.825
 3605SOL     OW11713   6.483   3.050   6.531
 3605SOL    HW111714   6.532   2.979   6.581
 3605SOL    HW211715   6.543   3.092   6.464
 3606SOL     OW11716   1.927   4.169   4.088
 3606SOL    HW111717   1.973   4.151   4.001
 3606SOL    HW211718   1.906   4.082   4.133
 3607SOL     OW11719   4.283   6.827   6.994
 3607SOL    HW111720   4.212   6.895   7.012
 3607SOL    HW211721   4.263   6.780   6.908
 3608SOL     OW11722   0.388   2.636   2.657
 3608SOL    HW111723   0.303   2.623   2.605
 3608SOL    HW211724   0.466   2.625   2.595
 3609SOL     OW11725   6.635   6.720   5.357
 3609SOL    HW111726   6.615   6.747   5.263
 3609SOL    HW211727   6.583   6.638   5.380
 3610SOL     OW11728   1.882   5.909   5.358
 3610SOL    HW111729   1.896   5.958   5.272
 3610SOL    HW211730   1.819   5.833   5.343
 3611SOL     OW11731   4.093   5.293   5.329
 3611SOL    HW111732   4.021   5.247   5.276
 3611SOL    HW211733   4.076   5.391   5.331
 3612SOL     OW11734   1.791   6.655   1.130
 3612SOL    HW111735   1.838   6.680   1.214
 3612SOL    HW211736   1.816   6.719   1.057
 3613SOL     OW11737   5.315   5.216   6.467
 3613SOL    HW111738   5.217   5.217   6.445
 3613SOL    HW211739   5.327   5.222   6.566
 3614SOL     OW11740   4.056   3.533   4.100
 3614SOL    HW111741   4.064   3.579   4.012
 3614SOL    HW211742   4.049   3.434   4.086
 3615SOL     OW11743   6.565   6.139   6.448
 3615SOL    HW111744   6.596   6.225   6.407
 3615SOL    HW211745   6.568   6.066   6.379
 3616SOL     OW11746   6.355   0.369   5.275
 3616SOL    HW111747   6.424   0.313   5.321
 3616SOL    HW211748   6.302   0.313   5.212
 3617SOL     OW11749   6.756   0.551   0.154
 3617SOL    HW111750   6.753   0.621   0.082
 3617SOL    HW211751   6.663   0.524   0.179
 3618SOL     OW11752   3.037   0.428   5.731
 3618SOL    HW111753   3.126   0.473   5.729
 3618SOL    HW211754   2.989   0.452   5.815
 3619SOL     OW11755   5.166   3.293   4.176
 3619SOL    HW111756   5.186   3.390   4.159
 3619SOL    HW211757   5.068   3.282   4.195
 3620SOL     OW11758   6.399   0.859   5.221
 3620SOL    HW111759   6.416   0.944   5.171
 3620SOL    HW211760   6.462   0.789   5.188
 3621SOL     OW11761   1.568   3.037   5.919
 3621SOL    HW111762   1.645   3.047   5.982
 3621SOL    HW211763   1.535   3.128   5.892
 3622SOL     OW11764   0.528   2.791   0.919
 3622SOL    HW111765   0.480   2.846   0.987
 3622SOL    HW211766   0.465   2.764   0.846
 3623SOL     OW11767   6.856   5.558   4.119
 3623SOL    HW111768   6.774   5.534   4.170
 3623SOL    HW211769   6.838   5.552   4.021
 3624SOL     OW11770   2.024   1.189   1.626
 3624SOL    HW111771   1.986   1.181   1.534
 3624SOL    HW211772   1.978   1.263   1.675
 3625SOL     OW11773   0.483   3.193   4.256
 3625SOL    HW111774   0.426   3.252   4.313
 3625SOL    HW211775   0.571   3.236   4.240
 3626SOL     OW11776   2.513   3.612   5.453
 3626SOL    HW111777   2.537   3.705   5.424
 3626SOL    HW211778   2.428   3.584   5.408
 3627SOL     OW11779   3.015   3.643   3.759
 3627SOL    HW111780   2.986   3.664   3.852
 3627SOL    HW211781   3.110   3.610   3.761
 3628SOL     OW11782   3.209   5.226   2.731
 3628SOL    HW111783   3.243   5.173   2.809
 3628SOL    HW211784   3.113   5.248   2.745
 3629SOL     OW11785   6.080   2.406   5.249
 3629SOL    HW111786   6.015   2.347   5.297
 3629SOL    HW211787   6.059   2.407   5.151
 3630SOL     OW11788   5.915   1.926   4.983
 3630SOL    HW111789   5.824   1.891   4.961
 3630SOL    HW211790   5.982   1.886   4.921
 3631SOL     OW11791   2.108   1.036   4.340
 3631SOL    HW111792   2.156   0.951   4.365
 3631SOL    HW211793   2.169   1.092   4.284
 3632SOL     OW11794   4.173   0.288   6.377
 3632SOL    HW111795   4.150   0.372   6.329
 3632SOL    HW211796   4.226   0.228   6.317
 3633SOL     OW11797   2.139   3.261   5.829
 3633SOL    HW111798   2.176   3.186   5.885
 3633SOL    HW211799   2.138   3.233   5.733
 3634SOL     OW11800   2.326   5.943   5.346
 3634SOL    HW111801   2.248   5.920   5.287
 3634SOL    HW211802   2.329   5.881   5.424
 3635SOL     OW11803   2.155   0.948   5.008
 3635SOL    HW111804   2.118   1.036   5.039
 3635SOL    HW211805   2.224   0.965   4.937
 3636SOL     OW11806   1.440   5.459   6.488
 3636SOL    HW111807   1.389   5.545   6.487
 3636SOL    HW211808   1.385   5.386   6.447
 3637SOL     OW11809   5.281   1.630   2.117
 3637SOL    HW111810   5.293   1.729   2.113
 3637SOL    HW211811   5.201   1.609   2.173
 3638SOL     OW11812   6.387   4.400   4.163
 3638SOL    HW111813   6.478   4.425   4.197
 3638SOL    HW211814   6.330   4.482   4.158
 3639SOL     OW11815   2.285   4.924   0.217
 3639SOL    HW111816   2.200   4.974   0.238
 3639SOL    HW211817   2.274   4.828   0.242
 3640SOL     OW11818   3.382   6.005   1.157
 3640SOL    HW111819   3.447   5.930   1.146
 3640SOL    HW211820   3.416   6.069   1.226
 3641SOL     OW11821   2.500   0.024   5.074
 3641SOL    HW111822   2.562   0.079   5.017
 3641SOL    HW211823   2.513   0.049   5.170
 3642SOL     OW11824   5.924   0.089   3.471
 3642SOL    HW111825   5.839   0.111   3.519
 3642SOL    HW211826   5.948   0.165   3.410
 3643SOL     OW11827   2.877   4.633   5.422
 3643SOL    HW111828   2.878   4.602   5.327
 3643SOL    HW211829   2.804   4.585   5.471
 3644SOL     OW11830   0.247   1.231   0.541
 3644SOL    HW111831   0.334   1.276   0.518
 3644SOL    HW211832   0.266   1.151   0.597
 3645SOL     OW11833   3.201   6.887   3.191
 3645SOL    HW111834   3.282   6.946   3.182
 3645SOL    HW211835   3.230   6.794   3.211
 3646SOL     OW11836   6.531   5.282   4.545
 3646SOL    HW111837   6.465   5.357   4.548
 3646SOL    HW211838   6.512   5.224   4.466
 3647SOL     OW11839   2.413   2.769   1.508
 3647SOL    HW111840   2.399   2.844   1.444
 3647SOL    HW211841   2.334   2.760   1.568
 3648SOL     OW11842   2.825   5.851   3.080
 3648SOL    HW111843   2.837   5.929   3.141
 3648SOL    HW211844   2.764   5.877   3.004
 3649SOL     OW11845   3.168   3.500   2.113
 3649SOL    HW111846   3.077   3.530   2.084
 3649SOL    HW211847   3.166   3.479   2.211
 3650SOL     OW11848   6.644   6.594   1.440
 3650SOL    HW111849   6.596   6.639   1.515
 3650SOL    HW211850   6.669   6.501   1.468
 3651SOL     OW11851   1.400   5.655   2.496
 3651SOL    HW111852   1.475   5.717   2.473
 3651SOL    HW211853   1.366   5.612   2.412
 3652SOL     OW11854   4.240   5.276   3.236
 3652SOL    HW111855   4.239   5.354   3.173
 3652SOL    HW211856   4.189   5.300   3.319
 3653SOL     OW11857   0.331   2.819   4.143
 3653SOL    HW111858   0.343   2.772   4.056
 3653SOL    HW211859   0.236   2.849   4.152
 3654SOL     OW11860   1.485   6.138   1.182
 3654SOL    HW111861   1.449   6.145   1.089
 3654SOL    HW211862   1.585   6.134   1.179
 3655SOL     OW11863   1.734   0.635   4.204
 3655SOL    HW111864   1.761   0.587   4.120
 3655SOL    HW211865   1.802   0.617   4.275
 3656SOL     OW11866   2.379   2.156   2.202
 3656SOL    HW111867   2.423   2.243   2.225
 3656SOL    HW211868   2.322   2.168   2.121
 3657SOL     OW11869   3.796   5.565   1.206
 3657SOL    HW111870   3.719   5.501   1.198
 3657SOL    HW211871   3.882   5.515   1.198
 3658SOL     OW11872   1.282   5.359   6.169
 3658SOL    HW111873   1.199   5.415   6.167
 3658SOL    HW211874   1.257   5.264   6.191
 3659SOL     OW11875   1.240   4.498   6.717
 3659SOL    HW111876   1.185   4.463   6.793
 3659SOL    HW211877   1.218   4.594   6.701
 3660SOL     OW11878   4.814   5.837   1.209
 3660SOL    HW111879   4.866   5.806   1.130
 3660SOL    HW211880   4.818   5.937   1.216
 3661SOL     OW11881   5.320   1.239   0.566
 3661SOL    HW111882   5.415   1.208   0.563
 3661SOL    HW211883   5.302   1.281   0.655
 3662SOL     OW11884   3.362   6.751   5.425
 3662SOL    HW111885   3.278   6.723   5.471
 3662SOL    HW211886   3.359   6.849   5.407
 3663SOL     OW11887   1.023   3.396   6.170
 3663SOL    HW111888   1.007   3.482   6.218
 3663SOL    HW211889   0.938   3.363   6.130
 3664SOL     OW11890   3.983   1.518   0.871
 3664SOL    HW111891   3.938   1.538   0.784
 3664SOL    HW211892   4.023   1.427   0.868
 3665SOL     OW11893   1.196   6.781   5.962
 3665SOL    HW111894   1.097   6.777   5.974
 3665SOL    HW211895   1.222   6.871   5.927
 3666SOL     OW11896   0.855   5.550   3.832
 3666SOL    HW111897   0.882   5.457   3.807
 3666SOL    HW211898   0.916   5.584   3.903
 3667SOL     OW11899   6.423   1.676   6.624
 3667SOL    HW111900   6.405   1.589   6.578
 3667SOL    HW211901   6.336   1.719   6.648
 3668SOL     OW11902   0.768   6.039   2.039
 3668SOL    HW111903   0.866   6.028   2.056
 3668SOL    HW211904   0.740   5.974   1.968
 3669SOL     OW11905   6.407   2.542   3.062
 3669SOL    HW111906   6.311   2.549   3.089
 3669SOL    HW211907   6.435   2.446   3.061
 3670SOL     OW11908   1.739   5.475   5.912
 3670SOL    HW111909   1.643   5.466   5.938
 3670SOL    HW211910   1.794   5.500   5.992
 3671SOL     OW11911   0.717   0.968   3.224
 3671SOL    HW111912   0.636   0.912   3.207
 3671SOL    HW211913   0.693   1.045   3.282
 3672SOL     OW11914   0.230   0.425   0.835
 3672SOL    HW111915   0.151   0.476   0.870
 3672SOL    HW211916   0.205   0.382   0.748
 3673SOL     OW11917   4.815   0.346   6.988
 3673SOL    HW111918   4.842   0.350   0.060
 3673SOL    HW211919   4.843   0.431   6.942
 3674SOL     OW11920   0.837   6.851   1.218
 3674SOL    HW111921   0.937   6.854   1.215
 3674SOL    HW211922   0.801   6.945   1.216
 3675SOL     OW11923   1.611   1.776   5.097
 3675SOL    HW111924   1.589   1.794   5.001
 3675SOL    HW211925   1.679   1.842   5.129
 3676SOL     OW11926   2.038   5.397   2.812
 3676SOL    HW111927   1.955   5.380   2.758
 3676SOL    HW211928   2.104   5.324   2.794
 3677SOL     OW11929   6.131   6.978   4.275
 3677SOL    HW111930   6.211   6.957   4.218
 3677SOL    HW211931   6.065   6.903   4.269
 3678SOL     OW11932   0.959   1.827   3.940
 3678SOL    HW111933   1.017   1.867   3.869
 3678SOL    HW211934   0.868   1.810   3.902
 3679SOL     OW11935   0.668   1.074   1.839
 3679SOL    HW111936   0.748   1.018   1.862
 3679SOL    HW211937   0.693   1.140   1.768
 3680SOL     OW11938   6.813   3.501   4.585
 3680SOL    HW111939   6.765   3.505   4.673
 3680SOL    HW211940   6.771   3.565   4.521
 3681SOL     OW11941   6.347   6.221   5.230
 3681SOL    HW111942   6.404   6.157   5.178
 3681SOL    HW211943   6.305   6.173   5.307
 3682SOL     OW11944   0.695   1.528   6.348
 3682SOL    HW111945   0.762   1.562   6.282
 3682SOL    HW211946   0.683   1.596   6.420
 3683SOL     OW11947   5.412   6.659   4.162
 3683SOL    HW111948   5.409   6.679   4.064
 3683SOL    HW211949   5.333   6.701   4.206
 3684SOL     OW11950   1.296   3.118   0.622
 3684SOL    HW111951   1.380   3.170   0.635
 3684SOL    HW211952   1.299   3.036   0.679
 3685SOL     OW11953   6.830   6.819   6.944
 3685SOL    HW111954   6.768   6.755   6.988
 3685SOL    HW211955   6.780   6.900   6.914
 3686SOL     OW11956   6.431   4.368   1.365
 3686SOL    HW111957   6.503   4.402   1.304
 3686SOL    HW211958   6.433   4.419   1.451
 3687SOL     OW11959   3.010   0.986   6.959
 3687SOL    HW111960   2.945   1.008   6.886
 3687SOL    HW211961   3.009   1.060   0.003
 3688SOL     OW11962   0.834   3.256   0.320
 3688SOL    HW111963   0.803   3.236   0.413
 3688SOL    HW211964   0.934   3.260   0.318
 3689SOL     OW11965   2.471   1.206   3.917
 3689SOL    HW111966   2.475   1.294   3.870
 3689SOL    HW211967   2.530   1.208   3.998
 3690SOL     OW11968   5.932   6.305   5.366
 3690SOL    HW111969   5.880   6.386   5.340
 3690SOL    HW211970   5.984   6.272   5.287
 3691SOL     OW11971   3.336   2.453   6.968
 3691SOL    HW111972   3.316   2.550   6.980
 3691SOL    HW211973   3.412   2.427   0.005
 3692SOL     OW11974   1.935   0.245   5.937
 3692SOL    HW111975   1.883   0.196   5.868
 3692SOL    HW211976   1.874   0.304   5.989
 3693SOL     OW11977   2.891   2.273   2.943
 3693SOL    HW111978   2.973   2.239   2.990
 3693SOL    HW211979   2.837   2.328   3.007
 3694SOL     OW11980   2.164   6.268   2.920
 3694SOL    HW111981   2.190   6.177   2.887
 3694SOL    HW211982   2.122   6.319   2.846
 3695SOL     OW11983   1.714   2.133   2.202
 3695SOL    HW111984   1.686   2.208   2.262
 3695SOL    HW211985   1.808   2.106   2.223
 3696SOL     OW11986   3.345   6.472   5.581
 3696SOL    HW111987   3.251   6.496   5.607
 3696SOL    HW211988   3.401   6.463   5.664
 3697SOL     OW11989   6.072   0.219   4.331
 3697SOL    HW111990   6.158   0.269   4.315
 3697SOL    HW211991   6.088   0.121   4.315
 3698SOL     OW11992   3.030   6.820   5.614
 3698SOL    HW111993   2.976   6.904   5.603
 3698SOL    HW211994   2.989   6.747   5.559
 3699SOL     OW11995   0.908   3.644   2.513
 3699SOL    HW111996   0.954   3.727   2.481
 3699SOL    HW211997   0.830   3.670   2.570
 3700SOL     OW11998   0.259   6.799   4.100
 3700SOL    HW111999   0.272   6.788   4.199
 3700SOL    HW212000   0.250   6.710   4.057
 3701SOL     OW12001   6.280   0.569   3.527
 3701SOL    HW112002   6.190   0.542   3.493
 3701SOL    HW212003   6.278   0.570   3.627
 3702SOL     OW12004   3.459   1.192   6.885
 3702SOL    HW112005   3.401   1.266   6.849
 3702SOL    HW212006   3.542   1.231   6.924
 3703SOL     OW12007   4.262   4.698   6.655
 3703SOL    HW112008   4.184   4.754   6.681
 3703SOL    HW212009   4.247   4.603   6.683
 3704SOL     OW12010   2.044   0.886   2.369
 3704SOL    HW112011   2.020   0.800   2.413
 3704SOL    HW212012   2.014   0.884   2.273
 3705SOL     OW12013   5.646   0.971   4.241
 3705SOL    HW112014   5.568   0.933   4.290
 3705SOL    HW212015   5.616   1.043   4.179
 3706SOL     OW12016   2.070   2.055   3.892
 3706SOL    HW112017   2.076   2.134   3.831
 3706SOL    HW212018   1.977   2.047   3.928
 3707SOL     OW12019   4.121   2.807   5.360
 3707SOL    HW112020   4.116   2.727   5.300
 3707SOL    HW212021   4.037   2.860   5.352
 3708SOL     OW12022   6.265   6.985   6.177
 3708SOL    HW112023   6.291   6.927   6.099
 3708SOL    HW212024   6.172   7.017   6.165
 3709SOL     OW12025   4.169   0.810   0.120
 3709SOL    HW112026   4.102   0.830   0.191
 3709SOL    HW212027   4.124   0.767   0.042
 3710SOL     OW12028   0.551   4.943   1.019
 3710SOL    HW112029   0.489   4.894   1.081
 3710SOL    HW212030   0.498   5.005   0.961
 3711SOL     OW12031   6.527   4.700   2.773
 3711SOL    HW112032   6.516   4.611   2.817
 3711SOL    HW212033   6.623   4.712   2.746
 3712SOL     OW12034   2.220   6.720   0.619
 3712SOL    HW112035   2.235   6.671   0.534
 3712SOL    HW212036   2.262   6.811   0.613
 3713SOL     OW12037   3.834   6.002   5.793
 3713SOL    HW112038   3.832   5.979   5.696
 3713SOL    HW212039   3.923   6.041   5.817
 3714SOL     OW12040   3.406   0.726   4.646
 3714SOL    HW112041   3.404   0.633   4.682
 3714SOL    HW212042   3.501   0.757   4.638
 3715SOL     OW12043   5.577   4.026   4.632
 3715SOL    HW112044   5.504   4.094   4.641
 3715SOL    HW212045   5.642   4.038   4.708
 3716SOL     OW12046   0.623   1.189   4.231
 3716SOL    HW112047   0.716   1.187   4.195
 3716SOL    HW212048   0.627   1.194   4.331
 3717SOL     OW12049   5.277   6.951   0.161
 3717SOL    HW112050   5.179   6.941   0.150
 3717SOL    HW212051   5.308   0.009   0.113
 3718SOL     OW12052   0.459   5.626   0.258
 3718SOL    HW112053   0.414   5.714   0.267
 3718SOL    HW212054   0.391   5.553   0.259
 3719SOL     OW12055   3.611   4.746   5.552
 3719SOL    HW112056   3.549   4.770   5.627
 3719SOL    HW212057   3.558   4.732   5.468
 3720SOL     OW12058   0.021   2.101   5.781
 3720SOL    HW112059   7.014   2.069   5.870
 3720SOL    HW212060   0.030   2.022   5.719
 3721SOL     OW12061   4.979   3.569   0.865
 3721SOL    HW112062   4.930   3.482   0.860
 3721SOL    HW212063   4.921   3.642   0.828
 3722SOL     OW12064   6.552   5.670   2.097
 3722SOL    HW112065   6.590   5.584   2.131
 3722SOL    HW212066   6.454   5.658   2.080
 3723SOL     OW12067   4.354   1.437   0.782
 3723SOL    HW112068   4.307   1.525   0.781
 3723SOL    HW212069   4.448   1.450   0.750
 3724SOL     OW12070   0.534   5.933   5.527
 3724SOL    HW112071   0.518   5.978   5.439
 3724SOL    HW212072   0.632   5.927   5.545
 3725SOL     OW12073   6.579   6.832   0.923
 3725SOL    HW112074   6.520   6.817   1.002
 3725SOL    HW212075   6.645   6.757   0.916
 3726SOL     OW12076   5.604   3.115   1.794
 3726SOL    HW112077   5.586   3.143   1.888
 3726SOL    HW212078   5.569   3.183   1.731
 3727SOL     OW12079   2.190   3.288   5.197
 3727SOL    HW112080   2.233   3.211   5.244
 3727SOL    HW212081   2.194   3.272   5.098
 3728SOL     OW12082   1.247   3.538   6.636
 3728SOL    HW112083   1.163   3.582   6.667
 3728SOL    HW212084   1.231   3.494   6.548
 3729SOL     OW12085   0.395   2.843   3.374
 3729SOL    HW112086   0.348   2.760   3.343
 3729SOL    HW212087   0.439   2.826   3.462
 3730SOL     OW12088   2.786   0.481   0.195
 3730SOL    HW112089   2.749   0.410   0.135
 3730SOL    HW212090   2.767   0.571   0.157
 3731SOL     OW12091   3.916   6.522   6.653
 3731SOL    HW112092   3.880   6.604   6.697
 3731SOL    HW212093   3.949   6.458   6.723
 3732SOL     OW12094   2.129   3.960   5.226
 3732SOL    HW112095   2.063   4.035   5.235
 3732SOL    HW212096   2.208   3.992   5.172
 3733SOL     OW12097   2.269   3.488   1.177
 3733SOL    HW112098   2.270   3.398   1.221
 3733SOL    HW212099   2.257   3.477   1.078
 3734SOL     OW12100   5.050   0.243   2.328
 3734SOL    HW112101   5.013   0.298   2.403
 3734SOL    HW212102   5.146   0.221   2.347
 3735SOL     OW12103   3.475   1.515   2.032
 3735SOL    HW112104   3.492   1.451   1.957
 3735SOL    HW212105   3.477   1.609   1.998
 3736SOL     OW12106   5.234   1.169   6.708
 3736SOL    HW112107   5.167   1.219   6.653
 3736SOL    HW212108   5.232   1.072   6.681
 3737SOL     OW12109   4.597   7.004   3.239
 3737SOL    HW112110   4.551   6.922   3.273
 3737SOL    HW212111   4.551   0.013   3.157
 3738SOL     OW12112   0.289   0.090   3.806
 3738SOL    HW112113   0.336   0.005   3.829
 3738SOL    HW212114   0.274   0.143   3.889
 3739SOL     OW12115   0.405   4.163   2.306
 3739SOL    HW112116   0.501   4.187   2.290
 3739SOL    HW212117   0.371   4.107   2.231
 3740SOL     OW12118   5.081   1.011   0.145
 3740SOL    HW112119   5.011   0.949   0.109
 3740SOL    HW212120   5.091   1.089   0.083
 3741SOL     OW12121   3.734   2.326   6.174
 3741SOL    HW112122   3.641   2.290   6.164
 3741SOL    HW212123   3.749   2.353   6.269
 3742SOL     OW12124   3.510   3.425   5.523
 3742SOL    HW112125   3.576   3.366   5.571
 3742SOL    HW212126   3.448   3.369   5.469
 3743SOL     OW12127   0.391   5.851   6.398
 3743SOL    HW112128   0.429   5.775   6.346
 3743SOL    HW212129   0.440   5.860   6.485
 3744SOL     OW12130   6.836   5.904   2.707
 3744SOL    HW112131   6.786   5.898   2.621
 3744SOL    HW212132   6.802   5.981   2.760
 3745SOL     OW12133   4.402   6.406   2.330
 3745SOL    HW112134   4.347   6.476   2.286
 3745SOL    HW212135   4.365   6.315   2.310
 3746SOL     OW12136   4.239   2.115   2.767
 3746SOL    HW112137   4.275   2.199   2.726
 3746SOL    HW212138   4.310   2.045   2.765
 3747SOL     OW12139   2.933   0.016   0.426
 3747SOL    HW112140   2.925   7.011   0.331
 3747SOL    HW212141   2.847   0.058   0.455
 3748SOL     OW12142   5.516   1.201   2.385
 3748SOL    HW112143   5.421   1.178   2.364
 3748SOL    HW212144   5.572   1.190   2.303
 3749SOL     OW12145   1.651   6.921   5.027
 3749SOL    HW112146   1.666   7.010   5.069
 3749SOL    HW212147   1.555   6.912   5.002
 3750SOL     OW12148   0.457   4.350   6.742
 3750SOL    HW112149   0.384   4.369   6.677
 3750SOL    HW212150   0.545   4.378   6.703
 3751SOL     OW12151   1.284   3.730   2.200
 3751SOL    HW112152   1.294   3.830   2.198
 3751SOL    HW212153   1.207   3.703   2.142
 3752SOL     OW12154   5.890   6.857   6.427
 3752SOL    HW112155   5.833   6.926   6.472
 3752SOL    HW212156   5.870   6.767   6.465
 3753SOL     OW12157   6.529   0.316   4.022
 3753SOL    HW112158   6.436   0.352   4.020
 3753SOL    HW212159   6.593   0.392   4.039
 3754SOL     OW12160   2.711   1.760   0.967
 3754SOL    HW112161   2.646   1.684   0.975
 3754SOL    HW212162   2.738   1.790   1.059
 3755SOL     OW12163   3.005   5.029   3.557
 3755SOL    HW112164   2.941   5.065   3.625
 3755SOL    HW212165   2.962   4.954   3.507
 3756SOL     OW12166   2.094   6.345   0.255
 3756SOL    HW112167   2.065   6.254   0.228
 3756SOL    HW212168   2.097   6.405   0.175
 3757SOL     OW12169   6.841   4.665   1.715
 3757SOL    HW112170   6.813   4.750   1.670
 3757SOL    HW212171   6.923   4.682   1.770
 3758SOL     OW12172   2.217   0.083   3.863
 3758SOL    HW112173   2.170   0.019   3.802
 3758SOL    HW212174   2.182   0.072   3.956
 3759SOL     OW12175   5.322   0.235   4.202
 3759SOL    HW112176   5.414   0.275   4.201
 3759SOL    HW212177   5.295   0.219   4.297
 3760SOL     OW12178   0.774   1.176   3.412
 3760SOL    HW112179   0.800   1.224   3.328
 3760SOL    HW212180   0.841   1.197   3.484
 3761SOL     OW12181   5.242   1.009   4.167
 3761SOL    HW112182   5.301   1.063   4.107
 3761SOL    HW212183   5.241   1.049   4.259
 3762SOL     OW12184   6.924   2.659   3.571
 3762SOL    HW112185   6.930   2.566   3.607
 3762SOL    HW212186   7.014   2.702   3.573
 3763SOL     OW12187   0.588   4.428   0.094
 3763SOL    HW112188   0.614   4.512   0.141
 3763SOL    HW212189   0.670   4.386   0.054
 3764SOL     OW12190   2.529   0.970   3.196
 3764SOL    HW112191   2.594   1.044   3.180
 3764SOL    HW212192   2.564   0.910   3.268
 3765SOL     OW12193   5.576   3.100   2.707
 3765SOL    HW112194   5.557   3.012   2.664
 3765SOL    HW212195   5.492   3.153   2.712
 3766SOL     OW12196   1.067   3.813   2.424
 3766SOL    HW112197   1.147   3.796   2.480
 3766SOL    HW212198   1.091   3.875   2.349
 3767SOL     OW12199   1.041   5.467   6.067
 3767SOL    HW112200   0.991   5.456   5.981
 3767SOL    HW212201   1.002   5.406   6.137
 3768SOL     OW12202   0.718   6.995   3.019
 3768SOL    HW112203   0.646   0.034   3.048
 3768SOL    HW212204   0.680   6.929   2.954
 3769SOL     OW12205   5.469   5.294   4.757
 3769SOL    HW112206   5.481   5.357   4.681
 3769SOL    HW212207   5.557   5.254   4.783
 3770SOL     OW12208   1.912   0.881   1.352
 3770SOL    HW112209   1.971   0.961   1.364
 3770SOL    HW212210   1.820   0.902   1.385
 3771SOL     OW12211   6.524   5.253   5.550
 3771SOL    HW112212   6.457   5.328   5.549
 3771SOL    HW212213   6.479   5.169   5.579
 3772SOL     OW12214   1.662   6.282   0.877
 3772SOL    HW112215   1.568   6.284   0.841
 3772SOL    HW212216   1.694   6.187   0.879
 3773SOL     OW12217   5.275   4.883   6.655
 3773SOL    HW112218   5.348   4.844   6.599
 3773SOL    HW212219   5.312   4.909   6.745
 3774SOL     OW12220   6.825   5.409   1.708
 3774SOL    HW112221   6.906   5.467   1.717
 3774SOL    HW212222   6.821   5.345   1.785
 3775SOL     OW12223   4.768   4.686   5.294
 3775SOL    HW112224   4.724   4.631   5.365
 3775SOL    HW212225   4.772   4.781   5.324
 3776SOL     OW12226   3.752   2.453   5.813
 3776SOL    HW112227   3.792   2.540   5.841
 3776SOL    HW212228   3.797   2.378   5.862
 3777SOL     OW12229   2.811   5.337   4.514
 3777SOL    HW112230   2.853   5.426   4.496
 3777SOL    HW212231   2.754   5.311   4.436
 3778SOL     OW12232   3.062   5.539   6.470
 3778SOL    HW112233   3.061   5.605   6.395
 3778SOL    HW212234   2.982   5.552   6.528
 3779SOL     OW12235   0.095   4.542   0.242
 3779SOL    HW112236   0.064   4.485   0.166
 3779SOL    HW212237   0.027   4.541   0.315
 3780SOL     OW12238   5.195   4.477   1.634
 3780SOL    HW112239   5.121   4.419   1.667
 3780SOL    HW212240   5.204   4.557   1.694
 3781SOL     OW12241   2.759   6.432   4.825
 3781SOL    HW112242   2.713   6.475   4.746
 3781SOL    HW212243   2.702   6.443   4.906
 3782SOL     OW12244   4.492   4.881   0.971
 3782SOL    HW112245   4.409   4.882   1.026
 3782SOL    HW212246   4.567   4.922   1.021
 3783SOL     OW12247   4.728   5.516   4.445
 3783SOL    HW112248   4.799   5.514   4.375
 3783SOL    HW212249   4.765   5.482   4.531
 3784SOL     OW12250   5.894   2.184   4.845
 3784SOL    HW112251   5.896   2.107   4.907
 3784SOL    HW212252   5.835   2.163   4.767
 3785SOL     OW12253   1.887   3.149   3.842
 3785SOL    HW112254   1.967   3.118   3.893
 3785SOL    HW212255   1.805   3.135   3.896
 3786SOL     OW12256   2.200   2.968   4.572
 3786SOL    HW112257   2.249   2.944   4.489
 3786SOL    HW212258   2.245   2.925   4.651
 3787SOL     OW12259   4.730   6.896   3.989
 3787SOL    HW112260   4.825   6.923   4.003
 3787SOL    HW212261   4.726   6.802   3.957
 3788SOL     OW12262   5.619   2.800   5.243
 3788SOL    HW112263   5.667   2.740   5.307
 3788SOL    HW212264   5.571   2.871   5.294
 3789SOL     OW12265   2.087   3.064   2.410
 3789SOL    HW112266   2.026   3.082   2.333
 3789SOL    HW212267   2.117   2.969   2.407
 3790SOL     OW12268   0.158   6.757   1.735
 3790SOL    HW112269   0.255   6.773   1.721
 3790SOL    HW212270   0.145   6.679   1.797
 3791SOL     OW12271   5.252   1.141   5.684
 3791SOL    HW112272   5.318   1.081   5.639
 3791SOL    HW212273   5.300   1.204   5.744
 3792SOL     OW12274   6.699   0.279   4.728
 3792SOL    HW112275   6.688   0.179   4.724
 3792SOL    HW212276   6.611   0.323   4.712
 3793SOL     OW12277   4.447   4.837   0.420
 3793SOL    HW112278   4.537   4.872   0.447
 3793SOL    HW212279   4.427   4.754   0.472
 3794SOL     OW12280   0.239   4.398   6.567
 3794SOL    HW112281   0.238   4.346   6.482
 3794SOL    HW212282   0.272   4.491   6.549
 3795SOL     OW12283   3.050   5.715   1.094
 3795SOL    HW112284   2.987   5.684   1.023
 3795SOL    HW212285   3.091   5.802   1.066
 3796SOL     OW12286   4.664   1.250   6.919
 3796SOL    HW112287   4.667   1.311   6.839
 3796SOL    HW212288   4.653   1.305   7.002
 3797SOL     OW12289   0.657   4.398   2.156
 3797SOL    HW112290   0.676   4.302   2.174
 3797SOL    HW212291   0.569   4.407   2.108
 3798SOL     OW12292   1.397   5.700   3.777
 3798SOL    HW112293   1.370   5.627   3.714
 3798SOL    HW212294   1.497   5.706   3.779
 3799SOL     OW12295   6.714   0.864   3.347
 3799SOL    HW112296   6.731   0.952   3.304
 3799SOL    HW212297   6.685   0.877   3.441
 3800SOL     OW12298   4.999   2.485   2.981
 3800SOL    HW112299   5.082   2.441   2.947
 3800SOL    HW212300   4.920   2.428   2.960
 3801SOL     OW12301   6.136   1.711   1.345
 3801SOL    HW112302   6.078   1.749   1.417
 3801SOL    HW212303   6.229   1.746   1.354
 3802SOL     OW12304   6.873   3.101   1.822
 3802SOL    HW112305   6.944   3.171   1.825
 3802SOL    HW212306   6.831   3.092   1.912
 3803SOL     OW12307   3.296   3.380   4.490
 3803SOL    HW112308   3.391   3.348   4.498
 3803SOL    HW212309   3.248   3.327   4.421
 3804SOL     OW12310   4.583   6.006   3.442
 3804SOL    HW112311   4.615   6.096   3.471
 3804SOL    HW212312   4.653   5.961   3.386
 3805SOL     OW12313   2.513   2.711   0.012
 3805SOL    HW112314   2.584   2.755   0.067
 3805SOL    HW212315   2.449   2.780   7.002
 3806SOL     OW12316   2.353   4.612   1.051
 3806SOL    HW112317   2.412   4.678   1.098
 3806SOL    HW212318   2.408   4.547   1.000
 3807SOL     OW12319   1.915   4.360   4.731
 3807SOL    HW112320   1.861   4.310   4.664
 3807SOL    HW212321   1.928   4.454   4.700
 3808SOL     OW12322   2.530   6.775   6.328
 3808SOL    HW112323   2.548   6.732   6.416
 3808SOL    HW212324   2.502   6.706   6.262
 3809SOL     OW12325   5.092   1.667   1.214
 3809SOL    HW112326   5.080   1.698   1.120
 3809SOL    HW212327   5.019   1.603   1.237
 3810SOL     OW12328   5.544   2.421   2.031
 3810SOL    HW112329   5.570   2.517   2.018
 3810SOL    HW212330   5.468   2.398   1.970
 3811SOL     OW12331   0.471   5.507   5.462
 3811SOL    HW112332   0.472   5.427   5.403
 3811SOL    HW212333   0.563   5.544   5.471
 3812SOL     OW12334   4.842   6.118   1.163
 3812SOL    HW112335   4.865   6.207   1.204
 3812SOL    HW212336   4.799   6.133   1.074
 3813SOL     OW12337   6.263   4.126   6.968
 3813SOL    HW112338   6.221   4.193   6.908
 3813SOL    HW212339   6.351   4.161   7.001
 3814SOL     OW12340   6.967   0.467   5.458
 3814SOL    HW112341   0.021   0.529   5.448
 3814SOL    HW212342   6.898   0.487   5.389
 3815SOL     OW12343   6.399   3.664   5.708
 3815SOL    HW112344   6.335   3.632   5.778
 3815SOL    HW212345   6.353   3.728   5.646
 3816SOL     OW12346   0.317   5.864   0.959
 3816SOL    HW112347   0.223   5.837   0.981
 3816SOL    HW212348   0.360   5.794   0.903
 3817SOL     OW12349   4.702   3.786   1.763
 3817SOL    HW112350   4.643   3.752   1.690
 3817SOL    HW212351   4.695   3.886   1.766
 3818SOL     OW12352   5.712   6.074   2.853
 3818SOL    HW112353   5.755   6.002   2.908
 3818SOL    HW212354   5.644   6.033   2.791
 3819SOL     OW12355   6.314   4.203   3.891
 3819SOL    HW112356   6.391   4.144   3.916
 3819SOL    HW212357   6.284   4.254   3.972
 3820SOL     OW12358   2.684   6.157   4.464
 3820SOL    HW112359   2.677   6.228   4.393
 3820SOL    HW212360   2.780   6.142   4.486
 3821SOL     OW12361   2.006   0.227   0.137
 3821SOL    HW112362   2.102   0.236   0.110
 3821SOL    HW212363   1.998   0.241   0.235
 3822SOL     OW12364   4.657   0.348   2.070
 3822SOL    HW112365   4.729   0.389   2.014
 3822SOL    HW212366   4.648   0.399   2.156
 3823SOL     OW12367   5.655   5.815   6.902
 3823SOL    HW112368   5.613   5.906   6.899
 3823SOL    HW212369   5.738   5.816   6.846
 3824SOL     OW12370   2.791   2.947   0.311
 3824SOL    HW112371   2.733   2.990   0.242
 3824SOL    HW212372   2.751   2.961   0.401
 3825SOL     OW12373   0.983   4.310   5.259
 3825SOL    HW112374   0.974   4.245   5.184
 3825SOL    HW212375   0.903   4.370   5.262
 3826SOL     OW12376   5.334   4.141   4.078
 3826SOL    HW112377   5.316   4.233   4.045
 3826SOL    HW212378   5.429   4.116   4.060
 3827SOL     OW12379   0.687   2.032   1.076
 3827SOL    HW112380   0.748   2.110   1.060
 3827SOL    HW212381   0.718   1.955   1.020
 3828SOL     OW12382   3.443   3.639   4.208
 3828SOL    HW112383   3.373   3.616   4.275
 3828SOL    HW212384   3.486   3.556   4.174
 3829SOL     OW12385   0.596   3.669   2.437
 3829SOL    HW112386   0.552   3.682   2.526
 3829SOL    HW212387   0.673   3.606   2.446
 3830SOL     OW12388   5.963   0.903   3.973
 3830SOL    HW112389   6.026   0.947   3.908
 3830SOL    HW212390   5.878   0.880   3.925
 3831SOL     OW12391   5.212   2.061   3.869
 3831SOL    HW112392   5.129   2.012   3.841
 3831SOL    HW212393   5.199   2.098   3.961
 3832SOL     OW12394   5.895   0.693   3.731
 3832SOL    HW112395   5.945   0.607   3.738
 3832SOL    HW212396   5.836   0.703   3.812
 3833SOL     OW12397   2.252   1.734   5.395
 3833SOL    HW112398   2.199   1.661   5.438
 3833SOL    HW212399   2.224   1.744   5.300
 3834SOL     OW12400   4.990   4.018   0.840
 3834SOL    HW112401   4.996   4.033   0.742
 3834SOL    HW212402   5.030   3.928   0.862
 3835SOL     OW12403   3.905   5.137   5.219
 3835SOL    HW112404   3.858   5.075   5.283
 3835SOL    HW212405   3.868   5.123   5.127
 3836SOL     OW12406   0.359   6.273   5.664
 3836SOL    HW112407   0.434   6.334   5.690
 3836SOL    HW212408   0.369   6.246   5.568
 3837SOL     OW12409   4.471   4.490   5.761
 3837SOL    HW112410   4.402   4.459   5.826
 3837SOL    HW212411   4.427   4.541   5.687
 3838SOL     OW12412   0.783   1.453   3.950
 3838SOL    HW112413   0.864   1.512   3.944
 3838SOL    HW212414   0.702   1.510   3.964
 3839SOL     OW12415   4.199   0.850   4.003
 3839SOL    HW112416   4.178   0.907   3.924
 3839SOL    HW212417   4.238   0.907   4.076
 3840SOL     OW12418   2.668   1.637   6.756
 3840SOL    HW112419   2.687   1.597   6.666
 3840SOL    HW212420   2.708   1.579   6.827
 3841SOL     OW12421   5.919   4.881   4.400
 3841SOL    HW112422   5.994   4.843   4.347
 3841SOL    HW212423   5.844   4.815   4.405
 3842SOL     OW12424   1.499   3.354   5.205
 3842SOL    HW112425   1.415   3.397   5.238
 3842SOL    HW212426   1.530   3.401   5.123
 3843SOL     OW12427   5.235   2.693   0.345
 3843SOL    HW112428   5.166   2.730   0.407
 3843SOL    HW212429   5.208   2.602   0.315
 3844SOL     OW12430   1.006   0.106   1.493
 3844SOL    HW112431   1.019   0.008   1.481
 3844SOL    HW212432   0.948   0.141   1.419
 3845SOL     OW12433   2.471   5.499   0.762
 3845SOL    HW112434   2.501   5.538   0.849
 3845SOL    HW212435   2.551   5.468   0.710
 3846SOL     OW12436   0.771   2.780   3.094
 3846SOL    HW112437   0.822   2.721   3.031
 3846SOL    HW212438   0.673   2.773   3.075
 3847SOL     OW12439   6.942   1.791   6.848
 3847SOL    HW112440   6.942   1.701   6.892
 3847SOL    HW212441   0.011   1.814   6.819
 3848SOL     OW12442   5.529   3.823   2.636
 3848SOL    HW112443   5.478   3.738   2.647
 3848SOL    HW212444   5.570   3.826   2.545
 3849SOL     OW12445   6.630   4.962   6.903
 3849SOL    HW112446   6.690   4.910   6.963
 3849SOL    HW212447   6.639   5.060   6.923
 3850SOL     OW12448   2.407   2.544   1.311
 3850SOL    HW112449   2.402   2.566   1.213
 3850SOL    HW212450   2.370   2.620   1.364
 3851SOL     OW12451   0.440   6.056   2.455
 3851SOL    HW112452   0.486   6.093   2.375
 3851SOL    HW212453   0.343   6.077   2.451
 3852SOL     OW12454   2.535   6.634   5.680
 3852SOL    HW112455   2.533   6.723   5.726
 3852SOL    HW212456   2.537   6.561   5.749
 3853SOL     OW12457   2.558   0.571   3.424
 3853SOL    HW112458   2.574   0.499   3.492
 3853SOL    HW212459   2.594   0.658   3.459
 3854SOL     OW12460   1.735   2.329   2.400
 3854SOL    HW112461   1.737   2.422   2.437
 3854SOL    HW212462   1.790   2.270   2.459
 3855SOL     OW12463   3.873   6.903   0.256
 3855SOL    HW112464   3.959   6.917   0.306
 3855SOL    HW212465   3.870   6.810   0.220
 3856SOL     OW12466   0.692   2.346   6.890
 3856SOL    HW112467   0.617   2.280   6.884
 3856SOL    HW212468   0.682   2.400   6.974
 3857SOL     OW12469   2.507   0.223   5.537
 3857SOL    HW112470   2.522   0.135   5.493
 3857SOL    HW212471   2.521   0.297   5.471
 3858SOL     OW12472   4.202   0.532   4.749
 3858SOL    HW112473   4.300   0.555   4.744
 3858SOL    HW212474   4.176   0.481   4.667
 3859SOL     OW12475   6.047   0.292   2.070
 3859SOL    HW112476   6.037   0.392   2.067
 3859SOL    HW212477   5.956   0.250   2.069
 3860SOL     OW12478   1.104   6.751   4.108
 3860SOL    HW112479   1.049   6.708   4.037
 3860SOL    HW212480   1.059   6.740   4.197
 3861SOL     OW12481   3.474   5.792   1.642
 3861SOL    HW112482   3.432   5.705   1.666
 3861SOL    HW212483   3.425   5.833   1.564
 3862SOL     OW12484   1.725   0.304   3.916
 3862SOL    HW112485   1.656   0.291   3.844
 3862SOL    HW212486   1.751   0.215   3.953
 3863SOL     OW12487   3.902   0.352   0.517
 3863SOL    HW112488   3.968   0.300   0.571
 3863SOL    HW212489   3.888   0.305   0.429
 3864SOL     OW12490   2.563   0.011   4.572
 3864SOL    HW112491   2.543   0.103   4.606
 3864SOL    HW212492   2.660   0.005   4.547
 3865SOL     OW12493   3.893   0.609   0.578
 3865SOL    HW112494   3.914   0.521   0.535
 3865SOL    HW212495   3.852   0.593   0.667
 3866SOL     OW12496   2.769   2.904   6.612
 3866SOL    HW112497   2.670   2.909   6.625
 3866SOL    HW212498   2.795   2.958   6.531
 3867SOL     OW12499   0.460   3.796   1.889
 3867SOL    HW112500   0.411   3.730   1.946
 3867SOL    HW212501   0.425   3.791   1.795
 3868SOL     OW12502   4.443   0.768   0.144
 3868SOL    HW112503   4.347   0.787   0.124
 3868SOL    HW212504   4.463   0.672   0.123
 3869SOL     OW12505   5.929   3.038   3.723
 3869SOL    HW112506   5.906   3.004   3.632
 3869SOL    HW212507   5.846   3.066   3.770
 3870SOL     OW12508   0.388   0.361   4.131
 3870SOL    HW112509   0.473   0.411   4.115
 3870SOL    HW212510   0.322   0.421   4.178
 3871SOL     OW12511   2.915   5.054   4.438
 3871SOL    HW112512   2.880   4.987   4.372
 3871SOL    HW212513   2.921   5.144   4.394
 3872SOL     OW12514   3.047   3.759   5.627
 3872SOL    HW112515   3.012   3.732   5.538
 3872SOL    HW212516   3.076   3.677   5.678
 3873SOL     OW12517   4.585   1.957   0.252
 3873SOL    HW112518   4.679   1.926   0.236
 3873SOL    HW212519   4.586   2.050   0.289
 3874SOL     OW12520   2.992   0.729   0.039
 3874SOL    HW112521   3.073   0.732   0.098
 3874SOL    HW212522   2.992   0.810   7.003
 3875SOL     OW12523   1.473   2.063   6.076
 3875SOL    HW112524   1.471   2.118   6.160
 3875SOL    HW212525   1.547   2.096   6.017
 3876SOL     OW12526   3.973   5.123   1.087
 3876SOL    HW112527   4.065   5.116   1.124
 3876SOL    HW212528   3.918   5.045   1.117
 3877SOL     OW12529   6.901   1.974   0.040
 3877SOL    HW112530   6.893   1.894   7.004
 3877SOL    HW212531   6.811   1.996   0.078
 3878SOL     OW12532   4.352   0.473   3.936
 3878SOL    HW112533   4.353   0.572   3.923
 3878SOL    HW212534   4.345   0.452   4.034
 3879SOL     OW12535   5.393   5.228   0.054
 3879SOL    HW112536   5.314   5.191   0.103
 3879SOL    HW212537   5.477   5.189   0.091
 3880SOL     OW12538   4.921   3.730   4.196
 3880SOL    HW112539   4.921   3.827   4.169
 3880SOL    HW212540   4.908   3.723   4.295
 3881SOL     OW12541   1.242   4.087   0.180
 3881SOL    HW112542   1.308   4.035   0.126
 3881SOL    HW212543   1.223   4.038   0.266
 3882SOL     OW12544   1.104   1.695   1.038
 3882SOL    HW112545   1.178   1.630   1.019
 3882SOL    HW212546   1.064   1.675   1.127
 3883SOL     OW12547   4.888   6.318   3.347
 3883SOL    HW112548   4.947   6.237   3.341
 3883SOL    HW212549   4.795   6.289   3.369
 3884SOL     OW12550   1.044   5.011   2.330
 3884SOL    HW112551   1.068   5.006   2.233
 3884SOL    HW212552   0.945   4.998   2.341
 3885SOL     OW12553   5.417   6.156   3.267
 3885SOL    HW112554   5.372   6.104   3.340
 3885SOL    HW212555   5.349   6.215   3.222
 3886SOL     OW12556   3.810   6.395   5.757
 3886SOL    HW112557   3.796   6.376   5.660
 3886SOL    HW212558   3.744   6.343   5.811
 3887SOL     OW12559   0.012   6.050   1.969
 3887SOL    HW112560   0.095   6.041   1.914
 3887SOL    HW212561   0.035   6.038   2.065
 3888SOL     OW12562   5.722   6.170   4.395
 3888SOL    HW112563   5.641   6.214   4.356
 3888SOL    HW212564   5.757   6.225   4.471
 3889SOL     OW12565   5.521   3.436   6.541
 3889SOL    HW112566   5.426   3.407   6.529
 3889SOL    HW212567   5.524   3.524   6.588
 3890SOL     OW12568   5.430   3.438   4.607
 3890SOL    HW112569   5.504   3.505   4.609
 3890SOL    HW212570   5.434   3.381   4.689
 3891SOL     OW12571   5.868   5.013   3.209
 3891SOL    HW112572   5.818   5.086   3.161
 3891SOL    HW212573   5.809   4.933   3.219
 3892SOL     OW12574   0.357   2.818   1.638
 3892SOL    HW112575   0.321   2.881   1.708
 3892SOL    HW212576   0.297   2.739   1.631
 3893SOL     OW12577   4.101   3.688   1.209
 3893SOL    HW112578   4.150   3.639   1.281
 3893SOL    HW212579   4.003   3.676   1.220
 3894SOL     OW12580   4.947   0.264   6.184
 3894SOL    HW112581   5.027   0.277   6.127
 3894SOL    HW212582   4.870   0.317   6.147
 3895SOL     OW12583   1.753   6.720   4.546
 3895SOL    HW112584   1.794   6.812   4.541
 3895SOL    HW212585   1.802   6.666   4.614
 3896SOL     OW12586   1.547   1.021   6.808
 3896SOL    HW112587   1.479   0.998   6.738
 3896SOL    HW212588   1.526   1.111   6.847
 3897SOL     OW12589   4.094   5.643   1.979
 3897SOL    HW112590   4.104   5.703   2.058
 3897SOL    HW212591   4.130   5.689   1.898
 3898SOL     OW12592   4.033   3.015   6.676
 3898SOL    HW112593   3.946   2.972   6.650
 3898SOL    HW212594   4.098   3.007   6.600
 3899SOL     OW12595   4.345   6.545   6.099
 3899SOL    HW112596   4.394   6.513   6.180
 3899SOL    HW212597   4.247   6.525   6.109
 3900SOL     OW12598   5.202   4.123   2.825
 3900SOL    HW112599   5.290   4.152   2.861
 3900SOL    HW212600   5.191   4.157   2.731
 3901SOL     OW12601   3.078   0.339   6.939
 3901SOL    HW112602   3.062   0.360   0.012
 3901SOL    HW212603   3.072   0.424   6.886
 3902SOL     OW12604   6.351   3.032   2.580
 3902SOL    HW112605   6.402   3.007   2.663
 3902SOL    HW212606   6.332   3.130   2.581
 3903SOL     OW12607   3.451   5.502   6.826
 3903SOL    HW112608   3.391   5.576   6.795
 3903SOL    HW212609   3.497   5.530   6.910
 3904SOL     OW12610   1.230   0.561   0.354
 3904SOL    HW112611   1.197   0.468   0.374
 3904SOL    HW212612   1.227   0.616   0.437
 3905SOL     OW12613   0.056   6.077   5.634
 3905SOL    HW112614   0.087   6.135   5.710
 3905SOL    HW212615   0.129   6.070   5.566
 3906SOL     OW12616   5.811   6.497   5.602
 3906SOL    HW112617   5.824   6.398   5.598
 3906SOL    HW212618   5.842   6.538   5.516
 3907SOL     OW12619   5.831   1.793   4.262
 3907SOL    HW112620   5.781   1.815   4.178
 3907SOL    HW212621   5.897   1.721   4.243
 3908SOL     OW12622   1.607   1.902   5.792
 3908SOL    HW112623   1.625   1.808   5.821
 3908SOL    HW212624   1.618   1.964   5.870
 3909SOL     OW12625   5.789   5.343   4.145
 3909SOL    HW112626   5.704   5.363   4.192
 3909SOL    HW212627   5.852   5.296   4.207
 3910SOL     OW12628   3.775   3.836   2.811
 3910SOL    HW112629   3.854   3.847   2.750
 3910SOL    HW212630   3.745   3.926   2.843
 3911SOL     OW12631   5.666   1.571   5.503
 3911SOL    HW112632   5.667   1.486   5.555
 3911SOL    HW212633   5.657   1.648   5.565
 3912SOL     OW12634   5.550   2.104   5.683
 3912SOL    HW112635   5.450   2.101   5.693
 3912SOL    HW212636   5.573   2.140   5.592
 3913SOL     OW12637   1.170   6.606   0.339
 3913SOL    HW112638   1.185   6.704   0.325
 3913SOL    HW212639   1.139   6.591   0.433
 3914SOL     OW12640   3.738   6.657   6.316
 3914SOL    HW112641   3.740   6.722   6.392
 3914SOL    HW212642   3.811   6.589   6.327
 3915SOL     OW12643   5.248   5.355   1.553
 3915SOL    HW112644   5.288   5.426   1.611
 3915SOL    HW212645   5.226   5.394   1.463
 3916SOL     OW12646   0.919   0.032   2.806
 3916SOL    HW112647   0.863   0.077   2.736
 3916SOL    HW212648   0.867   0.026   2.891
 3917SOL     OW12649   1.778   0.034   0.082
 3917SOL    HW112650   1.833   0.117   0.097
 3917SOL    HW212651   1.701   0.034   0.146
 3918SOL     OW12652   5.302   4.427   2.068
 3918SOL    HW112653   5.256   4.363   2.005
 3918SOL    HW212654   5.388   4.457   2.027
 3919SOL     OW12655   3.188   7.001   0.297
 3919SOL    HW112656   3.179   6.995   0.198
 3919SOL    HW212657   3.146   0.063   0.329
 3920SOL     OW12658   2.219   2.865   6.668
 3920SOL    HW112659   2.241   2.816   6.584
 3920SOL    HW212660   2.293   2.852   6.735
 3921SOL     OW12661   1.080   4.021   1.496
 3921SOL    HW112662   1.170   4.023   1.453
 3921SOL    HW212663   1.010   4.012   1.425
 3922SOL     OW12664   0.736   4.033   1.399
 3922SOL    HW112665   0.750   3.998   1.306
 3922SOL    HW212666   0.707   4.129   1.394
 3923SOL     OW12667   0.715   0.486   0.509
 3923SOL    HW112668   0.774   0.484   0.428
 3923SOL    HW212669   0.723   0.575   0.554
 3924SOL     OW12670   6.422   4.462   4.563
 3924SOL    HW112671   6.450   4.417   4.647
 3924SOL    HW212672   6.432   4.561   4.574
 3925SOL     OW12673   1.755   5.338   2.282
 3925SOL    HW112674   1.849   5.359   2.254
 3925SOL    HW212675   1.748   5.240   2.301
 3926SOL     OW12676   4.538   4.569   2.070
 3926SOL    HW112677   4.613   4.607   2.015
 3926SOL    HW212678   4.548   4.469   2.074
 3927SOL     OW12679   0.443   3.088   6.222
 3927SOL    HW112680   0.527   3.138   6.243
 3927SOL    HW212681   0.466   3.002   6.176
 3928SOL     OW12682   5.313   5.764   0.009
 3928SOL    HW112683   5.261   5.741   6.949
 3928SOL    HW212684   5.349   5.680   0.049
 3929SOL     OW12685   0.900   1.196   4.905
 3929SOL    HW112686   0.923   1.249   4.987
 3929SOL    HW212687   0.805   1.167   4.910
 3930SOL     OW12688   2.120   1.494   3.429
 3930SOL    HW112689   2.219   1.489   3.415
 3930SOL    HW212690   2.073   1.447   3.355
 3931SOL     OW12691   6.394   1.778   1.397
 3931SOL    HW112692   6.468   1.759   1.333
 3931SOL    HW212693   6.417   1.743   1.488
 3932SOL     OW12694   0.841   2.270   4.145
 3932SOL    HW112695   0.825   2.364   4.176
 3932SOL    HW212696   0.759   2.234   4.102
 3933SOL     OW12697   1.413   0.392   6.469
 3933SOL    HW112698   1.485   0.324   6.459
 3933SOL    HW212699   1.453   0.479   6.499
 3934SOL     OW12700   5.932   0.427   6.078
 3934SOL    HW112701   6.029   0.440   6.060
 3934SOL    HW212702   5.911   0.456   6.172
 3935SOL     OW12703   4.532   0.385   0.897
 3935SOL    HW112704   4.493   0.446   0.829
 3935SOL    HW212705   4.475   0.386   0.979
 3936SOL     OW12706   6.189   5.500   4.133
 3936SOL    HW112707   6.094   5.513   4.108
 3936SOL    HW212708   6.198   5.418   4.189
 3937SOL     OW12709   0.440   1.207   2.646
 3937SOL    HW112710   0.416   1.261   2.566
 3937SOL    HW212711   0.438   1.110   2.622
 3938SOL     OW12712   6.920   1.277   3.171
 3938SOL    HW112713   7.001   1.335   3.183
 3938SOL    HW212714   6.947   1.182   3.162
 3939SOL     OW12715   3.021   1.749   2.045
 3939SOL    HW112716   2.922   1.754   2.026
 3939SOL    HW212717   3.045   1.818   2.113
 3940SOL     OW12718   3.455   3.808   1.215
 3940SOL    HW112719   3.460   3.765   1.305
 3940SOL    HW212720   3.521   3.883   1.210
 3941SOL     OW12721   3.841   4.708   6.394
 3941SOL    HW112722   3.900   4.773   6.346
 3941SOL    HW212723   3.883   4.618   6.394
 3942SOL     OW12724   6.409   6.935   6.668
 3942SOL    HW112725   6.493   6.925   6.615
 3942SOL    HW212726   6.377   0.006   6.661
 3943SOL     OW12727   0.657   3.268   4.500
 3943SOL    HW112728   0.696   3.240   4.413
 3943SOL    HW212729   0.571   3.316   4.484
 3944SOL     OW12730   5.116   2.321   4.896
 3944SOL    HW112731   5.185   2.260   4.859
 3944SOL    HW212732   5.105   2.400   4.835
 3945SOL     OW12733   0.204   1.869   0.797
 3945SOL    HW112734   0.281   1.894   0.856
 3945SOL    HW212735   0.165   1.951   0.756
 3946SOL     OW12736   4.750   4.441   3.181
 3946SOL    HW112737   4.808   4.467   3.258
 3946SOL    HW212738   4.661   4.486   3.190
 3947SOL     OW12739   4.747   6.151   0.537
 3947SOL    HW112740   4.731   6.087   0.612
 3947SOL    HW212741   4.769   6.100   0.454
 3948SOL     OW12742   6.015   4.552   1.437
 3948SOL    HW112743   6.097   4.503   1.407
 3948SOL    HW212744   5.937   4.522   1.382
 3949SOL     OW12745   4.429   5.773   2.985
 3949SOL    HW112746   4.369   5.718   3.042
 3949SOL    HW212747   4.435   5.866   3.022
 3950SOL     OW12748   2.131   5.560   0.980
 3950SOL    HW112749   2.220   5.567   1.026
 3950SOL    HW212750   2.145   5.557   0.881
 3951SOL     OW12751   5.251   0.501   1.738
 3951SOL    HW112752   5.323   0.547   1.791
 3951SOL    HW212753   5.171   0.560   1.730
 3952SOL     OW12754   6.756   2.882   0.661
 3952SOL    HW112755   6.853   2.876   0.684
 3952SOL    HW212756   6.746   2.912   0.566
 3953SOL     OW12757   4.208   3.400   1.713
 3953SOL    HW112758   4.206   3.319   1.772
 3953SOL    HW212759   4.198   3.482   1.769
 3954SOL     OW12760   4.188   4.654   5.736
 3954SOL    HW112761   4.089   4.657   5.747
 3954SOL    HW212762   4.228   4.595   5.806
 3955SOL     OW12763   3.580   0.506   5.530
 3955SOL    HW112764   3.559   0.572   5.603
 3955SOL    HW212765   3.603   0.556   5.447
 3956SOL     OW12766   0.820   1.057   2.307
 3956SOL    HW112767   0.863   0.967   2.302
 3956SOL    HW212768   0.739   1.059   2.249
 3957SOL     OW12769   3.724   0.208   4.386
 3957SOL    HW112770   3.632   0.229   4.355
 3957SOL    HW212771   3.761   0.132   4.332
 3958SOL     OW12772   6.071   1.789   4.800
 3958SOL    HW112773   6.154   1.734   4.805
 3958SOL    HW212774   5.994   1.730   4.776
 3959SOL     OW12775   4.965   5.294   0.337
 3959SOL    HW112776   5.008   5.377   0.301
 3959SOL    HW212777   4.874   5.316   0.371
 3960SOL     OW12778   5.399   2.322   5.325
 3960SOL    HW112779   5.330   2.291   5.260
 3960SOL    HW212780   5.443   2.405   5.289
 3961SOL     OW12781   5.350   6.902   3.228
 3961SOL    HW112782   5.441   6.938   3.247
 3961SOL    HW212783   5.324   6.926   3.134
 3962SOL     OW12784   0.396   5.365   5.681
 3962SOL    HW112785   0.424   5.384   5.776
 3962SOL    HW212786   0.375   5.451   5.634
 3963SOL     OW12787   4.284   6.560   2.139
 3963SOL    HW112788   4.192   6.593   2.118
 3963SOL    HW212789   4.321   6.512   2.060
 3964SOL     OW12790   4.861   4.037   3.176
 3964SOL    HW112791   4.827   4.110   3.235
 3964SOL    HW212792   4.920   3.976   3.229
 3965SOL     OW12793   5.271   3.644   4.519
 3965SOL    HW112794   5.183   3.603   4.496
 3965SOL    HW212795   5.332   3.574   4.556
 3966SOL     OW12796   2.888   5.528   6.677
 3966SOL    HW112797   2.806   5.499   6.726
 3966SOL    HW212798   2.929   5.606   6.724
 3967SOL     OW12799   1.748   4.840   2.221
 3967SOL    HW112800   1.696   4.807   2.300
 3967SOL    HW212801   1.733   4.779   2.143
 3968SOL     OW12802   4.184   0.474   0.770
 3968SOL    HW112803   4.140   0.529   0.699
 3968SOL    HW212804   4.185   0.378   0.742
 3969SOL     OW12805   1.873   6.144   2.199
 3969SOL    HW112806   1.934   6.067   2.177
 3969SOL    HW212807   1.825   6.124   2.284
 3970SOL     OW12808   5.529   6.329   2.407
 3970SOL    HW112809   5.519   6.428   2.424
 3970SOL    HW212810   5.465   6.301   2.335
 3971SOL     OW12811   2.993   5.547   4.211
 3971SOL    HW112812   3.074   5.550   4.152
 3971SOL    HW212813   2.953   5.639   4.216
 3972SOL     OW12814   1.953   3.980   6.907
 3972SOL    HW112815   1.982   3.886   6.885
 3972SOL    HW212816   1.904   3.980   6.994
 3973SOL     OW12817   1.095   5.741   0.626
 3973SOL    HW112818   1.087   5.680   0.705
 3973SOL    HW212819   1.062   5.695   0.544
 3974SOL     OW12820   2.350   0.408   6.117
 3974SOL    HW112821   2.279   0.395   6.187
 3974SOL    HW212822   2.350   0.330   6.054
 3975SOL     OW12823   5.260   2.311   6.401
 3975SOL    HW112824   5.250   2.298   6.500
 3975SOL    HW212825   5.185   2.368   6.367
 3976SOL     OW12826   1.731   6.071   2.413
 3976SOL    HW112827   1.779   6.103   2.495
 3976SOL    HW212828   1.636   6.102   2.415
 3977SOL     OW12829   1.036   3.669   6.760
 3977SOL    HW112830   0.952   3.683   6.706
 3977SOL    HW212831   1.106   3.733   6.729
 3978SOL     OW12832   6.911   5.017   3.812
 3978SOL    HW112833   6.952   5.001   3.901
 3978SOL    HW212834   6.891   5.114   3.802
 3979SOL     OW12835   3.623   0.516   6.237
 3979SOL    HW112836   3.596   0.567   6.156
 3979SOL    HW212837   3.588   0.562   6.319
 3980SOL     OW12838   6.196   6.375   6.207
 3980SOL    HW112839   6.119   6.335   6.257
 3980SOL    HW212840   6.265   6.406   6.272
 3981SOL     OW12841   4.754   6.548   0.343
 3981SOL    HW112842   4.658   6.564   0.368
 3981SOL    HW212843   4.798   6.635   0.324
 3982SOL     OW12844   2.530   0.214   2.268
 3982SOL    HW112845   2.448   0.227   2.324
 3982SOL    HW212846   2.611   0.239   2.321
 3983SOL     OW12847   4.172   5.498   3.903
 3983SOL    HW112848   4.251   5.555   3.926
 3983SOL    HW212849   4.124   5.539   3.825
 3984SOL     OW12850   5.923   2.039   2.906
 3984SOL    HW112851   5.995   1.988   2.860
 3984SOL    HW212852   5.883   2.105   2.843
 3985SOL     OW12853   2.729   5.633   6.439
 3985SOL    HW112854   2.674   5.637   6.522
 3985SOL    HW212855   2.718   5.718   6.388
 3986SOL     OW12856   4.830   1.872   2.062
 3986SOL    HW112857   4.878   1.941   2.009
 3986SOL    HW212858   4.882   1.851   2.145
 3987SOL     OW12859   3.439   5.083   4.922
 3987SOL    HW112860   3.353   5.078   4.974
 3987SOL    HW212861   3.430   5.031   4.837
 3988SOL     OW12862   4.706   5.377   0.443
 3988SOL    HW112863   4.668   5.295   0.485
 3988SOL    HW212864   4.639   5.418   0.382
 3989SOL     OW12865   6.279   2.088   6.978
 3989SOL    HW112866   6.201   2.084   6.916
 3989SOL    HW212867   6.333   2.170   6.959
 3990SOL     OW12868   5.108   2.809   1.787
 3990SOL    HW112869   5.070   2.843   1.873
 3990SOL    HW212870   5.065   2.857   1.710
 3991SOL     OW12871   0.113   0.784   3.204
 3991SOL    HW112872   0.017   0.766   3.226
 3991SOL    HW212873   0.140   0.873   3.241
 3992SOL     OW12874   2.907   2.564   1.196
 3992SOL    HW112875   2.867   2.491   1.140
 3992SOL    HW212876   3.003   2.574   1.173
 3993SOL     OW12877   1.379   3.565   2.413
 3993SOL    HW112878   1.355   3.469   2.428
 3993SOL    HW212879   1.326   3.601   2.335
 3994SOL     OW12880   2.827   7.016   5.048
 3994SOL    HW112881   2.898   0.019   4.982
 3994SOL    HW212882   2.795   6.924   5.026
 3995SOL     OW12883   1.386   2.572   5.065
 3995SOL    HW112884   1.367   2.670   5.062
 3995SOL    HW212885   1.441   2.551   5.146
 3996SOL     OW12886   0.690   6.551   5.171
 3996SOL    HW112887   0.650   6.591   5.089
 3996SOL    HW212888   0.786   6.577   5.178
 3997SOL     OW12889   5.412   0.868   4.479
 3997SOL    HW112890   5.386   0.772   4.495
 3997SOL    HW212891   5.330   0.921   4.458
 3998SOL     OW12892   3.966   2.147   3.816
 3998SOL    HW112893   4.050   2.180   3.857
 3998SOL    HW212894   3.888   2.198   3.853
 3999SOL     OW12895   6.013   2.377   4.975
 3999SOL    HW112896   5.944   2.323   4.927
 3999SOL    HW212897   6.096   2.381   4.920
 4000SOL     OW12898   4.049   0.346   3.476
 4000SOL    HW112899   4.134   0.311   3.437
 4000SOL    HW212900   4.043   0.320   3.572
 4001SOL     OW12901   1.383   1.924   3.172
 4001SOL    HW112902   1.369   2.010   3.124
 4001SOL    HW212903   1.463   1.930   3.230
 4002SOL     OW12904   2.062   3.237   2.021
 4002SOL    HW112905   1.987   3.278   2.073
 4002SOL    HW212906   2.126   3.308   1.994
 4003SOL     OW12907   3.550   0.364   4.559
 4003SOL    HW112908   3.631   0.307   4.566
 4003SOL    HW212909   3.538   0.394   4.464
 4004SOL     OW12910   6.625   1.752   5.347
 4004SOL    HW112911   6.531   1.784   5.360
 4004SOL    HW212912   6.686   1.799   5.410
 4005SOL     OW12913   5.631   5.215   5.979
 4005SOL    HW112914   5.702   5.268   5.933
 4005SOL    HW212915   5.547   5.218   5.924
 4006SOL     OW12916   3.800   5.324   2.376
 4006SOL    HW112917   3.730   5.390   2.402
 4006SOL    HW212918   3.891   5.365   2.385
 4007SOL     OW12919   0.124   2.265   6.701
 4007SOL    HW112920   0.194   2.324   6.659
 4007SOL    HW212921   0.052   2.322   6.739
 4008SOL     OW12922   2.345   2.412   4.926
 4008SOL    HW112923   2.309   2.398   4.834
 4008SOL    HW212924   2.340   2.509   4.950
 4009SOL     OW12925   4.072   3.428   2.561
 4009SOL    HW112926   3.975   3.403   2.552
 4009SOL    HW212927   4.086   3.474   2.648
 4010SOL     OW12928   2.072   3.031   0.369
 4010SOL    HW112929   2.101   3.044   0.463
 4010SOL    HW212930   1.986   2.979   0.367
 4011SOL     OW12931   1.119   2.737   1.673
 4011SOL    HW112932   1.077   2.651   1.643
 4011SOL    HW212933   1.048   2.801   1.700
 4012SOL     OW12934   6.605   3.976   3.569
 4012SOL    HW112935   6.668   3.900   3.587
 4012SOL    HW212936   6.650   4.062   3.590
 4013SOL     OW12937   4.595   2.531   3.324
 4013SOL    HW112938   4.545   2.496   3.403
 4013SOL    HW212939   4.688   2.494   3.323
 4014SOL     OW12940   5.170   6.006   2.898
 4014SOL    HW112941   5.193   5.912   2.874
 4014SOL    HW212942   5.197   6.067   2.823
 4015SOL     OW12943   5.345   3.872   6.015
 4015SOL    HW112944   5.398   3.951   5.983
 4015SOL    HW212945   5.326   3.882   6.112
 4016SOL     OW12946   2.756   6.290   5.407
 4016SOL    HW112947   2.841   6.279   5.459
 4016SOL    HW212948   2.736   6.206   5.357
 4017SOL     OW12949   6.500   5.725   6.844
 4017SOL    HW112950   6.414   5.726   6.894
 4017SOL    HW212951   6.486   5.764   6.753
 4018SOL     OW12952   3.107   5.511   0.579
 4018SOL    HW112953   3.055   5.596   0.580
 4018SOL    HW212954   3.200   5.529   0.547
 4019SOL     OW12955   5.591   5.269   3.525
 4019SOL    HW112956   5.517   5.335   3.513
 4019SOL    HW212957   5.570   5.210   3.604
 4020SOL     OW12958   5.120   1.753   5.680
 4020SOL    HW112959   5.217   1.745   5.705
 4020SOL    HW212960   5.086   1.843   5.705
 4021SOL     OW12961   3.196   4.427   5.851
 4021SOL    HW112962   3.292   4.445   5.831
 4021SOL    HW212963   3.143   4.430   5.766
 4022SOL     OW12964   5.140   0.229   1.252
 4022SOL    HW112965   5.200   0.256   1.177
 4022SOL    HW212966   5.130   0.306   1.315
 4023SOL     OW12967   6.594   0.396   6.044
 4023SOL    HW112968   6.636   0.467   6.101
 4023SOL    HW212969   6.557   0.324   6.102
 4024SOL     OW12970   3.975   4.852   3.945
 4024SOL    HW112971   4.003   4.888   3.856
 4024SOL    HW212972   4.056   4.832   4.000
 4025SOL     OW12973   1.129   4.713   2.929
 4025SOL    HW112974   1.217   4.747   2.896
 4025SOL    HW212975   1.062   4.715   2.854
 4026SOL     OW12976   5.628   6.808   4.484
 4026SOL    HW112977   5.539   6.820   4.527
 4026SOL    HW212978   5.643   6.880   4.417
 4027SOL     OW12979   4.018   5.279   1.431
 4027SOL    HW112980   3.995   5.218   1.507
 4027SOL    HW212981   4.070   5.357   1.465
 4028SOL     OW12982   2.373   0.302   3.775
 4028SOL    HW112983   2.322   0.219   3.799
 4028SOL    HW212984   2.316   0.360   3.717
 4029SOL     OW12985   2.174   4.316   4.726
 4029SOL    HW112986   2.076   4.332   4.730
 4029SOL    HW212987   2.219   4.393   4.680
 4030SOL     OW12988   0.581   1.836   5.578
 4030SOL    HW112989   0.633   1.848   5.662
 4030SOL    HW212990   0.642   1.802   5.506
 4031SOL     OW12991   4.097   5.605   4.389
 4031SOL    HW112992   4.160   5.572   4.459
 4031SOL    HW212993   4.011   5.553   4.394
 4032SOL     OW12994   5.079   0.395   4.754
 4032SOL    HW112995   5.100   0.381   4.850
 4032SOL    HW212996   5.162   0.427   4.706
 4033SOL     OW12997   2.747   3.850   5.640
 4033SOL    HW112998   2.724   3.891   5.551
 4033SOL    HW212999   2.839   3.811   5.636
 4034SOL     OW13000   6.633   2.161   4.085
 4034SOL    HW113001   6.704   2.216   4.041
 4034SOL    HW213002   6.605   2.087   4.023
 4035SOL     OW13003   0.312   5.112   0.631
 4035SOL    HW113004   0.336   5.146   0.540
 4035SOL    HW213005   0.217   5.135   0.651
 4036SOL     OW13006   6.604   6.781   3.176
 4036SOL    HW113007   6.552   6.862   3.147
 4036SOL    HW213008   6.579   6.756   3.269
 4037SOL     OW13009   6.638   4.161   6.225
 4037SOL    HW113010   6.650   4.167   6.324
 4037SOL    HW213011   6.559   4.102   6.205
 4038SOL     OW13012   6.424   5.022   3.931
 4038SOL    HW113013   6.401   4.926   3.946
 4038SOL    HW213014   6.524   5.033   3.933
 4039SOL     OW13015   4.137   5.895   1.064
 4039SOL    HW113016   4.188   5.965   1.114
 4039SOL    HW213017   4.073   5.849   1.126
 4040SOL     OW13018   3.774   6.327   1.270
 4040SOL    HW113019   3.714   6.408   1.271
 4040SOL    HW213020   3.782   6.293   1.176
 4041SOL     OW13021   1.393   0.062   3.843
 4041SOL    HW113022   1.296   0.079   3.861
 4041SOL    HW213023   1.437   0.147   3.816
 4042SOL     OW13024   6.013   5.374   2.307
 4042SOL    HW113025   5.925   5.350   2.266
 4042SOL    HW213026   6.001   5.451   2.369
 4043SOL     OW13027   6.784   3.162   1.485
 4043SOL    HW113028   6.704   3.134   1.432
 4043SOL    HW213029   6.802   3.095   1.556
 4044SOL     OW13030   6.205   5.975   3.319
 4044SOL    HW113031   6.171   5.916   3.245
 4044SOL    HW213032   6.148   5.964   3.400
 4045SOL     OW13033   2.186   5.419   5.657
 4045SOL    HW113034   2.096   5.419   5.699
 4045SOL    HW213035   2.212   5.325   5.633
 4046SOL     OW13036   1.257   3.110   1.012
 4046SOL    HW113037   1.313   3.063   0.944
 4046SOL    HW213038   1.181   3.050   1.039
 4047SOL     OW13039   3.584   4.137   1.600
 4047SOL    HW113040   3.546   4.140   1.692
 4047SOL    HW213041   3.522   4.183   1.537
 4048SOL     OW13042   5.157   1.838   1.020
 4048SOL    HW113043   5.223   1.911   1.039
 4048SOL    HW213044   5.098   1.866   0.944
 4049SOL     OW13045   6.821   0.640   5.985
 4049SOL    HW113046   6.897   0.631   6.049
 4049SOL    HW213047   6.735   0.639   6.036
 4050SOL     OW13048   2.226   0.920   1.065
 4050SOL    HW113049   2.323   0.946   1.067
 4050SOL    HW213050   2.178   0.975   0.998
 4051SOL     OW13051   1.688   3.800   0.833
 4051SOL    HW113052   1.685   3.832   0.738
 4051SOL    HW213053   1.765   3.738   0.844
 4052SOL     OW13054   1.760   5.935   1.867
 4052SOL    HW113055   1.763   5.838   1.844
 4052SOL    HW213056   1.836   5.983   1.823
 4053SOL     OW13057   2.846   4.843   3.402
 4053SOL    HW113058   2.817   4.808   3.492
 4053SOL    HW213059   2.933   4.802   3.377
 4054SOL     OW13060   5.544   1.753   6.635
 4054SOL    HW113061   5.480   1.770   6.711
 4054SOL    HW213062   5.634   1.729   6.671
 4055SOL     OW13063   4.099   2.133   0.287
 4055SOL    HW113064   4.074   2.220   0.328
 4055SOL    HW213065   4.091   2.060   0.356
 4056SOL     OW13066   3.963   3.028   0.908
 4056SOL    HW113067   3.878   3.008   0.958
 4056SOL    HW213068   4.009   3.106   0.950
 4057SOL     OW13069   6.321   2.288   6.757
 4057SOL    HW113070   6.358   2.295   6.665
 4057SOL    HW213071   6.321   2.379   6.800
 4058SOL     OW13072   1.459   0.793   4.850
 4058SOL    HW113073   1.491   0.821   4.941
 4058SOL    HW213074   1.528   0.735   4.807
 4059SOL     OW13075   6.460   1.401   4.785
 4059SOL    HW113076   6.466   1.336   4.710
 4059SOL    HW213077   6.549   1.445   4.799
 4060SOL     OW13078   4.130   5.775   4.767
 4060SOL    HW113079   4.174   5.859   4.738
 4060SOL    HW213080   4.086   5.732   4.689
 4061SOL     OW13081   2.565   3.110   1.587
 4061SOL    HW113082   2.629   3.147   1.519
 4061SOL    HW213083   2.599   3.022   1.620
 4062SOL     OW13084   3.019   6.553   3.070
 4062SOL    HW113085   3.062   6.592   3.152
 4062SOL    HW213086   2.925   6.526   3.091
 4063SOL     OW13087   2.754   5.267   6.044
 4063SOL    HW113088   2.825   5.279   6.114
 4063SOL    HW213089   2.762   5.340   5.976
 4064SOL     OW13090   6.272   0.406   4.284
 4064SOL    HW113091   6.258   0.394   4.185
 4064SOL    HW213092   6.248   0.500   4.310
 4065SOL     OW13093   5.812   4.812   6.986
 4065SOL    HW113094   5.781   4.895   6.940
 4065SOL    HW213095   5.910   4.819   7.006
 4066SOL     OW13096   5.926   4.985   1.932
 4066SOL    HW113097   5.841   5.019   1.892
 4066SOL    HW213098   5.944   5.034   2.018
 4067SOL     OW13099   6.079   1.107   1.848
 4067SOL    HW113100   6.146   1.128   1.777
 4067SOL    HW213101   6.092   1.012   1.879
 4068SOL     OW13102   5.488   1.152   4.112
 4068SOL    HW113103   5.496   1.241   4.157
 4068SOL    HW213104   5.502   1.163   4.014
 4069SOL     OW13105   0.176   5.913   1.202
 4069SOL    HW113106   0.127   5.854   1.136
 4069SOL    HW213107   0.111   5.949   1.269
 4070SOL     OW13108   0.345   3.720   2.832
 4070SOL    HW113109   0.246   3.715   2.826
 4070SOL    HW213110   0.380   3.644   2.887
 4071SOL     OW13111   2.494   0.965   3.740
 4071SOL    HW113112   2.481   0.883   3.795
 4071SOL    HW213113   2.497   1.045   3.800
 4072SOL     OW13114   0.760   0.176   4.452
 4072SOL    HW113115   0.663   0.168   4.427
 4072SOL    HW213116   0.792   0.088   4.487
 4073SOL     OW13117   3.114   5.086   1.391
 4073SOL    HW113118   3.098   5.016   1.461
 4073SOL    HW213119   3.121   5.042   1.302
 4074SOL     OW13120   1.085   2.898   0.827
 4074SOL    HW113121   1.049   2.863   0.741
 4074SOL    HW213122   1.103   2.822   0.890
 4075SOL     OW13123   5.267   0.849   3.850
 4075SOL    HW113124   5.304   0.787   3.919
 4075SOL    HW213125   5.167   0.841   3.847
 4076SOL     OW13126   1.534   2.620   3.414
 4076SOL    HW113127   1.445   2.598   3.455
 4076SOL    HW213128   1.540   2.578   3.324
 4077SOL     OW13129   2.848   1.838   0.759
 4077SOL    HW113130   2.786   1.801   0.828
 4077SOL    HW213131   2.942   1.828   0.791
 4078SOL     OW13132   5.227   3.908   2.565
 4078SOL    HW113133   5.236   3.817   2.526
 4078SOL    HW213134   5.168   3.904   2.646
 4079SOL     OW13135   6.413   0.855   3.941
 4079SOL    HW113136   6.477   0.848   3.865
 4079SOL    HW213137   6.459   0.834   4.026
 4080SOL     OW13138   3.557   2.939   2.427
 4080SOL    HW113139   3.637   2.965   2.373
 4080SOL    HW213140   3.489   2.897   2.367
 4081SOL     OW13141   2.307   2.234   6.387
 4081SOL    HW113142   2.381   2.194   6.441
 4081SOL    HW213143   2.239   2.164   6.367
 4082SOL     OW13144   1.429   2.278   5.623
 4082SOL    HW113145   1.361   2.302   5.554
 4082SOL    HW213146   1.486   2.203   5.590
 4083SOL     OW13147   5.691   5.624   2.661
 4083SOL    HW113148   5.597   5.648   2.636
 4083SOL    HW213149   5.727   5.558   2.594
 4084SOL     OW13150   4.378   0.540   2.791
 4084SOL    HW113151   4.320   0.602   2.843
 4084SOL    HW213152   4.462   0.522   2.843
 4085SOL     OW13153   3.138   4.825   2.353
 4085SOL    HW113154   3.103   4.734   2.371
 4085SOL    HW213155   3.183   4.827   2.263
 4086SOL     OW13156   6.176   4.729   4.883
 4086SOL    HW113157   6.164   4.704   4.787
 4086SOL    HW213158   6.153   4.651   4.941
 4087SOL     OW13159   1.921   0.480   2.276
 4087SOL    HW113160   1.823   0.459   2.288
 4087SOL    HW213161   1.973   0.395   2.277
 4088SOL     OW13162   0.166   2.043   5.371
 4088SOL    HW113163   0.188   1.946   5.381
 4088SOL    HW213164   0.201   2.076   5.283
 4089SOL     OW13165   0.918   0.798   2.789
 4089SOL    HW113166   0.954   0.705   2.775
 4089SOL    HW213167   0.907   0.815   2.887
 4090SOL     OW13168   2.734   2.072   5.865
 4090SOL    HW113169   2.687   2.122   5.793
 4090SOL    HW213170   2.832   2.065   5.843
 4091SOL     OW13171   3.396   5.520   1.960
 4091SOL    HW113172   3.327   5.536   1.890
 4091SOL    HW213173   3.488   5.529   1.920
 4092SOL     OW13174   5.133   2.592   5.641
 4092SOL    HW113175   5.127   2.597   5.541
 4092SOL    HW213176   5.230   2.592   5.668
 4093SOL     OW13177   5.379   4.190   3.744
 4093SOL    HW113178   5.300   4.135   3.718
 4093SOL    HW213179   5.350   4.266   3.802
 4094SOL     OW13180   0.325   5.973   6.817
 4094SOL    HW113181   0.247   6.035   6.824
 4094SOL    HW213182   0.367   5.982   6.726
 4095SOL     OW13183   0.864   5.251   0.640
 4095SOL    HW113184   0.857   5.153   0.658
 4095SOL    HW213185   0.878   5.267   0.543
 4096SOL     OW13186   0.642   0.767   6.811
 4096SOL    HW113187   0.624   0.795   6.905
 4096SOL    HW213188   0.660   0.669   6.808
 4097SOL     OW13189   6.528   3.760   4.946
 4097SOL    HW113190   6.464   3.772   4.871
 4097SOL    HW213191   6.478   3.751   5.032
 4098SOL     OW13192   1.350   4.820   2.833
 4098SOL    HW113193   1.388   4.764   2.760
 4098SOL    HW213194   1.418   4.830   2.906
 4099SOL     OW13195   5.938   4.324   6.022
 4099SOL    HW113196   6.031   4.343   6.055
 4099SOL    HW213197   5.933   4.342   5.924
 4100SOL     OW13198   1.939   1.568   2.893
 4100SOL    HW113199   1.864   1.631   2.872
 4100SOL    HW213200   1.999   1.609   2.962
 4101SOL     OW13201   6.590   5.478   6.821
 4101SOL    HW113202   6.641   5.464   6.736
 4101SOL    HW213203   6.568   5.575   6.831
 4102SOL     OW13204   1.517   6.118   0.559
 4102SOL    HW113205   1.537   6.124   0.461
 4102SOL    HW213206   1.429   6.162   0.578
 4103SOL     OW13207   1.935   6.973   3.760
 4103SOL    HW113208   1.948   6.875   3.777
 4103SOL    HW213209   1.839   6.997   3.773
 4104SOL     OW13210   2.287   5.600   5.045
 4104SOL    HW113211   2.205   5.591   5.101
 4104SOL    HW213212   2.365   5.622   5.103
 4105SOL     OW13213   4.395   0.291   2.178
 4105SOL    HW113214   4.474   0.339   2.138
 4105SOL    HW213215   4.423   0.201   2.209
 4106SOL     OW13216   1.163   0.994   2.743
 4106SOL    HW113217   1.064   0.998   2.731
 4106SOL    HW213218   1.201   1.087   2.738
 4107SOL     OW13219   1.594   0.495   1.505
 4107SOL    HW113220   1.649   0.483   1.588
 4107SOL    HW213221   1.647   0.545   1.437
 4108SOL     OW13222   6.439   6.097   5.733
 4108SOL    HW113223   6.371   6.063   5.799
 4108SOL    HW213224   6.494   6.021   5.700
 4109SOL     OW13225   5.401   6.178   3.688
 4109SOL    HW113226   5.499   6.169   3.672
 4109SOL    HW213227   5.351   6.121   3.623
 4110SOL     OW13228   5.367   2.819   0.689
 4110SOL    HW113229   5.366   2.721   0.670
 4110SOL    HW213230   5.419   2.867   0.618
 4111SOL     OW13231   5.910   3.901   4.084
 4111SOL    HW113232   5.894   3.946   3.996
 4111SOL    HW213233   6.009   3.891   4.099
 4112SOL     OW13234   3.821   6.036   4.200
 4112SOL    HW113235   3.859   6.081   4.281
 4112SOL    HW213236   3.882   5.962   4.172
 4113SOL     OW13237   4.302   5.060   4.553
 4113SOL    HW113238   4.321   5.144   4.502
 4113SOL    HW213239   4.208   5.030   4.533
 4114SOL     OW13240   6.938   1.152   1.678
 4114SOL    HW113241   6.965   1.241   1.641
 4114SOL    HW213242   6.937   1.084   1.604
 4115SOL     OW13243   4.304   5.453   3.590
 4115SOL    HW113244   4.207   5.455   3.613
 4115SOL    HW213245   4.326   5.532   3.532
 4116SOL     OW13246   4.897   3.815   2.997
 4116SOL    HW113247   4.806   3.848   2.970
 4116SOL    HW213248   4.916   3.842   3.091
 4117SOL     OW13249   1.168   1.673   3.721
 4117SOL    HW113250   1.226   1.755   3.719
 4117SOL    HW213251   1.134   1.658   3.814
 4118SOL     OW13252   0.923   6.817   0.430
 4118SOL    HW113253   1.019   6.828   0.403
 4118SOL    HW213254   0.912   6.843   0.526
 4119SOL     OW13255   0.544   0.592   4.599
 4119SOL    HW113256   0.508   0.619   4.688
 4119SOL    HW213257   0.556   0.493   4.596
 4120SOL     OW13258   2.334   0.782   6.687
 4120SOL    HW113259   2.259   0.780   6.621
 4120SOL    HW213260   2.333   0.698   6.741
 4121SOL     OW13261   6.696   0.196   2.115
 4121SOL    HW113262   6.705   0.247   2.030
 4121SOL    HW213263   6.601   0.193   2.144
 4122SOL     OW13264   0.773   4.237   3.080
 4122SOL    HW113265   0.865   4.223   3.045
 4122SOL    HW213266   0.735   4.322   3.041
 4123SOL     OW13267   5.241   4.772   1.239
 4123SOL    HW113268   5.189   4.687   1.229
 4123SOL    HW213269   5.178   4.850   1.235
 4124SOL     OW13270   6.639   5.759   0.136
 4124SOL    HW113271   6.599   5.850   0.150
 4124SOL    HW213272   6.620   5.728   0.043
 4125SOL     OW13273   6.222   2.501   0.599
 4125SOL    HW113274   6.194   2.562   0.673
 4125SOL    HW213275   6.143   2.449   0.567
 4126SOL     OW13276   0.669   3.186   3.258
 4126SOL    HW113277   0.591   3.157   3.312
 4126SOL    HW213278   0.735   3.111   3.252
 4127SOL     OW13279   4.651   2.596   4.111
 4127SOL    HW113280   4.708   2.666   4.068
 4127SOL    HW213281   4.651   2.610   4.211
 4128SOL     OW13282   6.846   2.935   6.526
 4128SOL    HW113283   6.910   2.959   6.599
 4128SOL    HW213284   6.752   2.953   6.556
 4129SOL     OW13285   3.104   1.805   0.812
 4129SOL    HW113286   3.177   1.872   0.823
 4129SOL    HW213287   3.144   1.715   0.792
 4130SOL     OW13288   6.261   3.055   0.763
 4130SOL    HW113289   6.172   3.011   0.769
 4130SOL    HW213290   6.319   3.005   0.700
 4131SOL     OW13291   5.170   6.698   3.164
 4131SOL    HW113292   5.230   6.767   3.204
 4131SOL    HW213293   5.201   6.675   3.072
 4132SOL     OW13294   6.368   4.983   3.193
 4132SOL    HW113295   6.362   5.053   3.264
 4132SOL    HW213296   6.277   4.966   3.155
 4133SOL     OW13297   5.700   0.084   2.741
 4133SOL    HW113298   5.792   0.045   2.746
 4133SOL    HW213299   5.673   0.116   2.832
 4134SOL     OW13300   1.594   3.605   1.143
 4134SOL    HW113301   1.596   3.535   1.071
 4134SOL    HW213302   1.606   3.562   1.232
 4135SOL     OW13303   6.435   0.927   1.682
 4135SOL    HW113304   6.389   0.866   1.747
 4135SOL    HW213305   6.422   0.893   1.589
 4136SOL     OW13306   0.809   4.992   1.076
 4136SOL    HW113307   0.843   5.083   1.052
 4136SOL    HW213308   0.712   4.985   1.051
 4137SOL     OW13309   0.825   2.120   6.709
 4137SOL    HW113310   0.727   2.112   6.692
 4137SOL    HW213311   0.848   2.217   6.723
 4138SOL     OW13312   4.592   0.295   0.152
 4138SOL    HW113313   4.542   0.379   0.170
 4138SOL    HW213314   4.634   0.300   0.061
 4139SOL     OW13315   2.317   4.163   3.061
 4139SOL    HW113316   2.344   4.219   2.983
 4139SOL    HW213317   2.299   4.069   3.030
 4140SOL     OW13318   2.358   0.322   6.555
 4140SOL    HW113319   2.443   0.269   6.560
 4140SOL    HW213320   2.295   0.278   6.491
 4141SOL     OW13321   5.518   0.815   5.792
 4141SOL    HW113322   5.493   0.750   5.863
 4141SOL    HW213323   5.616   0.806   5.771
 4142SOL     OW13324   6.677   5.495   2.395
 4142SOL    HW113325   6.728   5.480   2.311
 4142SOL    HW213326   6.582   5.519   2.373
 4143SOL     OW13327   6.747   3.367   6.818
 4143SOL    HW113328   6.754   3.414   6.906
 4143SOL    HW213329   6.702   3.427   6.752
 4144SOL     OW13330   5.287   1.485   1.305
 4144SOL    HW113331   5.256   1.389   1.306
 4144SOL    HW213332   5.218   1.541   1.260
 4145SOL     OW13333   0.014   0.554   1.697
 4145SOL    HW113334   0.019   0.492   1.775
 4145SOL    HW213335   0.043   0.646   1.726
 4146SOL     OW13336   4.798   6.651   2.219
 4146SOL    HW113337   4.759   6.743   2.207
 4146SOL    HW213338   4.732   6.594   2.268
 4147SOL     OW13339   4.639   4.920   6.665
 4147SOL    HW113340   4.552   4.956   6.631
 4147SOL    HW213341   4.670   4.976   6.742
 4148SOL     OW13342   2.834   1.213   4.983
 4148SOL    HW113343   2.845   1.114   4.971
 4148SOL    HW213344   2.787   1.230   5.069
 4149SOL     OW13345   1.233   3.999   6.397
 4149SOL    HW113346   1.197   3.986   6.305
 4149SOL    HW213347   1.315   4.056   6.393
 4150SOL     OW13348   5.419   1.359   6.767
 4150SOL    HW113349   5.365   1.277   6.747
 4150SOL    HW213350   5.414   1.422   6.690
 4151SOL     OW13351   2.559   5.921   4.498
 4151SOL    HW113352   2.573   5.891   4.592
 4151SOL    HW213353   2.602   6.011   4.485
 4152SOL     OW13354   2.344   4.421   1.398
 4152SOL    HW113355   2.286   4.348   1.433
 4152SOL    HW213356   2.287   4.499   1.373
 4153SOL     OW13357   6.521   6.201   1.617
 4153SOL    HW113358   6.422   6.187   1.616
 4153SOL    HW213359   6.555   6.194   1.711
 4154SOL     OW13360   1.080   6.407   4.100
 4154SOL    HW113361   1.139   6.357   4.163
 4154SOL    HW213362   1.048   6.491   4.145
 4155SOL     OW13363   0.202   0.725   1.833
 4155SOL    HW113364   0.267   0.751   1.905
 4155SOL    HW213365   0.251   0.681   1.758
 4156SOL     OW13366   0.338   5.087   5.852
 4156SOL    HW113367   0.343   5.185   5.832
 4156SOL    HW213368   0.301   5.074   5.944
 4157SOL     OW13369   5.563   5.820   1.214
 4157SOL    HW113370   5.602   5.866   1.135
 4157SOL    HW213371   5.621   5.835   1.294
 4158SOL     OW13372   0.579   3.226   1.729
 4158SOL    HW113373   0.600   3.139   1.683
 4158SOL    HW213374   0.574   3.211   1.828
 4159SOL     OW13375   2.743   0.432   4.495
 4159SOL    HW113376   2.751   0.384   4.408
 4159SOL    HW213377   2.736   0.531   4.479
 4160SOL     OW13378   0.779   0.149   6.655
 4160SOL    HW113379   0.798   0.225   6.593
 4160SOL    HW213380   0.865   0.105   6.681
 4161SOL     OW13381   3.544   3.430   2.942
 4161SOL    HW113382   3.631   3.402   2.982
 4161SOL    HW213383   3.501   3.350   2.899
 4162SOL     OW13384   5.401   5.628   1.333
 4162SOL    HW113385   5.446   5.712   1.304
 4162SOL    HW213386   5.455   5.549   1.302
 4163SOL     OW13387   3.281   6.103   2.171
 4163SOL    HW113388   3.266   6.100   2.073
 4163SOL    HW213389   3.296   6.197   2.200
 4164SOL     OW13390   0.061   1.127   6.198
 4164SOL    HW113391   0.029   1.092   6.286
 4164SOL    HW213392   0.146   1.178   6.212
 4165SOL     OW13393   4.158   0.897   4.561
 4165SOL    HW113394   4.110   0.940   4.485
 4165SOL    HW213395   4.234   0.955   4.589
 4166SOL     OW13396   5.622   1.927   1.127
 4166SOL    HW113397   5.712   1.916   1.086
 4166SOL    HW213398   5.624   1.894   1.222
 4167SOL     OW13399   3.467   5.198   4.137
 4167SOL    HW113400   3.438   5.270   4.199
 4167SOL    HW213401   3.387   5.154   4.097
 4168SOL     OW13402   5.096   3.547   0.057
 4168SOL    HW113403   5.019   3.505   0.008
 4168SOL    HW213404   5.126   3.486   0.130
 4169SOL     OW13405   5.221   2.640   5.943
 4169SOL    HW113406   5.167   2.557   5.948
 4169SOL    HW213407   5.193   2.703   6.016
 4170SOL     OW13408   0.534   2.278   4.424
 4170SOL    HW113409   0.591   2.357   4.399
 4170SOL    HW213410   0.585   2.219   4.486
 4171SOL     OW13411   0.913   1.399   6.954
 4171SOL    HW113412   0.956   1.486   6.976
 4171SOL    HW213413   0.942   1.330   7.021
 4172SOL     OW13414   2.888   3.266   0.515
 4172SOL    HW113415   2.812   3.307   0.466
 4172SOL    HW213416   2.974   3.304   0.481
 4173SOL     OW13417   5.018   1.953   6.717
 4173SOL    HW113418   4.947   2.020   6.698
 4173SOL    HW213419   5.034   1.948   6.816
 4174SOL     OW13420   4.129   0.266   4.905
 4174SOL    HW113421   4.044   0.263   4.957
 4174SOL    HW213422   4.138   0.356   4.862
 4175SOL     OW13423   0.718   4.344   6.389
 4175SOL    HW113424   0.665   4.427   6.406
 4175SOL    HW213425   0.693   4.274   6.456
 4176SOL     OW13426   5.852   6.799   6.171
 4176SOL    HW113427   5.938   6.795   6.121
 4176SOL    HW213428   5.870   6.800   6.270
 4177SOL     OW13429   3.997   4.954   2.930
 4177SOL    HW113430   3.898   4.951   2.915
 4177SOL    HW213431   4.044   4.936   2.843
 4178SOL     OW13432   3.908   5.874   1.491
 4178SOL    HW113433   3.981   5.842   1.550
 4178SOL    HW213434   3.911   5.974   1.485
 4179SOL     OW13435   5.135   3.178   6.339
 4179SOL    HW113436   5.159   3.232   6.259
 4179SOL    HW213437   5.216   3.131   6.374
 4180SOL     OW13438   4.278   3.401   1.111
 4180SOL    HW113439   4.305   3.400   1.207
 4180SOL    HW213440   4.282   3.495   1.076
 4181SOL     OW13441   5.074   6.873   5.518
 4181SOL    HW113442   5.044   6.917   5.603
 4181SOL    HW213443   5.037   6.923   5.440
 4182SOL     OW13444   0.627   6.758   4.654
 4182SOL    HW113445   0.593   6.731   4.744
 4182SOL    HW213446   0.585   6.702   4.583
 4183SOL     OW13447   4.298   2.076   0.542
 4183SOL    HW113448   4.212   2.124   0.561
 4183SOL    HW213449   4.303   2.054   0.444
 4184SOL     OW13450   3.474   5.558   3.843
 4184SOL    HW113451   3.534   5.610   3.903
 4184SOL    HW213452   3.432   5.620   3.776
 4185SOL     OW13453   4.981   3.283   3.268
 4185SOL    HW113454   5.069   3.255   3.231
 4185SOL    HW213455   4.917   3.205   3.263
 4186SOL     OW13456   1.569   6.119   0.286
 4186SOL    HW113457   1.582   6.171   0.202
 4186SOL    HW213458   1.620   6.033   0.280
 4187SOL     OW13459   1.675   3.285   6.846
 4187SOL    HW113460   1.664   3.370   6.897
 4187SOL    HW213461   1.585   3.247   6.822
 4188SOL     OW13462   4.436   0.104   0.028
 4188SOL    HW113463   4.352   0.090   0.079
 4188SOL    HW213464   4.492   0.173   0.074
 4189SOL     OW13465   4.461   4.878   3.953
 4189SOL    HW113466   4.413   4.809   3.899
 4189SOL    HW213467   4.485   4.955   3.894
 4190SOL     OW13468   6.576   5.988   1.251
 4190SOL    HW113469   6.668   5.956   1.274
 4190SOL    HW213470   6.564   6.081   1.285
 4191SOL     OW13471   4.645   3.983   6.726
 4191SOL    HW113472   4.549   4.000   6.747
 4191SOL    HW213473   4.700   3.993   6.809
 4192SOL     OW13474   1.552   3.031   0.134
 4192SOL    HW113475   1.618   2.998   0.067
 4192SOL    HW213476   1.524   2.955   0.193
 4193SOL     OW13477   0.273   0.620   0.513
 4193SOL    HW113478   0.256   0.664   0.425
 4193SOL    HW213479   0.337   0.544   0.501
 4194SOL     OW13480   4.926   1.629   5.819
 4194SOL    HW113481   4.994   1.676   5.762
 4194SOL    HW213482   4.947   1.645   5.915
 4195SOL     OW13483   3.607   6.808   0.665
 4195SOL    HW113484   3.659   6.737   0.619
 4195SOL    HW213485   3.545   6.852   0.600
 4196SOL     OW13486   6.424   2.891   2.349
 4196SOL    HW113487   6.372   2.906   2.433
 4196SOL    HW213488   6.455   2.979   2.314
 4197SOL     OW13489   3.973   1.221   6.442
 4197SOL    HW113490   3.934   1.174   6.363
 4197SOL    HW213491   4.060   1.176   6.467
 4198SOL     OW13492   6.400   2.256   2.042
 4198SOL    HW113493   6.372   2.166   2.009
 4198SOL    HW213494   6.319   2.316   2.046
 4199SOL     OW13495   0.266   4.286   6.304
 4199SOL    HW113496   0.331   4.312   6.232
 4199SOL    HW213497   0.180   4.258   6.263
 4200SOL     OW13498   4.412   1.306   3.966
 4200SOL    HW113499   4.418   1.374   3.892
 4200SOL    HW213500   4.336   1.330   4.027
 4201SOL     OW13501   5.971   6.765   3.877
 4201SOL    HW113502   5.982   6.841   3.814
 4201SOL    HW213503   5.880   6.725   3.867
 4202SOL     OW13504   4.837   4.114   1.586
 4202SOL    HW113505   4.780   4.088   1.508
 4202SOL    HW213506   4.934   4.102   1.562
 4203SOL     OW13507   6.378   4.299   5.005
 4203SOL    HW113508   6.423   4.213   5.029
 4203SOL    HW213509   6.323   4.286   4.922
 4204SOL     OW13510   1.837   3.670   6.411
 4204SOL    HW113511   1.844   3.650   6.314
 4204SOL    HW213512   1.824   3.769   6.424
 4205SOL     OW13513   4.142   6.357   6.570
 4205SOL    HW113514   4.201   6.377   6.649
 4205SOL    HW213515   4.066   6.423   6.568
 4206SOL     OW13516   1.987   1.925   4.923
 4206SOL    HW113517   1.937   2.004   4.887
 4206SOL    HW213518   1.961   1.842   4.874
 4207SOL     OW13519   0.521   1.650   2.210
 4207SOL    HW113520   0.513   1.737   2.161
 4207SOL    HW213521   0.430   1.617   2.233
 4208SOL     OW13522   1.918   2.786   3.855
 4208SOL    HW113523   1.847   2.840   3.901
 4208SOL    HW213524   1.915   2.692   3.889
 4209SOL     OW13525   6.399   6.353   2.098
 4209SOL    HW113526   6.478   6.350   2.037
 4209SOL    HW213527   6.429   6.338   2.192
 4210SOL     OW13528   3.832   4.056   5.049
 4210SOL    HW113529   3.831   4.066   4.950
 4210SOL    HW213530   3.891   4.126   5.089
 4211SOL     OW13531   3.861   2.586   5.380
 4211SOL    HW113532   3.933   2.593   5.310
 4211SOL    HW213533   3.797   2.662   5.370
 4212SOL     OW13534   6.634   2.172   3.369
 4212SOL    HW113535   6.563   2.127   3.314
 4212SOL    HW213536   6.621   2.148   3.465
 4213SOL     OW13537   2.840   0.842   4.121
 4213SOL    HW113538   2.806   0.758   4.163
 4213SOL    HW213539   2.870   0.823   4.028
 4214SOL     OW13540   6.701   6.229   3.122
 4214SOL    HW113541   6.737   6.204   3.212
 4214SOL    HW213542   6.744   6.315   3.093
 4215SOL     OW13543   5.234   6.620   5.587
 4215SOL    HW113544   5.182   6.705   5.579
 4215SOL    HW213545   5.208   6.573   5.672
 4216SOL     OW13546   2.507   5.953   2.102
 4216SOL    HW113547   2.514   5.878   2.168
 4216SOL    HW213548   2.590   5.955   2.046
 4217SOL     OW13549   0.913   0.891   3.034
 4217SOL    HW113550   1.004   0.931   3.041
 4217SOL    HW213551   0.855   0.927   3.107
 4218SOL     OW13552   3.396   1.177   0.552
 4218SOL    HW113553   3.443   1.088   0.546
 4218SOL    HW213554   3.422   1.222   0.637
 4219SOL     OW13555   4.140   5.497   2.745
 4219SOL    HW113556   4.216   5.508   2.682
 4219SOL    HW213557   4.113   5.587   2.781
 4220SOL     OW13558   5.825   1.507   1.526
 4220SOL    HW113559   5.821   1.601   1.493
 4220SOL    HW213560   5.858   1.447   1.453
 4221SOL     OW13561   1.289   6.270   0.622
 4221SOL    HW113562   1.213   6.253   0.684
 4221SOL    HW213563   1.336   6.354   0.649
 4222SOL     OW13564   5.065   2.824   4.401
 4222SOL    HW113565   5.062   2.798   4.498
 4222SOL    HW213566   5.091   2.920   4.393
 4223SOL     OW13567   4.186   3.657   1.894
 4223SOL    HW113568   4.136   3.629   1.976
 4223SOL    HW213569   4.265   3.712   1.920
 4224SOL     OW13570   4.985   4.660   4.637
 4224SOL    HW113571   4.967   4.582   4.577
 4224SOL    HW213572   4.912   4.666   4.706
 4225SOL     OW13573   0.663   2.133   5.872
 4225SOL    HW113574   0.697   2.119   5.779
 4225SOL    HW213575   0.566   2.155   5.869
 4226SOL     OW13576   0.603   6.034   4.638
 4226SOL    HW113577   0.559   5.986   4.562
 4226SOL    HW213578   0.619   5.970   4.713
 4227SOL     OW13579   4.259   5.193   2.013
 4227SOL    HW113580   4.240   5.096   2.028
 4227SOL    HW213581   4.351   5.215   2.045
 4228SOL     OW13582   1.235   5.380   3.722
 4228SOL    HW113583   1.180   5.441   3.665
 4228SOL    HW213584   1.212   5.395   3.818
 4229SOL     OW13585   6.743   5.013   5.658
 4229SOL    HW113586   6.726   4.928   5.710
 4229SOL    HW213587   6.675   5.021   5.586
 4230SOL     OW13588   6.950   0.806   2.245
 4230SOL    HW113589   6.925   0.862   2.165
 4230SOL    HW213590   7.015   0.735   2.218
 4231SOL     OW13591   6.650   1.189   6.252
 4231SOL    HW113592   6.717   1.206   6.325
 4231SOL    HW213593   6.678   1.109   6.200
 4232SOL     OW13594   1.465   5.482   4.237
 4232SOL    HW113595   1.519   5.410   4.192
 4232SOL    HW213596   1.522   5.563   4.249
 4233SOL     OW13597   3.991   5.146   2.608
 4233SOL    HW113598   3.904   5.170   2.651
 4233SOL    HW213599   3.976   5.078   2.536
 4234SOL     OW13600   3.155   5.206   5.858
 4234SOL    HW113601   3.201   5.179   5.942
 4234SOL    HW213602   3.118   5.125   5.813
 4235SOL     OW13603   6.921   5.872   5.565
 4235SOL    HW113604   6.986   5.824   5.506
 4235SOL    HW213605   6.959   5.960   5.593
 4236SOL     OW13606   0.505   5.349   2.552
 4236SOL    HW113607   0.433   5.286   2.580
 4236SOL    HW213608   0.579   5.346   2.619
 4237SOL     OW13609   6.860   4.578   3.970
 4237SOL    HW113610   6.912   4.528   3.901
 4237SOL    HW213611   6.841   4.670   3.938
 4238SOL     OW13612   2.693   6.530   3.069
 4238SOL    HW113613   2.729   6.616   3.104
 4238SOL    HW213614   2.649   6.480   3.144
 4239SOL     OW13615   4.253   1.105   3.862
 4239SOL    HW113616   4.218   1.154   3.942
 4239SOL    HW213617   4.347   1.133   3.844
 4240SOL     OW13618   6.561   6.756   2.086
 4240SOL    HW113619   6.599   6.828   2.143
 4240SOL    HW213620   6.516   6.687   2.143
 4241SOL     OW13621   6.051   3.852   0.514
 4241SOL    HW113622   5.967   3.893   0.548
 4241SOL    HW213623   6.094   3.799   0.587
 4242SOL     OW13624   2.773   1.790   3.367
 4242SOL    HW113625   2.837   1.759   3.297
 4242SOL    HW213626   2.726   1.711   3.406
 4243SOL     OW13627   4.946   0.536   2.783
 4243SOL    HW113628   4.933   0.629   2.816
 4243SOL    HW213629   4.871   0.478   2.816
 4244SOL     OW13630   3.586   2.979   3.375
 4244SOL    HW113631   3.595   3.067   3.421
 4244SOL    HW213632   3.545   2.992   3.285
 4245SOL     OW13633   6.233   1.426   6.523
 4245SOL    HW113634   6.326   1.396   6.502
 4245SOL    HW213635   6.169   1.383   6.460
 4246SOL     OW13636   0.596   3.422   0.708
 4246SOL    HW113637   0.636   3.343   0.663
 4246SOL    HW213638   0.649   3.444   0.790
 4247SOL     OW13639   0.325   5.752   5.507
 4247SOL    HW113640   0.387   5.675   5.489
 4247SOL    HW213641   0.378   5.836   5.514
 4248SOL     OW13642   1.274   2.888   4.991
 4248SOL    HW113643   1.333   2.936   5.056
 4248SOL    HW213644   1.178   2.907   5.013
 4249SOL     OW13645   5.475   4.088   5.967
 4249SOL    HW113646   5.419   4.150   6.023
 4249SOL    HW213647   5.570   4.094   5.996
 4250SOL     OW13648   0.596   4.447   2.955
 4250SOL    HW113649   0.554   4.364   2.917
 4250SOL    HW213650   0.542   4.527   2.928
 4251SOL     OW13651   5.565   3.913   0.575
 4251SOL    HW113652   5.578   3.824   0.531
 4251SOL    HW213653   5.642   3.931   0.637
 4252SOL     OW13654   0.589   5.832   5.782
 4252SOL    HW113655   0.543   5.910   5.741
 4252SOL    HW213656   0.679   5.820   5.739
 4253SOL     OW13657   3.854   6.260   3.026
 4253SOL    HW113658   3.796   6.338   3.004
 4253SOL    HW213659   3.897   6.225   2.943
 4254SOL     OW13660   2.507   4.193   0.937
 4254SOL    HW113661   2.513   4.183   1.037
 4254SOL    HW213662   2.599   4.209   0.900
 4255SOL     OW13663   6.937   2.019   4.591
 4255SOL    HW113664   6.889   2.105   4.609
 4255SOL    HW213665   6.905   1.949   4.655
 4256SOL     OW13666   1.933   1.169   2.073
 4256SOL    HW113667   1.960   1.073   2.069
 4256SOL    HW213668   1.876   1.191   1.994
 4257SOL     OW13669   4.107   2.233   4.564
 4257SOL    HW113670   4.041   2.188   4.625
 4257SOL    HW213671   4.063   2.252   4.476
 4258SOL     OW13672   5.411   6.367   2.739
 4258SOL    HW113673   5.504   6.399   2.760
 4258SOL    HW213674   5.351   6.446   2.728
 4259SOL     OW13675   1.985   3.155   0.647
 4259SOL    HW113676   1.900   3.119   0.684
 4259SOL    HW213677   2.050   3.080   0.633
 4260SOL     OW13678   5.183   5.682   3.477
 4260SOL    HW113679   5.122   5.701   3.555
 4260SOL    HW213680   5.211   5.586   3.479
 4261SOL     OW13681   2.078   0.968   2.890
 4261SOL    HW113682   2.047   1.011   2.805
 4261SOL    HW213683   2.033   0.879   2.901
 4262SOL     OW13684   0.527   5.993   6.624
 4262SOL    HW113685   0.574   5.961   6.706
 4262SOL    HW213686   0.540   6.092   6.614
 4263SOL     OW13687   3.190   5.482   5.860
 4263SOL    HW113688   3.188   5.384   5.879
 4263SOL    HW213689   3.228   5.497   5.769
 4264SOL     OW13690   6.896   0.349   0.782
 4264SOL    HW113691   6.800   0.350   0.756
 4264SOL    HW213692   6.925   0.442   0.805
 4265SOL     OW13693   6.770   2.463   0.711
 4265SOL    HW113694   6.821   2.483   0.795
 4265SOL    HW213695   6.672   2.471   0.729
 4266SOL     OW13696   2.785   4.627   0.567
 4266SOL    HW113697   2.764   4.618   0.470
 4266SOL    HW213698   2.885   4.626   0.579
 4267SOL     OW13699   2.090   3.935   5.528
 4267SOL    HW113700   2.079   3.910   5.625
 4267SOL    HW213701   2.112   4.032   5.521
 4268SOL     OW13702   1.733   1.214   1.409
 4268SOL    HW113703   1.717   1.237   1.313
 4268SOL    HW213704   1.784   1.289   1.453
 4269SOL     OW13705   3.671   3.136   0.570
 4269SOL    HW113706   3.683   3.081   0.652
 4269SOL    HW213707   3.587   3.190   0.577
 4270SOL     OW13708   3.237   2.730   5.281
 4270SOL    HW113709   3.176   2.805   5.308
 4270SOL    HW213710   3.192   2.643   5.295
 4271SOL     OW13711   1.478   6.836   0.196
 4271SOL    HW113712   1.477   6.895   0.276
 4271SOL    HW213713   1.565   6.786   0.193
 4272SOL     OW13714   6.831   4.473   4.500
 4272SOL    HW113715   6.917   4.451   4.454
 4272SOL    HW213716   6.822   4.573   4.507
 4273SOL     OW13717   5.998   6.349   5.070
 4273SOL    HW113718   5.905   6.371   5.099
 4273SOL    HW213719   6.042   6.432   5.034
 4274SOL     OW13720   1.959   0.275   3.702
 4274SOL    HW113721   2.008   0.267   3.616
 4274SOL    HW213722   1.968   0.190   3.754
 4275SOL     OW13723   1.042   0.071   6.679
 4275SOL    HW113724   1.055   0.104   6.586
 4275SOL    HW213725   1.132   0.057   6.722
 4276SOL     OW13726   2.116   4.205   2.513
 4276SOL    HW113727   2.063   4.239   2.436
 4276SOL    HW213728   2.113   4.105   2.516
 4277SOL     OW13729   0.203   5.434   3.786
 4277SOL    HW113730   0.281   5.391   3.739
 4277SOL    HW213731   0.213   5.534   3.782
 4278SOL     OW13732   0.485   6.751   5.269
 4278SOL    HW113733   0.476   6.739   5.368
 4278SOL    HW213734   0.543   6.678   5.232
 4279SOL     OW13735   3.642   5.652   4.026
 4279SOL    HW113736   3.652   5.750   4.009
 4279SOL    HW213737   3.674   5.630   4.118
 4280SOL     OW13738   4.926   3.012   4.001
 4280SOL    HW113739   5.016   2.972   4.020
 4280SOL    HW213740   4.915   3.095   4.055
 4281SOL     OW13741   2.234   4.253   5.163
 4281SOL    HW113742   2.269   4.175   5.112
 4281SOL    HW213743   2.310   4.310   5.194
 4282SOL     OW13744   1.646   2.578   1.512
 4282SOL    HW113745   1.737   2.548   1.486
 4282SOL    HW213746   1.645   2.604   1.608
 4283SOL     OW13747   1.776   0.117   4.377
 4283SOL    HW113748   1.763   0.102   4.475
 4283SOL    HW213749   1.736   0.205   4.351
 4284SOL     OW13750   6.085   1.891   2.771
 4284SOL    HW113751   6.176   1.893   2.729
 4284SOL    HW213752   6.070   1.801   2.811
 4285SOL     OW13753   1.255   6.104   6.238
 4285SOL    HW113754   1.340   6.113   6.290
 4285SOL    HW213755   1.177   6.127   6.296
 4286SOL     OW13756   5.750   5.395   0.297
 4286SOL    HW113757   5.794   5.390   0.387
 4286SOL    HW213758   5.820   5.413   0.228
 4287SOL     OW13759   5.106   6.796   5.083
 4287SOL    HW113760   5.012   6.829   5.087
 4287SOL    HW213761   5.113   6.707   5.128
 4288SOL     OW13762   1.404   0.011   2.998
 4288SOL    HW113763   1.481   6.980   2.964
 4288SOL    HW213764   1.355   0.051   2.921
 4289SOL     OW13765   5.672   3.638   1.447
 4289SOL    HW113766   5.588   3.636   1.393
 4289SOL    HW213767   5.650   3.634   1.544
 4290SOL     OW13768   2.450   1.100   1.490
 4290SOL    HW113769   2.458   1.006   1.523
 4290SOL    HW213770   2.393   1.153   1.554
 4291SOL     OW13771   6.604   4.462   1.180
 4291SOL    HW113772   6.674   4.418   1.236
 4291SOL    HW213773   6.593   4.412   1.094
 4292SOL     OW13774   6.167   5.566   6.703
 4292SOL    HW113775   6.195   5.649   6.657
 4292SOL    HW213776   6.074   5.541   6.676
 4293SOL     OW13777   6.679   2.613   0.367
 4293SOL    HW113778   6.626   2.530   0.352
 4293SOL    HW213779   6.754   2.594   0.431
 4294SOL     OW13780   4.839   1.999   5.942
 4294SOL    HW113781   4.811   2.054   6.021
 4294SOL    HW213782   4.771   2.006   5.870
 4295SOL     OW13783   3.814   6.836   4.453
 4295SOL    HW113784   3.736   6.776   4.434
 4295SOL    HW213785   3.894   6.780   4.475
 4296SOL     OW13786   2.395   1.661   0.605
 4296SOL    HW113787   2.299   1.681   0.619
 4296SOL    HW213788   2.411   1.563   0.619
 4297SOL     OW13789   5.891   0.345   5.812
 4297SOL    HW113790   5.827   0.268   5.816
 4297SOL    HW213791   5.928   0.361   5.903
 4298SOL     OW13792   3.002   5.325   0.776
 4298SOL    HW113793   3.047   5.396   0.723
 4298SOL    HW213794   2.903   5.341   0.777
 4299SOL     OW13795   0.592   3.920   6.440
 4299SOL    HW113796   0.494   3.940   6.435
 4299SOL    HW213797   0.618   3.864   6.361
 4300SOL     OW13798   5.419   0.578   6.928
 4300SOL    HW113799   5.442   0.675   6.919
 4300SOL    HW213800   5.491   0.531   6.979
 4301SOL     OW13801   3.235   1.612   0.439
 4301SOL    HW113802   3.311   1.548   0.451
 4301SOL    HW213803   3.187   1.624   0.526
 4302SOL     OW13804   0.851   6.141   6.819
 4302SOL    HW113805   0.911   6.157   6.898
 4302SOL    HW213806   0.793   6.061   6.837
 4303SOL     OW13807   0.035   2.956   2.022
 4303SOL    HW113808   0.020   3.048   2.058
 4303SOL    HW213809   6.971   2.908   2.017
 4304SOL     OW13810   3.158   3.394   3.896
 4304SOL    HW113811   3.168   3.398   3.995
 4304SOL    HW213812   3.121   3.304   3.870
 4305SOL     OW13813   6.114   2.015   3.865
 4305SOL    HW113814   6.169   1.932   3.861
 4305SOL    HW213815   6.129   2.061   3.952
 4306SOL     OW13816   6.764   5.351   5.638
 4306SOL    HW113817   6.681   5.315   5.596
 4306SOL    HW213818   6.801   5.284   5.703
 4307SOL     OW13819   5.362   3.586   6.054
 4307SOL    HW113820   5.391   3.673   6.094
 4307SOL    HW213821   5.432   3.552   5.992
 4308SOL     OW13822   5.420   6.089   4.615
 4308SOL    HW113823   5.508   6.109   4.658
 4308SOL    HW213824   5.350   6.076   4.685
 4309SOL     OW13825   1.832   1.600   0.837
 4309SOL    HW113826   1.837   1.605   0.937
 4309SOL    HW213827   1.893   1.668   0.797
 4310SOL     OW13828   1.308   1.089   2.289
 4310SOL    HW113829   1.359   1.047   2.214
 4310SOL    HW213830   1.302   1.025   2.366
 4311SOL     OW13831   1.856   6.687   3.772
 4311SOL    HW113832   1.935   6.670   3.832
 4311SOL    HW213833   1.860   6.624   3.694
 4312SOL     OW13834   2.174   5.058   1.850
 4312SOL    HW113835   2.270   5.029   1.851
 4312SOL    HW213836   2.115   4.978   1.849
 4313SOL     OW13837   4.716   0.655   2.577
 4313SOL    HW113838   4.771   0.579   2.611
 4313SOL    HW213839   4.643   0.676   2.643
 4314SOL     OW13840   4.727   2.859   2.784
 4314SOL    HW113841   4.723   2.934   2.850
 4314SOL    HW213842   4.820   2.824   2.780
 4315SOL     OW13843   2.419   1.423   2.119
 4315SOL    HW113844   2.371   1.369   2.050
 4315SOL    HW213845   2.378   1.406   2.208
 4316SOL     OW13846   6.248   6.832   2.520
 4316SOL    HW113847   6.214   6.911   2.469
 4316SOL    HW213848   6.215   6.748   2.477
 4317SOL     OW13849   4.320   1.538   3.188
 4317SOL    HW113850   4.260   1.458   3.198
 4317SOL    HW213851   4.287   1.612   3.246
 4318SOL     OW13852   0.363   2.317   4.033
 4318SOL    HW113853   0.387   2.232   4.080
 4318SOL    HW213854   0.347   2.389   4.100
 4319SOL     OW13855   2.455   3.438   5.925
 4319SOL    HW113856   2.471   3.512   5.859
 4319SOL    HW213857   2.446   3.477   6.017
 4320SOL     OW13858   0.156   5.565   2.648
 4320SOL    HW113859   0.185   5.660   2.662
 4320SOL    HW213860   0.167   5.540   2.552
 4321SOL     OW13861   0.954   0.413   5.637
 4321SOL    HW113862   0.971   0.327   5.684
 4321SOL    HW213863   0.868   0.452   5.669
 4322SOL     OW13864   6.210   0.753   0.436
 4322SOL    HW113865   6.167   0.680   0.489
 4322SOL    HW213866   6.282   0.795   0.490
 4323SOL     OW13867   6.744   2.935   3.569
 4323SOL    HW113868   6.759   2.972   3.661
 4323SOL    HW213869   6.807   2.859   3.553
 4324SOL     OW13870   5.754   4.090   6.003
 4324SOL    HW113871   5.787   4.050   5.918
 4324SOL    HW213872   5.773   4.188   6.003
 4325SOL     OW13873   1.984   2.087   6.530
 4325SOL    HW113874   1.911   2.046   6.584
 4325SOL    HW213875   1.986   2.186   6.546
 4326SOL     OW13876   6.389   1.882   5.403
 4326SOL    HW113877   6.293   1.862   5.383
 4326SOL    HW213878   6.395   1.968   5.454
 4327SOL     OW13879   5.967   6.768   2.708
 4327SOL    HW113880   5.990   6.865   2.694
 4327SOL    HW213881   5.873   6.751   2.678
 4328SOL     OW13882   5.376   4.900   0.159
 4328SOL    HW113883   5.304   4.847   0.204
 4328SOL    HW213884   5.465   4.868   0.189
 4329SOL     OW13885   3.506   1.675   5.709
 4329SOL    HW113886   3.449   1.630   5.640
 4329SOL    HW213887   3.448   1.729   5.770
 4330SOL     OW13888   1.782   0.716   6.462
 4330SOL    HW113889   1.765   0.814   6.470
 4330SOL    HW213890   1.826   0.697   6.374
 4331SOL     OW13891   6.269   2.488   6.929
 4331SOL    HW113892   6.224   2.575   6.951
 4331SOL    HW213893   6.311   2.450   7.011
 4332SOL     OW13894   5.267   3.177   1.463
 4332SOL    HW113895   5.330   3.228   1.522
 4332SOL    HW213896   5.193   3.238   1.434
 4333SOL     OW13897   5.685   0.916   5.070
 4333SOL    HW113898   5.780   0.919   5.101
 4333SOL    HW213899   5.628   0.967   5.134
 4334SOL     OW13900   4.383   0.866   1.954
 4334SOL    HW113901   4.451   0.931   1.920
 4334SOL    HW213902   4.380   0.871   2.054
 4335SOL     OW13903   3.453   4.214   5.231
 4335SOL    HW113904   3.380   4.148   5.211
 4335SOL    HW213905   3.510   4.180   5.306
 4336SOL     OW13906   1.293   6.057   4.139
 4336SOL    HW113907   1.313   6.111   4.057
 4336SOL    HW213908   1.287   5.961   4.115
 4337SOL     OW13909   0.208   5.353   0.913
 4337SOL    HW113910   0.139   5.283   0.934
 4337SOL    HW213911   0.175   5.410   0.838
 4338SOL     OW13912   6.610   6.453   4.181
 4338SOL    HW113913   6.633   6.360   4.211
 4338SOL    HW213914   6.622   6.459   4.081
 4339SOL     OW13915   6.499   1.356   6.053
 4339SOL    HW113916   6.566   1.311   6.111
 4339SOL    HW213917   6.526   1.349   5.957
 4340SOL     OW13918   4.565   3.636   1.571
 4340SOL    HW113919   4.548   3.545   1.609
 4340SOL    HW213920   4.652   3.637   1.522
 4341SOL     OW13921   0.779   4.418   0.515
 4341SOL    HW113922   0.869   4.379   0.496
 4341SOL    HW213923   0.789   4.499   0.573
 4342SOL     OW13924   6.859   3.183   2.811
 4342SOL    HW113925   6.816   3.206   2.898
 4342SOL    HW213926   6.936   3.245   2.795
 4343SOL     OW13927   2.328   1.515   1.285
 4343SOL    HW113928   2.325   1.610   1.318
 4343SOL    HW213929   2.269   1.505   1.205
 4344SOL     OW13930   1.999   4.930   3.343
 4344SOL    HW113931   1.913   4.938   3.394
 4344SOL    HW213932   2.075   4.916   3.407
 4345SOL     OW13933   1.911   1.884   5.914
 4345SOL    HW113934   1.873   1.967   5.873
 4345SOL    HW213935   1.894   1.886   6.013
 4346SOL     OW13936   1.598   3.329   1.754
 4346SOL    HW113937   1.572   3.418   1.716
 4346SOL    HW213938   1.597   3.260   1.682
 4347SOL     OW13939   5.835   6.303   2.852
 4347SOL    HW113940   5.901   6.329   2.922
 4347SOL    HW213941   5.796   6.213   2.874
 4348SOL     OW13942   0.983   3.859   6.984
 4348SOL    HW113943   0.885   3.841   6.983
 4348SOL    HW213944   1.020   3.845   6.892
 4349SOL     OW13945   6.819   0.455   3.731
 4349SOL    HW113946   6.760   0.384   3.771
 4349SOL    HW213947   6.914   0.425   3.738
 4350SOL     OW13948   4.975   1.922   3.788
 4350SOL    HW113949   4.958   2.021   3.782
 4350SOL    HW213950   4.928   1.885   3.868
 4351SOL     OW13951   2.745   6.237   1.035
 4351SOL    HW113952   2.818   6.195   1.090
 4351SOL    HW213953   2.667   6.175   1.031
 4352SOL     OW13954   6.397   1.369   1.720
 4352SOL    HW113955   6.388   1.368   1.820
 4352SOL    HW213956   6.493   1.361   1.695
 4353SOL     OW13957   4.166   5.615   0.241
 4353SOL    HW113958   4.126   5.526   0.265
 4353SOL    HW213959   4.254   5.602   0.197
 4354SOL     OW13960   1.718   0.582   0.997
 4354SOL    HW113961   1.635   0.626   0.962
 4354SOL    HW213962   1.747   0.510   0.934
 4355SOL     OW13963   5.433   1.050   0.912
 4355SOL    HW113964   5.496   1.127   0.900
 4355SOL    HW213965   5.404   1.046   1.008
 4356SOL     OW13966   3.808   4.457   0.510
 4356SOL    HW113967   3.861   4.424   0.589
 4356SOL    HW213968   3.746   4.530   0.540
 4357SOL     OW13969   6.489   0.985   6.690
 4357SOL    HW113970   6.432   1.050   6.740
 4357SOL    HW213971   6.479   1.000   6.592
 4358SOL     OW13972   0.757   0.249   2.149
 4358SOL    HW113973   0.855   0.256   2.131
 4358SOL    HW213974   0.710   0.326   2.105
 4359SOL     OW13975   6.393   2.253   3.890
 4359SOL    HW113976   6.339   2.209   3.962
 4359SOL    HW213977   6.353   2.342   3.868
 4360SOL     OW13978   1.508   3.397   1.362
 4360SOL    HW113979   1.479   3.317   1.414
 4360SOL    HW213980   1.444   3.414   1.287
 4361SOL     OW13981   4.983   1.877   1.629
 4361SOL    HW113982   4.959   1.787   1.595
 4361SOL    HW213983   4.978   1.944   1.554
 4362SOL     OW13984   5.887   4.838   3.874
 4362SOL    HW113985   5.946   4.909   3.836
 4362SOL    HW213986   5.937   4.787   3.944
 4363SOL     OW13987   5.002   1.462   6.164
 4363SOL    HW113988   4.953   1.549   6.164
 4363SOL    HW213989   4.949   1.394   6.214
 4364SOL     OW13990   3.637   3.732   5.089
 4364SOL    HW113991   3.727   3.716   5.130
 4364SOL    HW213992   3.571   3.668   5.128
 4365SOL     OW13993   3.537   1.054   1.376
 4365SOL    HW113994   3.449   1.086   1.341
 4365SOL    HW213995   3.610   1.089   1.318
 4366SOL     OW13996   5.281   5.098   0.968
 4366SOL    HW113997   5.227   5.029   0.920
 4366SOL    HW213998   5.298   5.176   0.908
 4367SOL     OW13999   0.999   6.398   6.707
 4367SOL    HW114000   0.911   6.418   6.749
 4367SOL    HW214001   0.991   6.317   6.649
 4368SOL     OW14002   5.140   3.845   1.734
 4368SOL    HW114003   5.174   3.847   1.828
 4368SOL    HW214004   5.148   3.936   1.694
 4369SOL     OW14005   3.766   5.876   1.953
 4369SOL    HW114006   3.835   5.813   1.916
 4369SOL    HW214007   3.715   5.831   2.026
 4370SOL     OW14008   5.547   5.199   2.788
 4370SOL    HW114009   5.454   5.193   2.824
 4370SOL    HW214010   5.592   5.280   2.827
 4371SOL     OW14011   6.255   1.697   2.295
 4371SOL    HW114012   6.306   1.769   2.342
 4371SOL    HW214013   6.311   1.613   2.293
 4372SOL     OW14014   4.813   6.977   3.424
 4372SOL    HW114015   4.786   6.946   3.515
 4372SOL    HW214016   4.732   7.009   3.374
 4373SOL     OW14017   6.719   1.986   6.310
 4373SOL    HW114018   6.715   1.892   6.276
 4373SOL    HW214019   6.626   2.022   6.320
 4374SOL     OW14020   2.455   2.294   1.362
 4374SOL    HW114021   2.523   2.242   1.309
 4374SOL    HW214022   2.450   2.388   1.326
 4375SOL     OW14023   2.854   6.634   4.189
 4375SOL    HW114024   2.820   6.605   4.100
 4375SOL    HW214025   2.821   6.726   4.210
 4376SOL     OW14026   5.655   1.656   3.580
 4376SOL    HW114027   5.664   1.672   3.678
 4376SOL    HW214028   5.728   1.703   3.531
 4377SOL     OW14029   5.443   4.737   6.481
 4377SOL    HW114030   5.399   4.702   6.399
 4377SOL    HW214031   5.474   4.660   6.538
 4378SOL     OW14032   1.923   0.896   4.004
 4378SOL    HW114033   1.891   0.919   4.097
 4378SOL    HW214034   2.021   0.915   3.997
 4379SOL     OW14035   2.713   2.042   5.422
 4379SOL    HW114036   2.630   1.987   5.410
 4379SOL    HW214037   2.756   2.058   5.333
 4380SOL     OW14038   0.085   1.261   2.322
 4380SOL    HW114039   0.082   1.339   2.259
 4380SOL    HW214040   0.178   1.224   2.325
 4381SOL     OW14041   1.481   6.070   6.389
 4381SOL    HW114042   1.513   5.978   6.366
 4381SOL    HW214043   1.445   6.071   6.482
 4382SOL     OW14044   0.142   2.942   5.052
 4382SOL    HW114045   0.077   2.938   5.129
 4382SOL    HW214046   0.235   2.951   5.088
 4383SOL     OW14047   6.268   2.625   0.353
 4383SOL    HW114048   6.335   2.699   0.355
 4383SOL    HW214049   6.274   2.571   0.437
 4384SOL     OW14050   5.702   6.722   4.136
 4384SOL    HW114051   5.604   6.712   4.150
 4384SOL    HW214052   5.751   6.657   4.194
 4385SOL     OW14053   4.648   1.408   5.071
 4385SOL    HW114054   4.571   1.345   5.068
 4385SOL    HW214055   4.671   1.428   5.166
 4386SOL     OW14056   1.268   3.204   4.651
 4386SOL    HW114057   1.321   3.226   4.733
 4386SOL    HW214058   1.176   3.243   4.660
 4387SOL     OW14059   6.890   1.880   0.698
 4387SOL    HW114060   6.880   1.978   0.680
 4387SOL    HW214061   6.866   1.860   0.793
 4388SOL     OW14062   5.716   2.868   6.593
 4388SOL    HW114063   5.669   2.780   6.592
 4388SOL    HW214064   5.653   2.940   6.621
 4389SOL     OW14065   0.624   3.672   1.039
 4389SOL    HW114066   0.630   3.607   1.115
 4389SOL    HW214067   0.714   3.682   0.996
 4390SOL     OW14068   6.687   1.193   1.273
 4390SOL    HW114069   6.644   1.261   1.332
 4390SOL    HW214070   6.787   1.205   1.275
 4391SOL     OW14071   2.321   6.190   0.475
 4391SOL    HW114072   2.331   6.284   0.508
 4391SOL    HW214073   2.340   6.187   0.377
 4392SOL     OW14074   1.490   2.483   5.342
 4392SOL    HW114075   1.567   2.424   5.319
 4392SOL    HW214076   1.406   2.429   5.341
 4393SOL     OW14077   4.879   0.941   1.993
 4393SOL    HW114078   4.806   0.997   1.952
 4393SOL    HW214079   4.943   0.914   1.921
 4394SOL     OW14080   1.182   0.352   2.261
 4394SOL    HW114081   1.135   0.289   2.200
 4394SOL    HW214082   1.173   0.446   2.226
 4395SOL     OW14083   3.175   5.083   1.732
 4395SOL    HW114084   3.156   5.041   1.821
 4395SOL    HW214085   3.114   5.043   1.663
 4396SOL     OW14086   2.889   0.499   3.578
 4396SOL    HW114087   2.977   0.521   3.536
 4396SOL    HW214088   2.849   0.419   3.533
 4397SOL     OW14089   3.255   1.651   4.218
 4397SOL    HW114090   3.352   1.669   4.197
 4397SOL    HW214091   3.249   1.600   4.304
 4398SOL     OW14092   1.844   2.560   5.126
 4398SOL    HW114093   1.920   2.604   5.174
 4398SOL    HW214094   1.822   2.612   5.043
 4399SOL     OW14095   2.857   6.944   2.533
 4399SOL    HW114096   2.774   6.953   2.478
 4399SOL    HW214097   2.863   7.022   2.596
 4400SOL     OW14098   1.721   5.503   4.789
 4400SOL    HW114099   1.753   5.411   4.813
 4400SOL    HW214100   1.746   5.567   4.862
 4401SOL     OW14101   3.684   7.000   6.191
 4401SOL    HW114102   3.622   6.933   6.231
 4401SOL    HW214103   3.636   0.064   6.180
 4402SOL     OW14104   1.476   1.003   3.358
 4402SOL    HW114105   1.392   0.952   3.378
 4402SOL    HW214106   1.537   0.946   3.303
 4403SOL     OW14107   1.478   5.099   1.922
 4403SOL    HW114108   1.436   5.174   1.972
 4403SOL    HW214109   1.577   5.114   1.914
 4404SOL     OW14110   0.644   0.002   6.244
 4404SOL    HW114111   0.547   7.003   6.255
 4404SOL    HW214112   0.693   7.006   6.329
 4405SOL     OW14113   1.776   6.050   2.872
 4405SOL    HW114114   1.681   6.035   2.897
 4405SOL    HW214115   1.821   6.104   2.942
 4406SOL     OW14116   6.102   3.871   1.848
 4406SOL    HW114117   6.117   3.872   1.947
 4406SOL    HW214118   6.139   3.955   1.808
 4407SOL     OW14119   5.512   6.083   2.109
 4407SOL    HW114120   5.597   6.071   2.159
 4407SOL    HW214121   5.471   6.171   2.132
 4408SOL     OW14122   4.367   0.734   0.404
 4408SOL    HW114123   4.424   0.803   0.448
 4408SOL    HW214124   4.377   0.742   0.304
 4409SOL     OW14125   2.728   0.475   3.226
 4409SOL    HW114126   2.761   0.404   3.288
 4409SOL    HW214127   2.676   0.543   3.278
 4410SOL     OW14128   1.247   6.600   0.904
 4410SOL    HW114129   1.259   6.557   0.994
 4410SOL    HW214130   1.180   6.674   0.912
 4411SOL     OW14131   3.525   4.455   5.268
 4411SOL    HW114132   3.619   4.435   5.298
 4411SOL    HW214133   3.474   4.369   5.258
 4412SOL     OW14134   4.254   6.142   2.880
 4412SOL    HW114135   4.310   6.201   2.938
 4412SOL    HW214136   4.175   6.193   2.846
 4413SOL     OW14137   4.476   6.643   3.695
 4413SOL    HW114138   4.471   6.547   3.725
 4413SOL    HW214139   4.515   6.698   3.768
 4414SOL     OW14140   4.375   4.148   1.423
 4414SOL    HW114141   4.461   4.198   1.431
 4414SOL    HW214142   4.308   4.204   1.373
 4415SOL     OW14143   2.105   2.701   1.598
 4415SOL    HW114144   2.064   2.732   1.684
 4415SOL    HW214145   2.080   2.764   1.524
 4416SOL     OW14146   4.491   2.352   3.518
 4416SOL    HW114147   4.397   2.327   3.537
 4416SOL    HW214148   4.552   2.308   3.584
 4417SOL     OW14149   0.100   3.977   3.120
 4417SOL    HW114150   0.120   4.036   3.041
 4417SOL    HW214151   0.165   3.996   3.193
 4418SOL     OW14152   6.805   6.560   6.142
 4418SOL    HW114153   6.773   6.640   6.193
 4418SOL    HW214154   6.743   6.543   6.065
 4419SOL     OW14155   6.092   5.314   6.271
 4419SOL    HW114156   6.111   5.291   6.366
 4419SOL    HW214157   6.084   5.231   6.216
 4420SOL     OW14158   3.121   2.226   0.942
 4420SOL    HW114159   3.142   2.249   1.037
 4420SOL    HW214160   3.196   2.255   0.883
 4421SOL     OW14161   1.871   2.512   6.464
 4421SOL    HW114162   1.912   2.449   6.529
 4421SOL    HW214163   1.944   2.561   6.415
 4422SOL     OW14164   6.522   3.885   6.332
 4422SOL    HW114165   6.603   3.828   6.317
 4422SOL    HW214166   6.531   3.932   6.420
 4423SOL     OW14167   5.638   4.213   4.868
 4423SOL    HW114168   5.701   4.241   4.796
 4423SOL    HW214169   5.662   4.120   4.898
 4424SOL     OW14170   4.745   5.468   3.413
 4424SOL    HW114171   4.817   5.467   3.483
 4424SOL    HW214172   4.675   5.401   3.438
 4425SOL     OW14173   1.857   5.431   1.220
 4425SOL    HW114174   1.789   5.429   1.293
 4425SOL    HW214175   1.940   5.384   1.251
 4426SOL     OW14176   0.663   0.454   5.108
 4426SOL    HW114177   0.724   0.378   5.131
 4426SOL    HW214178   0.571   0.434   5.143
 4427SOL     OW14179   2.243   6.321   3.182
 4427SOL    HW114180   2.290   6.248   3.231
 4427SOL    HW214181   2.228   6.295   3.087
 4428SOL     OW14182   5.275   6.405   3.784
 4428SOL    HW114183   5.293   6.310   3.756
 4428SOL    HW214184   5.332   6.428   3.863
 4429SOL     OW14185   2.530   6.143   2.973
 4429SOL    HW114186   2.558   6.235   2.946
 4429SOL    HW214187   2.594   6.076   2.934
 4430SOL     OW14188   4.546   3.904   5.788
 4430SOL    HW114189   4.504   3.850   5.861
 4430SOL    HW214190   4.557   3.999   5.819
 4431SOL     OW14191   2.829   6.302   3.723
 4431SOL    HW114192   2.899   6.240   3.688
 4431SOL    HW214193   2.864   6.396   3.721
 4432SOL     OW14194   0.801   3.479   5.723
 4432SOL    HW114195   0.730   3.423   5.765
 4432SOL    HW214196   0.836   3.432   5.641
 4433SOL     OW14197   0.520   0.972   5.781
 4433SOL    HW114198   0.497   1.068   5.797
 4433SOL    HW214199   0.600   0.966   5.721
 4434SOL     OW14200   0.438   0.687   2.818
 4434SOL    HW114201   0.384   0.724   2.894
 4434SOL    HW214202   0.464   0.761   2.756
 4435SOL     OW14203   2.412   4.161   0.248
 4435SOL    HW114204   2.448   4.249   0.217
 4435SOL    HW214205   2.463   4.087   0.205
 4436SOL     OW14206   4.348   1.742   1.755
 4436SOL    HW114207   4.274   1.749   1.822
 4436SOL    HW214208   4.435   1.727   1.801
 4437SOL     OW14209   6.663   4.006   0.334
 4437SOL    HW114210   6.706   4.095   0.350
 4437SOL    HW214211   6.623   3.973   0.420
 4438SOL     OW14212   3.671   0.242   5.473
 4438SOL    HW114213   3.631   0.173   5.534
 4438SOL    HW214214   3.630   0.331   5.492
 4439SOL     OW14215   2.677   0.163   2.781
 4439SOL    HW114216   2.740   0.197   2.851
 4439SOL    HW214217   2.641   0.240   2.728
 4440SOL     OW14218   1.368   5.202   0.006
 4440SOL    HW114219   1.405   5.230   0.095
 4440SOL    HW214220   1.322   5.279   6.987
 4441SOL     OW14221   0.310   1.735   0.567
 4441SOL    HW114222   0.316   1.776   0.658
 4441SOL    HW214223   0.218   1.749   0.530
 4442SOL     OW14224   1.666   4.824   6.653
 4442SOL    HW114225   1.572   4.832   6.622
 4442SOL    HW214226   1.668   4.796   6.749
 4443SOL     OW14227   1.076   5.671   6.250
 4443SOL    HW114228   1.015   5.631   6.317
 4443SOL    HW214229   1.058   5.632   6.160
 4444SOL     OW14230   5.707   4.575   6.934
 4444SOL    HW114231   5.770   4.652   6.932
 4444SOL    HW214232   5.716   4.526   7.021
 4445SOL     OW14233   0.328   4.873   0.501
 4445SOL    HW114234   0.317   4.951   0.562
 4445SOL    HW214235   0.420   4.835   0.510
 4446SOL     OW14236   4.999   1.266   0.902
 4446SOL    HW114237   5.024   1.211   0.981
 4446SOL    HW214238   4.914   1.231   0.862
 4447SOL     OW14239   4.811   5.470   5.860
 4447SOL    HW114240   4.830   5.425   5.947
 4447SOL    HW214241   4.869   5.432   5.789
 4448SOL     OW14242   3.650   6.213   1.643
 4448SOL    HW114243   3.623   6.134   1.698
 4448SOL    HW214244   3.588   6.289   1.661
 4449SOL     OW14245   3.271   1.256   5.382
 4449SOL    HW114246   3.353   1.304   5.352
 4449SOL    HW214247   3.294   1.161   5.403
 4450SOL     OW14248   3.284   0.006   6.839
 4450SOL    HW114249   3.271   0.060   6.922
 4450SOL    HW214250   3.197   6.987   6.813
 4451SOL     OW14251   4.833   4.539   2.724
 4451SOL    HW114252   4.775   4.620   2.730
 4451SOL    HW214253   4.872   4.533   2.633
 4452SOL     OW14254   4.327   6.493   4.601
 4452SOL    HW114255   4.386   6.519   4.525
 4452SOL    HW214256   4.296   6.576   4.648
 4453SOL     OW14257   6.315   4.113   0.678
 4453SOL    HW114258   6.336   4.187   0.742
 4453SOL    HW214259   6.219   4.119   0.650
 4454SOL     OW14260   1.330   2.840   6.930
 4454SOL    HW114261   1.258   2.889   6.881
 4454SOL    HW214262   1.404   2.903   6.952
 4455SOL     OW14263   1.084   6.575   5.626
 4455SOL    HW114264   1.007   6.627   5.591
 4455SOL    HW214265   1.052   6.512   5.697
 4456SOL     OW14266   2.557   0.276   4.679
 4456SOL    HW114267   2.576   0.283   4.777
 4456SOL    HW214268   2.625   0.327   4.628
 4457SOL     OW14269   1.375   2.191   4.782
 4457SOL    HW114270   1.445   2.248   4.825
 4457SOL    HW214271   1.357   2.111   4.840
 4458SOL     OW14272   1.742   3.623   6.664
 4458SOL    HW114273   1.665   3.561   6.655
 4458SOL    HW214274   1.795   3.623   6.579
 4459SOL     OW14275   0.509   2.780   3.106
 4459SOL    HW114276   0.447   2.815   3.176
 4459SOL    HW214277   0.473   2.694   3.070
 4460SOL     OW14278   6.503   2.541   4.626
 4460SOL    HW114279   6.435   2.468   4.639
 4460SOL    HW214280   6.569   2.537   4.701
 4461SOL     OW14281   2.193   1.032   0.503
 4461SOL    HW114282   2.275   1.024   0.560
 4461SOL    HW214283   2.193   1.120   0.456
 4462SOL     OW14284   6.611   4.319   3.436
 4462SOL    HW114285   6.677   4.323   3.512
 4462SOL    HW214286   6.520   4.303   3.472
 4463SOL     OW14287   5.551   1.778   0.702
 4463SOL    HW114288   5.482   1.825   0.757
 4463SOL    HW214289   5.640   1.821   0.717
 4464SOL     OW14290   0.176   5.058   1.032
 4464SOL    HW114291   0.135   5.094   1.116
 4464SOL    HW214292   0.123   4.980   0.999
 4465SOL     OW14293   3.398   5.916   0.646
 4465SOL    HW114294   3.365   5.895   0.554
 4465SOL    HW214295   3.337   5.983   0.688
 4466SOL     OW14296   1.814   2.479   2.972
 4466SOL    HW114297   1.770   2.536   2.902
 4466SOL    HW214298   1.898   2.523   3.003
 4467SOL     OW14299   4.559   6.031   3.134
 4467SOL    HW114300   4.606   5.968   3.197
 4467SOL    HW214301   4.627   6.080   3.080
 4468SOL     OW14302   1.720   2.653   1.764
 4468SOL    HW114303   1.814   2.680   1.785
 4468SOL    HW214304   1.657   2.707   1.819
 4469SOL     OW14305   3.157   5.966   0.998
 4469SOL    HW114306   3.228   5.954   1.068
 4469SOL    HW214307   3.200   5.995   0.912
 4470SOL     OW14308   2.223   0.091   2.959
 4470SOL    HW114309   2.206   0.063   2.864
 4470SOL    HW214310   2.312   0.135   2.965
 4471SOL     OW14311   1.144   0.679   6.530
 4471SOL    HW114312   1.230   0.707   6.574
 4471SOL    HW214313   1.067   0.720   6.578
 4472SOL     OW14314   1.813   2.450   1.148
 4472SOL    HW114315   1.815   2.457   1.248
 4472SOL    HW214316   1.858   2.366   1.119
 4473SOL     OW14317   0.313   2.534   4.248
 4473SOL    HW114318   0.235   2.514   4.307
 4473SOL    HW214319   0.320   2.633   4.234
 4474SOL     OW14320   2.700   5.543   0.992
 4474SOL    HW114321   2.755   5.588   0.922
 4474SOL    HW214322   2.668   5.612   1.058
 4475SOL     OW14323   1.362   3.877   0.752
 4475SOL    HW114324   1.384   3.833   0.839
 4475SOL    HW214325   1.300   3.819   0.700
 4476SOL     OW14326   5.064   1.147   3.621
 4476SOL    HW114327   5.155   1.179   3.598
 4476SOL    HW214328   5.026   1.202   3.695
 4477SOL     OW14329   1.470   1.046   4.730
 4477SOL    HW114330   1.493   0.975   4.797
 4477SOL    HW214331   1.418   1.119   4.774
 4478SOL     OW14332   2.050   0.197   1.032
 4478SOL    HW114333   2.092   0.280   1.067
 4478SOL    HW214334   2.030   0.208   0.935
 4479SOL     OW14335   1.516   2.509   0.090
 4479SOL    HW114336   1.431   2.553   0.120
 4479SOL    HW214337   1.581   2.507   0.165
 4480SOL     OW14338   1.173   6.161   3.835
 4480SOL    HW114339   1.127   6.245   3.809
 4480SOL    HW214340   1.265   6.181   3.868
 4481SOL     OW14341   1.841   3.923   5.858
 4481SOL    HW114342   1.820   4.020   5.869
 4481SOL    HW214343   1.938   3.913   5.833
 4482SOL     OW14344   2.567   6.392   0.859
 4482SOL    HW114345   2.661   6.360   0.869
 4482SOL    HW214346   2.541   6.393   0.762
 4483SOL     OW14347   1.256   3.139   0.348
 4483SOL    HW114348   1.276   3.125   0.445
 4483SOL    HW214349   1.209   3.058   0.312
 4484SOL     OW14350   2.481   1.392   0.397
 4484SOL    HW114351   2.559   1.335   0.420
 4484SOL    HW214352   2.512   1.470   0.343
 4485SOL     OW14353   6.572   2.816   5.363
 4485SOL    HW114354   6.515   2.737   5.341
 4485SOL    HW214355   6.514   2.898   5.369
 4486SOL     OW14356   4.412   4.949   4.829
 4486SOL    HW114357   4.365   4.935   4.742
 4486SOL    HW214358   4.371   4.892   4.899
 4487SOL     OW14359   0.438   2.935   6.691
 4487SOL    HW114360   0.353   2.884   6.709
 4487SOL    HW214361   0.505   2.913   6.761
 4488SOL     OW14362   0.138   4.149   4.109
 4488SOL    HW114363   0.178   4.240   4.099
 4488SOL    HW214364   0.045   4.149   4.072
 4489SOL     OW14365   4.612   6.182   5.852
 4489SOL    HW114366   4.593   6.193   5.950
 4489SOL    HW214367   4.589   6.267   5.804
 4490SOL     OW14368   5.257   1.527   1.574
 4490SOL    HW114369   5.159   1.548   1.573
 4490SOL    HW214370   5.288   1.507   1.482
 4491SOL     OW14371   1.041   3.252   3.352
 4491SOL    HW114372   1.114   3.316   3.326
 4491SOL    HW214373   0.954   3.301   3.359
 4492SOL     OW14374   6.323   0.579   2.297
 4492SOL    HW114375   6.374   0.604   2.214
 4492SOL    HW214376   6.347   0.486   2.325
 4493SOL     OW14377   5.604   1.924   5.201
 4493SOL    HW114378   5.519   1.899   5.248
 4493SOL    HW214379   5.682   1.891   5.253
 4494SOL     OW14380   1.321   0.982   1.519
 4494SOL    HW114381   1.405   0.928   1.516
 4494SOL    HW214382   1.341   1.073   1.557
 4495SOL     OW14383   4.505   6.167   1.120
 4495SOL    HW114384   4.542   6.227   1.191
 4495SOL    HW214385   4.432   6.110   1.160
 4496SOL     OW14386   3.718   6.269   6.353
 4496SOL    HW114387   3.632   6.230   6.321
 4496SOL    HW214388   3.750   6.218   6.433
 4497SOL     OW14389   4.341   1.026   5.926
 4497SOL    HW114390   4.305   0.983   5.843
 4497SOL    HW214391   4.407   1.097   5.900
 4498SOL     OW14392   0.188   5.509   4.825
 4498SOL    HW114393   0.088   5.511   4.823
 4498SOL    HW214394   0.219   5.451   4.901
 4499SOL     OW14395   5.764   2.134   2.208
 4499SOL    HW114396   5.751   2.124   2.110
 4499SOL    HW214397   5.688   2.186   2.247
 4500SOL     OW14398   3.839   5.422   6.917
 4500SOL    HW114399   3.772   5.348   6.922
 4500SOL    HW214400   3.812   5.495   6.980
 4501SOL     OW14401   5.629   0.518   2.939
 4501SOL    HW114402   5.530   0.527   2.952
 4501SOL    HW214403   5.666   0.454   3.006
 4502SOL     OW14404   6.898   4.054   6.420
 4502SOL    HW114405   6.930   4.010   6.336
 4502SOL    HW214406   6.976   4.067   6.482
 4503SOL     OW14407   3.449   1.022   2.822
 4503SOL    HW114408   3.548   1.024   2.836
 4503SOL    HW214409   3.428   1.035   2.725
 4504SOL     OW14410   0.057   1.401   2.609
 4504SOL    HW114411   0.083   1.335   2.538
 4504SOL    HW214412   7.000   1.366   2.657
 4505SOL     OW14413   5.709   4.982   4.113
 4505SOL    HW114414   5.749   4.957   4.026
 4505SOL    HW214415   5.781   4.999   4.180
 4506SOL     OW14416   5.603   2.803   5.699
 4506SOL    HW114417   5.544   2.828   5.776
 4506SOL    HW214418   5.547   2.761   5.627
 4507SOL     OW14419   6.013   2.457   3.359
 4507SOL    HW114420   6.031   2.358   3.354
 4507SOL    HW214421   5.915   2.472   3.375
 4508SOL     OW14422   0.408   5.138   0.888
 4508SOL    HW114423   0.392   5.127   0.790
 4508SOL    HW214424   0.322   5.124   0.938
 4509SOL     OW14425   4.963   2.889   1.996
 4509SOL    HW114426   4.877   2.927   2.028
 4509SOL    HW214427   5.017   2.856   2.074
 4510SOL     OW14428   3.901   1.121   4.106
 4510SOL    HW114429   3.893   1.150   4.010
 4510SOL    HW214430   3.891   1.022   4.111
 4511SOL     OW14431   0.347   4.386   7.006
 4511SOL    HW114432   0.367   4.385   6.908
 4511SOL    HW214433   0.429   4.415   0.033
 4512SOL     OW14434   3.191   3.605   5.296
 4512SOL    HW114435   3.100   3.607   5.253
 4512SOL    HW214436   3.195   3.674   5.369
 4513SOL     OW14437   1.050   6.815   0.935
 4513SOL    HW114438   0.978   6.759   0.895
 4513SOL    HW214439   1.021   6.911   0.937
 4514SOL     OW14440   3.630   4.646   6.573
 4514SOL    HW114441   3.574   4.572   6.534
 4514SOL    HW214442   3.719   4.647   6.528
 4515SOL     OW14443   4.194   0.755   5.899
 4515SOL    HW114444   4.246   0.678   5.934
 4515SOL    HW214445   4.193   0.752   5.799
 4516SOL     OW14446   3.186   1.908   5.677
 4516SOL    HW114447   3.248   1.976   5.637
 4516SOL    HW214448   3.103   1.902   5.621
 4517SOL     OW14449   4.153   0.790   5.202
 4517SOL    HW114450   4.162   0.877   5.250
 4517SOL    HW214451   4.068   0.791   5.148
 4518SOL     OW14452   0.944   6.389   1.116
 4518SOL    HW114453   0.866   6.446   1.143
 4518SOL    HW214454   0.921   6.292   1.129
 4519SOL     OW14455   4.741   6.908   0.001
 4519SOL    HW114456   4.800   6.848   0.056
 4519SOL    HW214457   4.788   6.932   6.940
 4520SOL     OW14458   4.194   5.168   5.553
 4520SOL    HW114459   4.169   5.234   5.483
 4520SOL    HW214460   4.119   5.103   5.567
 4521SOL     OW14461   4.546   2.521   3.785
 4521SOL    HW114462   4.535   2.545   3.881
 4521SOL    HW214463   4.619   2.577   3.745
 4522SOL     OW14464   5.968   4.408   3.593
 4522SOL    HW114465   5.945   4.413   3.496
 4522SOL    HW214466   6.031   4.331   3.608
 4523SOL     OW14467   0.633   3.269   5.851
 4523SOL    HW114468   0.534   3.252   5.854
 4523SOL    HW214469   0.673   3.222   5.773
 4524SOL     OW14470   1.732   3.715   2.261
 4524SOL    HW114471   1.830   3.735   2.270
 4524SOL    HW214472   1.686   3.735   2.347
 4525SOL     OW14473   3.486   2.332   5.272
 4525SOL    HW114474   3.397   2.370   5.248
 4525SOL    HW214475   3.521   2.379   5.354
 4526SOL     OW14476   0.940   6.744   6.047
 4526SOL    HW114477   0.843   6.749   6.022
 4526SOL    HW214478   0.949   6.745   6.147
 4527SOL     OW14479   6.691   1.079   2.702
 4527SOL    HW114480   6.732   0.988   2.706
 4527SOL    HW214481   6.763   1.149   2.706
 4528SOL     OW14482   5.316   0.872   5.129
 4528SOL    HW114483   5.301   0.940   5.200
 4528SOL    HW214484   5.301   0.914   5.039
 4529SOL     OW14485   2.207   1.282   4.144
 4529SOL    HW114486   2.191   1.224   4.064
 4529SOL    HW214487   2.287   1.247   4.194
 4530SOL     OW14488   4.052   5.765   6.460
 4530SOL    HW114489   4.067   5.668   6.443
 4530SOL    HW214490   4.061   5.816   6.374
 4531SOL     OW14491   1.163   5.703   5.736
 4531SOL    HW114492   1.222   5.663   5.667
 4531SOL    HW214493   1.178   5.802   5.740
 4532SOL     OW14494   5.458   0.955   3.013
 4532SOL    HW114495   5.430   0.898   2.936
 4532SOL    HW214496   5.382   0.964   3.077
 4533SOL     OW14497   2.895   0.237   1.250
 4533SOL    HW114498   2.894   0.286   1.337
 4533SOL    HW214499   2.980   0.258   1.201
 4534SOL     OW14500   4.462   1.649   3.983
 4534SOL    HW114501   4.374   1.646   3.935
 4534SOL    HW214502   4.536   1.648   3.916
 4535SOL     OW14503   1.988   0.644   0.900
 4535SOL    HW114504   1.952   0.725   0.947
 4535SOL    HW214505   2.011   0.574   0.968
 4536SOL     OW14506   3.170   0.122   5.375
 4536SOL    HW114507   3.241   0.180   5.415
 4536SOL    HW214508   3.092   0.179   5.348
 4537SOL     OW14509   2.968   3.898   3.613
 4537SOL    HW114510   2.868   3.897   3.603
 4537SOL    HW214511   2.996   3.832   3.682
 4538SOL     OW14512   0.572   2.309   0.956
 4538SOL    HW114513   0.538   2.369   0.883
 4538SOL    HW214514   0.653   2.260   0.924
 4539SOL     OW14515   1.456   5.998   5.659
 4539SOL    HW114516   1.554   5.991   5.641
 4539SOL    HW214517   1.405   5.951   5.586
 4540SOL     OW14518   0.963   1.918   0.556
 4540SOL    HW114519   0.980   1.870   0.642
 4540SOL    HW214520   1.015   1.874   0.483
 4541SOL     OW14521   4.142   2.905   5.774
 4541SOL    HW114522   4.055   2.943   5.806
 4541SOL    HW214523   4.169   2.951   5.689
 4542SOL     OW14524   0.442   1.677   0.025
 4542SOL    HW114525   0.531   1.637   0.006
 4542SOL    HW214526   0.417   1.660   0.120
 4543SOL     OW14527   3.690   2.128   0.377
 4543SOL    HW114528   3.693   2.210   0.320
 4543SOL    HW214529   3.690   2.047   0.319
 4544SOL     OW14530   5.469   6.470   0.731
 4544SOL    HW114531   5.414   6.554   0.739
 4544SOL    HW214532   5.409   6.391   0.739
 4545SOL     OW14533   1.909   2.994   5.317
 4545SOL    HW114534   1.893   3.093   5.316
 4545SOL    HW214535   1.908   2.959   5.224
 4546SOL     OW14536   3.148   0.592   4.836
 4546SOL    HW114537   3.109   0.648   4.763
 4546SOL    HW214538   3.156   0.497   4.804
 4547SOL     OW14539   6.959   6.957   0.290
 4547SOL    HW114540   0.018   7.002   0.325
 4547SOL    HW214541   6.983   6.902   0.210
 4548SOL     OW14542   2.842   1.745   2.494
 4548SOL    HW114543   2.905   1.767   2.420
 4548SOL    HW214544   2.873   1.662   2.541
 4549SOL     OW14545   0.151   3.185   4.283
 4549SOL    HW114546   0.184   3.097   4.317
 4549SOL    HW214547   0.110   3.236   4.358
 4550SOL     OW14548   2.253   5.110   3.947
 4550SOL    HW114549   2.286   5.074   4.034
 4550SOL    HW214550   2.271   5.209   3.944
 4551SOL     OW14551   2.203   2.321   5.360
 4551SOL    HW114552   2.266   2.272   5.301
 4551SOL    HW214553   2.126   2.355   5.306
 4552SOL     OW14554   5.529   1.312   0.899
 4552SOL    HW114555   5.600   1.330   0.830
 4552SOL    HW214556   5.442   1.347   0.867
 4553SOL     OW14557   0.243   5.475   0.011
 4553SOL    HW114558   0.255   5.433   0.101
 4553SOL    HW214559   0.251   5.574   0.019
 4554SOL     OW14560   6.462   6.651   2.967
 4554SOL    HW114561   6.534   6.670   3.034
 4554SOL    HW214562   6.473   6.558   2.932
 4555SOL     OW14563   1.523   0.985   0.834
 4555SOL    HW114564   1.594   0.961   0.901
 4555SOL    HW214565   1.456   0.911   0.828
 4556SOL     OW14566   5.563   4.856   4.609
 4556SOL    HW114567   5.611   4.928   4.559
 4556SOL    HW214568   5.485   4.895   4.657
 4557SOL     OW14569   0.263   4.695   4.065
 4557SOL    HW114570   0.256   4.746   4.150
 4557SOL    HW214571   0.351   4.714   4.022
 4558SOL     OW14572   1.583   3.732   4.819
 4558SOL    HW114573   1.683   3.734   4.815
 4558SOL    HW214574   1.549   3.660   4.758
 4559SOL     OW14575   0.129   2.501   3.886
 4559SOL    HW114576   0.116   2.407   3.917
 4559SOL    HW214577   0.041   2.547   3.880
 4560SOL     OW14578   5.596   3.928   2.862
 4560SOL    HW114579   5.635   3.873   2.935
 4560SOL    HW214580   5.554   3.867   2.794
 4561SOL     OW14581   4.391   2.294   3.815
 4561SOL    HW114582   4.451   2.364   3.777
 4561SOL    HW214583   4.348   2.244   3.740
 4562SOL     OW14584   3.723   0.907   1.009
 4562SOL    HW114585   3.673   0.934   0.927
 4562SOL    HW214586   3.821   0.903   0.989
 4563SOL     OW14587   0.773   4.582   2.331
 4563SOL    HW114588   0.732   4.535   2.253
 4563SOL    HW214589   0.711   4.653   2.363
 4564SOL     OW14590   2.098   3.750   2.028
 4564SOL    HW114591   2.048   3.777   2.111
 4564SOL    HW214592   2.152   3.668   2.047
 4565SOL     OW14593   2.067   6.152   6.743
 4565SOL    HW114594   2.002   6.084   6.710
 4565SOL    HW214595   2.116   6.193   6.666
 4566SOL     OW14596   6.519   4.697   3.496
 4566SOL    HW114597   6.615   4.692   3.524
 4566SOL    HW214598   6.510   4.759   3.418
 4567SOL     OW14599   0.216   0.203   6.746
 4567SOL    HW114600   0.301   0.251   6.727
 4567SOL    HW214601   0.218   0.167   6.839
 4568SOL     OW14602   1.613   5.120   2.903
 4568SOL    HW114603   1.585   5.215   2.893
 4568SOL    HW214604   1.544   5.070   2.956
 4569SOL     OW14605   2.057   1.010   3.553
 4569SOL    HW114606   2.098   1.098   3.577
 4569SOL    HW214607   2.018   1.016   3.461
 4570SOL     OW14608   4.894   5.917   1.667
 4570SOL    HW114609   4.894   5.822   1.698
 4570SOL    HW214610   4.843   5.973   1.732
 4571SOL     OW14611   2.557   3.037   6.264
 4571SOL    HW114612   2.548   3.127   6.222
 4571SOL    HW214613   2.474   2.984   6.249
 4572SOL     OW14614   3.155   3.137   1.950
 4572SOL    HW114615   3.134   3.145   1.852
 4572SOL    HW214616   3.217   3.210   1.977
 4573SOL     OW14617   3.309   5.324   1.030
 4573SOL    HW114618   3.237   5.355   1.093
 4573SOL    HW214619   3.280   5.339   0.936
 4574SOL     OW14620   4.953   0.779   1.583
 4574SOL    HW114621   5.012   0.803   1.660
 4574SOL    HW214622   4.870   0.835   1.586
 4575SOL     OW14623   0.865   0.392   5.950
 4575SOL    HW114624   0.810   0.320   5.992
 4575SOL    HW214625   0.808   0.448   5.891
 4576SOL     OW14626   2.957   4.752   5.713
 4576SOL    HW114627   2.903   4.699   5.648
 4576SOL    HW214628   3.043   4.703   5.732
 4577SOL     OW14629   0.640   1.806   2.456
 4577SOL    HW114630   0.550   1.766   2.470
 4577SOL    HW214631   0.710   1.734   2.462
 4578SOL     OW14632   1.398   1.979   2.040
 4578SOL    HW114633   1.366   2.073   2.050
 4578SOL    HW214634   1.396   1.934   2.129
 4579SOL     OW14635   4.738   0.636   3.200
 4579SOL    HW114636   4.813   0.572   3.183
 4579SOL    HW214637   4.753   0.682   3.287
 4580SOL     OW14638   0.492   1.865   0.867
 4580SOL    HW114639   0.514   1.772   0.896
 4580SOL    HW214640   0.543   1.887   0.784
 4581SOL     OW14641   3.435   0.957   1.032
 4581SOL    HW114642   3.519   1.010   1.048
 4581SOL    HW214643   3.361   1.018   1.007
 4582SOL     OW14644   6.357   1.506   3.834
 4582SOL    HW114645   6.419   1.493   3.756
 4582SOL    HW214646   6.393   1.577   3.894
 4583SOL     OW14647   1.894   0.551   0.609
 4583SOL    HW114648   1.957   0.572   0.534
 4583SOL    HW214649   1.917   0.606   0.689
 4584SOL     OW14650   0.929   1.273   4.350
 4584SOL    HW114651   0.897   1.247   4.259
 4584SOL    HW214652   0.942   1.191   4.406
 4585SOL     OW14653   1.976   3.051   3.398
 4585SOL    HW114654   1.973   3.019   3.493
 4585SOL    HW214655   2.059   3.105   3.384
 4586SOL     OW14656   5.732   4.718   6.688
 4586SOL    HW114657   5.697   4.766   6.607
 4586SOL    HW214658   5.665   4.650   6.718
 4587SOL     OW14659   3.221   2.878   4.921
 4587SOL    HW114660   3.179   2.789   4.938
 4587SOL    HW214661   3.293   2.895   4.987
 4588SOL     OW14662   3.202   3.794   6.190
 4588SOL    HW114663   3.103   3.788   6.194
 4588SOL    HW214664   3.242   3.720   6.244
 4589SOL     OW14665   5.898   6.313   2.028
 4589SOL    HW114666   5.994   6.286   2.031
 4589SOL    HW214667   5.841   6.231   2.026
 4590SOL     OW14668   3.453   5.087   1.091
 4590SOL    HW114669   3.532   5.073   1.032
 4590SOL    HW214670   3.401   5.167   1.059
 4591SOL     OW14671   1.984   0.148   5.178
 4591SOL    HW114672   2.070   0.112   5.141
 4591SOL    HW214673   1.968   0.108   5.269
 4592SOL     OW14674   1.466   1.586   3.846
 4592SOL    HW114675   1.437   1.548   3.759
 4592SOL    HW214676   1.490   1.512   3.909
 4593SOL     OW14677   1.538   5.580   4.581
 4593SOL    HW114678   1.556   5.668   4.625
 4593SOL    HW214679   1.443   5.577   4.550
 4594SOL     OW14680   1.695   0.133   3.347
 4594SOL    HW114681   1.789   0.112   3.318
 4594SOL    HW214682   1.674   0.084   3.432
 4595SOL     OW14683   5.380   1.744   6.083
 4595SOL    HW114684   5.311   1.815   6.095
 4595SOL    HW214685   5.345   1.657   6.115
 4596SOL     OW14686   6.528   0.663   2.147
 4596SOL    HW114687   6.617   0.622   2.130
 4596SOL    HW214688   6.541   0.750   2.196
 4597SOL     OW14689   2.669   5.827   0.235
 4597SOL    HW114690   2.659   5.921   0.201
 4597SOL    HW214691   2.583   5.797   0.275
 4598SOL     OW14692   1.018   4.323   0.440
 4598SOL    HW114693   1.051   4.230   0.455
 4598SOL    HW214694   1.095   4.386   0.432
 4599SOL     OW14695   2.912   6.528   1.863
 4599SOL    HW114696   2.837   6.463   1.849
 4599SOL    HW214697   2.974   6.525   1.784
 4600SOL     OW14698   0.665   6.629   6.580
 4600SOL    HW114699   0.684   6.540   6.540
 4600SOL    HW214700   0.596   6.677   6.526
 4601SOL     OW14701   1.881   0.860   5.290
 4601SOL    HW114702   1.874   0.783   5.227
 4601SOL    HW214703   1.869   0.946   5.239
 4602SOL     OW14704   3.191   2.170   6.102
 4602SOL    HW114705   3.153   2.173   6.194
 4602SOL    HW214706   3.118   2.155   6.036
 4603SOL     OW14707   4.964   0.045   1.174
 4603SOL    HW114708   4.993   0.004   1.087
 4603SOL    HW214709   5.037   0.103   1.210
 4604SOL     OW14710   6.488   6.843   4.934
 4604SOL    HW114711   6.509   6.857   4.837
 4604SOL    HW214712   6.521   6.753   4.962
 4605SOL     OW14713   4.050   0.214   1.302
 4605SOL    HW114714   4.113   0.155   1.351
 4605SOL    HW214715   3.971   0.234   1.360
 4606SOL     OW14716   0.182   6.560   5.346
 4606SOL    HW114717   0.151   6.638   5.400
 4606SOL    HW214718   0.144   6.567   5.253
 4607SOL     OW14719   2.228   2.043   0.566
 4607SOL    HW114720   2.220   2.138   0.596
 4607SOL    HW214721   2.324   2.016   0.562
 4608SOL     OW14722   6.749   2.260   4.682
 4608SOL    HW114723   6.691   2.179   4.694
 4608SOL    HW214724   6.786   2.288   4.770
 4609SOL     OW14725   5.115   5.604   6.453
 4609SOL    HW114726   5.200   5.557   6.476
 4609SOL    HW214727   5.056   5.608   6.534
 4610SOL     OW14728   5.035   4.365   6.941
 4610SOL    HW114729   4.962   4.322   6.888
 4610SOL    HW214730   5.010   4.460   6.961
 4611SOL     OW14731   0.977   0.713   6.317
 4611SOL    HW114732   1.049   0.698   6.384
 4611SOL    HW214733   1.007   0.783   6.252
 4612SOL     OW14734   1.975   1.690   1.329
 4612SOL    HW114735   2.035   1.650   1.398
 4612SOL    HW214736   1.885   1.708   1.369
 4613SOL     OW14737   1.597   4.384   1.933
 4613SOL    HW114738   1.532   4.314   1.902
 4613SOL    HW214739   1.591   4.394   2.032
 4614SOL     OW14740   6.653   4.240   4.438
 4614SOL    HW114741   6.618   4.334   4.443
 4614SOL    HW214742   6.631   4.192   4.523
 4615SOL     OW14743   1.287   3.533   6.162
 4615SOL    HW114744   1.217   3.471   6.199
 4615SOL    HW214745   1.242   3.614   6.123
 4616SOL     OW14746   0.083   2.693   5.514
 4616SOL    HW114747   0.112   2.670   5.606
 4616SOL    HW214748   7.007   2.701   5.511
 4617SOL     OW14749   7.001   2.456   3.314
 4617SOL    HW114750   6.908   2.459   3.278
 4617SOL    HW214751   6.997   2.449   3.414
 4618SOL     OW14752   2.389   4.240   6.200
 4618SOL    HW114753   2.382   4.285   6.289
 4618SOL    HW214754   2.298   4.212   6.169
 4619SOL     OW14755   4.970   6.245   6.270
 4619SOL    HW114756   4.953   6.153   6.234
 4619SOL    HW214757   5.047   6.286   6.221
 4620SOL     OW14758   1.057   4.919   2.570
 4620SOL    HW114759   1.069   4.995   2.633
 4620SOL    HW214760   1.068   4.951   2.476
 4621SOL     OW14761   3.605   0.066   2.704
 4621SOL    HW114762   3.532   0.107   2.649
 4621SOL    HW214763   3.572   7.004   2.745
 4622SOL     OW14764   5.035   6.454   1.072
 4622SOL    HW114765   5.112   6.404   1.035
 4622SOL    HW214766   5.067   6.538   1.117
 4623SOL     OW14767   2.936   4.376   1.097
 4623SOL    HW114768   2.895   4.419   1.177
 4623SOL    HW214769   3.025   4.338   1.122
 4624SOL     OW14770   4.172   1.147   2.152
 4624SOL    HW114771   4.229   1.192   2.083
 4624SOL    HW214772   4.083   1.194   2.158
 4625SOL     OW14773   2.521   6.257   1.275
 4625SOL    HW114774   2.557   6.168   1.301
 4625SOL    HW214775   2.573   6.293   1.198
 4626SOL     OW14776   4.356   3.833   1.598
 4626SOL    HW114777   4.320   3.916   1.641
 4626SOL    HW214778   4.441   3.806   1.644
 4627SOL     OW14779   5.636   0.073   5.214
 4627SOL    HW114780   5.732   0.045   5.205
 4627SOL    HW214781   5.619   0.101   5.308
 4628SOL     OW14782   5.566   5.213   3.807
 4628SOL    HW114783   5.596   5.302   3.841
 4628SOL    HW214784   5.644   5.150   3.805
 4629SOL     OW14785   2.385   5.421   0.279
 4629SOL    HW114786   2.309   5.426   0.344
 4629SOL    HW214787   2.355   5.374   0.197
 4630SOL     OW14788   1.772   3.078   1.822
 4630SOL    HW114789   1.821   3.085   1.735
 4630SOL    HW214790   1.743   3.169   1.852
 4631SOL     OW14791   0.315   0.449   3.276
 4631SOL    HW114792   0.243   0.381   3.265
 4631SOL    HW214793   0.276   0.541   3.276
 4632SOL     OW14794   3.546   4.862   2.725
 4632SOL    HW114795   3.512   4.775   2.760
 4632SOL    HW214796   3.500   4.883   2.639
 4633SOL     OW14797   4.680   1.110   4.705
 4633SOL    HW114798   4.594   1.153   4.731
 4633SOL    HW214799   4.724   1.163   4.632
 4634SOL     OW14800   3.142   4.249   5.453
 4634SOL    HW114801   3.139   4.158   5.493
 4634SOL    HW214802   3.052   4.273   5.415
 4635SOL     OW14803   4.333   6.356   1.959
 4635SOL    HW114804   4.356   6.260   1.944
 4635SOL    HW214805   4.235   6.370   1.939
 4636SOL     OW14806   1.782   5.343   0.252
 4636SOL    HW114807   1.848   5.319   0.323
 4636SOL    HW214808   1.782   5.273   0.181
 4637SOL     OW14809   3.045   1.450   3.146
 4637SOL    HW114810   3.101   1.387   3.092
 4637SOL    HW214811   3.016   1.404   3.230
 4638SOL     OW14812   3.777   5.093   6.841
 4638SOL    HW114813   3.715   5.167   6.814
 4638SOL    HW214814   3.768   5.017   6.776
 4639SOL     OW14815   3.693   2.299   1.554
 4639SOL    HW114816   3.691   2.333   1.648
 4639SOL    HW214817   3.780   2.253   1.537
 4640SOL     OW14818   6.479   2.949   6.937
 4640SOL    HW114819   6.502   3.039   6.973
 4640SOL    HW214820   6.530   2.879   6.987
 4641SOL     OW14821   1.121   6.029   4.445
 4641SOL    HW114822   1.150   5.947   4.395
 4641SOL    HW214823   1.022   6.026   4.459
 4642SOL     OW14824   6.419   0.802   4.358
 4642SOL    HW114825   6.493   0.820   4.423
 4642SOL    HW214826   6.363   0.884   4.347
 4643SOL     OW14827   0.752   2.169   0.224
 4643SOL    HW114828   0.736   2.073   0.247
 4643SOL    HW214829   0.668   2.208   0.186
 4644SOL     OW14830   1.551   0.799   0.601
 4644SOL    HW114831   1.475   0.865   0.605
 4644SOL    HW214832   1.554   0.758   0.510
 4645SOL     OW14833   6.791   1.730   4.638
 4645SOL    HW114834   6.854   1.743   4.562
 4645SOL    HW214835   6.711   1.679   4.607
 4646SOL     OW14836   2.455   4.795   4.255
 4646SOL    HW114837   2.489   4.720   4.200
 4646SOL    HW214838   2.478   4.780   4.351
 4647SOL     OW14839   1.164   6.299   1.638
 4647SOL    HW114840   1.235   6.264   1.700
 4647SOL    HW214841   1.206   6.362   1.572
 4648SOL     OW14842   2.908   1.615   4.210
 4648SOL    HW114843   2.971   1.584   4.140
 4648SOL    HW214844   2.820   1.569   4.199
 4649SOL     OW14845   6.695   1.707   0.541
 4649SOL    HW114846   6.696   1.611   0.515
 4649SOL    HW214847   6.770   1.726   0.605
 4650SOL     OW14848   5.048   6.137   0.732
 4650SOL    HW114849   5.073   6.113   0.826
 4650SOL    HW214850   5.044   6.236   0.722
 4651SOL     OW14851   6.805   3.301   6.182
 4651SOL    HW114852   6.864   3.341   6.252
 4651SOL    HW214853   6.729   3.253   6.225
 4652SOL     OW14854   0.631   6.241   5.517
 4652SOL    HW114855   0.661   6.145   5.516
 4652SOL    HW214856   0.603   6.267   5.425
 4653SOL     OW14857   6.258   5.361   0.067
 4653SOL    HW114858   6.320   5.296   0.111
 4653SOL    HW214859   6.283   5.369   6.994
 4654SOL     OW14860   1.628   0.364   5.747
 4654SOL    HW114861   1.532   0.353   5.722
 4654SOL    HW214862   1.635   0.391   5.843
 4655SOL     OW14863   4.778   2.876   1.383
 4655SOL    HW114864   4.738   2.817   1.313
 4655SOL    HW214865   4.740   2.852   1.472
 4656SOL     OW14866   0.035   2.255   1.462
 4656SOL    HW114867   0.134   2.238   1.455
 4656SOL    HW214868   7.019   2.253   1.370
 4657SOL     OW14869   4.080   1.054   2.513
 4657SOL    HW114870   4.179   1.056   2.498
 4657SOL    HW214871   4.041   1.143   2.491
 4658SOL     OW14872   1.467   2.582   5.644
 4658SOL    HW114873   1.379   2.629   5.650
 4658SOL    HW214874   1.453   2.486   5.620
 4659SOL     OW14875   1.582   4.342   0.083
 4659SOL    HW114876   1.617   4.318   0.173
 4659SOL    HW214877   1.639   4.299   0.012
 4660SOL     OW14878   0.930   6.059   3.265
 4660SOL    HW114879   1.002   6.049   3.197
 4660SOL    HW214880   0.848   6.011   3.235
 4661SOL     OW14881   0.806   1.808   5.398
 4661SOL    HW114882   0.821   1.906   5.404
 4661SOL    HW214883   0.790   1.782   5.303
 4662SOL     OW14884   2.137   0.180   5.559
 4662SOL    HW114885   2.087   0.115   5.616
 4662SOL    HW214886   2.082   0.261   5.543
 4663SOL     OW14887   1.534   6.922   0.533
 4663SOL    HW114888   1.580   6.833   0.537
 4663SOL    HW214889   1.448   6.917   0.583
 4664SOL     OW14890   6.367   0.202   6.937
 4664SOL    HW114891   6.358   0.234   0.008
 4664SOL    HW214892   6.434   0.128   6.933
 4665SOL     OW14893   1.357   0.586   4.113
 4665SOL    HW114894   1.405   0.659   4.163
 4665SOL    HW214895   1.259   0.590   4.136
 4666SOL     OW14896   2.343   1.832   4.607
 4666SOL    HW114897   2.339   1.831   4.707
 4666SOL    HW214898   2.252   1.813   4.570
 4667SOL     OW14899   6.565   3.878   1.288
 4667SOL    HW114900   6.616   3.909   1.208
 4667SOL    HW214901   6.531   3.786   1.272
 4668SOL     OW14902   4.899   1.762   4.292
 4668SOL    HW114903   4.801   1.758   4.308
 4668SOL    HW214904   4.946   1.716   4.368
 4669SOL     OW14905   5.364   6.817   6.021
 4669SOL    HW114906   5.432   6.887   6.042
 4669SOL    HW214907   5.393   6.765   5.941
 4670SOL     OW14908   0.367   2.748   0.691
 4670SOL    HW114909   0.334   2.837   0.657
 4670SOL    HW214910   0.411   2.698   0.616
 4671SOL     OW14911   0.400   3.770   0.735
 4671SOL    HW114912   0.415   3.688   0.680
 4671SOL    HW214913   0.487   3.818   0.748
 4672SOL     OW14914   2.671   4.051   6.418
 4672SOL    HW114915   2.643   4.068   6.513
 4672SOL    HW214916   2.593   4.017   6.365
 4673SOL     OW14917   5.929   1.276   0.508
 4673SOL    HW114918   5.984   1.334   0.568
 4673SOL    HW214919   5.835   1.271   0.543
 4674SOL     OW14920   1.107   2.570   1.391
 4674SOL    HW114921   1.057   2.491   1.427
 4674SOL    HW214922   1.043   2.644   1.372
 4675SOL     OW14923   2.231   5.705   6.844
 4675SOL    HW114924   2.204   5.794   6.806
 4675SOL    HW214925   2.301   5.664   6.785
 4676SOL     OW14926   0.731   6.066   3.908
 4676SOL    HW114927   0.718   6.164   3.927
 4676SOL    HW214928   0.752   6.018   3.993
 4677SOL     OW14929   4.473   6.941   6.582
 4677SOL    HW114930   4.461   6.907   6.489
 4677SOL    HW214931   4.400   7.004   6.605
 4678SOL     OW14932   1.847   4.628   6.529
 4678SOL    HW114933   1.770   4.668   6.579
 4678SOL    HW214934   1.832   4.639   6.431
 4679SOL     OW14935   3.287   6.457   5.928
 4679SOL    HW114936   3.212   6.404   5.967
 4679SOL    HW214937   3.254   6.547   5.899
 4680SOL     OW14938   1.873   4.516   0.762
 4680SOL    HW114939   1.934   4.544   0.836
 4680SOL    HW214940   1.861   4.592   0.698
 4681SOL     OW14941   6.900   6.150   5.341
 4681SOL    HW114942   6.942   6.084   5.403
 4681SOL    HW214943   6.804   6.162   5.365
 4682SOL     OW14944   4.120   6.439   0.588
 4682SOL    HW114945   4.077   6.529   0.599
 4682SOL    HW214946   4.051   6.373   0.559
 4683SOL     OW14947   0.068   4.247   3.804
 4683SOL    HW114948   0.019   4.245   3.891
 4683SOL    HW214949   0.083   4.343   3.776
 4684SOL     OW14950   1.364   1.254   4.871
 4684SOL    HW114951   1.407   1.344   4.878
 4684SOL    HW214952   1.268   1.266   4.845
 4685SOL     OW14953   4.792   4.375   5.126
 4685SOL    HW114954   4.730   4.453   5.130
 4685SOL    HW214955   4.756   4.307   5.063
 4686SOL     OW14956   4.696   6.098   0.922
 4686SOL    HW114957   4.693   6.004   0.891
 4686SOL    HW214958   4.625   6.113   0.991
 4687SOL     OW14959   5.348   6.726   4.585
 4687SOL    HW114960   5.312   6.634   4.596
 4687SOL    HW214961   5.302   6.771   4.508
 4688SOL     OW14962   0.957   2.027   0.086
 4688SOL    HW114963   0.902   1.959   0.038
 4688SOL    HW214964   0.896   2.094   0.129
 4689SOL     OW14965   1.491   5.235   4.943
 4689SOL    HW114966   1.418   5.301   4.930
 4689SOL    HW214967   1.452   5.143   4.951
 4690SOL     OW14968   1.412   2.769   0.553
 4690SOL    HW114969   1.481   2.788   0.622
 4690SOL    HW214970   1.321   2.773   0.596
 4691SOL     OW14971   3.898   4.637   0.285
 4691SOL    HW114972   3.909   4.579   0.366
 4691SOL    HW214973   3.887   4.732   0.314
 4692SOL     OW14974   0.039   5.366   3.336
 4692SOL    HW114975   0.121   5.401   3.381
 4692SOL    HW214976   0.050   5.269   3.318
 4693SOL     OW14977   0.552   0.652   3.906
 4693SOL    HW114978   0.598   0.601   3.979
 4693SOL    HW214979   0.531   0.744   3.938
 4694SOL     OW14980   2.380   0.861   6.356
 4694SOL    HW114981   2.383   0.762   6.343
 4694SOL    HW214982   2.289   0.888   6.389
 4695SOL     OW14983   3.490   3.094   1.462
 4695SOL    HW114984   3.438   3.167   1.417
 4695SOL    HW214985   3.566   3.133   1.512
 4696SOL     OW14986   6.468   3.025   0.587
 4696SOL    HW114987   6.512   3.095   0.530
 4696SOL    HW214988   6.454   2.943   0.532
 4697SOL     OW14989   0.705   5.037   0.205
 4697SOL    HW114990   0.671   5.010   0.295
 4697SOL    HW214991   0.628   5.039   0.140
 4698SOL     OW14992   5.810   3.313   1.468
 4698SOL    HW114993   5.778   3.351   1.555
 4698SOL    HW214994   5.737   3.259   1.427
 4699SOL     OW14995   6.457   0.255   3.572
 4699SOL    HW114996   6.533   0.192   3.590
 4699SOL    HW214997   6.486   0.325   3.507
 4700SOL     OW14998   5.973   0.093   0.892
 4700SOL    HW114999   5.980   0.010   0.947
 4700SOL    HW215000   6.064   0.118   0.858
 4701SOL     OW15001   0.823   1.110   0.550
 4701SOL    HW115002   0.896   1.157   0.600
 4701SOL    HW215003   0.854   1.090   0.457
 4702SOL     OW15004   3.259   3.605   7.014
 4702SOL    HW115005   3.288   3.520   0.034
 4702SOL    HW215006   3.332   3.638   6.954
 4703SOL     OW15007   1.642   1.310   1.861
 4703SOL    HW115008   1.663   1.223   1.907
 4703SOL    HW215009   1.565   1.354   1.907
 4704SOL     OW15010   4.469   6.898   0.263
 4704SOL    HW115011   4.417   6.823   0.305
 4704SOL    HW215012   4.462   6.979   0.321
 4705SOL     OW15013   3.663   4.090   3.724
 4705SOL    HW115014   3.687   4.095   3.627
 4705SOL    HW215015   3.702   4.169   3.772
 4706SOL     OW15016   4.751   5.554   0.934
 4706SOL    HW115017   4.816   5.532   0.862
 4706SOL    HW215018   4.768   5.647   0.967
 4707SOL     OW15019   3.253   6.391   1.040
 4707SOL    HW115020   3.178   6.350   1.093
 4707SOL    HW215021   3.216   6.433   0.957
 4708SOL     OW15022   2.026   2.258   2.062
 4708SOL    HW115023   2.025   2.188   2.134
 4708SOL    HW215024   1.937   2.304   2.059
 4709SOL     OW15025   4.189   4.141   6.407
 4709SOL    HW115026   4.112   4.089   6.444
 4709SOL    HW215027   4.244   4.176   6.483
 4710SOL     OW15028   5.262   2.203   0.813
 4710SOL    HW115029   5.190   2.234   0.875
 4710SOL    HW215030   5.331   2.152   0.865
 4711SOL     OW15031   2.985   0.010   2.902
 4711SOL    HW115032   2.915   6.964   2.884
 4711SOL    HW215033   2.987   0.075   2.826
 4712SOL     OW15034   1.275   4.741   6.930
 4712SOL    HW115035   1.176   4.736   6.938
 4712SOL    HW215036   1.317   4.703   7.013
 4713SOL     OW15037   2.734   5.332   0.831
 4713SOL    HW115038   2.690   5.379   0.907
 4713SOL    HW215039   2.679   5.252   0.806
 4714SOL     OW15040   3.564   2.610   0.752
 4714SOL    HW115041   3.567   2.528   0.695
 4714SOL    HW215042   3.472   2.620   0.791
 4715SOL     OW15043   5.648   4.113   4.389
 4715SOL    HW115044   5.746   4.092   4.390
 4715SOL    HW215045   5.606   4.084   4.475
 4716SOL     OW15046   3.494   5.800   0.313
 4716SOL    HW115047   3.548   5.827   0.393
 4716SOL    HW215048   3.552   5.803   0.231
 4717SOL     OW15049   1.078   5.518   3.549
 4717SOL    HW115050   1.076   5.604   3.600
 4717SOL    HW215051   0.991   5.505   3.502
 4718SOL     OW15052   6.164   0.978   6.397
 4718SOL    HW115053   6.206   1.065   6.422
 4718SOL    HW215054   6.235   0.910   6.378
 4719SOL     OW15055   4.458   2.763   1.068
 4719SOL    HW115056   4.449   2.803   0.976
 4719SOL    HW215057   4.455   2.836   1.136
 4720SOL     OW15058   2.899   0.714   3.884
 4720SOL    HW115059   2.983   0.697   3.833
 4720SOL    HW215060   2.827   0.653   3.851
 4721SOL     OW15061   1.467   2.177   1.573
 4721SOL    HW115062   1.553   2.190   1.623
 4721SOL    HW215063   1.421   2.265   1.564
 4722SOL     OW15064   2.706   0.434   1.742
 4722SOL    HW115065   2.641   0.488   1.689
 4722SOL    HW215066   2.668   0.343   1.759
 4723SOL     OW15067   3.034   6.920   6.745
 4723SOL    HW115068   2.955   6.974   6.716
 4723SOL    HW215069   3.086   6.891   6.665
 4724SOL     OW15070   3.867   5.240   2.021
 4724SOL    HW115071   3.844   5.174   1.950
 4724SOL    HW215072   3.797   5.240   2.092
 4725SOL     OW15073   5.774   5.619   3.532
 4725SOL    HW115074   5.759   5.560   3.453
 4725SOL    HW215075   5.686   5.648   3.569
 4726SOL     OW15076   0.760   6.275   6.225
 4726SOL    HW115077   0.723   6.182   6.229
 4726SOL    HW215078   0.777   6.300   6.129
 4727SOL     OW15079   0.290   6.709   0.389
 4727SOL    HW115080   0.243   6.771   0.452
 4727SOL    HW215081   0.314   6.758   0.305
 4728SOL     OW15082   0.344   1.410   0.073
 4728SOL    HW115083   0.284   1.470   0.022
 4728SOL    HW215084   0.438   1.417   0.038
 4729SOL     OW15085   3.336   0.571   0.724
 4729SOL    HW115086   3.383   0.564   0.812
 4729SOL    HW215087   3.290   0.485   0.704
 4730SOL     OW15088   1.717   6.669   5.159
 4730SOL    HW115089   1.707   6.625   5.249
 4730SOL    HW215090   1.671   6.757   5.160
 4731SOL     OW15091   5.691   1.847   5.639
 4731SOL    HW115092   5.697   1.817   5.734
 4731SOL    HW215093   5.671   1.945   5.636
 4732SOL     OW15094   0.607   1.948   0.650
 4732SOL    HW115095   0.625   1.899   0.565
 4732SOL    HW215096   0.632   2.044   0.640
 4733SOL     OW15097   6.608   2.857   4.220
 4733SOL    HW115098   6.563   2.785   4.273
 4733SOL    HW215099   6.647   2.925   4.282
 4734SOL     OW15100   4.018   4.513   6.120
 4734SOL    HW115101   3.959   4.591   6.103
 4734SOL    HW215102   3.984   4.433   6.070
 4735SOL     OW15103   0.516   4.935   3.362
 4735SOL    HW115104   0.493   5.031   3.382
 4735SOL    HW215105   0.437   4.877   3.384
 4736SOL     OW15106   1.507   0.937   1.195
 4736SOL    HW115107   1.437   1.004   1.171
 4736SOL    HW215108   1.490   0.852   1.146
 4737SOL     OW15109   3.002   5.318   1.715
 4737SOL    HW115110   2.984   5.381   1.791
 4737SOL    HW215111   3.036   5.231   1.751
 4738SOL     OW15112   6.870   6.488   2.449
 4738SOL    HW115113   6.923   6.558   2.495
 4738SOL    HW215114   6.845   6.416   2.515
 4739SOL     OW15115   4.683   0.497   1.447
 4739SOL    HW115116   4.780   0.499   1.423
 4739SOL    HW215117   4.666   0.424   1.513
 4740SOL     OW15118   0.747   2.429   3.861
 4740SOL    HW115119   0.811   2.355   3.839
 4740SOL    HW215120   0.788   2.491   3.927
 4741SOL     OW15121   3.777   4.259   1.222
 4741SOL    HW115122   3.678   4.264   1.232
 4741SOL    HW215123   3.821   4.292   1.305
 4742SOL     OW15124   3.478   0.882   0.531
 4742SOL    HW115125   3.388   0.843   0.550
 4742SOL    HW215126   3.538   0.812   0.492
 4743SOL     OW15127   1.606   4.653   1.037
 4743SOL    HW115128   1.569   4.621   1.123
 4743SOL    HW215129   1.557   4.735   1.007
 4744SOL     OW15130   2.668   5.694   1.393
 4744SOL    HW115131   2.629   5.609   1.357
 4744SOL    HW215132   2.746   5.721   1.336
 4745SOL     OW15133   0.736   3.912   6.867
 4745SOL    HW115134   0.666   3.980   6.842
 4745SOL    HW215135   0.696   3.821   6.863
 4746SOL     OW15136   4.288   5.750   4.253
 4746SOL    HW115137   4.344   5.775   4.332
 4746SOL    HW215138   4.215   5.689   4.282
 4747SOL     OW15139   1.793   1.685   6.864
 4747SOL    HW115140   1.740   1.711   6.945
 4747SOL    HW215141   1.864   1.753   6.847
 4748SOL     OW15142   1.762   6.606   2.037
 4748SOL    HW115143   1.777   6.507   2.038
 4748SOL    HW215144   1.700   6.628   1.962
 4749SOL     OW15145   3.180   1.687   6.850
 4749SOL    HW115146   3.278   1.687   6.832
 4749SOL    HW215147   3.154   1.774   6.893
 4750SOL     OW15148   4.898   2.743   5.670
 4750SOL    HW115149   4.912   2.764   5.573
 4750SOL    HW215150   4.977   2.693   5.705
 4751SOL     OW15151   4.505   0.816   3.238
 4751SOL    HW115152   4.567   0.738   3.249
 4751SOL    HW215153   4.553   0.900   3.263
 4752SOL     OW15154   4.870   2.219   6.691
 4752SOL    HW115155   4.779   2.228   6.651
 4752SOL    HW215156   4.869   2.250   6.786
 4753SOL     OW15157   3.125   6.353   5.222
 4753SOL    HW115158   3.120   6.437   5.277
 4753SOL    HW215159   3.213   6.350   5.175
 4754SOL     OW15160   4.596   4.369   6.582
 4754SOL    HW115161   4.625   4.317   6.501
 4754SOL    HW215162   4.672   4.426   6.613
 4755SOL     OW15163   0.778   0.770   1.666
 4755SOL    HW115164   0.825   0.757   1.579
 4755SOL    HW215165   0.696   0.825   1.652
 4756SOL     OW15166   6.359   4.190   5.988
 4756SOL    HW115167   6.347   4.115   6.054
 4756SOL    HW215168   6.454   4.221   5.990
 4757SOL     OW15169   1.611   3.535   0.636
 4757SOL    HW115170   1.706   3.537   0.665
 4757SOL    HW215171   1.565   3.619   0.666
 4758SOL     OW15172   2.284   6.726   3.122
 4758SOL    HW115173   2.289   6.637   3.166
 4758SOL    HW215174   2.356   6.734   3.053
 4759SOL     OW15175   0.415   6.178   1.643
 4759SOL    HW115176   0.435   6.196   1.546
 4759SOL    HW215177   0.376   6.260   1.685
 4760SOL     OW15178   1.556   5.860   0.626
 4760SOL    HW115179   1.646   5.874   0.668
 4760SOL    HW215180   1.525   5.946   0.585
 4761SOL     OW15181   5.792   6.328   1.694
 4761SOL    HW115182   5.723   6.383   1.743
 4761SOL    HW215183   5.800   6.238   1.738
 4762SOL     OW15184   1.325   0.639   2.421
 4762SOL    HW115185   1.238   0.603   2.455
 4762SOL    HW215186   1.346   0.597   2.333
 4763SOL     OW15187   5.343   5.119   2.303
 4763SOL    HW115188   5.285   5.144   2.380
 4763SOL    HW215189   5.342   5.019   2.292
 4764SOL     OW15190   5.020   2.805   0.481
 4764SOL    HW115191   4.937   2.789   0.427
 4764SOL    HW215192   5.000   2.795   0.578
 4765SOL     OW15193   4.052   1.642   5.245
 4765SOL    HW115194   4.045   1.574   5.173
 4765SOL    HW215195   4.119   1.611   5.314
 4766SOL     OW15196   0.906   0.380   4.376
 4766SOL    HW115197   0.842   0.303   4.384
 4766SOL    HW215198   0.855   0.463   4.351
 4767SOL     OW15199   2.302   4.255   3.357
 4767SOL    HW115200   2.225   4.318   3.344
 4767SOL    HW215201   2.308   4.194   3.277
 4768SOL     OW15202   4.444   2.895   6.354
 4768SOL    HW115203   4.474   2.821   6.294
 4768SOL    HW215204   4.438   2.980   6.301
 4769SOL     OW15205   2.114   3.627   0.342
 4769SOL    HW115206   2.023   3.608   0.304
 4769SOL    HW215207   2.160   3.541   0.363
 4770SOL     OW15208   0.493   1.544   4.293
 4770SOL    HW115209   0.485   1.594   4.380
 4770SOL    HW215210   0.544   1.459   4.308
 4771SOL     OW15211   1.719   0.050   4.003
 4771SOL    HW115212   1.694   6.999   3.941
 4771SOL    HW215213   1.677   0.035   4.093
 4772SOL     OW15214   3.314   5.137   2.279
 4772SOL    HW115215   3.225   5.182   2.274
 4772SOL    HW215216   3.360   5.163   2.363
 4773SOL     OW15217   2.620   5.290   4.760
 4773SOL    HW115218   2.669   5.224   4.702
 4773SOL    HW215219   2.537   5.247   4.796
 4774SOL     OW15220   1.314   4.351   0.165
 4774SOL    HW115221   1.275   4.259   0.177
 4774SOL    HW215222   1.409   4.343   0.136
 4775SOL     OW15223   6.132   6.336   5.585
 4775SOL    HW115224   6.167   6.427   5.564
 4775SOL    HW215225   6.118   6.285   5.500
 4776SOL     OW15226   0.378   0.888   6.169
 4776SOL    HW115227   0.447   0.923   6.233
 4776SOL    HW215228   0.338   0.964   6.118
 4777SOL     OW15229   1.873   0.265   2.586
 4777SOL    HW115230   1.867   0.192   2.517
 4777SOL    HW215231   1.792   0.323   2.581
 4778SOL     OW15232   2.394   1.025   6.993
 4778SOL    HW115233   2.454   1.028   6.913
 4778SOL    HW215234   2.426   1.092   0.037
 4779SOL     OW15235   5.456   0.273   4.782
 4779SOL    HW115236   5.512   0.346   4.821
 4779SOL    HW215237   5.457   0.194   4.843
 4780SOL     OW15238   4.755   2.541   5.794
 4780SOL    HW115239   4.719   2.546   5.887
 4780SOL    HW215240   4.835   2.600   5.786
 4781SOL     OW15241   2.295   6.296   1.811
 4781SOL    HW115242   2.197   6.276   1.809
 4781SOL    HW215243   2.344   6.231   1.753
 4782SOL     OW15244   6.668   6.896   4.377
 4782SOL    HW115245   6.768   6.901   4.377
 4782SOL    HW215246   6.630   6.981   4.342
 4783SOL     OW15247   6.879   3.502   6.006
 4783SOL    HW115248   6.847   3.428   6.066
 4783SOL    HW215249   6.912   3.578   6.061
 4784SOL     OW15250   5.503   3.082   6.685
 4784SOL    HW115251   5.541   3.153   6.744
 4784SOL    HW215252   5.470   3.006   6.740
 4785SOL     OW15253   0.065   6.904   4.724
 4785SOL    HW115254   0.145   6.845   4.714
 4785SOL    HW215255   0.082   6.991   4.678
 4786SOL     OW15256   0.740   6.191   0.422
 4786SOL    HW115257   0.694   6.178   0.510
 4786SOL    HW215258   0.811   6.121   0.411
 4787SOL     OW15259   3.999   1.635   4.195
 4787SOL    HW115260   3.948   1.591   4.270
 4787SOL    HW215261   4.010   1.732   4.214
 4788SOL     OW15262   6.843   6.028   0.382
 4788SOL    HW115263   6.915   6.001   0.445
 4788SOL    HW215264   6.883   6.071   0.301
 4789SOL     OW15265   5.794   1.130   2.879
 4789SOL    HW115266   5.837   1.046   2.847
 4789SOL    HW215267   5.723   1.158   2.813
 4790SOL     OW15268   6.982   1.885   5.122
 4790SOL    HW115269   6.967   1.795   5.081
 4790SOL    HW215270   0.027   1.879   5.194
 4791SOL     OW15271   0.816   0.204   0.512
 4791SOL    HW115272   0.791   0.301   0.514
 4791SOL    HW215273   0.831   0.176   0.417
 4792SOL     OW15274   2.028   3.506   2.547
 4792SOL    HW115275   2.067   3.449   2.475
 4792SOL    HW215276   2.042   3.462   2.636
 4793SOL     OW15277   0.871   3.384   5.498
 4793SOL    HW115278   0.889   3.312   5.430
 4793SOL    HW215279   0.826   3.461   5.453
 4794SOL     OW15280   4.445   1.870   4.802
 4794SOL    HW115281   4.353   1.892   4.770
 4794SOL    HW215282   4.485   1.949   4.848
 4795SOL     OW15283   7.016   1.052   6.463
 4795SOL    HW115284   6.958   0.971   6.471
 4795SOL    HW215285   0.076   1.039   6.516
 4796SOL     OW15286   4.499   1.199   5.672
 4796SOL    HW115287   4.555   1.175   5.752
 4796SOL    HW215288   4.530   1.286   5.635
 4797SOL     OW15289   1.513   4.999   5.354
 4797SOL    HW115290   1.491   4.935   5.281
 4797SOL    HW215291   1.530   4.950   5.439
 4798SOL     OW15292   4.058   5.366   0.107
 4798SOL    HW115293   4.014   5.374   0.196
 4798SOL    HW215294   3.990   5.381   0.035
 4799SOL     OW15295   4.595   2.564   6.732
 4799SOL    HW115296   4.578   2.482   6.678
 4799SOL    HW215297   4.527   2.571   6.805
 4800SOL     OW15298   0.121   4.038   0.194
 4800SOL    HW115299   0.142   3.949   0.152
 4800SOL    HW215300   0.122   4.028   0.293
 4801SOL     OW15301   5.015   2.378   1.542
 4801SOL    HW115302   5.069   2.415   1.618
 4801SOL    HW215303   5.004   2.449   1.473
 4802SOL     OW15304   6.620   0.132   4.239
 4802SOL    HW115305   6.581   0.174   4.157
 4802SOL    HW215306   6.580   0.176   4.320
 4803SOL     OW15307   5.082   3.742   6.093
 4803SOL    HW115308   5.105   3.813   6.161
 4803SOL    HW215309   5.163   3.723   6.037
 4804SOL     OW15310   5.265   1.871   0.354
 4804SOL    HW115311   5.278   1.774   0.334
 4804SOL    HW215312   5.191   1.881   0.421
 4805SOL     OW15313   6.131   1.640   0.188
 4805SOL    HW115314   6.193   1.579   0.238
 4805SOL    HW215315   6.179   1.723   0.161
 4806SOL     OW15316   0.983   1.248   3.595
 4806SOL    HW115317   0.981   1.152   3.567
 4806SOL    HW215318   1.048   1.298   3.538
 4807SOL     OW15319   0.380   4.212   5.548
 4807SOL    HW115320   0.365   4.310   5.545
 4807SOL    HW215321   0.314   4.166   5.489
 4808SOL     OW15322   3.725   5.724   1.700
 4808SOL    HW115323   3.761   5.718   1.607
 4808SOL    HW215324   3.634   5.766   1.698
 4809SOL     OW15325   3.142   3.692   1.785
 4809SOL    HW115326   3.232   3.667   1.822
 4809SOL    HW215327   3.137   3.667   1.688
 4810SOL     OW15328   1.185   5.044   3.925
 4810SOL    HW115329   1.154   4.974   3.990
 4810SOL    HW215330   1.241   5.111   3.973
 4811SOL     OW15331   3.257   3.651   4.433
 4811SOL    HW115332   3.166   3.691   4.424
 4811SOL    HW215333   3.249   3.557   4.465
 4812SOL     OW15334   1.225   0.406   2.791
 4812SOL    HW115335   1.311   0.447   2.763
 4812SOL    HW215336   1.200   0.439   2.882
 4813SOL     OW15337   0.046   1.858   5.621
 4813SOL    HW115338   0.137   1.831   5.588
 4813SOL    HW215339   0.015   1.792   5.690
 4814SOL     OW15340   6.293   3.830   1.406
 4814SOL    HW115341   6.290   3.925   1.437
 4814SOL    HW215342   6.248   3.772   1.474
 4815SOL     OW15343   5.790   4.499   1.854
 4815SOL    HW115344   5.772   4.423   1.918
 4815SOL    HW215345   5.803   4.583   1.906
 4816SOL     OW15346   3.130   1.158   2.486
 4816SOL    HW115347   3.130   1.256   2.505
 4816SOL    HW215348   3.039   1.130   2.454
 4817SOL     OW15349   4.146   1.617   0.524
 4817SOL    HW115350   4.137   1.517   0.526
 4817SOL    HW215351   4.175   1.650   0.613
 4818SOL     OW15352   4.425   0.121   4.862
 4818SOL    HW115353   4.341   0.175   4.865
 4818SOL    HW215354   4.492   0.167   4.803
 4819SOL     OW15355   3.325   0.836   0.792
 4819SOL    HW115356   3.357   0.875   0.878
 4819SOL    HW215357   3.347   0.739   0.789
 4820SOL     OW15358   5.841   4.010   1.988
 4820SOL    HW115359   5.756   3.970   2.023
 4820SOL    HW215360   5.840   4.008   1.888
 4821SOL     OW15361   0.137   5.219   1.532
 4821SOL    HW115362   0.225   5.253   1.500
 4821SOL    HW215363   0.077   5.296   1.552
 4822SOL     OW15364   0.982   4.075   1.950
 4822SOL    HW115365   0.969   4.027   1.864
 4822SOL    HW215366   0.928   4.031   2.021
 4823SOL     OW15367   1.854   1.521   4.095
 4823SOL    HW115368   1.930   1.495   4.153
 4823SOL    HW215369   1.775   1.546   4.152
 4824SOL     OW15370   5.499   2.870   1.510
 4824SOL    HW115371   5.418   2.816   1.530
 4824SOL    HW215372   5.476   2.943   1.445
 4825SOL     OW15373   0.277   3.371   3.582
 4825SOL    HW115374   0.234   3.460   3.597
 4825SOL    HW215375   0.303   3.331   3.670
 4826SOL     OW15376   0.060   6.354   6.957
 4826SOL    HW115377   0.115   6.425   6.914
 4826SOL    HW215378   0.022   6.388   0.019
 4827SOL     OW15379   5.562   1.265   1.184
 4827SOL    HW115380   5.539   1.175   1.220
 4827SOL    HW215381   5.549   1.265   1.084
 4828SOL     OW15382   4.997   3.127   6.612
 4828SOL    HW115383   5.022   3.140   6.516
 4828SOL    HW215384   4.899   3.112   6.620
 4829SOL     OW15385   3.550   0.133   5.077
 4829SOL    HW115386   3.465   0.174   5.111
 4829SOL    HW215387   3.572   0.173   4.988
 4830SOL     OW15388   4.135   6.317   4.971
 4830SOL    HW115389   4.049   6.337   4.924
 4830SOL    HW215390   4.210   6.321   4.905
 4831SOL     OW15391   6.649   3.714   5.606
 4831SOL    HW115392   6.704   3.634   5.582
 4831SOL    HW215393   6.561   3.684   5.645
 4832SOL     OW15394   2.343   2.686   6.049
 4832SOL    HW115395   2.330   2.672   5.950
 4832SOL    HW215396   2.351   2.597   6.094
 4833SOL     OW15397   5.433   1.495   2.871
 4833SOL    HW115398   5.485   1.411   2.862
 4833SOL    HW215399   5.445   1.533   2.963
 4834SOL     OW15400   5.089   1.116   2.981
 4834SOL    HW115401   5.117   1.211   2.994
 4834SOL    HW215402   5.108   1.063   3.063
 4835SOL     OW15403   2.368   0.616   5.784
 4835SOL    HW115404   2.452   0.581   5.742
 4835SOL    HW215405   2.299   0.544   5.787
 4836SOL     OW15406   5.572   2.896   2.244
 4836SOL    HW115407   5.556   2.992   2.221
 4836SOL    HW215408   5.645   2.860   2.185
 4837SOL     OW15409   0.451   4.077   0.579
 4837SOL    HW115410   0.523   4.053   0.514
 4837SOL    HW215411   0.422   4.171   0.565
 4838SOL     OW15412   2.533   5.659   2.326
 4838SOL    HW115413   2.457   5.594   2.334
 4838SOL    HW215414   2.608   5.631   2.386
 4839SOL     OW15415   0.889   0.008   6.928
 4839SOL    HW115416   0.891   0.102   6.893
 4839SOL    HW215417   0.818   6.979   6.880
 4840SOL     OW15418   6.607   6.531   6.802
 4840SOL    HW115419   6.550   6.450   6.788
 4840SOL    HW215420   6.691   6.522   6.749
 4841SOL     OW15421   2.372   6.127   2.315
 4841SOL    HW115422   2.453   6.089   2.271
 4841SOL    HW215423   2.300   6.140   2.247
 4842SOL     OW15424   3.645   6.606   1.288
 4842SOL    HW115425   3.706   6.685   1.281
 4842SOL    HW215426   3.611   6.582   1.197
 4843SOL     OW15427   0.620   3.203   7.001
 4843SOL    HW115428   0.521   3.194   7.008
 4843SOL    HW215429   0.663   3.114   7.015
 4844SOL     OW15430   0.334   1.741   5.795
 4844SOL    HW115431   0.269   1.770   5.865
 4844SOL    HW215432   0.367   1.821   5.745
 4845SOL     OW15433   5.891   5.483   3.730
 4845SOL    HW115434   5.932   5.398   3.699
 4845SOL    HW215435   5.896   5.551   3.657
 4846SOL     OW15436   0.720   5.494   0.556
 4846SOL    HW115437   0.733   5.407   0.603
 4846SOL    HW215438   0.796   5.555   0.578
 4847SOL     OW15439   4.810   2.257   4.775
 4847SOL    HW115440   4.717   2.261   4.739
 4847SOL    HW215441   4.873   2.224   4.705
 4848SOL     OW15442   2.984   2.025   2.138
 4848SOL    HW115443   2.932   2.012   2.222
 4848SOL    HW215444   2.924   2.059   2.066
 4849SOL     OW15445   1.035   6.755   6.944
 4849SOL    HW115446   1.015   6.826   7.011
 4849SOL    HW215447   0.963   6.754   6.874
 4850SOL     OW15448   3.717   0.417   2.339
 4850SOL    HW115449   3.680   0.441   2.249
 4850SOL    HW215450   3.761   0.328   2.334
 4851SOL     OW15451   5.633   0.476   5.283
 4851SOL    HW115452   5.602   0.538   5.211
 4851SOL    HW215453   5.556   0.422   5.316
 4852SOL     OW15454   1.479   1.964   1.160
 4852SOL    HW115455   1.552   1.901   1.186
 4852SOL    HW215456   1.500   2.055   1.196
 4853SOL     OW15457   3.216   1.279   1.876
 4853SOL    HW115458   3.137   1.225   1.847
 4853SOL    HW215459   3.185   1.368   1.910
 4854SOL     OW15460   4.227   0.051   0.186
 4854SOL    HW115461   4.174   0.029   0.268
 4854SOL    HW215462   4.165   0.056   0.107
 4855SOL     OW15463   0.132   2.612   2.552
 4855SOL    HW115464   0.088   2.557   2.623
 4855SOL    HW215465   0.110   2.709   2.565
 4856SOL     OW15466   2.181   4.544   3.345
 4856SOL    HW115467   2.133   4.596   3.415
 4856SOL    HW215468   2.263   4.593   3.317
 4857SOL     OW15469   0.091   1.681   6.004
 4857SOL    HW115470   0.143   1.596   5.989
 4857SOL    HW215471   0.108   1.714   6.097
 4858SOL     OW15472   0.999   0.967   3.599
 4858SOL    HW115473   0.939   0.906   3.548
 4858SOL    HW215474   1.092   0.930   3.601
 4859SOL     OW15475   2.926   5.135   5.280
 4859SOL    HW115476   2.975   5.150   5.366
 4859SOL    HW215477   2.962   5.197   5.210
 4860SOL     OW15478   4.446   4.645   0.839
 4860SOL    HW115479   4.492   4.579   0.899
 4860SOL    HW215480   4.449   4.736   0.881
 4861SOL     OW15481   4.999   3.479   5.923
 4861SOL    HW115482   4.901   3.488   5.939
 4861SOL    HW215483   5.048   3.488   6.010
 4862SOL     OW15484   1.338   6.548   1.822
 4862SOL    HW115485   1.362   6.452   1.835
 4862SOL    HW215486   1.246   6.555   1.783
 4863SOL     OW15487   5.850   4.215   6.888
 4863SOL    HW115488   5.903   4.251   6.964
 4863SOL    HW215489   5.856   4.115   6.887
 4864SOL     OW15490   3.126   0.957   3.592
 4864SOL    HW115491   3.079   1.045   3.597
 4864SOL    HW215492   3.219   0.967   3.629
 4865SOL     OW15493   2.247   6.329   5.035
 4865SOL    HW115494   2.197   6.349   5.120
 4865SOL    HW215495   2.339   6.297   5.058
 4866SOL     OW15496   6.482   3.992   6.588
 4866SOL    HW115497   6.386   4.009   6.566
 4866SOL    HW215498   6.488   3.926   6.663
 4867SOL     OW15499   5.023   6.823   2.935
 4867SOL    HW115500   4.966   6.789   3.010
 4867SOL    HW215501   5.026   6.923   2.938
 4868SOL     OW15502   0.059   4.539   1.658
 4868SOL    HW115503   6.991   4.541   1.698
 4868SOL    HW215504   0.060   4.471   1.584
 4869SOL     OW15505   0.873   0.480   0.287
 4869SOL    HW115506   0.955   0.448   0.335
 4869SOL    HW215507   0.891   0.569   0.246
 4870SOL     OW15508   0.275   6.017   1.824
 4870SOL    HW115509   0.345   5.953   1.856
 4870SOL    HW215510   0.288   6.033   1.726
 4871SOL     OW15511   1.777   1.982   4.383
 4871SOL    HW115512   1.826   2.039   4.448
 4871SOL    HW215513   1.698   2.032   4.348
 4872SOL     OW15514   5.545   6.532   3.202
 4872SOL    HW115515   5.496   6.499   3.283
 4872SOL    HW215516   5.482   6.538   3.125
 4873SOL     OW15517   6.604   5.645   5.550
 4873SOL    HW115518   6.538   5.572   5.531
 4873SOL    HW215519   6.589   5.721   5.486
 4874SOL     OW15520   4.985   2.755   2.897
 4874SOL    HW115521   5.079   2.739   2.866
 4874SOL    HW215522   4.942   2.667   2.919
 4875SOL     OW15523   5.529   5.853   5.267
 4875SOL    HW115524   5.496   5.888   5.179
 4875SOL    HW215525   5.561   5.759   5.256
 4876SOL     OW15526   1.520   1.136   2.567
 4876SOL    HW115527   1.441   1.075   2.561
 4876SOL    HW215528   1.575   1.128   2.483
 4877SOL     OW15529   6.946   1.390   5.167
 4877SOL    HW115530   6.872   1.406   5.101
 4877SOL    HW215531   6.928   1.443   5.250
 4878SOL     OW15532   6.942   2.566   2.379
 4878SOL    HW115533   6.980   2.587   2.289
 4878SOL    HW215534   7.016   2.563   2.447
 4879SOL     OW15535   5.495   1.181   2.865
 4879SOL    HW115536   5.405   1.223   2.860
 4879SOL    HW215537   5.494   1.109   2.935
 4880SOL     OW15538   6.558   3.140   6.251
 4880SOL    HW115539   6.476   3.187   6.219
 4880SOL    HW215540   6.579   3.064   6.190
 4881SOL     OW15541   1.968   2.270   1.710
 4881SOL    HW115542   2.044   2.335   1.706
 4881SOL    HW215543   1.931   2.256   1.619
 4882SOL     OW15544   4.291   2.045   4.547
 4882SOL    HW115545   4.244   2.127   4.580
 4882SOL    HW215546   4.381   2.071   4.511
 4883SOL     OW15547   6.470   4.568   0.899
 4883SOL    HW115548   6.434   4.507   0.829
 4883SOL    HW215549   6.429   4.544   0.988
 4884SOL     OW15550   2.122   6.870   1.155
 4884SOL    HW115551   2.110   6.912   1.065
 4884SOL    HW215552   2.168   6.934   1.216
 4885SOL     OW15553   1.119   4.398   6.990
 4885SOL    HW115554   1.197   4.395   0.028
 4885SOL    HW215555   1.071   4.310   6.993
 4886SOL     OW15556   2.288   1.206   1.942
 4886SOL    HW115557   2.206   1.259   1.961
 4886SOL    HW215558   2.305   1.204   1.844
 4887SOL     OW15559   6.142   6.538   1.382
 4887SOL    HW115560   6.122   6.513   1.477
 4887SOL    HW215561   6.057   6.543   1.331
 4888SOL     OW15562   3.949   6.858   2.818
 4888SOL    HW115563   4.011   6.819   2.886
 4888SOL    HW215564   3.931   6.791   2.746
 4889SOL     OW15565   0.067   2.965   4.123
 4889SOL    HW115566   7.017   2.955   4.055
 4889SOL    HW215567   0.105   3.057   4.118
 4890SOL     OW15568   6.619   1.535   4.507
 4890SOL    HW115569   6.658   1.566   4.420
 4890SOL    HW215570   6.651   1.442   4.527
 4891SOL     OW15571   2.551   5.317   6.217
 4891SOL    HW115572   2.540   5.232   6.269
 4891SOL    HW215573   2.636   5.313   6.164
 4892SOL     OW15574   4.666   5.662   2.978
 4892SOL    HW115575   4.577   5.707   2.967
 4892SOL    HW215576   4.653   5.564   2.993
 4893SOL     OW15577   0.909   3.584   1.298
 4893SOL    HW115578   0.955   3.673   1.294
 4893SOL    HW215579   0.811   3.596   1.280
 4894SOL     OW15580   5.033   0.124   1.892
 4894SOL    HW115581   5.061   0.184   1.967
 4894SOL    HW215582   5.095   0.046   1.887
 4895SOL     OW15583   7.022   4.205   4.653
 4895SOL    HW115584   6.981   4.194   4.562
 4895SOL    HW215585   6.988   4.133   4.713
 4896SOL     OW15586   1.984   4.668   4.588
 4896SOL    HW115587   2.052   4.703   4.524
 4896SOL    HW215588   1.996   4.713   4.677
 4897SOL     OW15589   1.961   6.309   5.590
 4897SOL    HW115590   1.942   6.332   5.494
 4897SOL    HW215591   1.891   6.246   5.623
 4898SOL     OW15592   4.708   1.595   3.517
 4898SOL    HW115593   4.709   1.688   3.552
 4898SOL    HW215594   4.801   1.558   3.516
 4899SOL     OW15595   6.618   6.333   1.936
 4899SOL    HW115596   6.611   6.240   1.900
 4899SOL    HW215597   6.705   6.344   1.984
 4900SOL     OW15598   3.707   6.087   5.492
 4900SOL    HW115599   3.687   6.158   5.560
 4900SOL    HW215600   3.695   6.124   5.400
 4901SOL     OW15601   1.222   1.400   5.758
 4901SOL    HW115602   1.162   1.377   5.681
 4901SOL    HW215603   1.190   1.486   5.799
 4902SOL     OW15604   1.915   6.636   5.617
 4902SOL    HW115605   1.895   6.705   5.547
 4902SOL    HW215606   1.979   6.569   5.581
 4903SOL     OW15607   4.748   4.068   2.635
 4903SOL    HW115608   4.745   4.073   2.735
 4903SOL    HW215609   4.763   3.974   2.607
 4904SOL     OW15610   1.568   6.653   0.466
 4904SOL    HW115611   1.613   6.580   0.517
 4904SOL    HW215612   1.502   6.612   0.403
 4905SOL     OW15613   2.850   6.050   3.268
 4905SOL    HW115614   2.929   6.110   3.274
 4905SOL    HW215615   2.787   6.069   3.344
 4906SOL     OW15616   4.986   3.350   5.004
 4906SOL    HW115617   4.982   3.327   4.907
 4906SOL    HW215618   4.922   3.424   5.023
 4907SOL     OW15619   4.630   1.387   0.151
 4907SOL    HW115620   4.587   1.471   0.115
 4907SOL    HW215621   4.728   1.403   0.163
 4908SOL     OW15622   4.166   6.754   6.765
 4908SOL    HW115623   4.085   6.773   6.709
 4908SOL    HW215624   4.244   6.734   6.705
 4909SOL     OW15625   5.251   4.697   4.731
 4909SOL    HW115626   5.268   4.722   4.636
 4909SOL    HW215627   5.158   4.662   4.740
 4910SOL     OW15628   4.619   2.419   6.074
 4910SOL    HW115629   4.649   2.506   6.114
 4910SOL    HW215630   4.672   2.345   6.114
 4911SOL     OW15631   6.559   2.212   2.261
 4911SOL    HW115632   6.618   2.291   2.241
 4911SOL    HW215633   6.484   2.209   2.196
 4912SOL     OW15634   5.410   2.752   4.066
 4912SOL    HW115635   5.432   2.710   4.154
 4912SOL    HW215636   5.482   2.730   4.000
 4913SOL     OW15637   0.479   3.852   5.824
 4913SOL    HW115638   0.557   3.802   5.786
 4913SOL    HW215639   0.422   3.790   5.877
 4914SOL     OW15640   4.500   0.539   3.529
 4914SOL    HW115641   4.530   0.627   3.565
 4914SOL    HW215642   4.411   0.550   3.484
 4915SOL     OW15643   3.072   5.200   5.504
 4915SOL    HW115644   3.149   5.161   5.554
 4915SOL    HW215645   3.078   5.300   5.506
 4916SOL     OW15646   5.812   2.456   4.368
 4916SOL    HW115647   5.776   2.370   4.333
 4916SOL    HW215648   5.793   2.462   4.466
 4917SOL     OW15649   4.270   6.307   0.106
 4917SOL    HW115650   4.368   6.325   0.094
 4917SOL    HW215651   4.256   6.210   0.124
 4918SOL     OW15652   6.176   4.713   2.865
 4918SOL    HW115653   6.210   4.636   2.919
 4918SOL    HW215654   6.231   4.723   2.782
 4919SOL     OW15655   3.427   3.838   2.217
 4919SOL    HW115656   3.405   3.923   2.168
 4919SOL    HW215657   3.436   3.857   2.314
 4920SOL     OW15658   6.867   1.586   5.848
 4920SOL    HW115659   6.826   1.661   5.901
 4920SOL    HW215660   6.906   1.519   5.911
 4921SOL     OW15661   0.177   7.023   2.718
 4921SOL    HW115662   0.213   6.955   2.781
 4921SOL    HW215663   0.103   6.981   2.664
 4922SOL     OW15664   3.416   2.098   6.590
 4922SOL    HW115665   3.451   2.066   6.678
 4922SOL    HW215666   3.317   2.114   6.597
 4923SOL     OW15667   3.898   1.650   1.643
 4923SOL    HW115668   3.850   1.601   1.716
 4923SOL    HW215669   3.923   1.586   1.570
 4924SOL     OW15670   2.752   0.499   5.059
 4924SOL    HW115671   2.844   0.536   5.073
 4924SOL    HW215672   2.702   0.558   4.997
 4925SOL     OW15673   6.057   6.353   3.666
 4925SOL    HW115674   6.081   6.256   3.669
 4925SOL    HW215675   6.007   6.378   3.749
 4926SOL     OW15676   5.492   2.818   0.940
 4926SOL    HW115677   5.545   2.902   0.935
 4926SOL    HW215678   5.428   2.814   0.863
 4927SOL     OW15679   3.724   1.222   6.610
 4927SOL    HW115680   3.792   1.238   6.538
 4927SOL    HW215681   3.632   1.226   6.570
 4928SOL     OW15682   6.896   2.645   0.921
 4928SOL    HW115683   6.919   2.631   1.017
 4928SOL    HW215684   6.801   2.675   0.914
 4929SOL     OW15685   0.938   6.012   5.252
 4929SOL    HW115686   0.864   5.988   5.189
 4929SOL    HW215687   1.010   6.059   5.201
 4930SOL     OW15688   5.121   6.359   1.975
 4930SOL    HW115689   5.122   6.333   1.879
 4930SOL    HW215690   5.199   6.418   1.995
 4931SOL     OW15691   6.894   5.519   0.314
 4931SOL    HW115692   6.861   5.532   0.407
 4931SOL    HW215693   6.930   5.605   0.278
 4932SOL     OW15694   3.611   3.226   2.026
 4932SOL    HW115695   3.575   3.219   2.118
 4932SOL    HW215696   3.696   3.174   2.019
 4933SOL     OW15697   2.202   6.352   5.691
 4933SOL    HW115698   2.226   6.265   5.735
 4933SOL    HW215699   2.105   6.352   5.668
 4934SOL     OW15700   4.049   5.403   2.477
 4934SOL    HW115701   4.036   5.311   2.513
 4934SOL    HW215702   4.126   5.403   2.413
 4935SOL     OW15703   0.569   1.109   6.330
 4935SOL    HW115704   0.618   1.168   6.267
 4935SOL    HW215705   0.634   1.056   6.385
 4936SOL     OW15706   3.821   2.738   0.833
 4936SOL    HW115707   3.801   2.775   0.923
 4936SOL    HW215708   3.738   2.696   0.794
 4937SOL     OW15709   4.623   2.877   5.116
 4937SOL    HW115710   4.568   2.911   5.040
 4937SOL    HW215711   4.595   2.783   5.138
 4938SOL     OW15712   4.117   5.123   6.254
 4938SOL    HW115713   4.178   5.099   6.179
 4938SOL    HW215714   4.039   5.175   6.218
 4939SOL     OW15715   4.743   3.270   6.126
 4939SOL    HW115716   4.711   3.188   6.174
 4939SOL    HW215717   4.692   3.282   6.041
 4940SOL     OW15718   1.512   5.899   4.350
 4940SOL    HW115719   1.516   5.991   4.309
 4940SOL    HW215720   1.573   5.838   4.299
 4941SOL     OW15721   5.315   0.271   1.035
 4941SOL    HW115722   5.338   0.280   0.938
 4941SOL    HW215723   5.399   0.272   1.090
 4942SOL     OW15724   4.904   3.325   5.611
 4942SOL    HW115725   4.968   3.358   5.680
 4942SOL    HW215726   4.811   3.355   5.636
 4943SOL     OW15727   5.374   2.540   1.424
 4943SOL    HW115728   5.368   2.633   1.460
 4943SOL    HW215729   5.347   2.474   1.494
 4944SOL     OW15730   2.362   4.350   2.132
 4944SOL    HW115731   2.337   4.303   2.216
 4944SOL    HW215732   2.439   4.412   2.149
 4945SOL     OW15733   0.426   6.378   4.809
 4945SOL    HW115734   0.366   6.318   4.861
 4945SOL    HW215735   0.519   6.340   4.809
 4946SOL     OW15736   0.283   4.542   2.177
 4946SOL    HW115737   0.325   4.629   2.151
 4946SOL    HW215738   0.318   4.470   2.117
 4947SOL     OW15739   6.754   0.185   1.355
 4947SOL    HW115740   6.765   0.087   1.369
 4947SOL    HW215741   6.662   0.204   1.320
 4948SOL     OW15742   1.706   1.059   1.908
 4948SOL    HW115743   1.621   1.008   1.898
 4948SOL    HW215744   1.784   0.996   1.903
 4949SOL     OW15745   5.017   1.596   4.739
 4949SOL    HW115746   4.949   1.542   4.787
 4949SOL    HW215747   4.994   1.693   4.747
 4950SOL     OW15748   2.904   5.545   5.144
 4950SOL    HW115749   2.955   5.543   5.058
 4950SOL    HW215750   2.820   5.492   5.134
 4951SOL     OW15751   4.644   1.893   3.897
 4951SOL    HW115752   4.554   1.937   3.895
 4951SOL    HW215753   4.648   1.822   3.826
 4952SOL     OW15754   0.356   5.057   4.989
 4952SOL    HW115755   0.303   4.974   4.972
 4952SOL    HW215756   0.438   5.057   4.932
 4953SOL     OW15757   1.940   5.582   1.570
 4953SOL    HW115758   2.039   5.567   1.576
 4953SOL    HW215759   1.896   5.499   1.536
 4954SOL     OW15760   6.587   6.026   0.223
 4954SOL    HW115761   6.674   6.061   0.187
 4954SOL    HW215762   6.563   6.076   0.306
 4955SOL     OW15763   1.285   6.993   1.809
 4955SOL    HW115764   1.300   0.050   1.750
 4955SOL    HW215765   1.366   6.978   1.865
 4956SOL     OW15766   5.374   6.448   4.557
 4956SOL    HW115767   5.456   6.451   4.500
 4956SOL    HW215768   5.325   6.363   4.540
 4957SOL     OW15769   1.522   6.360   3.591
 4957SOL    HW115770   1.437   6.309   3.603
 4957SOL    HW215771   1.502   6.456   3.573
 4958SOL     OW15772   0.464   6.320   6.391
 4958SOL    HW115773   0.471   6.272   6.479
 4958SOL    HW215774   0.412   6.404   6.403
 4959SOL     OW15775   0.923   0.866   0.846
 4959SOL    HW115776   0.877   0.942   0.893
 4959SOL    HW215777   1.021   0.883   0.844
 4960SOL     OW15778   3.879   6.416   4.876
 4960SOL    HW115779   3.842   6.458   4.959
 4960SOL    HW215780   3.870   6.479   4.800
 4961SOL     OW15781   4.145   0.868   5.657
 4961SOL    HW115782   4.099   0.812   5.588
 4961SOL    HW215783   4.233   0.900   5.621
 4962SOL     OW15784   6.424   2.468   1.858
 4962SOL    HW115785   6.344   2.525   1.875
 4962SOL    HW215786   6.410   2.377   1.897
 4963SOL     OW15787   6.931   4.258   1.800
 4963SOL    HW115788   6.952   4.163   1.778
 4963SOL    HW215789   7.010   4.300   1.845
 4964SOL     OW15790   3.311   6.583   2.814
 4964SOL    HW115791   3.285   6.677   2.833
 4964SOL    HW215792   3.230   6.529   2.793
 4965SOL     OW15793   0.428   6.557   4.529
 4965SOL    HW115794   0.444   6.472   4.579
 4965SOL    HW215795   0.492   6.562   4.451
 4966SOL     OW15796   3.839   5.181   4.056
 4966SOL    HW115797   3.825   5.219   3.964
 4966SOL    HW215798   3.750   5.156   4.095
 4967SOL     OW15799   4.762   2.188   6.178
 4967SOL    HW115800   4.819   2.215   6.255
 4967SOL    HW215801   4.726   2.096   6.194
 4968SOL     OW15802   5.545   3.803   5.750
 4968SOL    HW115803   5.562   3.879   5.813
 4968SOL    HW215804   5.454   3.812   5.711
 4969SOL     OW15805   0.722   2.338   1.480
 4969SOL    HW115806   0.647   2.404   1.485
 4969SOL    HW215807   0.731   2.290   1.567
 4970SOL     OW15808   1.337   2.763   5.944
 4970SOL    HW115809   1.402   2.742   5.871
 4970SOL    HW215810   1.296   2.853   5.927
 4971SOL     OW15811   6.611   5.757   4.032
 4971SOL    HW115812   6.683   5.720   3.974
 4971SOL    HW215813   6.522   5.722   4.001
 4972SOL     OW15814   1.719   2.208   5.551
 4972SOL    HW115815   1.714   2.234   5.647
 4972SOL    HW215816   1.795   2.255   5.507
 4973SOL     OW15817   6.121   5.814   3.065
 4973SOL    HW115818   6.138   5.907   3.033
 4973SOL    HW215819   6.090   5.757   2.989
 4974SOL     OW15820   4.244   6.865   1.554
 4974SOL    HW115821   4.227   6.825   1.464
 4974SOL    HW215822   4.256   6.964   1.545
 4975SOL     OW15823   5.050   6.009   0.259
 4975SOL    HW115824   4.981   6.067   0.303
 4975SOL    HW215825   5.133   6.007   0.315
 4976SOL     OW15826   3.554   0.673   4.427
 4976SOL    HW115827   3.491   0.698   4.500
 4976SOL    HW215828   3.512   0.693   4.338
 4977SOL     OW15829   3.457   3.854   0.583
 4977SOL    HW115830   3.542   3.867   0.531
 4977SOL    HW215831   3.391   3.925   0.557
 4978SOL     OW15832   6.159   3.153   6.238
 4978SOL    HW115833   6.094   3.216   6.196
 4978SOL    HW215834   6.244   3.152   6.186
 4979SOL     OW15835   1.191   2.376   4.232
 4979SOL    HW115836   1.115   2.423   4.277
 4979SOL    HW215837   1.185   2.278   4.249
 4980SOL     OW15838   2.648   5.361   2.951
 4980SOL    HW115839   2.690   5.448   2.979
 4980SOL    HW215840   2.579   5.379   2.881
 4981SOL     OW15841   5.119   6.269   5.784
 4981SOL    HW115842   5.087   6.276   5.690
 4981SOL    HW215843   5.122   6.361   5.824
 4982SOL     OW15844   2.631   1.984   0.079
 4982SOL    HW115845   2.600   1.891   0.057
 4982SOL    HW215846   2.562   2.050   0.050
 4983SOL     OW15847   5.347   3.025   4.561
 4983SOL    HW115848   5.377   3.100   4.620
 4983SOL    HW215849   5.424   2.992   4.507
 4984SOL     OW15850   4.709   4.274   2.456
 4984SOL    HW115851   4.682   4.354   2.510
 4984SOL    HW215852   4.717   4.194   2.515
 4985SOL     OW15853   5.666   4.313   2.640
 4985SOL    HW115854   5.580   4.267   2.662
 4985SOL    HW215855   5.681   4.387   2.706
 4986SOL     OW15856   4.960   4.519   2.488
 4986SOL    HW115857   4.982   4.466   2.406
 4986SOL    HW215858   4.989   4.614   2.475
 4987SOL     OW15859   0.298   3.955   0.934
 4987SOL    HW115860   0.328   3.898   0.857
 4987SOL    HW215861   0.200   3.973   0.925
 4988SOL     OW15862   0.654   2.184   5.569
 4988SOL    HW115863   0.579   2.218   5.512
 4988SOL    HW215864   0.740   2.191   5.519
 4989SOL     OW15865   0.453   1.044   0.386
 4989SOL    HW115866   0.411   1.000   0.307
 4989SOL    HW215867   0.439   1.143   0.380
 4990SOL     OW15868   0.398   2.177   5.845
 4990SOL    HW115869   0.360   2.137   5.928
 4990SOL    HW215870   0.331   2.173   5.771
 4991SOL     OW15871   1.567   2.540   4.860
 4991SOL    HW115872   1.659   2.512   4.887
 4991SOL    HW215873   1.508   2.543   4.941
 4992SOL     OW15874   3.704   0.388   4.933
 4992SOL    HW115875   3.614   0.398   4.890
 4992SOL    HW215876   3.704   0.436   5.020
 4993SOL     OW15877   2.223   5.400   3.860
 4993SOL    HW115878   2.209   5.431   3.766
 4993SOL    HW215879   2.145   5.428   3.916
 4994SOL     OW15880   6.954   6.787   2.318
 4994SOL    HW115881   6.948   6.709   2.381
 4994SOL    HW215882   6.994   6.757   2.231
 4995SOL     OW15883   6.352   2.945   5.666
 4995SOL    HW115884   6.383   3.033   5.632
 4995SOL    HW215885   6.297   2.899   5.596
 4996SOL     OW15886   0.078   1.085   3.936
 4996SOL    HW115887   0.147   1.157   3.937
 4996SOL    HW215888   7.016   1.119   3.974
 4997SOL     OW15889   0.308   2.475   3.561
 4997SOL    HW115890   0.344   2.452   3.651
 4997SOL    HW215891   0.264   2.565   3.564
 4998SOL     OW15892   1.244   5.801   4.664
 4998SOL    HW115893   1.232   5.873   4.595
 4998SOL    HW215894   1.154   5.769   4.694
 4999SOL     OW15895   6.136   4.452   1.073
 4999SOL    HW115896   6.149   4.387   1.147
 4999SOL    HW215897   6.186   4.537   1.094
 5000SOL     OW15898   0.016   5.738   4.193
 5000SOL    HW115899   6.975   5.663   4.200
 5000SOL    HW215900   0.024   5.765   4.097
 5001SOL     OW15901   4.729   4.324   5.413
 5001SOL    HW115902   4.732   4.351   5.316
 5001SOL    HW215903   4.819   4.337   5.453
 5002SOL     OW15904   2.202   1.779   1.130
 5002SOL    HW115905   2.111   1.758   1.166
 5002SOL    HW215906   2.264   1.797   1.206
 5003SOL     OW15907   6.533   5.244   3.306
 5003SOL    HW115908   6.470   5.310   3.266
 5003SOL    HW215909   6.559   5.273   3.398
 5004SOL     OW15910   3.107   4.993   6.612
 5004SOL    HW115911   3.173   5.066   6.598
 5004SOL    HW215912   3.089   4.946   6.526
 5005SOL     OW15913   4.302   2.280   6.903
 5005SOL    HW115914   4.296   2.376   6.930
 5005SOL    HW215915   4.398   2.252   6.901
 5006SOL     OW15916   5.492   4.526   3.443
 5006SOL    HW115917   5.393   4.540   3.445
 5006SOL    HW215918   5.535   4.582   3.514
 5007SOL     OW15919   4.155   1.778   5.044
 5007SOL    HW115920   4.122   1.721   5.120
 5007SOL    HW215921   4.249   1.805   5.061
 5008SOL     OW15922   6.565   1.139   3.860
 5008SOL    HW115923   6.590   1.077   3.786
 5008SOL    HW215924   6.641   1.202   3.877
 5009SOL     OW15925   1.806   6.072   3.470
 5009SOL    HW115926   1.795   6.143   3.540
 5009SOL    HW215927   1.727   6.011   3.471
 5010SOL     OW15928   3.056   3.102   4.520
 5010SOL    HW115929   3.140   3.082   4.572
 5010SOL    HW215930   3.080   3.143   4.433
 5011SOL     OW15931   0.819   2.948   3.305
 5011SOL    HW115932   0.918   2.955   3.306
 5011SOL    HW215933   0.791   2.885   3.232
 5012SOL     OW15934   5.522   3.094   0.228
 5012SOL    HW115935   5.600   3.064   0.283
 5012SOL    HW215936   5.439   3.088   0.282
 5013SOL     OW15937   4.795   1.412   5.672
 5013SOL    HW115938   4.848   1.351   5.614
 5013SOL    HW215939   4.842   1.500   5.679
 5014SOL     OW15940   6.193   6.737   0.094
 5014SOL    HW115941   6.275   6.785   0.061
 5014SOL    HW215942   6.114   6.766   0.042
 5015SOL     OW15943   5.427   2.240   3.317
 5015SOL    HW115944   5.491   2.284   3.379
 5015SOL    HW215945   5.360   2.307   3.286
 5016SOL     OW15946   2.408   7.012   2.014
 5016SOL    HW115947   2.325   6.983   2.063
 5016SOL    HW215948   2.488   6.975   2.061
 5017SOL     OW15949   2.577   2.462   1.612
 5017SOL    HW115950   2.551   2.393   1.545
 5017SOL    HW215951   2.496   2.514   1.640
 5018SOL     OW15952   6.601   5.188   4.232
 5018SOL    HW115953   6.600   5.244   4.149
 5018SOL    HW215954   6.694   5.184   4.269
 5019SOL     OW15955   2.917   5.423   6.218
 5019SOL    HW115956   2.860   5.474   6.282
 5019SOL    HW215957   3.011   5.421   6.252
 5020SOL     OW15958   4.664   5.206   6.036
 5020SOL    HW115959   4.733   5.274   6.063
 5020SOL    HW215960   4.613   5.177   6.117
 5021SOL     OW15961   2.662   4.772   5.776
 5021SOL    HW115962   2.619   4.817   5.854
 5021SOL    HW215963   2.760   4.760   5.794
 5022SOL     OW15964   1.590   4.837   0.613
 5022SOL    HW115965   1.608   4.762   0.676
 5022SOL    HW215966   1.657   4.910   0.627
 5023SOL     OW15967   6.547   2.950   3.377
 5023SOL    HW115968   6.497   2.865   3.361
 5023SOL    HW215969   6.610   2.938   3.454
 5024SOL     OW15970   5.683   3.408   5.660
 5024SOL    HW115971   5.782   3.402   5.651
 5024SOL    HW215972   5.644   3.316   5.661
 5025SOL     OW15973   6.529   1.529   3.320
 5025SOL    HW115974   6.532   1.456   3.389
 5025SOL    HW215975   6.609   1.520   3.260
 5026SOL     OW15976   0.507   5.908   2.884
 5026SOL    HW115977   0.466   5.997   2.904
 5026SOL    HW215978   0.452   5.836   2.927
 5027SOL     OW15979   0.893   6.186   3.493
 5027SOL    HW115980   0.939   6.138   3.418
 5027SOL    HW215981   0.890   6.127   3.573
 5028SOL     OW15982   1.403   0.563   2.666
 5028SOL    HW115983   1.375   0.647   2.713
 5028SOL    HW215984   1.396   0.577   2.567
 5029SOL     OW15985   0.240   1.037   2.853
 5029SOL    HW115986   0.247   1.024   2.754
 5029SOL    HW215987   0.268   1.131   2.876
 5030SOL     OW15988   1.936   5.658   6.869
 5030SOL    HW115989   2.030   5.644   6.841
 5030SOL    HW215990   1.874   5.624   6.798
 5031SOL     OW15991   6.003   0.746   5.373
 5031SOL    HW115992   6.083   0.726   5.315
 5031SOL    HW215993   6.033   0.790   5.457
 5032SOL     OW15994   0.629   6.257   0.958
 5032SOL    HW115995   0.601   6.349   0.985
 5032SOL    HW215996   0.548   6.201   0.940
 5033SOL     OW15997   0.304   4.479   5.520
 5033SOL    HW115998   0.235   4.527   5.466
 5033SOL    HW215999   0.347   4.542   5.584
 5034SOL     OW16000   6.974   3.877   6.923
 5034SOL    HW116001   6.921   3.880   7.007
 5034SOL    HW216002   6.914   3.901   6.846
 5035SOL     OW16003   6.047   4.203   1.521
 5035SOL    HW116004   6.017   4.108   1.513
 5035SOL    HW216005   5.995   4.247   1.595
 5036SOL     OW16006   1.686   0.925   2.529
 5036SOL    HW116007   1.727   0.848   2.576
 5036SOL    HW216008   1.645   0.987   2.596
 5037SOL     OW16009   4.704   2.531   2.573
 5037SOL    HW116010   4.658   2.566   2.655
 5037SOL    HW216011   4.639   2.481   2.516
 5038SOL     OW16012   2.516   6.170   5.643
 5038SOL    HW116013   2.571   6.179   5.560
 5038SOL    HW216014   2.499   6.074   5.661
 5039SOL     OW16015   1.345   1.894   3.559
 5039SOL    HW116016   1.380   1.817   3.506
 5039SOL    HW216017   1.246   1.900   3.548
 5040SOL     OW16018   2.935   3.646   6.218
 5040SOL    HW116019   2.921   3.712   6.144
 5040SOL    HW216020   2.873   3.666   6.293
 5041SOL     OW16021   1.007   5.590   0.411
 5041SOL    HW116022   0.933   5.563   0.349
 5041SOL    HW216023   1.095   5.568   0.370
 5042SOL     OW16024   6.112   1.953   6.207
 5042SOL    HW116025   6.182   1.964   6.277
 5042SOL    HW216026   6.058   1.870   6.227
 5043SOL     OW16027   4.942   0.453   3.164
 5043SOL    HW116028   4.974   0.406   3.082
 5043SOL    HW216029   4.977   0.406   3.245
 5044SOL     OW16030   5.456   4.577   2.761
 5044SOL    HW116031   5.397   4.499   2.740
 5044SOL    HW216032   5.547   4.544   2.787
 5045SOL     OW16033   6.030   3.551   6.160
 5045SOL    HW116034   6.013   3.453   6.147
 5045SOL    HW216035   6.063   3.566   6.254
 5046SOL     OW16036   3.120   2.940   5.375
 5046SOL    HW116037   3.134   3.038   5.359
 5046SOL    HW216038   3.033   2.927   5.424
 5047SOL     OW16039   1.153   1.393   2.344
 5047SOL    HW116040   1.244   1.393   2.303
 5047SOL    HW216041   1.125   1.299   2.363
 5048SOL     OW16042   6.102   3.611   1.537
 5048SOL    HW116043   6.139   3.524   1.571
 5048SOL    HW216044   6.036   3.593   1.465
 5049SOL     OW16045   1.321   2.230   2.161
 5049SOL    HW116046   1.371   2.280   2.233
 5049SOL    HW216047   1.235   2.277   2.141
 5050SOL     OW16048   0.962   3.505   0.549
 5050SOL    HW116049   0.964   3.461   0.639
 5050SOL    HW216050   0.986   3.438   0.478
 5051SOL     OW16051   2.279   3.880   0.237
 5051SOL    HW116052   2.232   3.801   0.277
 5051SOL    HW216053   2.212   3.938   0.190
 5052SOL     OW16054   5.338   3.874   0.789
 5052SOL    HW116055   5.341   3.953   0.728
 5052SOL    HW216056   5.431   3.851   0.819
 5053SOL     OW16057   2.042   4.530   0.421
 5053SOL    HW116058   2.085   4.473   0.490
 5053SOL    HW216059   1.974   4.476   0.371
 5054SOL     OW16060   3.748   6.062   4.994
 5054SOL    HW116061   3.794   5.976   4.971
 5054SOL    HW216062   3.749   6.123   4.915
 5055SOL     OW16063   1.714   1.809   3.795
 5055SOL    HW116064   1.794   1.776   3.846
 5055SOL    HW216065   1.631   1.781   3.843
 5056SOL     OW16066   2.609   2.615   5.326
 5056SOL    HW116067   2.651   2.567   5.249
 5056SOL    HW216068   2.616   2.714   5.313
 5057SOL     OW16069   0.511   4.769   2.984
 5057SOL    HW116070   0.564   4.842   2.940
 5057SOL    HW216071   0.535   4.764   3.081
 5058SOL     OW16072   3.310   2.884   0.466
 5058SOL    HW116073   3.214   2.859   0.463
 5058SOL    HW216074   3.340   2.889   0.562
 5059SOL     OW16075   4.475   1.664   3.000
 5059SOL    HW116076   4.436   1.607   3.072
 5059SOL    HW216077   4.571   1.639   2.986
 5060SOL     OW16078   0.467   3.206   5.094
 5060SOL    HW116079   0.508   3.243   5.178
 5060SOL    HW216080   0.409   3.275   5.052
 5061SOL     OW16081   3.820   2.118   5.480
 5061SOL    HW116082   3.750   2.076   5.422
 5061SOL    HW216083   3.789   2.208   5.511
 5062SOL     OW16084   5.335   1.241   3.552
 5062SOL    HW116085   5.346   1.243   3.453
 5062SOL    HW216086   5.365   1.153   3.587
 5063SOL     OW16087   0.974   1.364   1.530
 5063SOL    HW116088   1.049   1.332   1.588
 5063SOL    HW216089   0.893   1.308   1.547
 5064SOL     OW16090   4.996   5.188   0.921
 5064SOL    HW116091   4.970   5.272   0.873
 5064SOL    HW216092   5.053   5.132   0.861
 5065SOL     OW16093   2.092   1.406   2.053
 5065SOL    HW116094   2.049   1.330   2.100
 5065SOL    HW216095   2.098   1.485   2.115
 5066SOL     OW16096   1.850   4.820   2.763
 5066SOL    HW116097   1.789   4.899   2.753
 5066SOL    HW216098   1.933   4.848   2.812
 5067SOL     OW16099   5.747   2.729   0.792
 5067SOL    HW116100   5.724   2.659   0.860
 5067SOL    HW216101   5.753   2.818   0.837
 5068SOL     OW16102   2.565   5.759   0.635
 5068SOL    HW116103   2.556   5.857   0.615
 5068SOL    HW216104   2.491   5.731   0.696
 5069SOL     OW16105   3.932   4.877   5.516
 5069SOL    HW116106   3.873   4.842   5.444
 5069SOL    HW216107   3.960   4.801   5.576
 5070SOL     OW16108   5.961   3.558   5.259
 5070SOL    HW116109   5.862   3.568   5.266
 5070SOL    HW216110   5.997   3.627   5.197
 5071SOL     OW16111   2.716   6.731   3.701
 5071SOL    HW116112   2.754   6.809   3.750
 5071SOL    HW216113   2.652   6.764   3.630
 5072SOL     OW16114   1.186   0.945   0.864
 5072SOL    HW116115   1.204   0.848   0.848
 5072SOL    HW216116   1.225   0.972   0.952
 5073SOL     OW16117   2.590   1.109   2.878
 5073SOL    HW116118   2.566   1.036   2.941
 5073SOL    HW216119   2.688   1.110   2.863
 5074SOL     OW16120   3.428   2.228   1.714
 5074SOL    HW116121   3.512   2.271   1.747
 5074SOL    HW216122   3.406   2.265   1.623
 5075SOL     OW16123   0.062   3.467   6.915
 5075SOL    HW116124   0.040   3.388   6.858
 5075SOL    HW216125   0.151   3.452   6.960
 5076SOL     OW16126   0.013   0.058   6.412
 5076SOL    HW116127   6.937   0.066   6.405
 5076SOL    HW216128   0.042   6.997   6.368
 5077SOL     OW16129   1.004   4.509   4.052
 5077SOL    HW116130   0.948   4.439   4.098
 5077SOL    HW216131   1.100   4.484   4.058
 5078SOL     OW16132   0.005   1.968   4.015
 5078SOL    HW116133   6.940   2.011   4.033
 5078SOL    HW216134   0.058   2.025   3.952
 5079SOL     OW16135   1.695   2.877   5.454
 5079SOL    HW116136   1.608   2.862   5.407
 5079SOL    HW216137   1.750   2.942   5.403
 5080SOL     OW16138   5.657   5.810   0.512
 5080SOL    HW116139   5.698   5.899   0.492
 5080SOL    HW216140   5.577   5.796   0.453
 5081SOL     OW16141   2.480   5.386   5.443
 5081SOL    HW116142   2.570   5.357   5.410
 5081SOL    HW216143   2.450   5.467   5.392
 5082SOL     OW16144   5.181   5.906   1.680
 5082SOL    HW116145   5.086   5.936   1.672
 5082SOL    HW216146   5.221   5.944   1.764
 5083SOL     OW16147   1.710   0.389   3.587
 5083SOL    HW116148   1.715   0.322   3.513
 5083SOL    HW216149   1.792   0.382   3.644
 5084SOL     OW16150   2.680   4.489   5.582
 5084SOL    HW116151   2.600   4.549   5.583
 5084SOL    HW216152   2.664   4.413   5.520
 5085SOL     OW16153   0.389   4.087   4.740
 5085SOL    HW116154   0.391   4.140   4.825
 5085SOL    HW216155   0.328   4.009   4.751
 5086SOL     OW16156   1.958   5.682   1.863
 5086SOL    HW116157   1.995   5.671   1.771
 5086SOL    HW216158   1.861   5.655   1.863
 5087SOL     OW16159   6.412   4.532   2.529
 5087SOL    HW116160   6.324   4.498   2.562
 5087SOL    HW216161   6.475   4.456   2.519
 5088SOL     OW16162   5.317   5.821   2.146
 5088SOL    HW116163   5.231   5.870   2.133
 5088SOL    HW216164   5.377   5.837   2.067
 5089SOL     OW16165   5.357   5.638   5.631
 5089SOL    HW116166   5.438   5.611   5.578
 5089SOL    HW216167   5.377   5.722   5.682
 5090SOL     OW16168   2.726   6.727   4.970
 5090SOL    HW116169   2.761   6.658   5.034
 5090SOL    HW216170   2.627   6.736   4.981
 5091SOL     OW16171   0.203   6.572   6.091
 5091SOL    HW116172   0.223   6.659   6.136
 5091SOL    HW216173   0.288   6.520   6.079
 5092SOL     OW16174   3.418   3.194   4.041
 5092SOL    HW116175   3.488   3.129   4.013
 5092SOL    HW216176   3.327   3.157   4.022
 5093SOL     OW16177   3.028   2.195   2.709
 5093SOL    HW116178   3.020   2.214   2.611
 5093SOL    HW216179   2.954   2.240   2.758
 5094SOL     OW16180   1.267   5.786   5.047
 5094SOL    HW116181   1.327   5.756   4.973
 5094SOL    HW216182   1.310   5.862   5.096
 5095SOL     OW16183   6.405   0.893   3.054
 5095SOL    HW116184   6.336   0.964   3.069
 5095SOL    HW216185   6.483   0.932   3.005
 5096SOL     OW16186   6.074   3.050   5.323
 5096SOL    HW116187   6.018   3.029   5.403
 5096SOL    HW216188   6.067   2.976   5.256
 5097SOL     OW16189   1.421   0.813   5.730
 5097SOL    HW116190   1.466   0.724   5.738
 5097SOL    HW216191   1.460   0.864   5.653
 5098SOL     OW16192   3.669   3.548   0.635
 5098SOL    HW116193   3.625   3.459   0.646
 5098SOL    HW216194   3.620   3.617   0.689
 5099SOL     OW16195   1.656   6.737   2.262
 5099SOL    HW116196   1.661   6.730   2.162
 5099SOL    HW216197   1.721   6.807   2.294
 5100SOL     OW16198   4.983   4.076   2.402
 5100SOL    HW116199   4.891   4.040   2.386
 5100SOL    HW216200   4.996   4.094   2.500
 5101SOL     OW16201   3.887   0.236   6.441
 5101SOL    HW116202   3.978   0.273   6.424
 5101SOL    HW216203   3.838   0.226   6.354
 5102SOL     OW16204   5.299   5.218   4.183
 5102SOL    HW116205   5.219   5.191   4.236
 5102SOL    HW216206   5.275   5.293   4.122
 5103SOL     OW16207   1.381   1.080   6.574
 5103SOL    HW116208   1.315   1.145   6.612
 5103SOL    HW216209   1.391   1.098   6.476
 5104SOL     OW16210   4.116   3.220   2.032
 5104SOL    HW116211   4.196   3.214   2.092
 5104SOL    HW216212   4.142   3.192   1.940
 5105SOL     OW16213   4.419   3.183   6.288
 5105SOL    HW116214   4.359   3.260   6.265
 5105SOL    HW216215   4.453   3.194   6.382
 5106SOL     OW16216   4.146   2.431   0.879
 5106SOL    HW116217   4.049   2.427   0.900
 5106SOL    HW216218   4.190   2.500   0.937
 5107SOL     OW16219   5.278   3.876   6.903
 5107SOL    HW116220   5.216   3.865   6.982
 5107SOL    HW216221   5.274   3.970   6.870
 5108SOL     OW16222   3.960   4.920   0.339
 5108SOL    HW116223   3.942   5.017   0.351
 5108SOL    HW216224   4.056   4.901   0.362
 5109SOL     OW16225   1.342   3.184   1.531
 5109SOL    HW116226   1.381   3.095   1.555
 5109SOL    HW216227   1.278   3.173   1.455
 5110SOL     OW16228   4.723   0.112   5.415
 5110SOL    HW116229   4.765   0.179   5.476
 5110SOL    HW216230   4.623   0.116   5.425
 5111SOL     OW16231   0.333   5.981   4.889
 5111SOL    HW116232   0.331   5.900   4.830
 5111SOL    HW216233   0.325   6.063   4.833
 5112SOL     OW16234   6.994   6.553   2.853
 5112SOL    HW116235   0.060   6.544   2.897
 5112SOL    HW216236   6.924   6.511   2.911
 5113SOL     OW16237   1.782   3.896   0.401
 5113SOL    HW116238   1.755   3.934   0.312
 5113SOL    HW216239   1.818   3.970   0.459
 5114SOL     OW16240   4.470   4.905   1.600
 5114SOL    HW116241   4.528   4.987   1.602
 5114SOL    HW216242   4.379   4.929   1.634
 5115SOL     OW16243   1.853   3.578   0.735
 5115SOL    HW116244   1.935   3.520   0.732
 5115SOL    HW216245   1.866   3.658   0.677
 5116SOL     OW16246   1.236   6.990   5.807
 5116SOL    HW116247   1.305   6.961   5.740
 5116SOL    HW216248   1.264   0.054   5.847
 5117SOL     OW16249   0.467   2.031   3.543
 5117SOL    HW116250   0.555   1.993   3.571
 5117SOL    HW216251   0.435   1.984   3.460
 5118SOL     OW16252   4.373   5.066   6.870
 5118SOL    HW116253   4.279   5.097   6.882
 5118SOL    HW216254   4.377   4.966   6.876
 5119SOL     OW16255   5.590   0.745   0.424
 5119SOL    HW116256   5.556   0.664   0.376
 5119SOL    HW216257   5.565   0.738   0.521
 5120SOL     OW16258   5.569   6.410   6.664
 5120SOL    HW116259   5.561   6.378   6.570
 5120SOL    HW216260   5.630   6.489   6.667
 5121SOL     OW16261   1.447   3.337   6.038
 5121SOL    HW116262   1.391   3.308   5.960
 5121SOL    HW216263   1.408   3.419   6.079
 5122SOL     OW16264   5.135   4.721   3.967
 5122SOL    HW116265   5.117   4.629   3.931
 5122SOL    HW216266   5.203   4.767   3.910
 5123SOL     OW16267   4.859   3.033   1.754
 5123SOL    HW116268   4.778   2.976   1.766
 5123SOL    HW216269   4.900   3.051   1.844
 5124SOL     OW16270   2.061   6.049   5.515
 5124SOL    HW116271   1.990   6.003   5.462
 5124SOL    HW216272   2.100   6.123   5.461
 5125SOL     OW16273   6.548   1.929   3.550
 5125SOL    HW116274   6.488   1.906   3.473
 5125SOL    HW216275   6.644   1.917   3.523
 5126SOL     OW16276   1.993   0.657   1.509
 5126SOL    HW116277   1.982   0.668   1.608
 5126SOL    HW216278   1.967   0.742   1.463
 5127SOL     OW16279   2.285   5.824   0.546
 5127SOL    HW116280   2.204   5.882   0.558
 5127SOL    HW216281   2.315   5.829   0.451
 5128SOL     OW16282   6.413   0.167   2.173
 5128SOL    HW116283   6.379   0.218   2.094
 5128SOL    HW216284   6.349   0.094   2.196
 5129SOL     OW16285   6.425   6.781   0.681
 5129SOL    HW116286   6.499   6.723   0.648
 5129SOL    HW216287   6.455   6.830   0.763
 5130SOL     OW16288   6.510   4.432   2.849
 5130SOL    HW116289   6.515   4.417   2.750
 5130SOL    HW216290   6.556   4.357   2.897
 5131SOL     OW16291   2.478   2.487   2.706
 5131SOL    HW116292   2.465   2.586   2.693
 5131SOL    HW216293   2.429   2.458   2.788
 5132SOL     OW16294   3.043   5.916   5.039
 5132SOL    HW116295   3.034   5.943   4.943
 5132SOL    HW216296   3.018   5.993   5.098
 5133SOL     OW16297   3.778   6.388   5.364
 5133SOL    HW116298   3.687   6.423   5.343
 5133SOL    HW216299   3.792   6.301   5.316
 5134SOL     OW16300   6.432   4.416   6.853
 5134SOL    HW116301   6.350   4.469   6.830
 5134SOL    HW216302   6.468   4.373   6.770
 5135SOL     OW16303   5.511   1.719   4.159
 5135SOL    HW116304   5.457   1.802   4.152
 5135SOL    HW216305   5.524   1.696   4.255
 5136SOL     OW16306   3.838   1.175   4.616
 5136SOL    HW116307   3.791   1.110   4.675
 5136SOL    HW216308   3.910   1.222   4.668
 5137SOL     OW16309   3.714   3.969   6.913
 5137SOL    HW116310   3.689   4.036   6.843
 5137SOL    HW216311   3.700   4.008   7.004
 5138SOL     OW16312   2.490   3.163   5.887
 5138SOL    HW116313   2.473   3.261   5.896
 5138SOL    HW216314   2.407   3.113   5.915
 5139SOL     OW16315   0.740   0.066   3.905
 5139SOL    HW116316   0.657   0.082   3.959
 5139SOL    HW216317   0.734   0.118   3.820
 5140SOL     OW16318   3.769   2.812   1.638
 5140SOL    HW116319   3.715   2.757   1.701
 5140SOL    HW216320   3.808   2.891   1.687
 5141SOL     OW16321   0.057   3.930   5.520
 5141SOL    HW116322   0.133   3.960   5.462
 5141SOL    HW216323   0.025   3.841   5.488
 5142SOL     OW16324   5.318   3.581   3.467
 5142SOL    HW116325   5.223   3.552   3.479
 5142SOL    HW216326   5.344   3.640   3.544
 5143SOL     OW16327   0.090   4.887   4.555
 5143SOL    HW116328   0.043   4.973   4.574
 5143SOL    HW216329   0.042   4.812   4.601
 5144SOL     OW16330   2.073   1.117   4.600
 5144SOL    HW116331   2.062   1.211   4.634
 5144SOL    HW216332   2.047   1.114   4.503
 5145SOL     OW16333   3.454   5.831   5.880
 5145SOL    HW116334   3.420   5.850   5.787
 5145SOL    HW216335   3.520   5.756   5.876
 5146SOL     OW16336   2.465   4.362   0.044
 5146SOL    HW116337   2.519   4.424   0.101
 5146SOL    HW216338   2.517   4.339   6.985
 5147SOL     OW16339   6.352   5.160   6.665
 5147SOL    HW116340   6.360   5.249   6.710
 5147SOL    HW216341   6.422   5.151   6.595
 5148SOL     OW16342   0.229   0.048   1.807
 5148SOL    HW116343   0.165   0.005   1.870
 5148SOL    HW216344   0.310   0.078   1.857
 5149SOL     OW16345   6.697   0.993   6.076
 5149SOL    HW116346   6.777   1.027   6.025
 5149SOL    HW216347   6.646   0.931   6.017
 5150SOL     OW16348   1.309   4.849   3.759
 5150SOL    HW116349   1.386   4.814   3.812
 5150SOL    HW216350   1.261   4.920   3.812
 5151SOL     OW16351   4.558   1.081   6.253
 5151SOL    HW116352   4.618   1.130   6.316
 5151SOL    HW216353   4.493   1.146   6.212
 5152SOL     OW16354   0.835   5.259   0.371
 5152SOL    HW116355   0.836   5.350   0.331
 5152SOL    HW216356   0.772   5.201   0.319
 5153SOL     OW16357   1.936   1.934   0.935
 5153SOL    HW116358   2.033   1.958   0.933
 5153SOL    HW216359   1.905   1.928   1.030
 5154SOL     OW16360   1.899   3.360   4.776
 5154SOL    HW116361   1.917   3.262   4.784
 5154SOL    HW216362   1.984   3.407   4.752
 5155SOL     OW16363   3.138   0.704   2.082
 5155SOL    HW116364   3.216   0.766   2.077
 5155SOL    HW216365   3.170   0.611   2.102
 5156SOL     OW16366   6.011   3.088   5.892
 5156SOL    HW116367   6.101   3.058   5.924
 5156SOL    HW216368   6.022   3.143   5.809
 5157SOL     OW16369   5.864   2.924   4.203
 5157SOL    HW116370   5.788   2.987   4.187
 5157SOL    HW216371   5.847   2.872   4.286
 5158SOL     OW16372   3.975   1.060   0.749
 5158SOL    HW116373   4.015   1.024   0.833
 5158SOL    HW216374   4.017   1.148   0.727
 5159SOL     OW16375   1.575   3.011   4.804
 5159SOL    HW116376   1.611   2.945   4.870
 5159SOL    HW216377   1.528   2.963   4.730
 5160SOL     OW16378   2.081   2.765   4.269
 5160SOL    HW116379   2.160   2.779   4.328
 5160SOL    HW216380   2.097   2.808   4.181
 5161SOL     OW16381   1.622   3.454   6.313
 5161SOL    HW116382   1.550   3.509   6.357
 5161SOL    HW216383   1.680   3.514   6.258
 5162SOL     OW16384   6.120   5.765   4.901
 5162SOL    HW116385   6.070   5.817   4.832
 5162SOL    HW216386   6.218   5.773   4.883
 5163SOL     OW16387   5.248   3.461   1.275
 5163SOL    HW116388   5.343   3.491   1.285
 5163SOL    HW216389   5.199   3.526   1.217
 5164SOL     OW16390   5.972   5.197   5.732
 5164SOL    HW116391   5.930   5.260   5.797
 5164SOL    HW216392   6.054   5.155   5.773
 5165SOL     OW16393   6.529   4.054   3.952
 5165SOL    HW116394   6.524   3.956   3.969
 5165SOL    HW216395   6.592   4.096   4.017
 5166SOL     OW16396   1.610   0.474   1.932
 5166SOL    HW116397   1.630   0.571   1.924
 5166SOL    HW216398   1.694   0.424   1.955
 5167SOL     OW16399   0.938   6.815   5.706
 5167SOL    HW116400   0.967   6.754   5.779
 5167SOL    HW216401   0.920   6.906   5.743
 5168SOL     OW16402   3.816   1.718   3.227
 5168SOL    HW116403   3.810   1.618   3.231
 5168SOL    HW216404   3.734   1.755   3.185
 5169SOL     OW16405   3.967   4.446   6.397
 5169SOL    HW116406   4.009   4.450   6.306
 5169SOL    HW216407   4.014   4.378   6.452
 5170SOL     OW16408   4.899   4.543   4.378
 5170SOL    HW116409   4.957   4.624   4.371
 5170SOL    HW216410   4.815   4.567   4.427
 5171SOL     OW16411   2.704   4.703   4.772
 5171SOL    HW116412   2.624   4.647   4.793
 5171SOL    HW216413   2.776   4.684   4.839
 5172SOL     OW16414   1.889   4.794   0.352
 5172SOL    HW116415   1.965   4.859   0.353
 5172SOL    HW216416   1.925   4.701   0.352
 5173SOL     OW16417   6.089   3.796   6.047
 5173SOL    HW116418   6.158   3.856   6.087
 5173SOL    HW216419   6.089   3.708   6.094
 5174SOL     OW16420   1.726   4.568   5.966
 5174SOL    HW116421   1.818   4.594   5.938
 5174SOL    HW216422   1.698   4.486   5.915
 5175SOL     OW16423   0.449   5.248   6.378
 5175SOL    HW116424   0.394   5.258   6.461
 5175SOL    HW216425   0.531   5.304   6.386
 5176SOL     OW16426   5.824   3.465   6.698
 5176SOL    HW116427   5.797   3.397   6.630
 5176SOL    HW216428   5.749   3.479   6.763
 5177SOL     OW16429   5.476   6.668   6.495
 5177SOL    HW116430   5.390   6.642   6.539
 5177SOL    HW216431   5.486   6.617   6.409
 5178SOL     OW16432   3.043   2.462   1.438
 5178SOL    HW116433   3.111   2.437   1.368
 5178SOL    HW216434   2.969   2.514   1.395
 5179SOL     OW16435   2.734   5.987   5.285
 5179SOL    HW116436   2.798   6.013   5.213
 5179SOL    HW216437   2.661   5.931   5.247
 5180SOL     OW16438   3.177   2.262   0.590
 5180SOL    HW116439   3.213   2.241   0.681
 5180SOL    HW216440   3.080   2.237   0.586
 5181SOL     OW16441   2.796   5.290   2.339
 5181SOL    HW116442   2.865   5.253   2.277
 5181SOL    HW216443   2.773   5.222   2.408
 5182SOL     OW16444   4.607   4.282   1.414
 5182SOL    HW116445   4.616   4.327   1.503
 5182SOL    HW216446   4.687   4.226   1.396
 5183SOL     OW16447   3.813   0.528   2.892
 5183SOL    HW116448   3.881   0.458   2.913
 5183SOL    HW216449   3.725   0.502   2.930
 5184SOL     OW16450   1.048   1.977   3.035
 5184SOL    HW116451   0.973   2.032   3.074
 5184SOL    HW216452   1.010   1.895   2.992
 5185SOL     OW16453   3.449   0.452   2.408
 5185SOL    HW116454   3.412   0.544   2.424
 5185SOL    HW216455   3.543   0.460   2.377
 5186SOL     OW16456   5.944   4.603   0.514
 5186SOL    HW116457   6.011   4.652   0.570
 5186SOL    HW216458   5.981   4.515   0.486
 5187SOL     OW16459   5.213   1.861   4.364
 5187SOL    HW116460   5.270   1.883   4.285
 5187SOL    HW216461   5.135   1.805   4.334
 5188SOL     OW16462   0.942   2.855   4.727
 5188SOL    HW116463   1.042   2.866   4.719
 5188SOL    HW216464   0.900   2.946   4.732
 5189SOL     OW16465   4.338   5.384   6.484
 5189SOL    HW116466   4.272   5.441   6.533
 5189SOL    HW216467   4.412   5.442   6.449
 5190SOL     OW16468   1.963   2.536   3.588
 5190SOL    HW116469   1.947   2.546   3.489
 5190SOL    HW216470   1.886   2.574   3.638
 5191SOL     OW16471   4.347   0.654   1.787
 5191SOL    HW116472   4.342   0.730   1.851
 5191SOL    HW216473   4.274   0.589   1.807
 5192SOL     OW16474   5.719   4.271   2.016
 5192SOL    HW116475   5.714   4.303   2.111
 5192SOL    HW216476   5.781   4.193   2.010
 5193SOL     OW16477   5.023   3.361   2.687
 5193SOL    HW116478   5.023   3.341   2.785
 5193SOL    HW216479   4.986   3.282   2.637
 5194SOL     OW16480   5.678   1.718   6.208
 5194SOL    HW116481   5.588   1.679   6.189
 5194SOL    HW216482   5.668   1.800   6.263
 5195SOL     OW16483   6.305   6.477   5.333
 5195SOL    HW116484   6.340   6.389   5.303
 5195SOL    HW216485   6.373   6.523   5.390
 5196SOL     OW16486   0.609   3.513   1.764
 5196SOL    HW116487   0.527   3.509   1.822
 5196SOL    HW216488   0.632   3.421   1.732
 5197SOL     OW16489   3.457   6.000   4.877
 5197SOL    HW116490   3.361   6.003   4.905
 5197SOL    HW216491   3.496   6.092   4.882
 5198SOL     OW16492   4.307   0.439   5.574
 5198SOL    HW116493   4.282   0.451   5.670
 5198SOL    HW216494   4.398   0.477   5.558
 5199SOL     OW16495   0.528   5.129   1.739
 5199SOL    HW116496   0.512   5.068   1.661
 5199SOL    HW216497   0.450   5.126   1.801
 5200SOL     OW16498   0.376   0.101   5.312
 5200SOL    HW116499   0.356   0.055   5.398
 5200SOL    HW216500   0.460   0.063   5.273
 5201SOL     OW16501   5.943   4.308   4.997
 5201SOL    HW116502   5.899   4.346   4.916
 5201SOL    HW216503   6.003   4.377   5.038
 5202SOL     OW16504   3.642   3.238   5.658
 5202SOL    HW116505   3.723   3.181   5.649
 5202SOL    HW216506   3.562   3.180   5.676
 5203SOL     OW16507   1.629   0.217   6.415
 5203SOL    HW116508   1.637   0.202   6.514
 5203SOL    HW216509   1.706   0.273   6.383
 5204SOL     OW16510   2.596   0.831   0.844
 5204SOL    HW116511   2.505   0.835   0.802
 5204SOL    HW216512   2.635   0.923   0.848
 5205SOL     OW16513   6.886   6.573   0.572
 5205SOL    HW116514   6.969   6.590   0.519
 5205SOL    HW216515   6.892   6.484   0.617
 5206SOL     OW16516   1.307   4.891   3.373
 5206SOL    HW116517   1.284   4.972   3.319
 5206SOL    HW216518   1.233   4.871   3.438
 5207SOL     OW16519   6.278   6.569   4.304
 5207SOL    HW116520   6.242   6.580   4.212
 5207SOL    HW216521   6.376   6.586   4.304
 5208SOL     OW16522   5.884   1.948   0.678
 5208SOL    HW116523   5.933   1.884   0.737
 5208SOL    HW216524   5.844   1.899   0.600
 5209SOL     OW16525   5.983   6.337   3.348
 5209SOL    HW116526   5.921   6.347   3.271
 5209SOL    HW216527   5.943   6.379   3.429
 5210SOL     OW16528   5.732   4.321   0.931
 5210SOL    HW116529   5.646   4.302   0.884
 5210SOL    HW216530   5.716   4.391   1.002
 5211SOL     OW16531   5.447   2.444   4.941
 5211SOL    HW116532   5.416   2.439   4.847
 5211SOL    HW216533   5.474   2.353   4.973
 5212SOL     OW16534   0.759   3.435   7.006
 5212SOL    HW116535   0.853   3.417   6.977
 5212SOL    HW216536   0.707   3.349   7.007
 5213SOL     OW16537   3.767   3.272   3.009
 5213SOL    HW116538   3.845   3.316   2.965
 5213SOL    HW216539   3.782   3.173   3.014
 5214SOL     OW16540   5.678   3.657   5.264
 5214SOL    HW116541   5.629   3.606   5.193
 5214SOL    HW216542   5.637   3.639   5.353
 5215SOL     OW16543   0.626   3.984   4.653
 5215SOL    HW116544   0.554   4.046   4.685
 5215SOL    HW216545   0.594   3.889   4.660
 5216SOL     OW16546   5.204   5.214   1.242
 5216SOL    HW116547   5.199   5.215   1.142
 5216SOL    HW216548   5.235   5.303   1.274
 5217SOL     OW16549   5.017   6.233   3.004
 5217SOL    HW116550   5.072   6.167   2.953
 5217SOL    HW216551   4.924   6.198   3.015
 5218SOL     OW16552   6.189   0.413   0.374
 5218SOL    HW116553   6.198   0.494   0.315
 5218SOL    HW216554   6.254   0.419   0.449
 5219SOL     OW16555   3.318   1.005   5.461
 5219SOL    HW116556   3.322   0.914   5.420
 5219SOL    HW216557   3.297   0.997   5.558
 5220SOL     OW16558   2.011   5.241   4.252
 5220SOL    HW116559   2.099   5.220   4.294
 5220SOL    HW216560   1.943   5.259   4.323
 5221SOL     OW16561   5.653   5.174   1.596
 5221SOL    HW116562   5.730   5.117   1.566
 5221SOL    HW216563   5.574   5.156   1.538
 5222SOL     OW16564   6.799   3.574   1.414
 5222SOL    HW116565   6.757   3.634   1.346
 5222SOL    HW216566   6.838   3.494   1.369
 5223SOL     OW16567   6.981   3.235   0.569
 5223SOL    HW116568   6.938   3.184   0.644
 5223SOL    HW216569   7.014   3.323   0.604
 5224SOL     OW16570   0.504   1.732   5.149
 5224SOL    HW116571   0.461   1.680   5.223
 5224SOL    HW216572   0.598   1.700   5.135
 5225SOL     OW16573   6.935   1.340   4.223
 5225SOL    HW116574   7.020   1.367   4.176
 5225SOL    HW216575   6.953   1.329   4.320
 5226SOL     OW16576   0.416   6.416   3.789
 5226SOL    HW116577   0.475   6.346   3.830
 5226SOL    HW216578   0.330   6.375   3.759
 5227SOL     OW16579   0.317   4.051   5.780
 5227SOL    HW116580   0.359   3.961   5.793
 5227SOL    HW216581   0.349   4.090   5.694
 5228SOL     OW16582   0.864   1.399   5.144
 5228SOL    HW116583   0.961   1.423   5.143
 5228SOL    HW216584   0.853   1.305   5.177
 5229SOL     OW16585   3.543   1.701   6.139
 5229SOL    HW116586   3.484   1.779   6.119
 5229SOL    HW216587   3.493   1.635   6.194
 5230SOL     OW16588   6.847   6.925   1.822
 5230SOL    HW116589   6.784   6.999   1.798
 5230SOL    HW216590   6.915   6.959   1.887
 5231SOL     OW16591   6.407   3.265   1.738
 5231SOL    HW116592   6.471   3.329   1.695
 5231SOL    HW216593   6.458   3.202   1.798
 5232SOL     OW16594   1.791   2.351   5.778
 5232SOL    HW116595   1.776   2.434   5.832
 5232SOL    HW216596   1.885   2.349   5.745
 5233SOL     OW16597   2.916   6.312   2.728
 5233SOL    HW116598   2.994   6.275   2.677
 5233SOL    HW216599   2.934   6.408   2.751
 5234SOL     OW16600   3.058   2.182   6.367
 5234SOL    HW116601   3.067   2.280   6.349
 5234SOL    HW216602   3.087   2.163   6.461
 5235SOL     OW16603   2.382   1.773   1.353
 5235SOL    HW116604   2.356   1.821   1.437
 5235SOL    HW216605   2.458   1.820   1.309
 5236SOL     OW16606   3.378   5.186   1.407
 5236SOL    HW116607   3.406   5.263   1.464
 5236SOL    HW216608   3.279   5.173   1.414
 5237SOL     OW16609   1.854   2.126   2.551
 5237SOL    HW116610   1.828   2.029   2.559
 5237SOL    HW216611   1.916   2.150   2.625
 5238SOL     OW16612   0.263   6.840   2.933
 5238SOL    HW116613   0.164   6.825   2.940
 5238SOL    HW216614   0.307   6.756   2.903
 5239SOL     OW16615   2.628   3.708   0.714
 5239SOL    HW116616   2.691   3.643   0.756
 5239SOL    HW216617   2.593   3.771   0.784
 5240SOL     OW16618   2.378   4.230   5.621
 5240SOL    HW116619   2.424   4.163   5.680
 5240SOL    HW216620   2.378   4.197   5.527
 5241SOL     OW16621   1.011   6.707   2.445
 5241SOL    HW116622   1.043   6.647   2.519
 5241SOL    HW216623   1.070   6.788   2.442
 5242SOL     OW16624   4.362   0.457   6.507
 5242SOL    HW116625   4.314   0.544   6.493
 5242SOL    HW216626   4.301   0.381   6.485
 5243SOL     OW16627   2.517   6.448   2.267
 5243SOL    HW116628   2.436   6.409   2.312
 5243SOL    HW216629   2.498   6.461   2.170
 5244SOL     OW16630   4.728   1.213   0.394
 5244SOL    HW116631   4.696   1.241   0.304
 5244SOL    HW216632   4.826   1.198   0.392
 5245SOL     OW16633   3.518   4.297   1.283
 5245SOL    HW116634   3.466   4.230   1.337
 5245SOL    HW216635   3.504   4.389   1.321
 5246SOL     OW16636   6.282   3.983   6.155
 5246SOL    HW116637   6.260   4.042   6.233
 5246SOL    HW216638   6.334   3.904   6.186
 5247SOL     OW16639   4.173   1.705   6.680
 5247SOL    HW116640   4.094   1.644   6.691
 5247SOL    HW216641   4.140   1.798   6.661
 5248SOL     OW16642   5.554   1.175   3.825
 5248SOL    HW116643   5.552   1.266   3.783
 5248SOL    HW216644   5.482   1.119   3.786
 5249SOL     OW16645   0.574   4.743   0.571
 5249SOL    HW116646   0.549   4.659   0.523
 5249SOL    HW216647   0.611   4.720   0.661
 5250SOL     OW16648   2.633   5.457   1.222
 5250SOL    HW116649   2.675   5.464   1.132
 5250SOL    HW216650   2.695   5.410   1.285
 5251SOL     OW16651   0.671   4.970   0.465
 5251SOL    HW116652   0.771   4.971   0.465
 5251SOL    HW216653   0.639   4.891   0.519
 5252SOL     OW16654   3.975   6.012   2.786
 5252SOL    HW116655   4.043   5.939   2.778
 5252SOL    HW216656   4.018   6.099   2.763
 5253SOL     OW16657   6.730   6.032   4.853
 5253SOL    HW116658   6.791   6.109   4.874
 5253SOL    HW216659   6.744   5.959   4.919
 5254SOL     OW16660   5.016   6.062   3.360
 5254SOL    HW116661   5.044   6.035   3.453
 5254SOL    HW216662   5.075   6.018   3.293
 5255SOL     OW16663   6.583   1.398   5.182
 5255SOL    HW116664   6.513   1.467   5.198
 5255SOL    HW216665   6.589   1.337   5.261
 5256SOL     OW16666   6.569   1.579   2.050
 5256SOL    HW116667   6.635   1.510   2.083
 5256SOL    HW216668   6.604   1.620   1.966
 5257SOL     OW16669   4.574   1.715   5.948
 5257SOL    HW116670   4.478   1.738   5.936
 5257SOL    HW216671   4.616   1.780   6.012
 5258SOL     OW16672   4.862   1.311   4.291
 5258SOL    HW116673   4.903   1.237   4.236
 5258SOL    HW216674   4.870   1.397   4.241
 5259SOL     OW16675   6.110   4.995   3.763
 5259SOL    HW116676   6.147   5.070   3.708
 5259SOL    HW216677   6.142   4.908   3.727
 5260SOL     OW16678   2.046   0.184   0.755
 5260SOL    HW116679   2.043   0.220   0.662
 5260SOL    HW216680   2.050   0.084   0.753
 5261SOL     OW16681   5.584   4.263   6.753
 5261SOL    HW116682   5.486   4.258   6.737
 5261SOL    HW216683   5.616   4.174   6.786
 5262SOL     OW16684   1.397   1.330   2.225
 5262SOL    HW116685   1.377   1.236   2.254
 5262SOL    HW216686   1.496   1.343   2.218
 5263SOL     OW16687   1.288   6.451   2.415
 5263SOL    HW116688   1.330   6.364   2.390
 5263SOL    HW216689   1.274   6.506   2.332
 5264SOL     OW16690   6.688   1.851   1.442
 5264SOL    HW116691   6.721   1.877   1.533
 5264SOL    HW216692   6.720   1.917   1.374
 5265SOL     OW16693   0.004   5.470   5.454
 5265SOL    HW116694   0.007   5.434   5.547
 5265SOL    HW216695   0.024   5.397   5.388
 5266SOL     OW16696   1.548   0.612   6.551
 5266SOL    HW116697   1.548   0.661   6.639
 5266SOL    HW216698   1.626   0.642   6.497
 5267SOL     OW16699   5.304   2.518   4.304
 5267SOL    HW116700   5.375   2.588   4.302
 5267SOL    HW216701   5.303   2.468   4.218
 5268SOL     OW16702   5.451   0.302   5.856
 5268SOL    HW116703   5.459   0.390   5.809
 5268SOL    HW216704   5.541   0.259   5.862
 5269SOL     OW16705   0.718   6.811   3.871
 5269SOL    HW116706   0.629   6.813   3.916
 5269SOL    HW216707   0.748   6.904   3.849
 5270SOL     OW16708   0.856   1.596   6.141
 5270SOL    HW116709   0.799   1.530   6.091
 5270SOL    HW216710   0.906   1.652   6.075
 5271SOL     OW16711   1.287   5.035   3.042
 5271SOL    HW116712   1.310   5.025   2.945
 5271SOL    HW216713   1.202   4.986   3.062
 5272SOL     OW16714   4.012   0.251   6.822
 5272SOL    HW116715   3.918   0.257   6.856
 5272SOL    HW216716   4.056   0.341   6.826
 5273SOL     OW16717   2.615   1.769   2.323
 5273SOL    HW116718   2.563   1.831   2.382
 5273SOL    HW216719   2.707   1.757   2.361
 5274SOL     OW16720   5.442   5.135   1.418
 5274SOL    HW116721   5.431   5.041   1.452
 5274SOL    HW216722   5.351   5.174   1.401
 5275SOL     OW16723   4.382   1.510   6.601
 5275SOL    HW116724   4.321   1.431   6.614
 5275SOL    HW216725   4.333   1.594   6.626
 5276SOL     OW16726   3.981   6.676   2.213
 5276SOL    HW116727   3.950   6.761   2.171
 5276SOL    HW216728   3.981   6.687   2.313
 5277SOL     OW16729   2.010   2.893   1.809
 5277SOL    HW116730   1.932   2.939   1.851
 5277SOL    HW216731   2.090   2.954   1.813
 5278SOL     OW16732   4.085   3.403   1.481
 5278SOL    HW116733   4.106   3.374   1.574
 5278SOL    HW216734   4.130   3.490   1.461
 5279SOL     OW16735   2.136   6.364   2.391
 5279SOL    HW116736   2.165   6.374   2.296
 5279SOL    HW216737   2.109   6.269   2.407
 5280SOL     OW16738   4.348   0.442   5.182
 5280SOL    HW116739   4.428   0.394   5.219
 5280SOL    HW216740   4.265   0.394   5.209
 5281SOL     OW16741   0.280   2.607   3.293
 5281SOL    HW116742   0.286   2.511   3.322
 5281SOL    HW216743   0.204   2.617   3.229
 5282SOL     OW16744   4.944   1.612   1.602
 5282SOL    HW116745   4.887   1.540   1.562
 5282SOL    HW216746   4.973   1.585   1.694
 5283SOL     OW16747   5.376   5.327   5.723
 5283SOL    HW116748   5.327   5.242   5.707
 5283SOL    HW216749   5.311   5.404   5.724
 5284SOL     OW16750   4.868   2.476   3.315
 5284SOL    HW116751   4.889   2.462   3.412
 5284SOL    HW216752   4.927   2.547   3.278
 5285SOL     OW16753   3.829   6.063   2.530
 5285SOL    HW116754   3.886   6.011   2.466
 5285SOL    HW216755   3.866   6.055   2.622
 5286SOL     OW16756   2.608   5.241   2.084
 5286SOL    HW116757   2.679   5.176   2.057
 5286SOL    HW216758   2.629   5.277   2.175
 5287SOL     OW16759   0.553   1.670   1.756
 5287SOL    HW116760   0.514   1.737   1.818
 5287SOL    HW216761   0.484   1.601   1.732
 5288SOL     OW16762   4.204   0.738   0.618
 5288SOL    HW116763   4.255   0.743   0.532
 5288SOL    HW216764   4.159   0.826   0.634
 5289SOL     OW16765   2.543   6.087   0.997
 5289SOL    HW116766   2.515   6.030   1.075
 5289SOL    HW216767   2.476   6.160   0.984
 5290SOL     OW16768   5.245   5.932   0.648
 5290SOL    HW116769   5.167   5.984   0.683
 5290SOL    HW216770   5.318   5.930   0.716
 5291SOL     OW16771   1.287   5.242   6.426
 5291SOL    HW116772   1.284   5.184   6.345
 5291SOL    HW216773   1.228   5.203   6.497
 5292SOL     OW16774   5.369   1.877   6.806
 5292SOL    HW116775   5.270   1.862   6.806
 5292SOL    HW216776   5.404   1.867   6.899
 5293SOL     OW16777   1.485   1.306   3.772
 5293SOL    HW116778   1.402   1.353   3.744
 5293SOL    HW216779   1.489   1.301   3.872
 5294SOL     OW16780   4.679   2.679   5.386
 5294SOL    HW116781   4.612   2.749   5.411
 5294SOL    HW216782   4.770   2.721   5.377
 5295SOL     OW16783   5.782   0.921   2.160
 5295SOL    HW116784   5.726   0.874   2.229
 5295SOL    HW216785   5.797   1.016   2.189
 5296SOL     OW16786   0.386   3.257   0.528
 5296SOL    HW116787   0.306   3.317   0.529
 5296SOL    HW216788   0.436   3.270   0.442
 5297SOL     OW16789   1.259   2.885   2.583
 5297SOL    HW116790   1.359   2.874   2.579
 5297SOL    HW216791   1.226   2.852   2.671
 5298SOL     OW16792   1.093   5.288   1.461
 5298SOL    HW116793   1.184   5.328   1.473
 5298SOL    HW216794   1.061   5.252   1.548
 5299SOL     OW16795   3.353   0.424   1.294
 5299SOL    HW116796   3.432   0.394   1.239
 5299SOL    HW216797   3.386   0.468   1.377
 5300SOL     OW16798   6.650   5.343   4.015
 5300SOL    HW116799   6.639   5.442   4.004
 5300SOL    HW216800   6.735   5.314   3.971
 5301SOL     OW16801   4.738   0.195   0.693
 5301SOL    HW116802   4.723   0.294   0.695
 5301SOL    HW216803   4.653   0.149   0.716
 5302SOL     OW16804   6.508   4.294   3.742
 5302SOL    HW116805   6.539   4.200   3.725
 5302SOL    HW216806   6.422   4.291   3.794
 5303SOL     OW16807   0.811   5.597   2.783
 5303SOL    HW116808   0.716   5.565   2.775
 5303SOL    HW216809   0.811   5.692   2.815
 5304SOL     OW16810   4.688   2.188   5.552
 5304SOL    HW116811   4.787   2.179   5.541
 5304SOL    HW216812   4.663   2.284   5.554
 5305SOL     OW16813   2.705   1.201   3.170
 5305SOL    HW116814   2.757   1.247   3.098
 5305SOL    HW216815   2.768   1.156   3.233
 5306SOL     OW16816   2.903   6.722   4.481
 5306SOL    HW116817   2.926   6.651   4.413
 5306SOL    HW216818   2.987   6.770   4.508
 5307SOL     OW16819   4.559   6.809   6.795
 5307SOL    HW116820   4.656   6.800   6.773
 5307SOL    HW216821   4.512   6.853   6.718
 5308SOL     OW16822   6.747   1.428   2.218
 5308SOL    HW116823   6.762   1.370   2.298
 5308SOL    HW216824   6.793   1.388   2.138
 5309SOL     OW16825   3.805   3.638   4.662
 5309SOL    HW116826   3.742   3.693   4.717
 5309SOL    HW216827   3.883   3.694   4.634
 5310SOL     OW16828   5.579   2.283   0.171
 5310SOL    HW116829   5.571   2.376   0.137
 5310SOL    HW216830   5.573   2.283   0.271
 5311SOL     OW16831   1.256   6.403   6.741
 5311SOL    HW116832   1.291   6.351   6.819
 5311SOL    HW216833   1.157   6.410   6.747
 5312SOL     OW16834   0.417   3.485   1.981
 5312SOL    HW116835   0.320   3.480   1.957
 5312SOL    HW216836   0.428   3.481   2.080
 5313SOL     OW16837   1.501   6.447   0.291
 5313SOL    HW116838   1.569   6.380   0.323
 5313SOL    HW216839   1.409   6.414   0.313
 5314SOL     OW16840   3.618   5.004   0.902
 5314SOL    HW116841   3.619   4.906   0.887
 5314SOL    HW216842   3.587   5.050   0.819
 5315SOL     OW16843   5.142   2.526   1.739
 5315SOL    HW116844   5.214   2.470   1.779
 5315SOL    HW216845   5.150   2.620   1.773
 5316SOL     OW16846   5.814   5.361   4.587
 5316SOL    HW116847   5.718   5.386   4.579
 5316SOL    HW216848   5.831   5.326   4.680
 5317SOL     OW16849   5.951   5.480   3.057
 5317SOL    HW116850   6.027   5.429   3.095
 5317SOL    HW216851   5.985   5.548   2.992
 5318SOL     OW16852   0.449   2.113   4.217
 5318SOL    HW116853   0.517   2.146   4.282
 5318SOL    HW216854   0.359   2.148   4.242
 5319SOL     OW16855   3.636   0.108   1.474
 5319SOL    HW116856   3.546   0.151   1.476
 5319SOL    HW216857   3.626   0.008   1.472
 5320SOL     OW16858   6.279   3.892   5.607
 5320SOL    HW116859   6.322   3.976   5.639
 5320SOL    HW216860   6.261   3.898   5.509
 5321SOL     OW16861   1.807   5.135   6.321
 5321SOL    HW116862   1.715   5.167   6.299
 5321SOL    HW216863   1.875   5.201   6.289
 5322SOL     OW16864   2.353   6.264   0.980
 5322SOL    HW116865   2.423   6.332   0.958
 5322SOL    HW216866   2.302   6.240   0.898
 5323SOL     OW16867   5.613   3.663   0.450
 5323SOL    HW116868   5.696   3.610   0.430
 5323SOL    HW216869   5.536   3.623   0.400
 5324SOL     OW16870   4.386   3.506   1.354
 5324SOL    HW116871   4.379   3.570   1.430
 5324SOL    HW216872   4.442   3.428   1.381
 5325SOL     OW16873   4.604   6.204   4.755
 5325SOL    HW116874   4.690   6.255   4.748
 5325SOL    HW216875   4.613   6.117   4.707
 5326SOL     OW16876   0.124   0.411   2.599
 5326SOL    HW116877   0.214   0.447   2.625
 5326SOL    HW216878   0.093   0.345   2.668
 5327SOL     OW16879   0.066   0.144   4.373
 5327SOL    HW116880   7.013   0.181   4.320
 5327SOL    HW216881   0.087   0.206   4.449
 5328SOL     OW16882   3.829   5.192   0.321
 5328SOL    HW116883   3.808   5.150   0.233
 5328SOL    HW216884   3.783   5.142   0.394
 5329SOL     OW16885   6.964   5.791   0.596
 5329SOL    HW116886   0.002   5.778   0.674
 5329SOL    HW216887   6.917   5.705   0.576
 5330SOL     OW16888   3.377   4.709   0.181
 5330SOL    HW116889   3.416   4.780   0.239
 5330SOL    HW216890   3.414   4.716   0.089
 5331SOL     OW16891   5.529   2.185   6.483
 5331SOL    HW116892   5.552   2.188   6.580
 5331SOL    HW216893   5.453   2.247   6.464
 5332SOL     OW16894   5.169   3.157   6.892
 5332SOL    HW116895   5.199   3.128   6.801
 5332SOL    HW216896   5.108   3.087   6.930
 5333SOL     OW16897   2.068   1.818   4.563
 5333SOL    HW116898   2.017   1.900   4.591
 5333SOL    HW216899   2.036   1.788   4.474
 5334SOL     OW16900   3.126   6.062   1.588
 5334SOL    HW116901   3.189   6.024   1.520
 5334SOL    HW216902   3.134   6.162   1.587
 5335SOL     OW16903   0.435   4.922   1.567
 5335SOL    HW116904   0.485   4.838   1.586
 5335SOL    HW216905   0.339   4.910   1.592
 5336SOL     OW16906   1.684   3.237   5.406
 5336SOL    HW116907   1.627   3.286   5.340
 5336SOL    HW216908   1.780   3.260   5.391
 5337SOL     OW16909   0.069   4.018   0.792
 5337SOL    HW116910   7.019   3.986   0.732
 5337SOL    HW216911   0.113   4.098   0.751
 5338SOL     OW16912   6.540   4.014   0.585
 5338SOL    HW116913   6.462   4.057   0.631
 5338SOL    HW216914   6.529   3.915   0.586
 5339SOL     OW16915   5.582   3.149   2.144
 5339SOL    HW116916   5.674   3.189   2.150
 5339SOL    HW216917   5.532   3.193   2.070
 5340SOL     OW16918   4.467   3.391   1.617
 5340SOL    HW116919   4.374   3.391   1.652
 5340SOL    HW216920   4.515   3.309   1.649
 5341SOL     OW16921   4.907   4.455   3.403
 5341SOL    HW116922   4.996   4.422   3.435
 5341SOL    HW216923   4.915   4.552   3.378
 5342SOL     OW16924   6.314   5.721   5.229
 5342SOL    HW116925   6.317   5.673   5.141
 5342SOL    HW216926   6.269   5.809   5.217
 5343SOL     OW16927   3.825   3.326   6.420
 5343SOL    HW116928   3.756   3.391   6.388
 5343SOL    HW216929   3.879   3.367   6.493
 5344SOL     OW16930   6.964   1.421   6.822
 5344SOL    HW116931   6.912   1.346   6.863
 5344SOL    HW216932   6.905   1.472   6.760
 5345SOL     OW16933   4.932   1.078   6.611
 5345SOL    HW116934   4.932   1.046   6.706
 5345SOL    HW216935   4.992   1.020   6.556
 5346SOL     OW16936   3.070   5.764   2.982
 5346SOL    HW116937   3.083   5.667   3.005
 5346SOL    HW216938   2.972   5.786   2.986
 5347SOL     OW16939   5.045   1.638   4.463
 5347SOL    HW116940   5.025   1.634   4.561
 5347SOL    HW216941   5.099   1.557   4.437
 5348SOL     OW16942   5.009   2.589   5.084
 5348SOL    HW116943   5.068   2.549   5.014
 5348SOL    HW216944   4.913   2.579   5.057
 5349SOL     OW16945   0.611   3.636   1.348
 5349SOL    HW116946   0.562   3.567   1.403
 5349SOL    HW216947   0.663   3.695   1.409
 5350SOL     OW16948   1.070   7.016   0.101
 5350SOL    HW116949   1.010   7.020   0.021
 5350SOL    HW216950   1.108   0.083   0.119
 5351SOL     OW16951   6.761   5.795   3.083
 5351SOL    HW116952   6.726   5.739   3.008
 5351SOL    HW216953   6.836   5.746   3.129
 5352SOL     OW16954   1.889   2.651   5.883
 5352SOL    HW116955   1.915   2.710   5.960
 5352SOL    HW216956   1.912   2.696   5.797
 5353SOL     OW16957   3.847   5.147   3.773
 5353SOL    HW116958   3.836   5.194   3.685
 5353SOL    HW216959   3.943   5.124   3.786
 5354SOL     OW16960   3.667   5.680   0.979
 5354SOL    HW116961   3.625   5.589   0.976
 5354SOL    HW216962   3.719   5.690   1.063
 5355SOL     OW16963   4.928   5.851   5.352
 5355SOL    HW116964   5.014   5.838   5.301
 5355SOL    HW216965   4.934   5.935   5.406
 5356SOL     OW16966   1.145   6.274   0.867
 5356SOL    HW116967   1.069   6.210   0.875
 5356SOL    HW216968   1.113   6.367   0.886
 5357SOL     OW16969   6.787   3.519   2.581
 5357SOL    HW116970   6.730   3.438   2.564
 5357SOL    HW216971   6.749   3.597   2.532
 5358SOL     OW16972   5.863   0.715   6.340
 5358SOL    HW116973   5.889   0.800   6.385
 5358SOL    HW216974   5.868   0.640   6.405
 5359SOL     OW16975   2.974   2.669   6.940
 5359SOL    HW116976   3.068   2.669   6.974
 5359SOL    HW216977   2.966   2.736   6.865
 5360SOL     OW16978   5.217   5.604   4.100
 5360SOL    HW116979   5.179   5.674   4.160
 5360SOL    HW216980   5.316   5.596   4.115
 5361SOL     OW16981   1.567   4.837   3.024
 5361SOL    HW116982   1.643   4.772   3.014
 5361SOL    HW216983   1.586   4.899   3.100
 5362SOL     OW16984   6.059   1.677   2.949
 5362SOL    HW116985   6.004   1.720   3.021
 5362SOL    HW216986   6.094   1.589   2.982
 5363SOL     OW16987   5.398   5.481   3.458
 5363SOL    HW116988   5.418   5.493   3.361
 5363SOL    HW216989   5.425   5.563   3.508
 5364SOL     OW16990   4.223   2.038   2.467
 5364SOL    HW116991   4.239   2.135   2.452
 5364SOL    HW216992   4.260   2.011   2.556
 5365SOL     OW16993   2.832   3.845   5.212
 5365SOL    HW116994   2.816   3.756   5.171
 5365SOL    HW216995   2.852   3.912   5.141
 5366SOL     OW16996   6.417   5.824   3.043
 5366SOL    HW116997   6.471   5.764   2.983
 5366SOL    HW216998   6.320   5.808   3.027
 5367SOL     OW16999   5.924   6.035   1.604
 5367SOL    HW117000   5.979   5.969   1.553
 5367SOL    HW217001   5.878   6.096   1.539
 5368SOL     OW17002   0.209   6.295   4.602
 5368SOL    HW117003   0.185   6.198   4.598
 5368SOL    HW217004   0.283   6.307   4.668
 5369SOL     OW17005   4.395   6.047   2.656
 5369SOL    HW117006   4.383   5.948   2.655
 5369SOL    HW217007   4.338   6.086   2.729
 5370SOL     OW17008   1.835   2.882   0.322
 5370SOL    HW117009   1.765   2.952   0.334
 5370SOL    HW217010   1.830   2.845   0.229
 5371SOL     OW17011   6.212   5.540   5.026
 5371SOL    HW117012   6.189   5.484   4.946
 5371SOL    HW217013   6.168   5.629   5.019
 5372SOL     OW17014   1.933   6.831   3.350
 5372SOL    HW117015   1.954   6.897   3.277
 5372SOL    HW217016   2.018   6.797   3.390
 5373SOL     OW17017   2.692   1.010   6.328
 5373SOL    HW117018   2.699   1.107   6.353
 5373SOL    HW217019   2.619   0.998   6.260
 5374SOL     OW17020   1.145   3.781   1.235
 5374SOL    HW117021   1.204   3.783   1.316
 5374SOL    HW217022   1.101   3.870   1.224
 5375SOL     OW17023   2.430   4.408   5.269
 5375SOL    HW117024   2.488   4.354   5.330
 5375SOL    HW217025   2.487   4.473   5.218
 5376SOL     OW17026   1.217   0.076   0.512
 5376SOL    HW117027   1.149   0.134   0.558
 5376SOL    HW217028   1.305   0.124   0.509
 5377SOL     OW17029   1.532   1.955   2.822
 5377SOL    HW117030   1.510   1.872   2.874
 5377SOL    HW217031   1.475   2.030   2.854
 5378SOL     OW17032   4.440   6.694   2.511
 5378SOL    HW117033   4.529   6.697   2.557
 5378SOL    HW217034   4.454   6.675   2.414
 5379SOL     OW17035   2.000   2.173   3.439
 5379SOL    HW117036   1.990   2.202   3.343
 5379SOL    HW217037   1.942   2.093   3.455
 5380SOL     OW17038   4.464   5.950   1.420
 5380SOL    HW117039   4.520   5.867   1.415
 5380SOL    HW217040   4.522   6.027   1.448
 5381SOL     OW17041   3.577   1.301   3.276
 5381SOL    HW117042   3.560   1.377   3.213
 5381SOL    HW217043   3.662   1.255   3.251
 5382SOL     OW17044   4.041   1.039   2.830
 5382SOL    HW117045   3.977   0.977   2.877
 5382SOL    HW217046   4.020   1.040   2.732
 5383SOL     OW17047   1.996   3.010   4.732
 5383SOL    HW117048   1.980   2.938   4.800
 5383SOL    HW217049   2.067   2.981   4.668
 5384SOL     OW17050   5.366   6.112   6.220
 5384SOL    HW117051   5.372   6.201   6.266
 5384SOL    HW217052   5.272   6.077   6.227
 5385SOL     OW17053   4.359   3.794   0.091
 5385SOL    HW117054   4.303   3.824   0.168
 5385SOL    HW217055   4.303   3.739   0.028
 5386SOL     OW17056   4.727   4.906   4.469
 5386SOL    HW117057   4.787   4.885   4.392
 5386SOL    HW217058   4.678   4.823   4.496
 5387SOL     OW17059   1.039   2.133   4.313
 5387SOL    HW117060   0.993   2.137   4.402
 5387SOL    HW217061   0.987   2.185   4.246
 5388SOL     OW17062   6.531   6.638   4.355
 5388SOL    HW117063   6.564   6.732   4.357
 5388SOL    HW217064   6.568   6.591   4.274
 5389SOL     OW17065   5.174   1.400   4.449
 5389SOL    HW117066   5.126   1.312   4.452
 5389SOL    HW217067   5.271   1.386   4.464
 5390SOL     OW17068   6.301   3.791   3.083
 5390SOL    HW117069   6.384   3.741   3.058
 5390SOL    HW217070   6.264   3.755   3.169
 5391SOL     OW17071   3.462   2.656   1.196
 5391SOL    HW117072   3.489   2.588   1.265
 5391SOL    HW217073   3.373   2.632   1.158
 5392SOL     OW17074   5.229   0.622   4.468
 5392SOL    HW117075   5.221   0.669   4.380
 5392SOL    HW217076   5.165   0.662   4.534
 5393SOL     OW17077   4.156   1.203   4.091
 5393SOL    HW117078   4.059   1.181   4.095
 5393SOL    HW217079   4.168   1.303   4.098
 5394SOL     OW17080   6.910   2.781   1.831
 5394SOL    HW117081   6.889   2.836   1.750
 5394SOL    HW217082   6.833   2.784   1.894
 5395SOL     OW17083   0.459   1.560   0.734
 5395SOL    HW117084   0.525   1.490   0.710
 5395SOL    HW217085   0.420   1.600   0.651
 5396SOL     OW17086   3.595   2.991   0.790
 5396SOL    HW117087   3.621   2.898   0.816
 5396SOL    HW217088   3.559   3.039   0.870
 5397SOL     OW17089   6.743   0.027   2.534
 5397SOL    HW117090   6.812   0.092   2.502
 5397SOL    HW217091   6.659   0.039   2.481
 5398SOL     OW17092   6.795   2.600   3.097
 5398SOL    HW117093   6.767   2.520   3.152
 5398SOL    HW217094   6.736   2.607   3.017
 5399SOL     OW17095   1.987   3.205   1.171
 5399SOL    HW117096   2.081   3.193   1.140
 5399SOL    HW217097   1.927   3.217   1.092
 5400SOL     OW17098   4.508   2.965   1.284
 5400SOL    HW117099   4.527   2.938   1.378
 5400SOL    HW217100   4.585   3.018   1.249
 5401SOL     OW17101   5.101   3.237   1.114
 5401SOL    HW117102   5.057   3.181   1.184
 5401SOL    HW217103   5.165   3.300   1.158
 5402SOL     OW17104   0.769   6.493   2.078
 5402SOL    HW117105   0.805   6.571   2.130
 5402SOL    HW217106   0.844   6.445   2.033
 5403SOL     OW17107   4.932   2.281   6.438
 5403SOL    HW117108   4.899   2.371   6.411
 5403SOL    HW217109   4.917   2.268   6.536
 5404SOL     OW17110   5.099   6.725   0.282
 5404SOL    HW117111   5.154   6.712   0.364
 5404SOL    HW217112   5.084   6.823   0.267
 5405SOL     OW17113   0.471   5.123   0.051
 5405SOL    HW117114   0.470   5.207   7.020
 5405SOL    HW217115   0.387   5.118   0.105
 5406SOL     OW17116   3.090   1.184   5.899
 5406SOL    HW117117   3.167   1.235   5.938
 5406SOL    HW217118   3.064   1.226   5.812
 5407SOL     OW17119   1.238   6.226   3.537
 5407SOL    HW117120   1.217   6.204   3.633
 5407SOL    HW217121   1.167   6.286   3.501
 5408SOL     OW17122   2.447   2.055   4.487
 5408SOL    HW117123   2.396   1.974   4.514
 5408SOL    HW217124   2.499   2.036   4.404
 5409SOL     OW17125   0.763   2.597   2.411
 5409SOL    HW117126   0.704   2.604   2.331
 5409SOL    HW217127   0.710   2.568   2.490
 5410SOL     OW17128   6.917   2.498   0.483
 5410SOL    HW117129   7.015   2.507   0.499
 5410SOL    HW217130   6.868   2.507   0.570
 5411SOL     OW17131   3.621   5.469   0.537
 5411SOL    HW117132   3.711   5.511   0.528
 5411SOL    HW217133   3.551   5.537   0.515
 5412SOL     OW17134   1.320   2.298   5.054
 5412SOL    HW117135   1.316   2.398   5.055
 5412SOL    HW217136   1.237   2.262   5.011
 5413SOL     OW17137   0.665   5.131   5.092
 5413SOL    HW117138   0.642   5.179   5.006
 5413SOL    HW217139   0.617   5.175   5.168
 5414SOL     OW17140   5.665   4.345   5.573
 5414SOL    HW117141   5.605   4.271   5.604
 5414SOL    HW217142   5.611   4.417   5.530
 5415SOL     OW17143   2.378   1.359   6.794
 5415SOL    HW117144   2.426   1.331   6.711
 5415SOL    HW217145   2.397   1.456   6.812
 5416SOL     OW17146   3.418   5.802   6.879
 5416SOL    HW117147   3.510   5.763   6.875
 5416SOL    HW217148   3.391   5.811   6.975
 5417SOL     OW17149   5.518   0.276   3.324
 5417SOL    HW117150   5.439   0.246   3.377
 5417SOL    HW217151   5.519   0.375   3.319
 5418SOL     OW17152   7.011   3.748   6.131
 5418SOL    HW117153   7.018   3.783   6.038
 5418SOL    HW217154   0.041   3.806   6.193
 5419SOL     OW17155   3.951   1.978   6.597
 5419SOL    HW117156   3.860   1.993   6.558
 5419SOL    HW217157   3.985   1.889   6.568
 5420SOL     OW17158   1.177   2.154   1.888
 5420SOL    HW117159   1.099   2.157   1.825
 5420SOL    HW217160   1.171   2.072   1.944
 5421SOL     OW17161   3.655   5.588   1.919
 5421SOL    HW117162   3.734   5.567   1.976
 5421SOL    HW217163   3.685   5.627   1.832
 5422SOL     OW17164   2.505   5.394   3.782
 5422SOL    HW117165   2.418   5.401   3.832
 5422SOL    HW217166   2.539   5.300   3.786
 5423SOL     OW17167   5.040   6.873   1.421
 5423SOL    HW117168   5.016   6.947   1.359
 5423SOL    HW217169   5.052   6.788   1.369
 5424SOL     OW17170   4.287   3.813   5.411
 5424SOL    HW117171   4.383   3.820   5.384
 5424SOL    HW217172   4.279   3.820   5.511
 5425SOL     OW17173   1.263   5.066   6.210
 5425SOL    HW117174   1.311   4.979   6.219
 5425SOL    HW217175   1.184   5.055   6.149
 5426SOL     OW17176   6.717   4.544   1.477
 5426SOL    HW117177   6.768   4.543   1.563
 5426SOL    HW217178   6.621   4.524   1.496
 5427SOL     OW17179   4.704   2.947   0.339
 5427SOL    HW117180   4.803   2.954   0.335
 5427SOL    HW217181   4.671   2.992   0.423
 5428SOL     OW17182   4.827   5.138   3.311
 5428SOL    HW117183   4.897   5.167   3.246
 5428SOL    HW217184   4.768   5.215   3.334
 5429SOL     OW17185   2.928   0.088   4.284
 5429SOL    HW117186   3.021   0.092   4.249
 5429SOL    HW217187   2.876   0.020   4.231
 5430SOL     OW17188   1.889   3.623   5.796
 5430SOL    HW117189   1.983   3.592   5.779
 5430SOL    HW217190   1.890   3.722   5.815
 5431SOL     OW17191   4.566   4.609   0.081
 5431SOL    HW117192   4.565   4.575   7.010
 5431SOL    HW217193   4.521   4.698   0.084
 5432SOL     OW17194   0.131   5.596   6.453
 5432SOL    HW117195   0.158   5.613   6.548
 5432SOL    HW217196   0.196   5.533   6.411
 5433SOL     OW17197   3.654   0.213   0.967
 5433SOL    HW117198   3.731   0.154   0.994
 5433SOL    HW217199   3.570   0.159   0.964
 5434SOL     OW17200   4.958   6.791   4.128
 5434SOL    HW117201   4.984   6.876   4.081
 5434SOL    HW217202   4.925   6.813   4.219
 5435SOL     OW17203   0.158   5.130   6.748
 5435SOL    HW117204   0.063   5.149   6.770
 5435SOL    HW217205   0.217   5.161   6.824
 5436SOL     OW17206   2.034   4.745   2.195
 5436SOL    HW117207   1.951   4.801   2.191
 5436SOL    HW217208   2.115   4.804   2.197
 5437SOL     OW17209   3.510   6.491   1.065
 5437SOL    HW117210   3.411   6.480   1.064
 5437SOL    HW217211   3.542   6.514   0.973
 5438SOL     OW17212   3.780   6.400   1.945
 5438SOL    HW117213   3.735   6.313   1.926
 5438SOL    HW217214   3.789   6.412   2.044
 5439SOL     OW17215   1.431   4.144   0.781
 5439SOL    HW117216   1.402   4.187   0.866
 5439SOL    HW217217   1.413   4.046   0.785
 5440SOL     OW17218   5.735   6.869   3.624
 5440SOL    HW117219   5.687   6.828   3.547
 5440SOL    HW217220   5.734   6.805   3.701
 5441SOL     OW17221   5.696   2.060   4.644
 5441SOL    HW117222   5.631   2.001   4.690
 5441SOL    HW217223   5.744   2.009   4.573
 5442SOL     OW17224   2.883   0.453   6.681
 5442SOL    HW117225   2.956   0.501   6.730
 5442SOL    HW217226   2.908   0.357   6.670
 5443SOL     OW17227   5.735   1.181   3.154
 5443SOL    HW117228   5.670   1.257   3.151
 5443SOL    HW217229   5.751   1.147   3.062
 5444SOL     OW17230   0.416   1.519   6.352
 5444SOL    HW117231   0.513   1.544   6.347
 5444SOL    HW217232   0.365   1.594   6.393
 5445SOL     OW17233   5.589   6.392   5.345
 5445SOL    HW117234   5.586   6.294   5.328
 5445SOL    HW217235   5.656   6.411   5.417
 5446SOL     OW17236   0.921   4.174   5.483
 5446SOL    HW117237   0.875   4.252   5.524
 5446SOL    HW217238   0.971   4.204   5.402
 5447SOL     OW17239   6.781   1.941   1.699
 5447SOL    HW117240   6.872   1.967   1.666
 5447SOL    HW217241   6.756   2.000   1.776
 5448SOL     OW17242   5.755   5.356   2.223
 5448SOL    HW117243   5.694   5.396   2.154
 5448SOL    HW217244   5.734   5.259   2.233
 5449SOL     OW17245   1.947   0.946   1.688
 5449SOL    HW117246   2.023   0.882   1.696
 5449SOL    HW217247   1.982   1.039   1.677
 5450SOL     OW17248   4.690   5.751   2.146
 5450SOL    HW117249   4.771   5.784   2.193
 5450SOL    HW217250   4.625   5.826   2.134
 5451SOL     OW17251   6.491   6.854   3.441
 5451SOL    HW117252   6.507   6.844   3.539
 5451SOL    HW217253   6.392   6.856   3.424
 5452SOL     OW17254   2.366   4.331   2.853
 5452SOL    HW117255   2.412   4.346   2.765
 5452SOL    HW217256   2.267   4.344   2.840
 5453SOL     OW17257   6.683   4.202   4.155
 5453SOL    HW117258   6.646   4.191   4.246
 5453SOL    HW217259   6.696   4.300   4.136
 5454SOL     OW17260   5.836   4.010   2.698
 5454SOL    HW117261   5.887   4.038   2.779
 5454SOL    HW217262   5.742   3.987   2.723
 5455SOL     OW17263   2.921   1.890   3.611
 5455SOL    HW117264   2.881   1.872   3.522
 5455SOL    HW217265   2.881   1.828   3.679
 5456SOL     OW17266   5.900   2.320   0.161
 5456SOL    HW117267   5.905   2.223   0.186
 5456SOL    HW217268   5.805   2.350   0.161
 5457SOL     OW17269   6.422   1.291   7.002
 5457SOL    HW117270   6.504   1.313   6.948
 5457SOL    HW217271   6.362   1.370   7.004
 5458SOL     OW17272   4.924   4.377   6.575
 5458SOL    HW117273   4.948   4.471   6.550
 5458SOL    HW217274   4.963   4.314   6.508
 5459SOL     OW17275   2.155   2.931   5.181
 5459SOL    HW117276   2.198   2.977   5.258
 5459SOL    HW217277   2.206   2.952   5.097
 5460SOL     OW17278   0.582   0.534   1.473
 5460SOL    HW117279   0.493   0.488   1.463
 5460SOL    HW217280   0.651   0.468   1.501
 5461SOL     OW17281   5.978   1.397   6.048
 5461SOL    HW117282   5.943   1.416   5.956
 5461SOL    HW217283   5.922   1.326   6.090
 5462SOL     OW17284   5.265   5.081   5.674
 5462SOL    HW117285   5.338   5.048   5.615
 5462SOL    HW217286   5.177   5.072   5.627
 5463SOL     OW17287   1.089   4.047   5.732
 5463SOL    HW117288   1.033   4.074   5.654
 5463SOL    HW217289   1.032   4.046   5.815
 5464SOL     OW17290   1.902   5.209   4.636
 5464SOL    HW117291   1.852   5.237   4.717
 5464SOL    HW217292   1.856   5.131   4.593
 5465SOL     OW17293   0.906   0.239   5.175
 5465SOL    HW117294   0.893   0.191   5.088
 5465SOL    HW217295   0.976   0.310   5.163
 5466SOL     OW17296   5.549   1.519   4.853
 5466SOL    HW117297   5.454   1.551   4.850
 5466SOL    HW217298   5.559   1.438   4.795
 5467SOL     OW17299   4.868   3.144   4.532
 5467SOL    HW117300   4.874   3.160   4.630
 5467SOL    HW217301   4.960   3.140   4.493
 5468SOL     OW17302   6.722   2.394   1.406
 5468SOL    HW117303   6.674   2.357   1.327
 5468SOL    HW217304   6.699   2.340   1.487
 5469SOL     OW17305   3.376   1.205   4.638
 5469SOL    HW117306   3.461   1.154   4.627
 5469SOL    HW217307   3.362   1.265   4.560
 5470SOL     OW17308   4.514   5.467   4.284
 5470SOL    HW117309   4.585   5.459   4.353
 5470SOL    HW217310   4.446   5.535   4.314
 5471SOL     OW17311   4.990   0.433   2.514
 5471SOL    HW117312   4.952   0.425   2.606
 5471SOL    HW217313   5.011   0.528   2.495
 5472SOL     OW17314   2.651   3.457   0.452
 5472SOL    HW117315   2.722   3.487   0.515
 5472SOL    HW217316   2.562   3.490   0.484
 5473SOL     OW17317   3.107   4.974   1.994
 5473SOL    HW117318   3.183   4.935   2.046
 5473SOL    HW217319   3.057   4.901   1.948
 5474SOL     OW17320   1.492   4.805   1.947
 5474SOL    HW117321   1.590   4.783   1.947
 5474SOL    HW217322   1.480   4.904   1.948
 5475SOL     OW17323   1.098   1.009   4.978
 5475SOL    HW117324   1.066   1.100   4.951
 5475SOL    HW217325   1.108   1.006   5.078
 5476SOL     OW17326   1.987   6.745   5.178
 5476SOL    HW117327   1.894   6.716   5.156
 5476SOL    HW217328   2.031   6.780   5.095
 5477SOL     OW17329   2.085   3.434   3.730
 5477SOL    HW117330   2.044   3.397   3.647
 5477SOL    HW217331   2.107   3.531   3.716
 5478SOL     OW17332   5.349   4.751   5.905
 5478SOL    HW117333   5.289   4.719   5.978
 5478SOL    HW217334   5.436   4.702   5.909
 5479SOL     OW17335   5.119   2.369   4.439
 5479SOL    HW117336   5.162   2.454   4.406
 5479SOL    HW217337   5.183   2.293   4.429
 5480SOL     OW17338   1.413   3.230   4.394
 5480SOL    HW117339   1.342   3.231   4.465
 5480SOL    HW217340   1.418   3.139   4.353
 5481SOL     OW17341   3.882   1.657   6.544
 5481SOL    HW117342   3.783   1.668   6.540
 5481SOL    HW217343   3.925   1.710   6.471
 5482SOL     OW17344   5.504   3.360   1.962
 5482SOL    HW117345   5.411   3.390   1.982
 5482SOL    HW217346   5.569   3.415   2.015
 5483SOL     OW17347   6.946   2.951   7.003
 5483SOL    HW117348   6.904   3.029   0.025
 5483SOL    HW217349   6.878   2.880   6.987
 5484SOL     OW17350   6.420   6.827   5.221
 5484SOL    HW117351   6.393   6.923   5.228
 5484SOL    HW217352   6.428   6.801   5.124
 5485SOL     OW17353   3.769   0.009   4.667
 5485SOL    HW117354   3.820   0.093   4.649
 5485SOL    HW217355   3.768   6.975   4.585
 5486SOL     OW17356   0.903   1.007   3.876
 5486SOL    HW117357   0.829   1.056   3.829
 5486SOL    HW217358   0.985   1.008   3.818
 5487SOL     OW17359   4.588   5.183   0.586
 5487SOL    HW117360   4.597   5.084   0.584
 5487SOL    HW217361   4.492   5.208   0.572
 5488SOL     OW17362   5.097   0.951   5.947
 5488SOL    HW117363   5.057   0.870   5.991
 5488SOL    HW217364   5.076   0.949   5.849
 5489SOL     OW17365   6.731   4.320   3.183
 5489SOL    HW117366   6.680   4.291   3.102
 5489SOL    HW217367   6.701   4.266   3.262
 5490SOL     OW17368   2.225   2.472   6.682
 5490SOL    HW117369   2.317   2.465   6.720
 5490SOL    HW217370   2.228   2.468   6.583
 5491SOL     OW17371   0.290   5.938   1.477
 5491SOL    HW117372   0.347   6.017   1.495
 5491SOL    HW217373   0.252   5.944   1.384
 5492SOL     OW17374   1.741   1.111   4.877
 5492SOL    HW117375   1.654   1.100   4.828
 5492SOL    HW217376   1.768   1.208   4.876
 5493SOL     OW17377   3.262   2.889   0.204
 5493SOL    HW117378   3.185   2.951   0.186
 5493SOL    HW217379   3.298   2.906   0.296
 5494SOL     OW17380   6.255   3.034   2.056
 5494SOL    HW117381   6.251   2.954   2.117
 5494SOL    HW217382   6.328   3.095   2.086
 5495SOL     OW17383   3.192   2.961   3.068
 5495SOL    HW117384   3.279   2.946   3.022
 5495SOL    HW217385   3.136   2.878   3.062
 5496SOL     OW17386   3.655   5.082   1.389
 5496SOL    HW117387   3.562   5.112   1.366
 5496SOL    HW217388   3.712   5.162   1.407
 5497SOL     OW17389   6.188   0.024   1.771
 5497SOL    HW117390   6.255   0.053   1.704
 5497SOL    HW217391   6.232   6.985   1.836
 5498SOL     OW17392   4.445   0.075   5.128
 5498SOL    HW117393   4.429   0.094   5.031
 5498SOL    HW217394   4.492   0.153   5.170
 5499SOL     OW17395   0.072   1.276   4.987
 5499SOL    HW117396   0.168   1.287   5.013
 5499SOL    HW217397   0.013   1.301   5.063
 5500SOL     OW17398   2.389   5.557   1.098
 5500SOL    HW117399   2.487   5.576   1.105
 5500SOL    HW217400   2.376   5.461   1.073
 5501SOL     OW17401   2.120   0.298   3.108
 5501SOL    HW117402   2.119   0.393   3.076
 5501SOL    HW217403   2.149   0.238   3.033
 5502SOL     OW17404   4.534   3.626   0.426
 5502SOL    HW117405   4.606   3.559   0.445
 5502SOL    HW217406   4.466   3.584   0.366
 5503SOL     OW17407   0.738   6.375   4.266
 5503SOL    HW117408   0.776   6.303   4.208
 5503SOL    HW217409   0.679   6.333   4.336
 5504SOL     OW17410   3.475   2.139   4.343
 5504SOL    HW117411   3.573   2.117   4.341
 5504SOL    HW217412   3.437   2.131   4.250
 5505SOL     OW17413   3.315   4.601   6.188
 5505SOL    HW117414   3.317   4.677   6.254
 5505SOL    HW217415   3.232   4.548   6.201
 5506SOL     OW17416   0.377   7.022   5.560
 5506SOL    HW117417   0.283   0.018   5.590
 5506SOL    HW217418   0.391   6.923   5.559
 5507SOL     OW17419   3.534   6.068   4.296
 5507SOL    HW117420   3.604   6.072   4.225
 5507SOL    HW217421   3.443   6.073   4.254
 5508SOL     OW17422   2.848   0.392   5.977
 5508SOL    HW117423   2.785   0.341   5.919
 5508SOL    HW217424   2.798   0.462   6.028
 5509SOL     OW17425   6.287   6.331   0.014
 5509SOL    HW117426   6.202   6.296   0.055
 5509SOL    HW217427   6.330   6.396   0.077
 5510SOL     OW17428   5.901   0.219   6.352
 5510SOL    HW117429   5.997   0.236   6.371
 5510SOL    HW217430   5.892   0.157   6.274
 5511SOL     OW17431   0.243   1.623   1.891
 5511SOL    HW117432   0.270   1.695   1.955
 5511SOL    HW217433   0.147   1.599   1.906
 5512SOL     OW17434   0.635   0.199   0.936
 5512SOL    HW117435   0.592   0.200   1.027
 5512SOL    HW217436   0.636   0.291   0.899
 5513SOL     OW17437   3.665   5.251   4.784
 5513SOL    HW117438   3.576   5.221   4.820
 5513SOL    HW217439   3.738   5.219   4.845
 5514SOL     OW17440   6.282   5.608   3.581
 5514SOL    HW117441   6.206   5.671   3.562
 5514SOL    HW217442   6.245   5.518   3.607
 5515SOL     OW17443   6.570   2.792   2.565
 5515SOL    HW117444   6.632   2.833   2.633
 5515SOL    HW217445   6.583   2.838   2.477
 5516SOL     OW17446   1.560   3.604   6.063
 5516SOL    HW117447   1.584   3.535   5.994
 5516SOL    HW217448   1.475   3.578   6.108
 5517SOL     OW17449   1.984   1.405   1.807
 5517SOL    HW117450   2.020   1.386   1.898
 5517SOL    HW217451   1.893   1.447   1.815
 5518SOL     OW17452   5.461   5.193   5.107
 5518SOL    HW117453   5.553   5.185   5.144
 5518SOL    HW217454   5.458   5.152   5.015
 5519SOL     OW17455   5.443   3.712   3.259
 5519SOL    HW117456   5.396   3.661   3.331
 5519SOL    HW217457   5.375   3.763   3.205
 5520SOL     OW17458   1.732   3.108   1.225
 5520SOL    HW117459   1.826   3.115   1.191
 5520SOL    HW217460   1.669   3.136   1.153
 5521SOL     OW17461   4.610   5.709   1.624
 5521SOL    HW117462   4.597   5.702   1.525
 5521SOL    HW217463   4.670   5.635   1.655
 5522SOL     OW17464   2.109   3.326   2.356
 5522SOL    HW117465   2.109   3.240   2.407
 5522SOL    HW217466   2.183   3.325   2.289
 5523SOL     OW17467   3.384   0.817   1.392
 5523SOL    HW117468   3.471   0.798   1.348
 5523SOL    HW217469   3.362   0.914   1.384
 5524SOL     OW17470   6.553   5.935   6.200
 5524SOL    HW117471   6.624   5.877   6.161
 5524SOL    HW217472   6.468   5.882   6.208
 5525SOL     OW17473   6.564   5.895   4.637
 5525SOL    HW117474   6.607   5.928   4.721
 5525SOL    HW217475   6.622   5.917   4.559
 5526SOL     OW17476   5.449   2.805   4.898
 5526SOL    HW117477   5.525   2.740   4.893
 5526SOL    HW217478   5.396   2.801   4.813
 5527SOL     OW17479   2.514   3.410   0.955
 5527SOL    HW117480   2.594   3.419   0.896
 5527SOL    HW217481   2.507   3.491   1.014
 5528SOL     OW17482   0.045   3.376   2.881
 5528SOL    HW117483   0.088   3.323   2.955
 5528SOL    HW217484   7.013   3.449   2.921
 5529SOL     OW17485   1.961   1.314   5.176
 5529SOL    HW117486   2.049   1.301   5.220
 5529SOL    HW217487   1.944   1.412   5.164
 5530SOL     OW17488   0.619   3.157   0.996
 5530SOL    HW117489   0.713   3.131   1.018
 5530SOL    HW217490   0.566   3.075   0.977
 5531SOL     OW17491   2.212   2.821   5.820
 5531SOL    HW117492   2.221   2.723   5.799
 5531SOL    HW217493   2.179   2.869   5.738
 5532SOL     OW17494   2.496   1.970   0.988
 5532SOL    HW117495   2.536   1.986   1.078
 5532SOL    HW217496   2.546   1.896   0.942
 5533SOL     OW17497   4.067   7.010   0.399
 5533SOL    HW117498   4.114   6.979   0.481
 5533SOL    HW217499   3.991   0.046   0.425
 5534SOL     OW17500   6.788   4.699   5.602
 5534SOL    HW117501   6.723   4.751   5.657
 5534SOL    HW217502   6.749   4.680   5.512
 5535SOL     OW17503   5.821   3.684   3.467
 5535SOL    HW117504   5.808   3.589   3.440
 5535SOL    HW217505   5.852   3.737   3.388
 5536SOL     OW17506   2.183   0.755   3.598
 5536SOL    HW117507   2.152   0.708   3.681
 5536SOL    HW217508   2.141   0.846   3.594
 5537SOL     OW17509   4.430   1.264   4.783
 5537SOL    HW117510   4.363   1.235   4.851
 5537SOL    HW217511   4.412   1.358   4.756
 5538SOL     OW17512   5.680   2.162   1.299
 5538SOL    HW117513   5.597   2.190   1.347
 5538SOL    HW217514   5.656   2.116   1.214
 5539SOL     OW17515   3.115   6.429   0.198
 5539SOL    HW117516   3.212   6.451   0.191
 5539SOL    HW217517   3.061   6.506   0.163
 5540SOL     OW17518   5.190   0.415   6.843
 5540SOL    HW117519   5.260   0.485   6.850
 5540SOL    HW217520   5.135   0.413   6.927
 5541SOL     OW17521   4.491   3.793   6.410
 5541SOL    HW117522   4.409   3.753   6.369
 5541SOL    HW217523   4.557   3.721   6.430
 5542SOL     OW17524   4.489   5.104   0.169
 5542SOL    HW117525   4.418   5.036   0.148
 5542SOL    HW217526   4.446   5.192   0.188
 5543SOL     OW17527   2.043   0.246   0.405
 5543SOL    HW117528   2.065   0.343   0.416
 5543SOL    HW217529   2.123   0.191   0.429
 5544SOL     OW17530   3.790   5.732   6.448
 5544SOL    HW117531   3.753   5.710   6.358
 5544SOL    HW217532   3.889   5.723   6.448
 5545SOL     OW17533   4.585   0.582   2.978
 5545SOL    HW117534   4.643   0.593   3.059
 5545SOL    HW217535   4.528   0.663   2.967
 5546SOL     OW17536   0.356   4.991   4.555
 5546SOL    HW117537   0.267   4.946   4.551
 5546SOL    HW217538   0.346   5.087   4.529
 5547SOL     OW17539   5.256   1.494   4.799
 5547SOL    HW117540   5.253   1.492   4.899
 5547SOL    HW217541   5.167   1.524   4.763
 5548SOL     OW17542   0.224   4.111   4.526
 5548SOL    HW117543   0.144   4.139   4.579
 5548SOL    HW217544   0.300   4.090   4.589
 5549SOL     OW17545   4.238   2.978   0.621
 5549SOL    HW117546   4.142   2.954   0.632
 5549SOL    HW217547   4.294   2.920   0.681
 5550SOL     OW17548   1.955   4.340   1.773
 5550SOL    HW117549   1.882   4.406   1.754
 5550SOL    HW217550   1.914   4.250   1.790
 5551SOL     OW17551   1.801   5.477   3.613
 5551SOL    HW117552   1.834   5.558   3.565
 5551SOL    HW217553   1.811   5.397   3.554
 5552SOL     OW17554   0.317   6.629   6.922
 5552SOL    HW117555   0.411   6.616   6.889
 5552SOL    HW217556   0.255   6.573   6.867
 5553SOL     OW17557   5.012   0.105   0.002
 5553SOL    HW117558   4.926   0.141   6.990
 5553SOL    HW217559   5.068   0.070   6.950
 5554SOL     OW17560   5.927   2.282   1.612
 5554SOL    HW117561   5.846   2.228   1.637
 5554SOL    HW217562   5.960   2.252   1.522
 5555SOL     OW17563   1.658   5.107   2.378
 5555SOL    HW117564   1.682   5.017   2.342
 5555SOL    HW217565   1.630   5.098   2.474
 5556SOL     OW17566   0.327   1.021   4.507
 5556SOL    HW117567   0.326   0.972   4.420
 5556SOL    HW217568   0.422   1.038   4.534
 5557SOL     OW17569   3.136   5.899   2.758
 5557SOL    HW117570   3.106   5.881   2.851
 5557SOL    HW217571   3.184   5.987   2.755
 5558SOL     OW17572   4.205   4.471   6.962
 5558SOL    HW117573   4.135   4.492   6.894
 5558SOL    HW217574   4.249   4.384   6.940
 5559SOL     OW17575   2.308   0.823   2.789
 5559SOL    HW117576   2.244   0.883   2.837
 5559SOL    HW217577   2.293   0.830   2.691
 5560SOL     OW17578   0.686   6.453   3.090
 5560SOL    HW117579   0.650   6.455   2.997
 5560SOL    HW217580   0.712   6.545   3.118
 5561SOL     OW17581   3.665   6.835   3.350
 5561SOL    HW117582   3.693   6.752   3.302
 5561SOL    HW217583   3.600   6.886   3.294
 5562SOL     OW17584   3.886   4.386   0.744
 5562SOL    HW117585   3.864   4.303   0.795
 5562SOL    HW217586   3.983   4.405   0.752
 5563SOL     OW17587   2.530   4.700   2.775
 5563SOL    HW117588   2.481   4.661   2.697
 5563SOL    HW217589   2.527   4.635   2.852
 5564SOL     OW17590   5.157   0.425   5.994
 5564SOL    HW117591   5.185   0.503   6.050
 5564SOL    HW217592   5.217   0.347   6.013
 5565SOL     OW17593   3.387   2.374   6.399
 5565SOL    HW117594   3.413   2.317   6.478
 5565SOL    HW217595   3.320   2.442   6.428
 5566SOL     OW17596   1.506   3.490   6.597
 5566SOL    HW117597   1.501   3.396   6.564
 5566SOL    HW217598   1.413   3.526   6.608
 5567SOL     OW17599   0.103   4.491   1.371
 5567SOL    HW117600   0.096   4.391   1.380
 5567SOL    HW217601   0.165   4.513   1.296
 5568SOL     OW17602   4.441   5.473   1.373
 5568SOL    HW117603   4.443   5.385   1.421
 5568SOL    HW217604   4.382   5.536   1.422
 5569SOL     OW17605   2.168   2.793   3.777
 5569SOL    HW117606   2.080   2.766   3.816
 5569SOL    HW217607   2.154   2.871   3.715
 5570SOL     OW17608   0.557   3.897   2.835
 5570SOL    HW117609   0.597   3.926   2.922
 5570SOL    HW217610   0.476   3.841   2.852
 5571SOL     OW17611   6.168   4.871   1.843
 5571SOL    HW117612   6.089   4.926   1.868
 5571SOL    HW217613   6.140   4.797   1.782
 5572SOL     OW17614   1.720   4.109   5.083
 5572SOL    HW117615   1.795   4.145   5.027
 5572SOL    HW217616   1.742   4.016   5.111
 5573SOL     OW17617   2.747   5.203   3.434
 5573SOL    HW117618   2.773   5.108   3.450
 5573SOL    HW217619   2.665   5.207   3.378
 5574SOL     OW17620   0.778   2.637   6.474
 5574SOL    HW117621   0.869   2.661   6.443
 5574SOL    HW217622   0.713   2.709   6.447
 5575SOL     OW17623   0.262   7.005   1.526
 5575SOL    HW117624   0.178   6.962   1.494
 5575SOL    HW217625   0.271   6.990   1.625
 5576SOL     OW17626   1.783   4.559   3.506
 5576SOL    HW117627   1.693   4.601   3.494
 5576SOL    HW217628   1.837   4.614   3.571
 5577SOL     OW17629   1.819   2.575   5.522
 5577SOL    HW117630   1.787   2.660   5.482
 5577SOL    HW217631   1.759   2.549   5.598
 5578SOL     OW17632   3.804   3.648   3.532
 5578SOL    HW117633   3.830   3.575   3.594
 5578SOL    HW217634   3.768   3.726   3.584
 5579SOL     OW17635   0.235   3.626   1.375
 5579SOL    HW117636   0.217   3.593   1.282
 5579SOL    HW217637   0.235   3.726   1.375
 5580SOL     OW17638   5.093   1.692   5.232
 5580SOL    HW117639   5.079   1.791   5.235
 5580SOL    HW217640   5.078   1.653   5.323
 5581SOL     OW17641   1.295   2.119   6.892
 5581SOL    HW117642   1.203   2.158   6.894
 5581SOL    HW217643   1.352   2.172   6.830
 5582SOL     OW17644   2.636   2.691   6.115
 5582SOL    HW117645   2.650   2.602   6.074
 5582SOL    HW217646   2.556   2.735   6.075
 5583SOL     OW17647   5.607   0.805   2.380
 5583SOL    HW117648   5.583   0.846   2.468
 5583SOL    HW217649   5.535   0.824   2.313
 5584SOL     OW17650   1.037   3.338   4.685
 5584SOL    HW117651   1.008   3.427   4.651
 5584SOL    HW217652   0.961   3.274   4.680
 5585SOL     OW17653   4.495   4.972   2.235
 5585SOL    HW117654   4.405   4.993   2.274
 5585SOL    HW217655   4.559   5.045   2.258
 5586SOL     OW17656   6.543   3.224   6.967
 5586SOL    HW117657   6.452   3.266   6.966
 5586SOL    HW217658   6.602   3.271   6.901
 5587SOL     OW17659   6.023   1.000   6.154
 5587SOL    HW117660   6.084   0.989   6.076
 5587SOL    HW217661   6.078   1.007   6.238
 5588SOL     OW17662   3.323   6.931   1.564
 5588SOL    HW117663   3.328   7.023   1.602
 5588SOL    HW217664   3.406   6.911   1.513
 5589SOL     OW17665   5.817   4.737   6.002
 5589SOL    HW117666   5.765   4.710   6.083
 5589SOL    HW217667   5.897   4.790   6.030
 5590SOL     OW17668   5.635   5.789   4.067
 5590SOL    HW117669   5.720   5.781   4.119
 5590SOL    HW217670   5.596   5.880   4.081
 5591SOL     OW17671   5.899   1.331   1.342
 5591SOL    HW117672   5.962   1.258   1.368
 5591SOL    HW217673   5.884   1.328   1.243
 5592SOL     OW17674   0.607   3.991   3.093
 5592SOL    HW117675   0.674   3.917   3.105
 5592SOL    HW217676   0.655   4.079   3.095
 5593SOL     OW17677   0.065   3.086   0.362
 5593SOL    HW117678   0.048   3.125   0.453
 5593SOL    HW217679   0.064   2.986   0.368
 5594SOL     OW17680   5.653   2.477   5.598
 5594SOL    HW117681   5.566   2.430   5.610
 5594SOL    HW217682   5.686   2.509   5.687
 5595SOL     OW17683   0.710   2.461   5.575
 5595SOL    HW117684   0.648   2.400   5.624
 5595SOL    HW217685   0.754   2.411   5.501
 5596SOL     OW17686   3.984   6.741   3.099
 5596SOL    HW117687   3.887   6.716   3.106
 5596SOL    HW217688   4.028   6.725   3.188
 5597SOL     OW17689   5.577   3.357   3.100
 5597SOL    HW117690   5.547   3.265   3.124
 5597SOL    HW217691   5.578   3.366   3.000
 5598SOL     OW17692   5.603   2.162   5.420
 5598SOL    HW117693   5.621   2.072   5.379
 5598SOL    HW217694   5.541   2.214   5.361
 5599SOL     OW17695   0.491   1.521   3.916
 5599SOL    HW117696   0.411   1.574   3.945
 5599SOL    HW217697   0.493   1.434   3.965
 5600SOL     OW17698   1.456   2.414   3.864
 5600SOL    HW117699   1.383   2.375   3.808
 5600SOL    HW217700   1.543   2.371   3.839
 5601SOL     OW17701   2.799   0.867   5.426
 5601SOL    HW117702   2.746   0.784   5.444
 5601SOL    HW217703   2.751   0.946   5.465
 5602SOL     OW17704   1.282   2.012   0.774
 5602SOL    HW117705   1.196   1.963   0.759
 5602SOL    HW217706   1.271   2.076   0.850
 5603SOL     OW17707   6.288   2.686   6.604
 5603SOL    HW117708   6.303   2.727   6.514
 5603SOL    HW217709   6.221   2.612   6.596
 5604SOL     OW17710   6.454   1.843   6.060
 5604SOL    HW117711   6.382   1.827   5.992
 5604SOL    HW217712   6.449   1.937   6.092
 5605SOL     OW17713   0.327   2.385   5.150
 5605SOL    HW117714   0.276   2.417   5.070
 5605SOL    HW217715   0.422   2.366   5.125
 5606SOL     OW17716   4.747   0.096   1.971
 5606SOL    HW117717   4.846   0.104   1.954
 5606SOL    HW217718   4.718   0.170   2.031
 5607SOL     OW17719   5.821   1.014   1.770
 5607SOL    HW117720   5.893   1.082   1.754
 5607SOL    HW217721   5.766   1.042   1.849
 5608SOL     OW17722   3.896   6.666   5.177
 5608SOL    HW117723   3.948   6.635   5.258
 5608SOL    HW217724   3.950   6.733   5.127
 5609SOL     OW17725   2.633   6.037   6.003
 5609SOL    HW117726   2.647   6.054   6.100
 5609SOL    HW217727   2.539   6.004   5.988
 5610SOL     OW17728   4.913   0.562   6.835
 5610SOL    HW117729   4.994   0.532   6.785
 5610SOL    HW217730   4.857   0.619   6.776
 5611SOL     OW17731   1.665   5.209   3.341
 5611SOL    HW117732   1.608   5.139   3.385
 5611SOL    HW217733   1.610   5.291   3.324
 5612SOL     OW17734   2.503   6.980   5.426
 5612SOL    HW117735   2.405   6.962   5.436
 5612SOL    HW217736   2.549   6.897   5.395
 5613SOL     OW17737   4.004   4.780   1.917
 5613SOL    HW117738   4.095   4.813   1.893
 5613SOL    HW217739   3.992   4.784   2.016
 5614SOL     OW17740   4.508   2.037   2.964
 5614SOL    HW117741   4.429   1.976   2.978
 5614SOL    HW217742   4.591   1.982   2.955
 5615SOL     OW17743   1.457   1.351   1.407
 5615SOL    HW117744   1.381   1.356   1.342
 5615SOL    HW217745   1.522   1.282   1.377
 5616SOL     OW17746   2.316   0.890   4.435
 5616SOL    HW117747   2.383   0.964   4.448
 5616SOL    HW217748   2.317   0.829   4.514
 5617SOL     OW17749   1.908   0.780   4.906
 5617SOL    HW117750   1.894   0.806   4.810
 5617SOL    HW217751   1.951   0.855   4.955
 5618SOL     OW17752   6.998   4.325   3.051
 5618SOL    HW117753   6.928   4.315   3.122
 5618SOL    HW217754   7.017   4.422   3.036
 5619SOL     OW17755   2.293   3.537   5.316
 5619SOL    HW117756   2.260   3.443   5.310
 5619SOL    HW217757   2.218   3.600   5.293
 5620SOL     OW17758   3.623   2.084   6.042
 5620SOL    HW117759   3.573   2.043   5.966
 5620SOL    HW217760   3.560   2.133   6.102
 5621SOL     OW17761   2.307   2.595   5.304
 5621SOL    HW117762   2.404   2.596   5.326
 5621SOL    HW217763   2.263   2.518   5.350
 5622SOL     OW17764   6.189   0.340   6.082
 5622SOL    HW117765   6.265   0.276   6.093
 5622SOL    HW217766   6.195   0.384   5.992
 5623SOL     OW17767   0.949   6.050   0.363
 5623SOL    HW117768   1.020   6.063   0.294
 5623SOL    HW217769   0.992   6.033   0.452
 5624SOL     OW17770   0.802   4.155   3.485
 5624SOL    HW117771   0.840   4.087   3.422
 5624SOL    HW217772   0.708   4.176   3.459
 5625SOL     OW17773   6.574   2.640   5.096
 5625SOL    HW117774   6.503   2.592   5.148
 5625SOL    HW217775   6.613   2.579   5.027
 5626SOL     OW17776   4.034   0.169   4.674
 5626SOL    HW117777   4.099   0.130   4.608
 5626SOL    HW217778   4.082   0.191   4.759
 5627SOL     OW17779   1.386   6.185   0.938
 5627SOL    HW117780   1.297   6.222   0.913
 5627SOL    HW217781   1.388   6.087   0.918
 5628SOL     OW17782   1.942   1.372   4.518
 5628SOL    HW117783   1.843   1.382   4.529
 5628SOL    HW217784   1.966   1.382   4.422
 5629SOL     OW17785   3.518   3.695   2.651
 5629SOL    HW117786   3.469   3.781   2.636
 5629SOL    HW217787   3.523   3.645   2.564
 5630SOL     OW17788   0.715   4.457   1.653
 5630SOL    HW117789   0.790   4.475   1.589
 5630SOL    HW217790   0.682   4.364   1.640
 5631SOL     OW17791   4.721   0.617   0.128
 5631SOL    HW117792   4.728   0.699   0.185
 5631SOL    HW217793   4.765   0.634   0.040
 5632SOL     OW17794   3.977   3.888   0.124
 5632SOL    HW117795   3.985   3.987   0.125
 5632SOL    HW217796   3.984   3.853   0.217
 5633SOL     OW17797   6.219   2.457   4.575
 5633SOL    HW117798   6.256   2.400   4.502
 5633SOL    HW217799   6.119   2.452   4.574
 5634SOL     OW17800   4.001   5.830   4.522
 5634SOL    HW117801   3.906   5.840   4.492
 5634SOL    HW217802   4.049   5.767   4.461
 5635SOL     OW17803   3.278   2.155   4.807
 5635SOL    HW117804   3.227   2.069   4.800
 5635SOL    HW217805   3.229   2.218   4.866
 5636SOL     OW17806   3.760   5.529   3.696
 5636SOL    HW117807   3.709   5.608   3.662
 5636SOL    HW217808   3.723   5.502   3.785
 5637SOL     OW17809   5.526   0.575   3.568
 5637SOL    HW117810   5.567   0.507   3.630
 5637SOL    HW217811   5.445   0.614   3.611
 5638SOL     OW17812   5.577   3.190   6.105
 5638SOL    HW117813   5.625   3.277   6.096
 5638SOL    HW217814   5.628   3.130   6.167
 5639SOL     OW17815   2.764   1.357   5.951
 5639SOL    HW117816   2.664   1.361   5.949
 5639SOL    HW217817   2.795   1.263   5.938
 5640SOL     OW17818   2.333   0.232   3.408
 5640SOL    HW117819   2.291   0.300   3.468
 5640SOL    HW217820   2.298   0.142   3.430
 5641SOL     OW17821   6.071   5.475   5.279
 5641SOL    HW117822   6.095   5.543   5.211
 5641SOL    HW217823   6.048   5.389   5.234
 5642SOL     OW17824   1.388   1.718   6.447
 5642SOL    HW117825   1.338   1.799   6.477
 5642SOL    HW217826   1.376   1.644   6.513
 5643SOL     OW17827   5.695   2.753   4.719
 5643SOL    HW117828   5.633   2.701   4.659
 5643SOL    HW217829   5.702   2.706   4.807
 5644SOL     OW17830   3.511   0.238   6.299
 5644SOL    HW117831   3.553   0.299   6.366
 5644SOL    HW217832   3.496   0.288   6.214
 5645SOL     OW17833   5.350   2.426   4.688
 5645SOL    HW117834   5.321   2.331   4.690
 5645SOL    HW217835   5.272   2.486   4.706
 5646SOL     OW17836   1.853   4.602   2.604
 5646SOL    HW117837   1.855   4.520   2.661
 5646SOL    HW217838   1.897   4.677   2.653
 5647SOL     OW17839   6.745   5.799   2.459
 5647SOL    HW117840   6.745   5.881   2.403
 5647SOL    HW217841   6.782   5.722   2.407
 5648SOL     OW17842   4.441   6.730   3.185
 5648SOL    HW117843   4.369   6.709   3.250
 5648SOL    HW217844   4.404   6.788   3.112
 5649SOL     OW17845   1.052   6.387   3.820
 5649SOL    HW117846   1.051   6.484   3.793
 5649SOL    HW217847   1.053   6.380   3.919
 5650SOL     OW17848   6.535   4.644   0.018
 5650SOL    HW117849   6.633   4.634   7.023
 5650SOL    HW217850   6.484   4.577   6.988
 5651SOL     OW17851   1.955   0.896   2.010
 5651SOL    HW117852   2.033   0.852   1.963
 5651SOL    HW217853   1.902   0.826   2.057
 5652SOL     OW17854   1.195   5.694   1.625
 5652SOL    HW117855   1.294   5.692   1.639
 5652SOL    HW217856   1.162   5.788   1.636
 5653SOL     OW17857   6.953   6.731   1.024
 5653SOL    HW117858   6.872   6.690   0.983
 5653SOL    HW217859   0.009   6.714   0.966
 5654SOL     OW17860   3.300   5.389   4.328
 5654SOL    HW117861   3.208   5.403   4.292
 5654SOL    HW217862   3.344   5.477   4.343
 5655SOL     OW17863   6.134   2.945   4.731
 5655SOL    HW117864   6.193   3.001   4.790
 5655SOL    HW217865   6.042   2.985   4.730
 5656SOL     OW17866   0.149   3.320   0.185
 5656SOL    HW117867   0.116   3.260   0.259
 5656SOL    HW217868   0.216   3.272   0.129
 5657SOL     OW17869   4.718   5.761   5.637
 5657SOL    HW117870   4.817   5.763   5.618
 5657SOL    HW217871   4.699   5.812   5.721
 5658SOL     OW17872   2.596   2.908   5.873
 5658SOL    HW117873   2.521   2.845   5.850
 5658SOL    HW217874   2.557   2.997   5.898
 5659SOL     OW17875   3.929   4.114   6.540
 5659SOL    HW117876   3.833   4.132   6.519
 5659SOL    HW217877   3.940   4.107   6.640
 5660SOL     OW17878   4.470   0.861   6.085
 5660SOL    HW117879   4.523   0.919   6.148
 5660SOL    HW217880   4.398   0.915   6.042
 5661SOL     OW17881   1.077   5.115   5.209
 5661SOL    HW117882   1.149   5.109   5.278
 5661SOL    HW217883   1.066   5.026   5.164
 5662SOL     OW17884   2.713   6.473   2.509
 5662SOL    HW117885   2.647   6.439   2.577
 5662SOL    HW217886   2.668   6.481   2.421
 5663SOL     OW17887   1.402   3.077   6.190
 5663SOL    HW117888   1.432   3.104   6.281
 5663SOL    HW217889   1.446   3.136   6.122
 5664SOL     OW17890   4.709   4.691   4.843
 5664SOL    HW117891   4.618   4.657   4.868
 5664SOL    HW217892   4.762   4.706   4.925
 5665SOL     OW17893   1.964   2.348   0.812
 5665SOL    HW117894   1.873   2.308   0.797
 5665SOL    HW217895   2.001   2.312   0.898
 5666SOL     OW17896   5.621   1.465   5.171
 5666SOL    HW117897   5.581   1.441   5.083
 5666SOL    HW217898   5.721   1.459   5.165
 5667SOL     OW17899   2.712   5.312   4.269
 5667SOL    HW117900   2.751   5.335   4.179
 5667SOL    HW217901   2.618   5.279   4.257
 5668SOL     OW17902   5.276   3.208   3.594
 5668SOL    HW117903   5.326   3.144   3.653
 5668SOL    HW217904   5.332   3.234   3.516
 5669SOL     OW17905   6.176   4.443   6.105
 5669SOL    HW117906   6.172   4.520   6.169
 5669SOL    HW217907   6.268   4.403   6.106
 5670SOL     OW17908   0.127   1.745   2.799
 5670SOL    HW117909   0.074   1.830   2.799
 5670SOL    HW217910   0.161   1.728   2.706
 5671SOL     OW17911   6.977   6.391   3.334
 5671SOL    HW117912   6.913   6.423   3.264
 5671SOL    HW217913   6.945   6.420   3.424
 5672SOL     OW17914   4.899   2.842   5.414
 5672SOL    HW117915   4.976   2.831   5.351
 5672SOL    HW217916   4.893   2.937   5.444
 5673SOL     OW17917   0.340   1.025   0.732
 5673SOL    HW117918   0.440   1.026   0.741
 5673SOL    HW217919   0.299   1.062   0.816
 5674SOL     OW17920   2.283   4.879   5.533
 5674SOL    HW117921   2.194   4.885   5.579
 5674SOL    HW217922   2.282   4.805   5.466
 5675SOL     OW17923   2.830   2.174   0.968
 5675SOL    HW117924   2.784   2.140   0.886
 5675SOL    HW217925   2.928   2.153   0.962
 5676SOL     OW17926   2.650   2.033   2.172
 5676SOL    HW117927   2.710   2.038   2.092
 5676SOL    HW217928   2.555   2.042   2.142
 5677SOL     OW17929   6.261   1.062   0.824
 5677SOL    HW117930   6.305   0.979   0.789
 5677SOL    HW217931   6.284   1.073   0.921
 5678SOL     OW17932   3.102   2.066   1.801
 5678SOL    HW117933   3.109   2.136   1.730
 5678SOL    HW217934   3.021   2.083   1.857
 5679SOL     OW17935   6.353   3.490   4.938
 5679SOL    HW117936   6.417   3.543   4.995
 5679SOL    HW217937   6.263   3.489   4.982
 5680SOL     OW17938   1.388   6.002   5.240
 5680SOL    HW117939   1.379   5.926   5.304
 5680SOL    HW217940   1.390   6.088   5.291
 5681SOL     OW17941   1.331   3.483   4.262
 5681SOL    HW117942   1.267   3.466   4.187
 5681SOL    HW217943   1.376   3.397   4.287
 5682SOL     OW17944   1.916   4.429   2.177
 5682SOL    HW117945   1.994   4.446   2.237
 5682SOL    HW217946   1.838   4.485   2.206
 5683SOL     OW17947   6.901   1.349   6.009
 5683SOL    HW117948   6.934   1.393   6.092
 5683SOL    HW217949   6.940   1.257   6.002
 5684SOL     OW17950   1.964   2.308   4.800
 5684SOL    HW117951   1.936   2.215   4.776
 5684SOL    HW217952   2.054   2.327   4.759
 5685SOL     OW17953   2.140   2.300   2.841
 5685SOL    HW117954   2.132   2.231   2.769
 5685SOL    HW217955   2.175   2.257   2.924
 5686SOL     OW17956   4.010   5.440   6.082
 5686SOL    HW117957   3.932   5.494   6.113
 5686SOL    HW217958   3.978   5.367   6.020
 5687SOL     OW17959   2.254   6.752   6.657
 5687SOL    HW117960   2.175   6.745   6.596
 5687SOL    HW217961   2.231   6.712   6.746
 5688SOL     OW17962   2.215   1.833   3.235
 5688SOL    HW117963   2.183   1.823   3.329
 5688SOL    HW217964   2.310   1.801   3.229
 5689SOL     OW17965   0.578   2.808   1.489
 5689SOL    HW117966   0.662   2.855   1.519
 5689SOL    HW217967   0.507   2.822   1.558
 5690SOL     OW17968   1.761   5.047   0.276
 5690SOL    HW117969   1.837   5.074   0.217
 5690SOL    HW217970   1.796   5.001   0.357
 5691SOL     OW17971   3.504   1.331   2.664
 5691SOL    HW117972   3.513   1.387   2.581
 5691SOL    HW217973   3.463   1.243   2.640
 5692SOL     OW17974   4.506   4.906   1.936
 5692SOL    HW117975   4.559   4.830   1.899
 5692SOL    HW217976   4.514   4.908   2.035
 5693SOL     OW17977   4.427   0.828   1.088
 5693SOL    HW117978   4.439   0.879   1.173
 5693SOL    HW217979   4.479   0.743   1.093
 5694SOL     OW17980   0.685   6.068   1.696
 5694SOL    HW117981   0.736   6.150   1.671
 5694SOL    HW217982   0.587   6.090   1.702
 5695SOL     OW17983   2.099   0.443   1.153
 5695SOL    HW117984   2.156   0.515   1.193
 5695SOL    HW217985   2.010   0.442   1.198
 5696SOL     OW17986   1.885   0.531   4.006
 5696SOL    HW117987   1.912   0.609   3.949
 5696SOL    HW217988   1.827   0.469   3.953
 5697SOL     OW17989   6.644   3.304   0.429
 5697SOL    HW117990   6.686   3.213   0.421
 5697SOL    HW217991   6.697   3.370   0.377
 5698SOL     OW17992   2.881   2.311   3.689
 5698SOL    HW117993   2.905   2.360   3.605
 5698SOL    HW217994   2.796   2.260   3.675
 5699SOL     OW17995   1.871   3.200   2.797
 5699SOL    HW117996   1.848   3.148   2.715
 5699SOL    HW217997   1.853   3.144   2.878
 5700SOL     OW17998   6.291   0.209   2.954
 5700SOL    HW117999   6.291   0.111   2.935
 5700SOL    HW218000   6.370   0.252   2.910
 5701SOL     OW18001   0.399   0.894   1.103
 5701SOL    HW118002   0.419   0.878   1.006
 5701SOL    HW218003   0.480   0.932   1.147
 5702SOL     OW18004   2.674   6.566   4.600
 5702SOL    HW118005   2.736   6.638   4.570
 5702SOL    HW218006   2.594   6.564   4.540
 5703SOL     OW18007   6.854   2.900   6.246
 5703SOL    HW118008   6.862   2.929   6.341
 5703SOL    HW218009   6.922   2.829   6.227
 5704SOL     OW18010   4.472   5.076   4.298
 5704SOL    HW118011   4.395   5.076   4.234
 5704SOL    HW218012   4.456   5.146   4.368
 5705SOL     OW18013   6.110   6.923   5.369
 5705SOL    HW118014   6.182   6.958   5.309
 5705SOL    HW218015   6.115   6.823   5.372
 5706SOL     OW18016   5.064   1.947   7.005
 5706SOL    HW118017   5.011   2.017   0.031
 5706SOL    HW218018   5.162   1.965   7.017
 5707SOL     OW18019   5.089   6.061   1.994
 5707SOL    HW118020   5.180   6.070   1.954
 5707SOL    HW218021   5.045   6.151   1.999
 5708SOL     OW18022   4.368   5.780   2.697
 5708SOL    HW118023   4.351   5.689   2.658
 5708SOL    HW218024   4.445   5.775   2.760
 5709SOL     OW18025   0.140   1.820   2.088
 5709SOL    HW118026   0.093   1.733   2.103
 5709SOL    HW218027   0.207   1.835   2.161
 5710SOL     OW18028   3.594   1.740   1.371
 5710SOL    HW118029   3.564   1.818   1.426
 5710SOL    HW218030   3.536   1.661   1.391
 5711SOL     OW18031   5.285   1.904   2.497
 5711SOL    HW118032   5.362   1.919   2.435
 5711SOL    HW218033   5.249   1.811   2.482
 5712SOL     OW18034   5.851   0.280   1.060
 5712SOL    HW118035   5.863   0.372   1.023
 5712SOL    HW218036   5.874   0.213   0.990
 5713SOL     OW18037   2.482   0.387   0.883
 5713SOL    HW118038   2.461   0.470   0.934
 5713SOL    HW218039   2.578   0.387   0.856
 5714SOL     OW18040   6.304   0.016   0.880
 5714SOL    HW118041   6.373   0.068   0.931
 5714SOL    HW218042   6.261   0.075   0.812
 5715SOL     OW18043   0.098   0.363   1.469
 5715SOL    HW118044   0.076   0.442   1.527
 5715SOL    HW218045   0.078   0.279   1.518
 5716SOL     OW18046   6.378   5.031   5.162
 5716SOL    HW118047   6.393   4.939   5.199
 5716SOL    HW218048   6.280   5.047   5.152
 5717SOL     OW18049   1.495   5.428   3.208
 5717SOL    HW118050   1.412   5.468   3.247
 5717SOL    HW218051   1.471   5.369   3.131
 5718SOL     OW18052   0.837   3.019   0.166
 5718SOL    HW118053   0.815   3.108   0.204
 5718SOL    HW218054   0.934   3.016   0.142
 5719SOL     OW18055   2.065   3.395   0.738
 5719SOL    HW118056   2.048   3.309   0.689
 5719SOL    HW218057   2.153   3.432   0.709
 5720SOL     OW18058   2.437   5.076   6.327
 5720SOL    HW118059   2.364   5.124   6.376
 5720SOL    HW218060   2.397   5.025   6.251
 5721SOL     OW18061   2.189   3.373   0.421
 5721SOL    HW118062   2.116   3.312   0.451
 5721SOL    HW218063   2.232   3.336   0.339
 5722SOL     OW18064   1.625   0.916   6.179
 5722SOL    HW118065   1.552   0.855   6.148
 5722SOL    HW218066   1.635   0.908   6.278
 5723SOL     OW18067   4.346   3.192   0.903
 5723SOL    HW118068   4.371   3.264   0.968
 5723SOL    HW218069   4.257   3.213   0.863
 5724SOL     OW18070   5.312   2.020   5.110
 5724SOL    HW118071   5.311   1.948   5.179
 5724SOL    HW218072   5.258   2.098   5.141
 5725SOL     OW18073   6.697   4.063   4.693
 5725SOL    HW118074   6.674   3.968   4.672
 5725SOL    HW218075   6.766   4.065   4.765
 5726SOL     OW18076   5.496   4.283   2.387
 5726SOL    HW118077   5.424   4.351   2.372
 5726SOL    HW218078   5.468   4.220   2.459
 5727SOL     OW18079   0.791   1.863   4.856
 5727SOL    HW118080   0.718   1.931   4.866
 5727SOL    HW218081   0.760   1.789   4.795
 5728SOL     OW18082   4.586   6.864   5.198
 5728SOL    HW118083   4.545   6.955   5.188
 5728SOL    HW218084   4.551   6.804   5.127
 5729SOL     OW18085   2.177   1.983   5.121
 5729SOL    HW118086   2.130   1.990   5.209
 5729SOL    HW218087   2.111   1.968   5.048
 5730SOL     OW18088   0.047   3.571   4.682
 5730SOL    HW118089   0.087   3.647   4.631
 5730SOL    HW218090   6.980   3.551   4.645
 5731SOL     OW18091   0.420   6.694   2.570
 5731SOL    HW118092   0.430   6.690   2.670
 5731SOL    HW218093   0.503   6.733   2.530
 5732SOL     OW18094   0.926   6.957   3.658
 5732SOL    HW118095   0.971   6.868   3.666
 5732SOL    HW218096   0.994   0.006   3.651
 5733SOL     OW18097   3.222   6.740   5.875
 5733SOL    HW118098   3.183   6.760   5.786
 5733SOL    HW218099   3.149   6.731   5.943
 5734SOL     OW18100   1.951   5.967   3.264
 5734SOL    HW118101   2.020   5.904   3.300
 5734SOL    HW218102   1.886   5.990   3.337
 5735SOL     OW18103   3.106   1.078   1.683
 5735SOL    HW118104   3.186   1.134   1.661
 5735SOL    HW218105   3.059   1.050   1.599
 5736SOL     OW18106   0.932   5.210   6.656
 5736SOL    HW118107   1.009   5.162   6.615
 5736SOL    HW218108   0.960   5.302   6.681
 5737SOL     OW18109   5.316   4.398   0.753
 5737SOL    HW118110   5.277   4.339   0.824
 5737SOL    HW218111   5.403   4.436   0.785
 5738SOL     OW18112   1.297   4.201   5.912
 5738SOL    HW118113   1.384   4.171   5.873
 5738SOL    HW218114   1.223   4.184   5.847
 5739SOL     OW18115   0.768   1.569   1.462
 5739SOL    HW118116   0.849   1.552   1.518
 5739SOL    HW218117   0.725   1.482   1.438
 5740SOL     OW18118   4.040   5.890   6.188
 5740SOL    HW118119   3.956   5.844   6.160
 5740SOL    HW218120   4.018   5.978   6.230
 5741SOL     OW18121   0.010   4.572   2.935
 5741SOL    HW118122   6.987   4.572   2.847
 5741SOL    HW218123   6.998   4.646   2.992
 5742SOL     OW18124   6.866   6.416   4.676
 5742SOL    HW118125   6.937   6.458   4.620
 5742SOL    HW218126   6.830   6.483   4.741
 5743SOL     OW18127   1.931   6.926   4.342
 5743SOL    HW118128   1.843   6.973   4.344
 5743SOL    HW218129   1.987   6.958   4.419
 5744SOL     OW18130   5.279   6.679   1.789
 5744SOL    HW118131   5.206   6.731   1.743
 5744SOL    HW218132   5.368   6.719   1.765
 5745SOL     OW18133   1.119   1.997   3.792
 5745SOL    HW118134   1.101   1.997   3.693
 5745SOL    HW218135   1.062   2.067   3.836
 5746SOL     OW18136   5.994   4.619   0.075
 5746SOL    HW118137   5.909   4.591   0.120
 5746SOL    HW218138   6.042   4.686   0.131
 5747SOL     OW18139   0.444   6.364   2.944
 5747SOL    HW118140   0.382   6.287   2.962
 5747SOL    HW218141   0.493   6.348   2.859
 5748SOL     OW18142   2.141   6.643   3.429
 5748SOL    HW118143   2.047   6.613   3.415
 5748SOL    HW218144   2.202   6.596   3.364
 5749SOL     OW18145   2.111   1.719   3.028
 5749SOL    HW118146   2.180   1.655   2.995
 5749SOL    HW218147   2.142   1.760   3.114
 5750SOL     OW18148   6.247   5.331   2.758
 5750SOL    HW118149   6.154   5.301   2.739
 5750SOL    HW218150   6.288   5.272   2.828
 5751SOL     OW18151   2.027   2.789   6.071
 5751SOL    HW118152   2.042   2.888   6.064
 5751SOL    HW218153   2.114   2.741   6.057
 5752SOL     OW18154   6.969   1.044   0.070
 5752SOL    HW118155   0.028   1.100   0.069
 5752SOL    HW218156   6.895   1.091   0.022
 5753SOL     OW18157   4.434   2.203   0.226
 5753SOL    HW118158   4.487   2.254   0.158
 5753SOL    HW218159   4.353   2.163   0.183
 5754SOL     OW18160   6.123   4.850   0.835
 5754SOL    HW118161   6.195   4.918   0.849
 5754SOL    HW218162   6.045   4.893   0.789
 5755SOL     OW18163   3.412   3.735   1.476
 5755SOL    HW118164   3.504   3.763   1.502
 5755SOL    HW218165   3.402   3.636   1.490
 5756SOL     OW18166   6.939   6.615   4.348
 5756SOL    HW118167   6.945   6.711   4.375
 5756SOL    HW218168   6.963   6.557   4.426
 5757SOL     OW18169   0.459   5.799   1.886
 5757SOL    HW118170   0.496   5.838   1.970
 5757SOL    HW218171   0.524   5.734   1.848
 5758SOL     OW18172   1.898   1.467   5.483
 5758SOL    HW118173   1.806   1.497   5.509
 5758SOL    HW218174   1.894   1.372   5.450
 5759SOL     OW18175   6.144   1.794   5.391
 5759SOL    HW118176   6.103   1.763   5.305
 5759SOL    HW218177   6.079   1.782   5.465
 5760SOL     OW18178   1.776   5.340   1.495
 5760SOL    HW118179   1.765   5.317   1.592
 5760SOL    HW218180   1.694   5.387   1.463
 5761SOL     OW18181   5.242   1.052   4.937
 5761SOL    HW118182   5.311   1.117   4.969
 5761SOL    HW218183   5.215   1.076   4.843
 5762SOL     OW18184   5.780   6.242   1.428
 5762SOL    HW118185   5.727   6.302   1.368
 5762SOL    HW218186   5.803   6.291   1.512
 5763SOL     OW18187   1.516   1.580   1.512
 5763SOL    HW118188   1.489   1.487   1.489
 5763SOL    HW218189   1.515   1.593   1.611
 5764SOL     OW18190   4.696   3.292   5.860
 5764SOL    HW118191   4.777   3.234   5.848
 5764SOL    HW218192   4.615   3.233   5.865
 5765SOL     OW18193   5.932   4.760   0.318
 5765SOL    HW118194   5.935   4.685   0.383
 5765SOL    HW218195   5.877   4.835   0.356
 5766SOL     OW18196   2.618   0.851   3.475
 5766SOL    HW118197   2.717   0.851   3.485
 5766SOL    HW218198   2.576   0.851   3.566
 5767SOL     OW18199   6.642   0.118   0.924
 5767SOL    HW118200   6.629   0.027   0.885
 5767SOL    HW218201   6.652   0.184   0.850
 5768SOL     OW18202   6.061   0.505   2.777
 5768SOL    HW118203   6.021   0.448   2.705
 5768SOL    HW218204   5.990   0.563   2.818
 5769SOL     OW18205   2.074   5.756   3.381
 5769SOL    HW118206   2.039   5.666   3.356
 5769SOL    HW218207   2.172   5.750   3.399
 5770SOL     OW18208   6.265   1.133   1.646
 5770SOL    HW118209   6.283   1.226   1.677
 5770SOL    HW218210   6.352   1.086   1.631
 5771SOL     OW18211   0.452   1.226   1.929
 5771SOL    HW118212   0.458   1.299   1.862
 5771SOL    HW218213   0.518   1.154   1.907
 5772SOL     OW18214   6.788   4.568   6.993
 5772SOL    HW118215   6.823   4.587   6.901
 5772SOL    HW218216   6.833   4.487   0.006
 5773SOL     OW18217   5.458   5.994   4.344
 5773SOL    HW118218   5.394   5.918   4.334
 5773SOL    HW218219   5.461   6.022   4.440
 5774SOL     OW18220   2.757   5.105   2.572
 5774SOL    HW118221   2.719   5.036   2.634
 5774SOL    HW218222   2.841   5.069   2.530
 5775SOL     OW18223   0.892   0.272   0.094
 5775SOL    HW118224   0.856   0.183   0.121
 5775SOL    HW218225   0.860   0.341   0.158
 5776SOL     OW18226   4.928   1.194   6.051
 5776SOL    HW118227   4.977   1.117   6.010
 5776SOL    HW218228   4.983   1.277   6.043
 5777SOL     OW18229   5.818   0.789   5.753
 5777SOL    HW118230   5.878   0.869   5.755
 5777SOL    HW218231   5.809   0.757   5.659
 5778SOL     OW18232   2.522   6.999   3.785
 5778SOL    HW118233   2.570   0.015   3.706
 5778SOL    HW218234   2.432   0.018   3.794
 5779SOL     OW18235   4.155   0.910   1.795
 5779SOL    HW118236   4.237   0.895   1.851
 5779SOL    HW218237   4.075   0.876   1.844
 5780SOL     OW18238   5.911   3.550   1.348
 5780SOL    HW118239   5.825   3.575   1.393
 5780SOL    HW218240   5.926   3.452   1.359
 5781SOL     OW18241   2.742   4.834   5.147
 5781SOL    HW118242   2.731   4.806   5.243
 5781SOL    HW218243   2.782   4.758   5.095
 5782SOL     OW18244   3.869   1.498   3.438
 5782SOL    HW118245   3.889   1.495   3.340
 5782SOL    HW218246   3.891   1.409   3.479
 5783SOL     OW18247   2.582   6.360   1.618
 5783SOL    HW118248   2.618   6.452   1.606
 5783SOL    HW218249   2.517   6.340   1.544
 5784SOL     OW18250   1.228   5.420   0.271
 5784SOL    HW118251   1.318   5.390   0.303
 5784SOL    HW218252   1.167   5.341   0.262
 5785SOL     OW18253   2.773   1.137   0.143
 5785SOL    HW118254   2.746   1.066   0.079
 5785SOL    HW218255   2.861   1.177   0.114
 5786SOL     OW18256   1.006   3.406   6.913
 5786SOL    HW118257   1.037   3.497   6.888
 5786SOL    HW218258   1.035   3.340   6.843
 5787SOL     OW18259   0.378   3.260   5.492
 5787SOL    HW118260   0.458   3.250   5.434
 5787SOL    HW218261   0.299   3.215   5.449
 5788SOL     OW18262   1.962   2.559   2.273
 5788SOL    HW118263   2.040   2.509   2.310
 5788SOL    HW218264   1.932   2.517   2.188
 5789SOL     OW18265   2.668   4.913   0.098
 5789SOL    HW118266   2.621   4.994   0.132
 5789SOL    HW218267   2.764   4.934   0.082
 5790SOL     OW18268   6.416   6.151   3.075
 5790SOL    HW118269   6.381   6.060   3.098
 5790SOL    HW218270   6.494   6.172   3.133
 5791SOL     OW18271   4.219   1.524   1.167
 5791SOL    HW118272   4.161   1.593   1.124
 5791SOL    HW218273   4.196   1.516   1.264
 5792SOL     OW18274   4.259   2.311   3.226
 5792SOL    HW118275   4.241   2.226   3.177
 5792SOL    HW218276   4.220   2.306   3.318
 5793SOL     OW18277   3.773   2.445   6.870
 5793SOL    HW118278   3.767   2.526   6.928
 5793SOL    HW218279   3.852   2.390   6.897
 5794SOL     OW18280   3.543   6.095   6.849
 5794SOL    HW118281   3.529   5.998   6.828
 5794SOL    HW218282   3.619   6.129   6.795
 5795SOL     OW18283   2.190   6.847   1.587
 5795SOL    HW118284   2.183   6.911   1.511
 5795SOL    HW218285   2.242   6.766   1.559
 5796SOL     OW18286   5.113   0.702   6.578
 5796SOL    HW118287   5.127   0.763   6.499
 5796SOL    HW218288   5.061   0.622   6.550
 5797SOL     OW18289   7.010   2.855   0.741
 5797SOL    HW118290   0.026   2.943   0.767
 5797SOL    HW218291   6.978   2.807   0.823
 5798SOL     OW18292   1.758   3.473   4.453
 5798SOL    HW118293   1.715   3.437   4.370
 5798SOL    HW218294   1.714   3.432   4.533
 5799SOL     OW18295   2.872   0.253   3.365
 5799SOL    HW118296   2.902   0.193   3.291
 5799SOL    HW218297   2.888   0.208   3.453
 5800SOL     OW18298   1.009   0.250   2.072
 5800SOL    HW118299   0.993   0.289   1.981
 5800SOL    HW218300   1.039   0.155   2.062
 5801SOL     OW18301   1.809   1.400   2.329
 5801SOL    HW118302   1.790   1.475   2.393
 5801SOL    HW218303   1.747   1.324   2.348
 5802SOL     OW18304   0.491   0.166   3.026
 5802SOL    HW118305   0.423   0.094   3.040
 5802SOL    HW218306   0.445   0.253   3.012
 5803SOL     OW18307   0.544   6.298   4.510
 5803SOL    HW118308   0.550   6.210   4.558
 5803SOL    HW218309   0.490   6.287   4.427
 5804SOL     OW18310   6.081   2.198   3.334
 5804SOL    HW118311   6.020   2.145   3.274
 5804SOL    HW218312   6.167   2.217   3.286
 5805SOL     OW18313   1.229   2.982   2.244
 5805SOL    HW118314   1.310   2.986   2.185
 5805SOL    HW218315   1.230   2.897   2.297
 5806SOL     OW18316   6.715   3.734   2.405
 5806SOL    HW118317   6.617   3.748   2.391
 5806SOL    HW218318   6.758   3.822   2.427
 5807SOL     OW18319   1.368   1.274   1.951
 5807SOL    HW118320   1.363   1.278   2.051
 5807SOL    HW218321   1.339   1.183   1.920
 5808SOL     OW18322   0.162   0.499   5.781
 5808SOL    HW118323   0.231   0.493   5.852
 5808SOL    HW218324   0.203   0.479   5.692
 5809SOL     OW18325   0.252   2.823   4.823
 5809SOL    HW118326   0.216   2.856   4.910
 5809SOL    HW218327   0.182   2.833   4.752
 5810SOL     OW18328   2.492   6.170   5.072
 5810SOL    HW118329   2.518   6.172   5.168
 5810SOL    HW218330   2.497   6.263   5.034
 5811SOL     OW18331   4.011   4.330   6.732
 5811SOL    HW118332   3.930   4.301   6.679
 5811SOL    HW218333   4.010   4.429   6.742
 5812SOL     OW18334   5.742   2.647   6.262
 5812SOL    HW118335   5.683   2.727   6.255
 5812SOL    HW218336   5.709   2.575   6.200
 5813SOL     OW18337   4.957   5.146   0.570
 5813SOL    HW118338   4.971   5.050   0.545
 5813SOL    HW218339   4.995   5.205   0.499
 5814SOL     OW18340   6.079   0.899   2.107
 5814SOL    HW118341   6.032   0.918   2.193
 5814SOL    HW218342   6.025   0.835   2.053
 5815SOL     OW18343   6.158   3.235   4.614
 5815SOL    HW118344   6.124   3.153   4.568
 5815SOL    HW218345   6.185   3.211   4.708
 5816SOL     OW18346   0.146   3.835   1.920
 5816SOL    HW118347   0.178   3.863   1.830
 5816SOL    HW218348   0.074   3.897   1.951
 5817SOL     OW18349   6.052   2.954   3.081
 5817SOL    HW118350   6.149   2.931   3.076
 5817SOL    HW218351   6.040   3.053   3.068
 5818SOL     OW18352   2.282   0.238   4.678
 5818SOL    HW118353   2.242   0.300   4.746
 5818SOL    HW218354   2.381   0.252   4.675
 5819SOL     OW18355   3.907   4.052   0.385
 5819SOL    HW118356   3.933   4.146   0.365
 5819SOL    HW218357   3.811   4.039   0.360
 5820SOL     OW18358   6.613   0.052   2.805
 5820SOL    HW118359   6.519   0.042   2.771
 5820SOL    HW218360   6.656   0.131   2.761
 5821SOL     OW18361   6.438   6.903   1.868
 5821SOL    HW118362   6.494   6.965   1.813
 5821SOL    HW218363   6.494   6.864   1.941
 5822SOL     OW18364   0.627   3.939   2.396
 5822SOL    HW118365   0.589   3.850   2.373
 5822SOL    HW218366   0.582   3.974   2.478
 5823SOL     OW18367   2.493   6.940   4.179
 5823SOL    HW118368   2.463   6.887   4.100
 5823SOL    HW218369   2.415   6.954   4.241
 5824SOL     OW18370   1.905   6.868   2.358
 5824SOL    HW118371   1.972   6.889   2.429
 5824SOL    HW218372   1.914   6.773   2.330
 5825SOL     OW18373   4.635   1.513   4.354
 5825SOL    HW118374   4.560   1.448   4.365
 5825SOL    HW218375   4.686   1.492   4.271
 5826SOL     OW18376   1.633   6.297   5.024
 5826SOL    HW118377   1.540   6.332   5.028
 5826SOL    HW218378   1.642   6.236   4.945
 5827SOL     OW18379   2.120   3.676   3.459
 5827SOL    HW118380   2.145   3.747   3.394
 5827SOL    HW218381   2.132   3.586   3.417
 5828SOL     OW18382   4.554   0.571   5.462
 5828SOL    HW118383   4.643   0.557   5.420
 5828SOL    HW218384   4.495   0.622   5.398
 5829SOL     OW18385   2.097   0.850   3.171
 5829SOL    HW118386   2.018   0.909   3.188
 5829SOL    HW218387   2.097   0.775   3.238
 5830SOL     OW18388   4.049   5.215   4.235
 5830SOL    HW118389   3.979   5.204   4.164
 5830SOL    HW218390   4.008   5.203   4.325
 5831SOL     OW18391   2.192   2.377   4.699
 5831SOL    HW118392   2.250   2.297   4.681
 5831SOL    HW218393   2.216   2.451   4.636
 5832SOL     OW18394   2.771   5.706   2.574
 5832SOL    HW118395   2.806   5.679   2.484
 5832SOL    HW218396   2.789   5.803   2.589
 5833SOL     OW18397   3.764   5.544   0.116
 5833SOL    HW118398   3.736   5.639   0.126
 5833SOL    HW218399   3.855   5.532   0.156
 5834SOL     OW18400   6.621   3.553   5.897
 5834SOL    HW118401   6.711   3.531   5.932
 5834SOL    HW218402   6.578   3.622   5.954
 5835SOL     OW18403   4.514   1.368   3.321
 5835SOL    HW118404   4.475   1.381   3.412
 5835SOL    HW218405   4.465   1.424   3.255
 5836SOL     OW18406   4.619   6.436   2.058
 5836SOL    HW118407   4.618   6.430   2.158
 5836SOL    HW218408   4.532   6.402   2.022
 5837SOL     OW18409   3.087   4.543   6.510
 5837SOL    HW118410   3.167   4.533   6.569
 5837SOL    HW218411   3.049   4.635   6.520
 5838SOL     OW18412   3.658   3.079   0.274
 5838SOL    HW118413   3.636   3.121   0.362
 5838SOL    HW218414   3.718   3.001   0.289
 5839SOL     OW18415   1.987   1.954   0.476
 5839SOL    HW118416   1.919   1.999   0.535
 5839SOL    HW218417   2.078   1.967   0.515
 5840SOL     OW18418   0.885   3.947   3.352
 5840SOL    HW118419   0.981   3.972   3.365
 5840SOL    HW218420   0.880   3.869   3.289
 5841SOL     OW18421   5.350   1.501   7.014
 5841SOL    HW118422   5.382   1.436   6.946
 5841SOL    HW218423   5.417   1.575   0.001
 5842SOL     OW18424   3.253   1.870   1.435
 5842SOL    HW118425   3.325   1.903   1.496
 5842SOL    HW218426   3.170   1.852   1.488
 5843SOL     OW18427   3.709   3.388   0.016
 5843SOL    HW118428   3.636   3.384   0.084
 5843SOL    HW218429   3.782   3.448   0.047
 5844SOL     OW18430   0.300   5.639   5.195
 5844SOL    HW118431   0.352   5.564   5.153
 5844SOL    HW218432   0.341   5.662   5.284
 5845SOL     OW18433   1.647   0.446   2.692
 5845SOL    HW118434   1.552   0.478   2.693
 5845SOL    HW218435   1.684   0.450   2.785
 5846SOL     OW18436   0.973   4.243   4.980
 5846SOL    HW118437   0.912   4.165   4.992
 5846SOL    HW218438   0.988   4.258   4.882
 5847SOL     OW18439   1.456   4.157   6.354
 5847SOL    HW118440   1.532   4.107   6.314
 5847SOL    HW218441   1.432   4.235   6.295
 5848SOL     OW18442   2.355   6.082   1.605
 5848SOL    HW118443   2.396   6.000   1.565
 5848SOL    HW218444   2.255   6.074   1.603
 5849SOL     OW18445   2.770   5.301   6.500
 5849SOL    HW118446   2.678   5.266   6.481
 5849SOL    HW218447   2.764   5.394   6.535
 5850SOL     OW18448   0.614   1.871   1.547
 5850SOL    HW118449   0.541   1.869   1.479
 5850SOL    HW218450   0.606   1.790   1.606
 5851SOL     OW18451   6.305   3.712   4.508
 5851SOL    HW118452   6.253   3.636   4.547
 5851SOL    HW218453   6.360   3.679   4.431
 5852SOL     OW18454   4.757   4.170   2.194
 5852SOL    HW118455   4.741   4.205   2.286
 5852SOL    HW218456   4.690   4.209   2.131
 5853SOL     OW18457   4.391   4.884   6.506
 5853SOL    HW118458   4.340   4.815   6.556
 5853SOL    HW218459   4.347   4.973   6.516
 5854SOL     OW18460   3.198   5.036   5.040
 5854SOL    HW118461   3.166   4.955   5.088
 5854SOL    HW218462   3.170   5.118   5.091
 5855SOL     OW18463   2.497   2.523   3.184
 5855SOL    HW118464   2.488   2.430   3.221
 5855SOL    HW218465   2.419   2.578   3.214
 5856SOL     OW18466   0.775   6.714   3.115
 5856SOL    HW118467   0.841   6.711   3.040
 5856SOL    HW218468   0.722   6.799   3.109
 5857SOL     OW18469   5.519   4.528   6.638
 5857SOL    HW118470   5.467   4.551   6.721
 5857SOL    HW218471   5.525   4.428   6.630
 5858SOL     OW18472   2.076   1.715   2.595
 5858SOL    HW118473   2.095   1.805   2.556
 5858SOL    HW218474   2.157   1.657   2.586
 5859SOL     OW18475   5.502   5.643   1.891
 5859SOL    HW118476   5.444   5.724   1.882
 5859SOL    HW218477   5.579   5.664   1.952
 5860SOL     OW18478   0.440   4.234   2.854
 5860SOL    HW118479   0.403   4.285   2.776
 5860SOL    HW218480   0.496   4.159   2.821
 5861SOL     OW18481   4.796   0.871   5.851
 5861SOL    HW118482   4.845   0.808   5.911
 5861SOL    HW218483   4.859   0.905   5.780
 5862SOL     OW18484   6.739   5.066   3.337
 5862SOL    HW118485   6.666   5.132   3.319
 5862SOL    HW218486   6.821   5.093   3.286
 5863SOL     OW18487   4.335   0.132   6.248
 5863SOL    HW118488   4.396   0.060   6.281
 5863SOL    HW218489   4.368   0.166   6.159
 5864SOL     OW18490   3.790   3.475   2.414
 5864SOL    HW118491   3.822   3.551   2.357
 5864SOL    HW218492   3.698   3.494   2.446
 5865SOL     OW18493   6.518   0.489   6.850
 5865SOL    HW118494   6.483   0.473   6.942
 5865SOL    HW218495   6.471   0.568   6.809
 5866SOL     OW18496   2.979   3.254   2.584
 5866SOL    HW118497   3.057   3.196   2.563
 5866SOL    HW218498   2.929   3.274   2.499
 5867SOL     OW18499   3.509   1.437   1.559
 5867SOL    HW118500   3.463   1.459   1.473
 5867SOL    HW218501   3.552   1.519   1.596
 5868SOL     OW18502   1.010   0.472   0.776
 5868SOL    HW118503   0.919   0.495   0.812
 5868SOL    HW218504   1.001   0.400   0.707
 5869SOL     OW18505   1.236   5.763   3.289
 5869SOL    HW118506   1.273   5.674   3.316
 5869SOL    HW218507   1.138   5.755   3.271
 5870SOL     OW18508   4.032   0.356   3.991
 5870SOL    HW118509   4.052   0.451   3.968
 5870SOL    HW218510   3.982   0.352   4.078
 5871SOL     OW18511   4.034   3.176   3.804
 5871SOL    HW118512   3.982   3.099   3.766
 5871SOL    HW218513   4.083   3.223   3.731
 5872SOL     OW18514   4.357   6.318   0.683
 5872SOL    HW118515   4.433   6.334   0.619
 5872SOL    HW218516   4.274   6.360   0.647
 5873SOL     OW18517   3.560   5.992   1.809
 5873SOL    HW118518   3.636   5.945   1.853
 5873SOL    HW218519   3.519   5.931   1.740
 5874SOL     OW18520   0.779   4.052   4.991
 5874SOL    HW118521   0.720   4.056   5.072
 5874SOL    HW218522   0.727   4.079   4.910
 5875SOL     OW18523   3.891   1.747   1.304
 5875SOL    HW118524   3.794   1.760   1.326
 5875SOL    HW218525   3.929   1.674   1.361
 5876SOL     OW18526   3.405   3.621   1.866
 5876SOL    HW118527   3.472   3.552   1.841
 5876SOL    HW218528   3.424   3.655   1.959
 5877SOL     OW18529   5.507   4.745   1.319
 5877SOL    HW118530   5.532   4.649   1.332
 5877SOL    HW218531   5.414   4.750   1.283
 5878SOL     OW18532   1.765   4.067   2.893
 5878SOL    HW118533   1.790   4.102   2.983
 5878SOL    HW218534   1.725   4.141   2.839
 5879SOL     OW18535   1.006   4.155   3.816
 5879SOL    HW118536   1.035   4.228   3.755
 5879SOL    HW218537   1.054   4.163   3.903
 5880SOL     OW18538   3.576   6.147   0.085
 5880SOL    HW118539   3.560   6.140   7.010
 5880SOL    HW218540   3.500   6.105   0.134
 5881SOL     OW18541   1.029   5.646   4.283
 5881SOL    HW118542   1.116   5.691   4.303
 5881SOL    HW218543   0.954   5.695   4.327
 5882SOL     OW18544   4.767   0.367   2.868
 5882SOL    HW118545   4.694   0.421   2.910
 5882SOL    HW218546   4.795   0.294   2.931
 5883SOL     OW18547   0.598   3.292   5.305
 5883SOL    HW118548   0.687   3.253   5.280
 5883SOL    HW218549   0.604   3.392   5.303
 5884SOL     OW18550   0.838   0.813   3.444
 5884SOL    HW118551   0.844   0.887   3.378
 5884SOL    HW218552   0.744   0.805   3.478
 5885SOL     OW18553   6.041   6.214   1.293
 5885SOL    HW118554   5.944   6.204   1.316
 5885SOL    HW218555   6.051   6.240   1.197
 5886SOL     OW18556   0.417   1.154   6.654
 5886SOL    HW118557   0.504   1.108   6.666
 5886SOL    HW218558   0.433   1.252   6.638
 5887SOL     OW18559   3.741   6.466   2.876
 5887SOL    HW118560   3.697   6.503   2.794
 5887SOL    HW218561   3.820   6.522   2.899
 5888SOL     OW18562   0.523   0.944   2.716
 5888SOL    HW118563   0.537   1.022   2.777
 5888SOL    HW218564   0.598   0.940   2.649
 5889SOL     OW18565   2.441   6.949   6.638
 5889SOL    HW118566   2.408   6.987   6.552
 5889SOL    HW218567   2.379   6.876   6.668
 5890SOL     OW18568   3.273   4.665   5.658
 5890SOL    HW118569   3.325   4.744   5.690
 5890SOL    HW218570   3.336   4.599   5.616
 5891SOL     OW18571   2.373   3.915   6.592
 5891SOL    HW118572   2.277   3.921   6.562
 5891SOL    HW218573   2.383   3.838   6.654
 5892SOL     OW18574   2.171   6.635   2.290
 5892SOL    HW118575   2.189   6.598   2.381
 5892SOL    HW218576   2.076   6.616   2.264
 5893SOL     OW18577   1.931   1.008   3.318
 5893SOL    HW118578   1.867   1.079   3.289
 5893SOL    HW218579   1.882   0.935   3.365
 5894SOL     OW18580   0.775   3.412   3.894
 5894SOL    HW118581   0.773   3.400   3.794
 5894SOL    HW218582   0.812   3.329   3.936
 5895SOL     OW18583   5.738   4.042   3.507
 5895SOL    HW118584   5.817   4.073   3.560
 5895SOL    HW218585   5.666   4.111   3.509
 5896SOL     OW18586   4.885   2.838   5.928
 5896SOL    HW118587   4.873   2.809   5.834
 5896SOL    HW218588   4.879   2.938   5.933
 5897SOL     OW18589   4.398   6.627   1.602
 5897SOL    HW118590   4.363   6.583   1.684
 5897SOL    HW218591   4.340   6.705   1.579
 5898SOL     OW18592   2.773   6.870   2.835
 5898SOL    HW118593   2.779   6.820   2.748
 5898SOL    HW218594   2.686   6.918   2.841
 5899SOL     OW18595   5.618   0.853   3.581
 5899SOL    HW118596   5.686   0.916   3.616
 5899SOL    HW218597   5.642   0.759   3.607
 5900SOL     OW18598   3.816   4.869   2.623
 5900SOL    HW118599   3.723   4.860   2.660
 5900SOL    HW218600   3.815   4.929   2.544
 5901SOL     OW18601   3.100   6.433   4.682
 5901SOL    HW118602   3.016   6.401   4.639
 5901SOL    HW218603   3.082   6.513   4.739
 5902SOL     OW18604   6.020   2.006   6.883
 5902SOL    HW118605   5.960   2.009   6.962
 5902SOL    HW218606   6.061   1.915   6.875
 5903SOL     OW18607   6.779   3.952   6.709
 5903SOL    HW118608   6.681   3.953   6.731
 5903SOL    HW218609   6.792   3.979   6.614
 5904SOL     OW18610   0.669   3.922   1.992
 5904SOL    HW118611   0.589   3.876   1.954
 5904SOL    HW218612   0.696   3.876   2.077
 5905SOL     OW18613   6.554   4.920   2.100
 5905SOL    HW118614   6.460   4.889   2.085
 5905SOL    HW218615   6.615   4.841   2.102
 5906SOL     OW18616   0.228   1.294   3.816
 5906SOL    HW118617   0.304   1.309   3.879
 5906SOL    HW218618   0.204   1.380   3.771
 5907SOL     OW18619   2.019   0.609   2.471
 5907SOL    HW118620   1.990   0.569   2.384
 5907SOL    HW218621   2.053   0.536   2.531
 5908SOL     OW18622   0.501   2.434   6.330
 5908SOL    HW118623   0.485   2.532   6.317
 5908SOL    HW218624   0.578   2.405   6.273
 5909SOL     OW18625   6.782   4.110   0.685
 5909SOL    HW118626   6.865   4.097   0.630
 5909SOL    HW218627   6.702   4.086   0.630
 5910SOL     OW18628   1.926   1.712   3.934
 5910SOL    HW118629   1.914   1.801   3.978
 5910SOL    HW218630   1.912   1.639   4.000
 5911SOL     OW18631   6.673   6.222   6.935
 5911SOL    HW118632   6.580   6.250   6.911
 5911SOL    HW218633   6.712   6.166   6.862
 5912SOL     OW18634   0.844   0.312   4.016
 5912SOL    HW118635   0.840   0.229   3.961
 5912SOL    HW218636   0.919   0.370   3.985
 5913SOL     OW18637   6.352   1.979   0.539
 5913SOL    HW118638   6.298   2.005   0.618
 5913SOL    HW218639   6.360   2.058   0.477
 5914SOL     OW18640   1.134   6.160   0.191
 5914SOL    HW118641   1.164   6.221   0.264
 5914SOL    HW218642   1.211   6.140   0.131
 5915SOL     OW18643   3.700   1.542   5.930
 5915SOL    HW118644   3.664   1.582   6.014
 5915SOL    HW218645   3.665   1.593   5.851
 5916SOL     OW18646   0.727   6.834   1.850
 5916SOL    HW118647   0.681   6.886   1.779
 5916SOL    HW218648   0.712   6.878   1.939
 5917SOL     OW18649   3.654   4.204   0.041
 5917SOL    HW118650   3.647   4.186   6.966
 5917SOL    HW218651   3.704   4.289   0.056
 5918SOL     OW18652   3.000   6.625   4.838
 5918SOL    HW118653   2.907   6.594   4.852
 5918SOL    HW218654   3.050   6.621   4.924
 5919SOL     OW18655   3.289   3.178   4.673
 5919SOL    HW118656   3.284   3.264   4.623
 5919SOL    HW218657   3.255   3.190   4.766
 5920SOL     OW18658   6.810   0.223   5.812
 5920SOL    HW118659   6.822   0.319   5.790
 5920SOL    HW218660   6.886   0.191   5.868
 5921SOL     OW18661   2.545   4.077   6.689
 5921SOL    HW118662   2.502   4.004   6.636
 5921SOL    HW218663   2.476   4.124   6.744
 5922SOL     OW18664   4.960   2.874   2.460
 5922SOL    HW118665   5.004   2.808   2.522
 5922SOL    HW218666   4.880   2.830   2.418
 5923SOL     OW18667   5.869   1.343   3.608
 5923SOL    HW118668   5.794   1.347   3.541
 5923SOL    HW218669   5.855   1.266   3.669
 5924SOL     OW18670   5.166   6.913   3.496
 5924SOL    HW118671   5.242   6.907   3.430
 5924SOL    HW218672   5.084   6.871   3.456
 5925SOL     OW18673   4.548   1.145   1.075
 5925SOL    HW118674   4.595   1.148   0.986
 5925SOL    HW218675   4.461   1.193   1.068
 5926SOL     OW18676   5.096   4.333   3.540
 5926SOL    HW118677   5.159   4.305   3.468
 5926SOL    HW218678   5.124   4.292   3.626
 5927SOL     OW18679   0.315   5.170   2.218
 5927SOL    HW118680   0.218   5.149   2.222
 5927SOL    HW218681   0.347   5.163   2.123
 5928SOL     OW18682   3.008   6.885   6.996
 5928SOL    HW118683   3.054   6.905   6.909
 5928SOL    HW218684   2.944   6.809   6.982
 5929SOL     OW18685   1.644   0.849   0.101
 5929SOL    HW118686   1.723   0.884   0.052
 5929SOL    HW218687   1.620   0.758   0.066
 5930SOL     OW18688   1.852   3.942   2.552
 5930SOL    HW118689   1.858   4.006   2.475
 5930SOL    HW218690   1.925   3.962   2.618
 5931SOL     OW18691   5.159   6.603   2.872
 5931SOL    HW118692   5.096   6.679   2.890
 5931SOL    HW218693   5.136   6.560   2.785
 5932SOL     OW18694   3.092   0.587   6.825
 5932SOL    HW118695   3.068   0.643   6.905
 5932SOL    HW218696   3.162   0.634   6.772
 5933SOL     OW18697   5.988   5.827   4.626
 5933SOL    HW118698   5.892   5.816   4.602
 5933SOL    HW218699   6.024   5.909   4.583
 5934SOL     OW18700   2.898   3.478   0.029
 5934SOL    HW118701   2.979   3.442   0.077
 5934SOL    HW218702   2.816   3.449   0.078
 5935SOL     OW18703   0.916   6.163   5.980
 5935SOL    HW118704   0.849   6.172   5.906
 5935SOL    HW218705   0.986   6.097   5.954
 5936SOL     OW18706   3.779   3.042   2.304
 5936SOL    HW118707   3.814   2.949   2.312
 5936SOL    HW218708   3.816   3.084   2.221
 5937SOL     OW18709   0.318   3.223   1.087
 5937SOL    HW118710   0.385   3.246   1.158
 5937SOL    HW218711   0.341   3.272   1.003
 5938SOL     OW18712   0.494   4.264   3.865
 5938SOL    HW118713   0.461   4.193   3.928
 5938SOL    HW218714   0.570   4.227   3.811
 5939SOL     OW18715   3.816   1.507   5.463
 5939SOL    HW118716   3.779   1.475   5.551
 5939SOL    HW218717   3.907   1.545   5.478
 5940SOL     OW18718   4.932   5.666   1.742
 5940SOL    HW118719   4.905   5.599   1.673
 5940SOL    HW218720   5.006   5.629   1.798
 5941SOL     OW18721   0.177   2.212   2.861
 5941SOL    HW118722   0.171   2.113   2.878
 5941SOL    HW218723   0.143   2.262   2.940
 5942SOL     OW18724   4.928   3.024   6.210
 5942SOL    HW118725   4.906   3.085   6.134
 5942SOL    HW218726   5.002   3.063   6.265
 5943SOL     OW18727   2.721   4.274   1.652
 5943SOL    HW118728   2.708   4.364   1.692
 5943SOL    HW218729   2.654   4.210   1.691
 5944SOL     OW18730   6.419   3.376   5.858
 5944SOL    HW118731   6.430   3.362   5.760
 5944SOL    HW218732   6.479   3.450   5.888
 5945SOL     OW18733   6.737   6.605   4.824
 5945SOL    HW118734   6.673   6.577   4.895
 5945SOL    HW218735   6.688   6.652   4.750
 5946SOL     OW18736   2.296   3.955   6.940
 5946SOL    HW118737   2.255   3.877   6.894
 5946SOL    HW218738   2.356   3.922   7.014
 5947SOL     OW18739   4.128   3.309   4.386
 5947SOL    HW118740   4.134   3.306   4.287
 5947SOL    HW218741   4.089   3.397   4.415
 5948SOL     OW18742   4.818   3.461   1.897
 5948SOL    HW118743   4.764   3.517   1.959
 5948SOL    HW218744   4.863   3.519   1.829
 5949SOL     OW18745   0.259   4.775   2.880
 5949SOL    HW118746   0.222   4.683   2.870
 5949SOL    HW218747   0.346   4.771   2.930
 5950SOL     OW18748   3.819   0.324   4.677
 5950SOL    HW118749   3.900   0.265   4.676
 5950SOL    HW218750   3.791   0.339   4.772
 5951SOL     OW18751   0.359   3.686   6.787
 5951SOL    HW118752   0.367   3.777   6.746
 5951SOL    HW218753   0.299   3.629   6.731
 5952SOL     OW18754   4.362   4.682   1.419
 5952SOL    HW118755   4.362   4.761   1.481
 5952SOL    HW218756   4.446   4.629   1.433
 5953SOL     OW18757   6.744   2.964   5.102
 5953SOL    HW118758   6.806   2.919   5.038
 5953SOL    HW218759   6.706   2.896   5.164
 5954SOL     OW18760   1.764   6.015   4.187
 5954SOL    HW118761   1.749   5.998   4.089
 5954SOL    HW218762   1.859   5.993   4.209
 5955SOL     OW18763   5.449   3.364   0.270
 5955SOL    HW118764   5.496   3.280   0.243
 5955SOL    HW218765   5.486   3.441   0.218
 5956SOL     OW18766   5.410   2.640   5.542
 5956SOL    HW118767   5.440   2.658   5.448
 5956SOL    HW218768   5.396   2.542   5.554
 5957SOL     OW18769   6.909   1.704   3.535
 5957SOL    HW118770   6.992   1.710   3.591
 5957SOL    HW218771   6.892   1.609   3.510
 5958SOL     OW18772   2.824   6.780   3.240
 5958SOL    HW118773   2.740   6.760   3.291
 5958SOL    HW218774   2.834   6.879   3.229
 5959SOL     OW18775   5.064   2.469   3.852
 5959SOL    HW118776   5.104   2.558   3.877
 5959SOL    HW218777   4.989   2.447   3.914
 5960SOL     OW18778   4.485   0.415   5.930
 5960SOL    HW118779   4.479   0.338   5.994
 5960SOL    HW218780   4.502   0.380   5.838
 5961SOL     OW18781   2.961   2.218   3.287
 5961SOL    HW118782   3.000   2.181   3.203
 5961SOL    HW218783   2.864   2.234   3.275
 5962SOL     OW18784   5.143   5.736   0.493
 5962SOL    HW118785   5.168   5.821   0.538
 5962SOL    HW218786   5.047   5.740   0.463
 5963SOL     OW18787   2.754   3.919   0.605
 5963SOL    HW118788   2.735   3.825   0.632
 5963SOL    HW218789   2.668   3.968   0.590
 5964SOL     OW18790   2.496   6.718   2.339
 5964SOL    HW118791   2.540   6.646   2.287
 5964SOL    HW218792   2.401   6.728   2.309
 5965SOL     OW18793   2.390   0.204   0.643
 5965SOL    HW118794   2.422   0.255   0.563
 5965SOL    HW218795   2.398   0.261   0.725
 5966SOL     OW18796   2.958   1.583   4.767
 5966SOL    HW118797   2.980   1.507   4.829
 5966SOL    HW218798   3.036   1.645   4.761
 5967SOL     OW18799   4.252   2.054   4.872
 5967SOL    HW118800   4.298   2.136   4.907
 5967SOL    HW218801   4.189   2.080   4.799
 5968SOL     OW18802   5.708   2.679   1.512
 5968SOL    HW118803   5.790   2.693   1.456
 5968SOL    HW218804   5.646   2.756   1.499
 5969SOL     OW18805   5.676   0.141   0.344
 5969SOL    HW118806   5.669   0.041   0.344
 5969SOL    HW218807   5.625   0.178   0.266
 5970SOL     OW18808   0.128   3.613   0.256
 5970SOL    HW118809   0.106   3.675   0.180
 5970SOL    HW218810   0.135   3.520   0.222
 5971SOL     OW18811   6.905   6.450   3.918
 5971SOL    HW118812   6.959   6.534   3.918
 5971SOL    HW218813   6.911   6.406   4.008
 5972SOL     OW18814   5.156   5.164   0.192
 5972SOL    HW118815   5.089   5.212   0.248
 5972SOL    HW218816   5.111   5.087   0.145
 5973SOL     OW18817   3.147   1.437   2.547
 5973SOL    HW118818   3.101   1.441   2.458
 5973SOL    HW218819   3.223   1.502   2.548
 5974SOL     OW18820   5.366   1.838   5.308
 5974SOL    HW118821   5.375   1.739   5.307
 5974SOL    HW218822   5.299   1.865   5.377
 5975SOL     OW18823   4.613   4.612   1.072
 5975SOL    HW118824   4.690   4.589   1.014
 5975SOL    HW218825   4.638   4.688   1.132
 5976SOL     OW18826   2.403   3.261   5.560
 5976SOL    HW118827   2.305   3.242   5.567
 5976SOL    HW218828   2.428   3.330   5.628
 5977SOL     OW18829   6.859   4.617   0.734
 5977SOL    HW118830   6.892   4.537   0.784
 5977SOL    HW218831   6.780   4.656   0.783
 5978SOL     OW18832   2.802   3.605   6.662
 5978SOL    HW118833   2.788   3.508   6.683
 5978SOL    HW218834   2.830   3.654   6.745
 5979SOL     OW18835   6.059   0.724   1.824
 5979SOL    HW118836   6.033   0.745   1.730
 5979SOL    HW218837   5.978   0.704   1.878
 5980SOL     OW18838   2.854   3.063   1.356
 5980SOL    HW118839   2.773   3.072   1.297
 5980SOL    HW218840   2.869   2.967   1.377
 5981SOL     OW18841   3.238   2.252   0.229
 5981SOL    HW118842   3.313   2.309   0.262
 5981SOL    HW218843   3.154   2.305   0.228
 5982SOL     OW18844   5.088   3.172   0.454
 5982SOL    HW118845   5.178   3.168   0.498
 5982SOL    HW218846   5.022   3.214   0.516
 5983SOL     OW18847   6.986   0.852   3.568
 5983SOL    HW118848   0.049   0.801   3.559
 5983SOL    HW218849   6.987   0.930   3.507
 5984SOL     OW18850   5.639   7.006   4.302
 5984SOL    HW118851   5.636   0.043   4.382
 5984SOL    HW218852   5.706   0.016   4.237
 5985SOL     OW18853   6.441   3.182   2.211
 5985SOL    HW118854   6.515   3.218   2.268
 5985SOL    HW218855   6.372   3.253   2.198
 5986SOL     OW18856   3.533   3.266   4.440
 5986SOL    HW118857   3.571   3.177   4.466
 5986SOL    HW218858   3.561   3.289   4.347
 5987SOL     OW18859   0.314   6.334   5.340
 5987SOL    HW118860   0.267   6.422   5.336
 5987SOL    HW218861   0.413   6.349   5.333
 5988SOL     OW18862   1.017   2.711   6.402
 5988SOL    HW118863   1.079   2.701   6.480
 5988SOL    HW218864   1.063   2.681   6.319
 5989SOL     OW18865   0.504   6.701   6.167
 5989SOL    HW118866   0.488   6.602   6.173
 5989SOL    HW218867   0.492   6.742   6.257
 5990SOL     OW18868   2.621   4.815   1.973
 5990SOL    HW118869   2.697   4.753   1.992
 5990SOL    HW218870   2.546   4.765   1.930
 5991SOL     OW18871   4.480   0.354   0.524
 5991SOL    HW118872   4.384   0.374   0.509
 5991SOL    HW218873   4.515   0.411   0.599
 5992SOL     OW18874   3.342   6.342   2.236
 5992SOL    HW118875   3.406   6.413   2.206
 5992SOL    HW218876   3.324   6.353   2.333
 5993SOL     OW18877   5.448   1.767   0.029
 5993SOL    HW118878   5.535   1.724   0.054
 5993SOL    HW218879   5.392   1.778   0.111
 5994SOL     OW18880   0.380   3.371   6.940
 5994SOL    HW118881   0.418   3.440   7.002
 5994SOL    HW218882   0.370   3.284   6.988
 5995SOL     OW18883   4.808   3.666   1.485
 5995SOL    HW118884   4.860   3.697   1.406
 5995SOL    HW218885   4.870   3.650   1.562
 5996SOL     OW18886   2.872   5.824   1.278
 5996SOL    HW118887   2.884   5.827   1.377
 5996SOL    HW218888   2.962   5.815   1.233
 5997SOL     OW18889   6.311   0.620   3.802
 5997SOL    HW118890   6.261   0.658   3.880
 5997SOL    HW218891   6.388   0.680   3.779
 5998SOL     OW18892   6.204   5.543   0.258
 5998SOL    HW118893   6.251   5.485   0.191
 5998SOL    HW218894   6.240   5.637   0.250
 5999SOL     OW18895   5.083   3.005   1.583
 5999SOL    HW118896   5.145   3.069   1.539
 5999SOL    HW218897   5.009   3.056   1.628
 6000SOL     OW18898   0.571   4.036   0.827
 6000SOL    HW118899   0.566   3.953   0.884
 6000SOL    HW218900   0.508   4.027   0.750
 6001SOL     OW18901   6.508   5.832   5.804
 6001SOL    HW118902   6.456   5.888   5.869
 6001SOL    HW218903   6.477   5.738   5.810
 6002SOL     OW18904   5.641   4.678   5.600
 6002SOL    HW118905   5.739   4.687   5.617
 6002SOL    HW218906   5.618   4.723   5.513
 6003SOL     OW18907   1.878   2.572   4.782
 6003SOL    HW118908   1.908   2.477   4.786
 6003SOL    HW218909   1.889   2.607   4.689
 6004SOL     OW18910   5.276   2.127   4.434
 6004SOL    HW118911   5.251   2.031   4.423
 6004SOL    HW218912   5.328   2.157   4.354
 6005SOL     OW18913   4.336   4.387   6.629
 6005SOL    HW118914   4.430   4.363   6.608
 6005SOL    HW218915   4.300   4.325   6.699
 6006SOL     OW18916   3.262   6.129   6.869
 6006SOL    HW118917   3.362   6.117   6.862
 6006SOL    HW218918   3.238   6.160   6.961
 6007SOL     OW18919   2.438   5.677   6.017
 6007SOL    HW118920   2.396   5.588   5.999
 6007SOL    HW218921   2.535   5.664   6.039
 6008SOL     OW18922   3.366   3.968   6.487
 6008SOL    HW118923   3.436   3.898   6.503
 6008SOL    HW218924   3.320   3.951   6.400
 6009SOL     OW18925   3.726   5.288   3.011
 6009SOL    HW118926   3.799   5.289   3.079
 6009SOL    HW218927   3.672   5.205   3.021
 6010SOL     OW18928   0.344   5.139   3.841
 6010SOL    HW118929   0.289   5.170   3.919
 6010SOL    HW218930   0.420   5.084   3.875
 6011SOL     OW18931   5.990   1.752   2.294
 6011SOL    HW118932   6.073   1.697   2.298
 6011SOL    HW218933   5.918   1.700   2.248
 6012SOL     OW18934   6.929   0.398   6.100
 6012SOL    HW118935   6.974   0.321   6.055
 6012SOL    HW218936   6.994   0.473   6.112
 6013SOL     OW18937   6.076   1.387   1.959
 6013SOL    HW118938   6.081   1.291   1.931
 6013SOL    HW218939   6.057   1.444   1.880
 6014SOL     OW18940   3.214   4.011   3.944
 6014SOL    HW118941   3.175   3.936   3.998
 6014SOL    HW218942   3.255   4.079   4.006
 6015SOL     OW18943   6.091   0.649   4.044
 6015SOL    HW118944   6.113   0.655   4.142
 6015SOL    HW218945   6.057   0.737   4.012
 6016SOL     OW18946   4.613   1.785   4.366
 6016SOL    HW118947   4.593   1.691   4.336
 6016SOL    HW218948   4.647   1.783   4.460
 6017SOL     OW18949   0.861   1.442   5.703
 6017SOL    HW118950   0.920   1.377   5.656
 6017SOL    HW218951   0.905   1.531   5.707
 6018SOL     OW18952   2.842   1.093   4.549
 6018SOL    HW118953   2.913   1.139   4.602
 6018SOL    HW218954   2.881   1.055   4.465
 6019SOL     OW18955   6.482   4.221   0.094
 6019SOL    HW118956   6.438   4.183   0.176
 6019SOL    HW218957   6.470   4.320   0.093
 6020SOL     OW18958   0.693   4.943   5.860
 6020SOL    HW118959   0.790   4.950   5.839
 6020SOL    HW218960   0.681   4.926   5.958
 6021SOL     OW18961   6.038   6.926   3.661
 6021SOL    HW118962   5.952   6.950   3.614
 6021SOL    HW218963   6.107   6.994   3.640
 6022SOL     OW18964   6.437   2.585   1.422
 6022SOL    HW118965   6.441   2.486   1.408
 6022SOL    HW218966   6.493   2.610   1.501
 6023SOL     OW18967   3.818   0.502   1.793
 6023SOL    HW118968   3.836   0.411   1.756
 6023SOL    HW218969   3.744   0.545   1.740
 6024SOL     OW18970   1.373   6.154   0.027
 6024SOL    HW118971   1.430   6.220   7.001
 6024SOL    HW218972   1.424   6.069   0.039
 6025SOL     OW18973   3.143   0.397   4.528
 6025SOL    HW118974   3.106   0.309   4.500
 6025SOL    HW218975   3.220   0.421   4.470
 6026SOL     OW18976   5.698   5.905   4.615
 6026SOL    HW118977   5.715   5.902   4.516
 6026SOL    HW218978   5.699   6.000   4.646
 6027SOL     OW18979   5.299   4.328   6.635
 6027SOL    HW118980   5.246   4.382   6.570
 6027SOL    HW218981   5.240   4.301   6.712
 6028SOL     OW18982   5.722   4.948   5.838
 6028SOL    HW118983   5.692   4.875   5.900
 6028SOL    HW218984   5.697   5.037   5.876
 6029SOL     OW18985   2.886   1.062   2.786
 6029SOL    HW118986   2.986   1.066   2.782
 6029SOL    HW218987   2.847   1.123   2.717
 6030SOL     OW18988   5.916   3.355   4.868
 6030SOL    HW118989   5.997   3.352   4.926
 6030SOL    HW218990   5.920   3.281   4.801
 6031SOL     OW18991   0.214   6.047   5.414
 6031SOL    HW118992   0.280   6.118   5.389
 6031SOL    HW218993   0.198   5.987   5.335
 6032SOL     OW18994   3.577   6.096   3.144
 6032SOL    HW118995   3.549   6.021   3.204
 6032SOL    HW218996   3.654   6.066   3.087
 6033SOL     OW18997   1.046   1.576   2.530
 6033SOL    HW118998   1.094   1.513   2.469
 6033SOL    HW218999   1.050   1.668   2.492
 6034SOL     OW19000   1.114   6.851   1.329
 6034SOL    HW119001   1.144   6.837   1.424
 6034SOL    HW219002   1.194   6.868   1.271
 6035SOL     OW19003   2.139   0.574   2.968
 6035SOL    HW119004   2.183   0.566   2.878
 6035SOL    HW219005   2.076   0.652   2.968
 6036SOL     OW19006   6.696   3.364   0.943
 6036SOL    HW119007   6.791   3.348   0.967
 6036SOL    HW219008   6.640   3.288   0.974
 6037SOL     OW19009   4.911   1.712   6.974
 6037SOL    HW119010   4.875   1.672   0.034
 6037SOL    HW219011   4.948   1.803   6.994
 6038SOL     OW19012   1.501   1.486   6.075
 6038SOL    HW119013   1.478   1.482   6.172
 6038SOL    HW219014   1.470   1.402   6.031
 6039SOL     OW19015   4.150   3.305   3.587
 6039SOL    HW119016   4.199   3.391   3.582
 6039SOL    HW219017   4.087   3.298   3.509
 6040SOL     OW19018   0.674   1.435   0.240
 6040SOL    HW119019   0.713   1.347   0.210
 6040SOL    HW219020   0.700   1.506   0.175
 6041SOL     OW19021   2.448   3.620   5.750
 6041SOL    HW119022   2.466   3.579   5.661
 6041SOL    HW219023   2.475   3.717   5.748
 6042SOL     OW19024   3.338   5.677   3.617
 6042SOL    HW119025   3.344   5.703   3.520
 6042SOL    HW219026   3.256   5.718   3.657
 6043SOL     OW19027   2.408   0.451   3.233
 6043SOL    HW119028   2.365   0.367   3.264
 6043SOL    HW219029   2.476   0.481   3.300
 6044SOL     OW19030   0.903   3.296   1.268
 6044SOL    HW119031   0.993   3.270   1.304
 6044SOL    HW219032   0.881   3.389   1.297
 6045SOL     OW19033   5.473   1.717   3.391
 6045SOL    HW119034   5.538   1.784   3.355
 6045SOL    HW219035   5.490   1.703   3.488
 6046SOL     OW19036   3.340   2.893   2.846
 6046SOL    HW119037   3.262   2.943   2.809
 6046SOL    HW219038   3.413   2.888   2.777
 6047SOL     OW19039   0.038   1.636   0.843
 6047SOL    HW119040   0.103   1.709   0.819
 6047SOL    HW219041   6.979   1.676   0.883
 6048SOL     OW19042   5.760   6.063   4.107
 6048SOL    HW119043   5.826   5.989   4.116
 6048SOL    HW219044   5.805   6.151   4.121
 6049SOL     OW19045   4.682   4.763   6.083
 6049SOL    HW119046   4.734   4.841   6.050
 6049SOL    HW219047   4.680   4.763   6.183
 6050SOL     OW19048   3.120   6.421   2.089
 6050SOL    HW119049   3.053   6.466   2.148
 6050SOL    HW219050   3.209   6.419   2.135
 6051SOL     OW19051   0.448   1.424   3.216
 6051SOL    HW119052   0.477   1.466   3.130
 6051SOL    HW219053   0.440   1.495   3.287
 6052SOL     OW19054   4.784   5.919   0.381
 6052SOL    HW119055   4.808   5.822   0.385
 6052SOL    HW219056   4.717   5.934   0.307
 6053SOL     OW19057   3.962   2.633   5.899
 6053SOL    HW119058   3.949   2.673   5.809
 6053SOL    HW219059   4.045   2.578   5.900
 6054SOL     OW19060   3.795   4.182   0.959
 6054SOL    HW119061   3.704   4.172   0.918
 6054SOL    HW219062   3.785   4.198   1.057
 6055SOL     OW19063   3.093   4.055   1.141
 6055SOL    HW119064   2.994   4.053   1.144
 6055SOL    HW219065   3.128   3.964   1.121
 6056SOL     OW19066   5.247   6.067   3.901
 6056SOL    HW119067   5.292   5.995   3.954
 6056SOL    HW219068   5.316   6.123   3.855
 6057SOL     OW19069   4.877   0.601   4.031
 6057SOL    HW119070   4.940   0.547   4.087
 6057SOL    HW219071   4.857   0.687   4.078
 6058SOL     OW19072   5.969   2.693   5.858
 6058SOL    HW119073   5.921   2.744   5.787
 6058SOL    HW219074   6.022   2.756   5.915
 6059SOL     OW19075   4.358   2.903   6.986
 6059SOL    HW119076   4.304   2.958   0.026
 6059SOL    HW219077   4.446   2.882   0.003
 6060SOL     OW19078   2.180   3.305   0.138
 6060SOL    HW119079   2.109   3.376   0.142
 6060SOL    HW219080   2.151   3.232   0.076
 6061SOL     OW19081   3.014   4.475   6.893
 6061SOL    HW119082   2.973   4.564   6.872
 6061SOL    HW219083   3.051   4.476   6.985
 6062SOL     OW19084   1.956   2.169   6.901
 6062SOL    HW119085   1.909   2.252   6.872
 6062SOL    HW219086   1.911   2.089   6.861
 6063SOL     OW19087   4.673   4.238   6.378
 6063SOL    HW119088   4.638   4.292   6.301
 6063SOL    HW219089   4.772   4.225   6.366
 6064SOL     OW19090   6.522   5.361   1.134
 6064SOL    HW119091   6.548   5.452   1.166
 6064SOL    HW219092   6.503   5.302   1.212
 6065SOL     OW19093   1.543   0.004   2.412
 6065SOL    HW119094   1.491   0.004   2.497
 6065SOL    HW219095   1.640   0.013   2.431
 6066SOL     OW19096   5.514   5.683   3.646
 6066SOL    HW119097   5.480   5.682   3.741
 6066SOL    HW219098   5.518   5.777   3.613
 6067SOL     OW19099   6.387   6.457   6.410
 6067SOL    HW119100   6.353   6.546   6.441
 6067SOL    HW219101   6.485   6.463   6.393
 6068SOL     OW19102   4.877   2.438   4.060
 6068SOL    HW119103   4.927   2.478   4.136
 6068SOL    HW219104   4.780   2.463   4.066
 6069SOL     OW19105   0.152   4.482   6.100
 6069SOL    HW119106   0.082   4.468   6.169
 6069SOL    HW219107   0.181   4.394   6.063
 6070SOL     OW19108   2.491   1.203   0.151
 6070SOL    HW119109   2.457   1.293   0.126
 6070SOL    HW219110   2.591   1.207   0.161
 6071SOL     OW19111   6.065   0.872   5.588
 6071SOL    HW119112   6.030   0.947   5.645
 6071SOL    HW219113   6.164   0.881   5.578
 6072SOL     OW19114   0.131   2.589   0.555
 6072SOL    HW119115   0.230   2.598   0.543
 6072SOL    HW219116   0.107   2.619   0.648
 6073SOL     OW19117   5.039   2.941   7.021
 6073SOL    HW119118   4.951   2.952   6.975
 6073SOL    HW219119   5.028   2.955   0.096
 6074SOL     OW19120   0.710   6.665   2.480
 6074SOL    HW119121   0.666   6.606   2.412
 6074SOL    HW219122   0.725   6.613   2.564
 6075SOL     OW19123   5.546   0.313   6.596
 6075SOL    HW119124   5.585   0.315   6.505
 6075SOL    HW219125   5.504   0.401   6.618
 6076SOL     OW19126   1.022   5.840   2.947
 6076SOL    HW119127   1.067   5.923   2.978
 6076SOL    HW219128   0.941   5.864   2.893
 6077SOL     OW19129   5.567   6.833   2.763
 6077SOL    HW119130   5.551   6.930   2.746
 6077SOL    HW219131   5.627   6.823   2.843
 6078SOL     OW19132   4.202   4.209   0.585
 6078SOL    HW119133   4.112   4.171   0.566
 6078SOL    HW219134   4.210   4.299   0.544
 6079SOL     OW19135   3.054   2.813   0.494
 6079SOL    HW119136   2.995   2.881   0.537
 6079SOL    HW219137   3.000   2.735   0.464
 6080SOL     OW19138   0.004   5.137   6.416
 6080SOL    HW119139   0.084   5.094   6.458
 6080SOL    HW219140   7.013   5.100   6.325
 6081SOL     OW19141   1.377   4.038   3.679
 6081SOL    HW119142   1.291   4.028   3.729
 6081SOL    HW219143   1.374   4.121   3.624
 6082SOL     OW19144   5.003   0.867   0.923
 6082SOL    HW119145   5.067   0.920   0.869
 6082SOL    HW219146   4.937   0.823   0.863
 6083SOL     OW19147   4.604   0.582   6.428
 6083SOL    HW119148   4.516   0.542   6.455
 6083SOL    HW219149   4.640   0.637   6.503
 6084SOL     OW19150   0.152   6.117   2.392
 6084SOL    HW119151   0.160   6.186   2.320
 6084SOL    HW219152   0.094   6.042   2.360
 6085SOL     OW19153   0.452   6.954   0.735
 6085SOL    HW119154   0.429   7.001   0.820
 6085SOL    HW219155   0.544   6.980   0.707
 6086SOL     OW19156   3.627   4.193   6.788
 6086SOL    HW119157   3.637   4.292   6.792
 6086SOL    HW219158   3.544   4.169   6.737
 6087SOL     OW19159   4.997   6.710   0.892
 6087SOL    HW119160   4.936   6.764   0.951
 6087SOL    HW219161   4.949   6.687   0.807
 6088SOL     OW19162   5.356   5.991   3.475
 6088SOL    HW119163   5.448   5.978   3.513
 6088SOL    HW219164   5.313   5.902   3.459
 6089SOL     OW19165   6.246   3.635   4.076
 6089SOL    HW119166   6.168   3.623   4.015
 6089SOL    HW219167   6.269   3.547   4.118
 6090SOL     OW19168   4.005   5.875   3.872
 6090SOL    HW119169   3.905   5.865   3.864
 6090SOL    HW219170   4.033   5.857   3.966
 6091SOL     OW19171   1.438   1.655   2.303
 6091SOL    HW119172   1.343   1.675   2.279
 6091SOL    HW219173   1.448   1.653   2.403
 6092SOL     OW19174   2.936   6.143   0.726
 6092SOL    HW119175   2.948   6.113   0.632
 6092SOL    HW219176   2.880   6.078   0.776
 6093SOL     OW19177   2.235   2.233   2.493
 6093SOL    HW119178   2.178   2.184   2.559
 6093SOL    HW219179   2.306   2.173   2.459
 6094SOL     OW19180   0.553   6.154   5.048
 6094SOL    HW119181   0.613   6.198   4.981
 6094SOL    HW219182   0.467   6.129   5.005
 6095SOL     OW19183   4.794   4.805   1.994
 6095SOL    HW119184   4.802   4.880   1.927
 6095SOL    HW219185   4.837   4.833   2.080
 6096SOL     OW19186   5.561   5.989   3.093
 6096SOL    HW119187   5.523   6.052   3.161
 6096SOL    HW219188   5.570   6.037   3.005
 6097SOL     OW19189   1.789   5.011   1.903
 6097SOL    HW119190   1.767   5.005   1.806
 6097SOL    HW219191   1.841   4.931   1.931
 6098SOL     OW19192   6.788   0.380   4.975
 6098SOL    HW119193   6.746   0.469   4.958
 6098SOL    HW219194   6.777   0.322   4.895
 6099SOL     OW19195   3.619   0.624   5.983
 6099SOL    HW119196   3.659   0.544   5.937
 6099SOL    HW219197   3.532   0.646   5.940
 6100SOL     OW19198   0.270   6.236   5.030
 6100SOL    HW119199   0.247   6.287   5.112
 6100SOL    HW219200   0.216   6.151   5.028
 6101SOL     OW19201   0.076   3.429   1.695
 6101SOL    HW119202   0.103   3.494   1.767
 6101SOL    HW219203   7.000   3.422   1.692
 6102SOL     OW19204   3.999   0.166   2.518
 6102SOL    HW119205   4.082   0.109   2.525
 6102SOL    HW219206   3.939   0.147   2.596
 6103SOL     OW19207   6.312   1.678   2.008
 6103SOL    HW119208   6.300   1.705   2.104
 6103SOL    HW219209   6.409   1.662   1.990
 6104SOL     OW19210   0.002   0.991   4.268
 6104SOL    HW119211   0.041   0.937   4.194
 6104SOL    HW219212   6.927   1.002   4.253
 6105SOL     OW19213   3.126   4.570   5.302
 6105SOL    HW119214   3.043   4.516   5.289
 6105SOL    HW219215   3.144   4.581   5.400
 6106SOL     OW19216   6.224   4.945   5.461
 6106SOL    HW119217   6.177   4.863   5.495
 6106SOL    HW219218   6.157   5.008   5.423
 6107SOL     OW19219   5.186   5.862   5.268
 6107SOL    HW119220   5.214   5.769   5.294
 6107SOL    HW219221   5.207   5.877   5.171
 6108SOL     OW19222   2.423   1.456   0.047
 6108SOL    HW119223   2.435   1.519   6.993
 6108SOL    HW219224   2.328   1.458   0.078
 6109SOL     OW19225   6.407   6.905   3.729
 6109SOL    HW119226   6.345   6.950   3.665
 6109SOL    HW219227   6.463   6.973   3.775
 6110SOL     OW19228   1.672   1.420   4.475
 6110SOL    HW119229   1.609   1.366   4.530
 6110SOL    HW219230   1.635   1.430   4.382
 6111SOL     OW19231   1.657   4.373   1.012
 6111SOL    HW119232   1.560   4.364   0.989
 6111SOL    HW219233   1.681   4.470   1.019
 6112SOL     OW19234   4.707   6.732   2.869
 6112SOL    HW119235   4.701   6.812   2.809
 6112SOL    HW219236   4.629   6.731   2.931
 6113SOL     OW19237   3.157   5.090   0.746
 6113SOL    HW119238   3.238   5.145   0.723
 6113SOL    HW219239   3.077   5.150   0.754
 6114SOL     OW19240   4.951   2.143   0.127
 6114SOL    HW119241   4.891   2.165   0.204
 6114SOL    HW219242   5.037   2.192   0.136
 6115SOL     OW19243   1.187   0.541   5.674
 6115SOL    HW119244   1.098   0.499   5.655
 6115SOL    HW219245   1.174   0.637   5.700
 6116SOL     OW19246   5.734   2.232   6.276
 6116SOL    HW119247   5.661   2.187   6.328
 6116SOL    HW219248   5.701   2.321   6.244
 6117SOL     OW19249   1.962   1.940   1.215
 6117SOL    HW119250   2.035   1.995   1.256
 6117SOL    HW219251   1.951   1.855   1.266
 6118SOL     OW19252   5.849   0.815   0.945
 6118SOL    HW119253   5.841   0.748   0.871
 6118SOL    HW219254   5.887   0.900   0.910
 6119SOL     OW19255   0.013   1.895   0.322
 6119SOL    HW119256   0.019   1.796   0.327
 6119SOL    HW219257   7.013   1.923   0.229
 6120SOL     OW19258   2.466   1.175   4.802
 6120SOL    HW119259   2.484   1.242   4.730
 6120SOL    HW219260   2.384   1.123   4.778
 6121SOL     OW19261   0.478   2.352   5.394
 6121SOL    HW119262   0.414   2.405   5.450
 6121SOL    HW219263   0.431   2.316   5.314
 6122SOL     OW19264   5.135   4.717   5.737
 6122SOL    HW119265   5.220   4.749   5.780
 6122SOL    HW219266   5.133   4.747   5.641
 6123SOL     OW19267   5.430   1.588   5.319
 6123SOL    HW119268   5.383   1.523   5.379
 6123SOL    HW219269   5.514   1.547   5.285
 6124SOL     OW19270   2.269   5.822   3.973
 6124SOL    HW119271   2.242   5.745   4.031
 6124SOL    HW219272   2.312   5.787   3.889
 6125SOL     OW19273   2.534   2.186   6.721
 6125SOL    HW119274   2.511   2.283   6.706
 6125SOL    HW219275   2.536   2.139   6.632
 6126SOL     OW19276   5.723   3.259   5.368
 6126SOL    HW119277   5.642   3.288   5.420
 6126SOL    HW219278   5.705   3.269   5.270
 6127SOL     OW19279   4.270   2.172   1.778
 6127SOL    HW119280   4.290   2.259   1.733
 6127SOL    HW219281   4.273   2.098   1.710
 6128SOL     OW19282   5.490   5.533   0.311
 6128SOL    HW119283   5.439   5.520   0.226
 6128SOL    HW219284   5.584   5.498   0.299
 6129SOL     OW19285   1.432   5.607   2.201
 6129SOL    HW119286   1.499   5.632   2.132
 6129SOL    HW219287   1.452   5.515   2.236
 6130SOL     OW19288   5.958   2.440   6.898
 6130SOL    HW119289   5.919   2.426   6.989
 6130SOL    HW219290   6.046   2.392   6.892
 6131SOL     OW19291   6.374   1.272   2.834
 6131SOL    HW119292   6.317   1.257   2.915
 6131SOL    HW219293   6.328   1.336   2.773
 6132SOL     OW19294   3.618   1.666   6.577
 6132SOL    HW119295   3.556   1.675   6.655
 6132SOL    HW219296   3.597   1.737   6.510
 6133SOL     OW19297   1.574   1.949   3.384
 6133SOL    HW119298   1.521   1.925   3.465
 6133SOL    HW219299   1.656   1.891   3.379
 6134SOL     OW19300   6.447   6.831   6.337
 6134SOL    HW119301   6.392   6.768   6.392
 6134SOL    HW219302   6.387   6.898   6.294
 6135SOL     OW19303   6.685   7.012   6.821
 6135SOL    HW119304   6.693   0.088   6.817
 6135SOL    HW219305   6.689   6.974   6.729
 6136SOL     OW19306   1.054   3.222   2.232
 6136SOL    HW119307   1.106   3.138   2.252
 6136SOL    HW219308   0.968   3.220   2.282
 6137SOL     OW19309   6.675   4.043   2.192
 6137SOL    HW119310   6.702   4.038   2.288
 6137SOL    HW219311   6.717   4.122   2.149
 6138SOL     OW19312   4.150   0.258   1.829
 6138SOL    HW119313   4.239   0.221   1.801
 6138SOL    HW219314   4.151   0.357   1.819
 6139SOL     OW19315   1.688   0.624   5.907
 6139SOL    HW119316   1.762   0.691   5.916
 6139SOL    HW219317   1.609   0.655   5.960
 6140SOL     OW19318   1.115   0.251   3.378
 6140SOL    HW119319   1.073   0.167   3.345
 6140SOL    HW219320   1.069   0.280   3.462
 6141SOL     OW19321   0.547   1.263   5.792
 6141SOL    HW119322   0.449   1.248   5.780
 6141SOL    HW219323   0.562   1.349   5.839
 6142SOL     OW19324   0.169   0.910   1.344
 6142SOL    HW119325   0.223   0.840   1.298
 6142SOL    HW219326   0.079   0.873   1.367
 6143SOL     OW19327   0.245   4.044   5.345
 6143SOL    HW119328   0.290   3.963   5.308
 6143SOL    HW219329   0.180   4.079   5.277
 6144SOL     OW19330   3.995   5.180   3.111
 6144SOL    HW119331   4.071   5.244   3.120
 6144SOL    HW219332   4.010   5.120   3.032
 6145SOL     OW19333   4.899   3.364   3.678
 6145SOL    HW119334   4.815   3.316   3.705
 6145SOL    HW219335   4.953   3.305   3.618
 6146SOL     OW19336   5.657   6.894   5.004
 6146SOL    HW119337   5.727   6.949   5.049
 6146SOL    HW219338   5.602   6.848   5.074
 6147SOL     OW19339   1.465   2.410   4.299
 6147SOL    HW119340   1.454   2.385   4.395
 6147SOL    HW219341   1.379   2.396   4.251
 6148SOL     OW19342   3.312   6.040   0.196
 6148SOL    HW119343   3.232   6.085   0.156
 6148SOL    HW219344   3.321   5.948   0.159
 6149SOL     OW19345   2.894   0.713   1.381
 6149SOL    HW119346   2.863   0.630   1.335
 6149SOL    HW219347   2.994   0.718   1.378
 6150SOL     OW19348   0.591   3.826   5.496
 6150SOL    HW119349   0.585   3.924   5.514
 6150SOL    HW219350   0.603   3.777   5.582
 6151SOL     OW19351   4.594   5.442   4.021
 6151SOL    HW119352   4.578   5.445   4.120
 6151SOL    HW219353   4.657   5.368   3.999
 6152SOL     OW19354   1.408   4.955   4.217
 6152SOL    HW119355   1.408   4.994   4.125
 6152SOL    HW219356   1.485   4.893   4.228
 6153SOL     OW19357   5.536   5.395   1.309
 6153SOL    HW119358   5.633   5.410   1.323
 6153SOL    HW219359   5.514   5.300   1.328
 6154SOL     OW19360   4.892   3.416   2.149
 6154SOL    HW119361   4.868   3.383   2.057
 6154SOL    HW219362   4.897   3.338   2.212
 6155SOL     OW19363   1.806   1.396   3.041
 6155SOL    HW119364   1.820   1.470   2.974
 6155SOL    HW219365   1.761   1.319   2.997
 6156SOL     OW19366   4.937   5.390   1.391
 6156SOL    HW119367   4.956   5.295   1.419
 6156SOL    HW219368   5.019   5.428   1.349
 6157SOL     OW19369   1.345   2.703   2.266
 6157SOL    HW119370   1.276   2.708   2.193
 6157SOL    HW219371   1.436   2.700   2.225
 6158SOL     OW19372   2.869   2.290   4.862
 6158SOL    HW119373   2.879   2.272   4.960
 6158SOL    HW219374   2.941   2.352   4.832
 6159SOL     OW19375   6.318   2.870   1.031
 6159SOL    HW119376   6.393   2.936   1.040
 6159SOL    HW219377   6.231   2.915   1.047
 6160SOL     OW19378   1.508   0.597   0.763
 6160SOL    HW119379   1.547   0.515   0.720
 6160SOL    HW219380   1.531   0.677   0.707
 6161SOL     OW19381   4.492   3.222   6.560
 6161SOL    HW119382   4.437   3.148   6.600
 6161SOL    HW219383   4.575   3.234   6.615
 6162SOL     OW19384   6.035   5.208   3.274
 6162SOL    HW119385   6.081   5.219   3.185
 6162SOL    HW219386   5.968   5.134   3.268
 6163SOL     OW19387   5.464   6.320   3.983
 6163SOL    HW119388   5.435   6.376   4.061
 6163SOL    HW219389   5.462   6.224   4.008
 6164SOL     OW19390   3.011   3.550   4.799
 6164SOL    HW119391   3.000   3.453   4.778
 6164SOL    HW219392   2.958   3.605   4.734
 6165SOL     OW19393   3.942   1.190   0.222
 6165SOL    HW119394   3.997   1.244   0.158
 6165SOL    HW219395   4.002   1.144   0.287
 6166SOL     OW19396   1.732   3.014   6.560
 6166SOL    HW119397   1.739   2.933   6.619
 6166SOL    HW219398   1.730   2.985   6.464
 6167SOL     OW19399   1.729   3.878   3.314
 6167SOL    HW119400   1.778   3.811   3.370
 6167SOL    HW219401   1.675   3.937   3.374
 6168SOL     OW19402   0.406   4.042   4.007
 6168SOL    HW119403   0.311   4.049   4.037
 6168SOL    HW219404   0.408   4.021   3.909
 6169SOL     OW19405   2.494   0.174   0.163
 6169SOL    HW119406   2.562   0.217   0.104
 6169SOL    HW219407   2.405   0.216   0.147
 6170SOL     OW19408   3.422   3.911   0.252
 6170SOL    HW119409   3.488   3.848   0.213
 6170SOL    HW219410   3.406   3.986   0.188
 6171SOL     OW19411   2.266   4.056   2.036
 6171SOL    HW119412   2.274   4.007   1.949
 6171SOL    HW219413   2.320   4.140   2.032
 6172SOL     OW19414   1.745   6.523   2.635
 6172SOL    HW119415   1.673   6.539   2.567
 6172SOL    HW219416   1.770   6.426   2.635
 6173SOL     OW19417   1.486   6.154   2.442
 6173SOL    HW119418   1.419   6.162   2.515
 6173SOL    HW219419   1.441   6.124   2.358
 6174SOL     OW19420   5.168   5.425   3.043
 6174SOL    HW119421   5.159   5.449   2.947
 6174SOL    HW219422   5.163   5.508   3.099
 6175SOL     OW19423   5.183   0.437   2.930
 6175SOL    HW119424   5.132   0.471   2.852
 6175SOL    HW219425   5.131   0.365   2.976
 6176SOL     OW19426   6.839   3.500   5.604
 6176SOL    HW119427   6.885   3.568   5.661
 6176SOL    HW219428   6.827   3.416   5.656
 6177SOL     OW19429   6.389   2.452   0.167
 6177SOL    HW119430   6.455   2.416   0.233
 6177SOL    HW219431   6.332   2.521   0.212
 6178SOL     OW19432   6.124   3.201   0.934
 6178SOL    HW119433   6.055   3.253   0.885
 6178SOL    HW219434   6.183   3.154   0.869
 6179SOL     OW19435   0.348   1.972   5.622
 6179SOL    HW119436   0.436   1.939   5.589
 6179SOL    HW219437   0.304   2.027   5.551
 6180SOL     OW19438   3.562   0.103   6.827
 6180SOL    HW119439   3.566   0.163   6.747
 6180SOL    HW219440   3.477   0.051   6.825
 6181SOL     OW19441   5.218   6.470   6.881
 6181SOL    HW119442   5.225   6.422   6.793
 6181SOL    HW219443   5.214   6.403   6.955
 6182SOL     OW19444   4.761   5.977   6.608
 6182SOL    HW119445   4.743   6.054   6.670
 6182SOL    HW219446   4.810   5.905   6.658
 6183SOL     OW19447   3.561   0.486   3.258
 6183SOL    HW119448   3.654   0.514   3.278
 6183SOL    HW219449   3.527   0.534   3.177
 6184SOL     OW19450   0.531   0.223   6.759
 6184SOL    HW119451   0.566   0.281   6.833
 6184SOL    HW219452   0.585   0.237   6.677
 6185SOL     OW19453   0.519   3.590   6.049
 6185SOL    HW119454   0.474   3.528   6.114
 6185SOL    HW219455   0.476   3.582   5.959
 6186SOL     OW19456   5.964   0.239   5.079
 6186SOL    HW119457   5.912   0.324   5.068
 6186SOL    HW219458   5.912   0.163   5.041
 6187SOL     OW19459   4.173   4.737   3.664
 6187SOL    HW119460   4.252   4.795   3.643
 6187SOL    HW219461   4.194   4.679   3.743
 6188SOL     OW19462   2.793   6.256   1.460
 6188SOL    HW119463   2.719   6.285   1.521
 6188SOL    HW219464   2.827   6.167   1.489
 6189SOL     OW19465   5.915   4.651   2.912
 6189SOL    HW119466   5.988   4.684   2.852
 6189SOL    HW219467   5.943   4.661   3.008
 6190SOL     OW19468   5.587   2.536   0.078
 6190SOL    HW119469   5.526   2.615   0.073
 6190SOL    HW219470   5.646   2.534   7.021
 6191SOL     OW19471   6.544   2.268   0.033
 6191SOL    HW119472   6.556   2.182   0.082
 6191SOL    HW219473   6.479   2.326   0.083
 6192SOL     OW19474   3.203   2.833   6.551
 6192SOL    HW119475   3.264   2.835   6.630
 6192SOL    HW219476   3.214   2.918   6.499
 6193SOL     OW19477   5.855   0.181   1.315
 6193SOL    HW119478   5.892   0.221   1.232
 6193SOL    HW219479   5.837   0.253   1.382
 6194SOL     OW19480   2.087   0.763   0.445
 6194SOL    HW119481   2.135   0.849   0.461
 6194SOL    HW219482   2.023   0.774   0.368
 6195SOL     OW19483   3.700   0.571   6.663
 6195SOL    HW119484   3.634   0.630   6.710
 6195SOL    HW219485   3.780   0.626   6.637
 6196SOL     OW19486   0.716   1.298   6.203
 6196SOL    HW119487   0.705   1.304   6.104
 6196SOL    HW219488   0.697   1.387   6.244
 6197SOL     OW19489   2.353   3.224   0.670
 6197SOL    HW119490   2.351   3.214   0.570
 6197SOL    HW219491   2.351   3.321   0.694
 6198SOL     OW19492   4.067   4.756   2.668
 6198SOL    HW119493   4.107   4.748   2.577
 6198SOL    HW219494   3.977   4.800   2.661
 6199SOL     OW19495   1.607   6.839   6.238
 6199SOL    HW119496   1.528   6.783   6.213
 6199SOL    HW219497   1.665   6.789   6.302
 6200SOL     OW19498   4.051   0.252   6.029
 6200SOL    HW119499   4.133   0.302   6.054
 6200SOL    HW219500   3.973   0.288   6.080
 6201SOL     OW19501   2.220   4.637   5.046
 6201SOL    HW119502   2.241   4.542   5.024
 6201SOL    HW219503   2.147   4.640   5.114
 6202SOL     OW19504   3.278   1.746   1.198
 6202SOL    HW119505   3.255   1.765   1.294
 6202SOL    HW219506   3.313   1.828   1.155
 6203SOL     OW19507   4.691   1.524   4.658
 6203SOL    HW119508   4.696   1.622   4.677
 6203SOL    HW219509   4.638   1.509   4.574
 6204SOL     OW19510   1.884   6.424   5.882
 6204SOL    HW119511   1.882   6.433   5.783
 6204SOL    HW219512   1.794   6.449   5.920
 6205SOL     OW19513   5.737   6.092   6.883
 6205SOL    HW119514   5.776   6.056   6.968
 6205SOL    HW219515   5.730   6.191   6.889
 6206SOL     OW19516   5.312   0.129   2.602
 6206SOL    HW119517   5.320   0.167   2.509
 6206SOL    HW219518   5.352   0.193   2.667
 6207SOL     OW19519   1.634   4.085   4.781
 6207SOL    HW119520   1.619   4.115   4.875
 6207SOL    HW219521   1.724   4.043   4.774
 6208SOL     OW19522   6.153   6.623   5.667
 6208SOL    HW119523   6.232   6.654   5.720
 6208SOL    HW219524   6.076   6.605   5.729
 6209SOL     OW19525   3.655   5.372   0.921
 6209SOL    HW119526   3.635   5.344   1.014
 6209SOL    HW219527   3.742   5.332   0.891
 6210SOL     OW19528   6.021   4.563   3.819
 6210SOL    HW119529   5.972   4.514   3.891
 6210SOL    HW219530   6.000   4.522   3.730
 6211SOL     OW19531   3.189   6.805   4.760
 6211SOL    HW119532   3.108   6.759   4.797
 6211SOL    HW219533   3.203   6.778   4.665
 6212SOL     OW19534   6.732   6.432   3.584
 6212SOL    HW119535   6.711   6.507   3.647
 6212SOL    HW219536   6.647   6.388   3.555
 6213SOL     OW19537   0.238   6.809   6.492
 6213SOL    HW119538   0.142   6.813   6.464
 6213SOL    HW219539   0.248   6.841   6.586
 6214SOL     OW19540   5.996   4.684   2.516
 6214SOL    HW119541   5.914   4.741   2.507
 6214SOL    HW219542   5.974   4.603   2.571
 6215SOL     OW19543   3.453   3.371   0.586
 6215SOL    HW119544   3.447   3.296   0.519
 6215SOL    HW219545   3.411   3.453   0.549
 6216SOL     OW19546   5.531   1.939   2.370
 6216SOL    HW119547   5.568   2.000   2.441
 6216SOL    HW219548   5.583   1.853   2.370
 6217SOL     OW19549   4.953   3.087   1.336
 6217SOL    HW119550   4.872   3.035   1.309
 6217SOL    HW219551   4.994   3.046   1.417
 6218SOL     OW19552   3.145   5.277   5.136
 6218SOL    HW119553   3.207   5.355   5.125
 6218SOL    HW219554   3.088   5.269   5.054
 6219SOL     OW19555   0.957   1.785   4.605
 6219SOL    HW119556   1.000   1.875   4.598
 6219SOL    HW219557   0.858   1.794   4.597
 6220SOL     OW19558   2.138   4.470   5.372
 6220SOL    HW119559   2.202   4.547   5.373
 6220SOL    HW219560   2.181   4.392   5.326
 6221SOL     OW19561   3.864   5.164   4.443
 6221SOL    HW119562   3.772   5.125   4.447
 6221SOL    HW219563   3.929   5.099   4.483
 6222SOL     OW19564   6.987   1.224   1.234
 6222SOL    HW119565   0.014   1.300   1.195
 6222SOL    HW219566   0.014   1.139   1.218
 6223SOL     OW19567   4.778   2.888   4.785
 6223SOL    HW119568   4.807   2.976   4.824
 6223SOL    HW219569   4.750   2.901   4.690
 6224SOL     OW19570   2.904   1.605   5.172
 6224SOL    HW119571   2.921   1.693   5.129
 6224SOL    HW219572   2.990   1.568   5.208
 6225SOL     OW19573   3.706   2.642   0.029
 6225SOL    HW119574   3.760   2.665   0.111
 6225SOL    HW219575   3.615   2.613   0.056
 6226SOL     OW19576   5.581   0.503   4.855
 6226SOL    HW119577   5.632   0.557   4.787
 6226SOL    HW219578   5.569   0.557   4.938
 6227SOL     OW19579   3.011   4.579   5.978
 6227SOL    HW119580   3.083   4.539   5.921
 6227SOL    HW219581   3.008   4.531   6.066
 6228SOL     OW19582   6.752   0.430   3.109
 6228SOL    HW119583   6.826   0.403   3.047
 6228SOL    HW219584   6.701   0.348   3.137
 6229SOL     OW19585   2.276   2.779   2.089
 6229SOL    HW119586   2.322   2.694   2.111
 6229SOL    HW219587   2.312   2.816   2.003
 6230SOL     OW19588   2.686   2.184   3.554
 6230SOL    HW119589   2.693   2.129   3.470
 6230SOL    HW219590   2.596   2.172   3.595
 6231SOL     OW19591   0.203   4.808   1.628
 6231SOL    HW119592   0.125   4.827   1.688
 6231SOL    HW219593   0.221   4.709   1.627
 6232SOL     OW19594   0.926   1.087   6.824
 6232SOL    HW119595   0.856   1.083   6.753
 6232SOL    HW219596   0.891   1.139   6.902
 6233SOL     OW19597   4.834   1.900   0.238
 6233SOL    HW119598   4.890   1.879   0.318
 6233SOL    HW219599   4.884   1.960   0.176
 6234SOL     OW19600   2.106   2.320   4.054
 6234SOL    HW119601   2.048   2.264   4.112
 6234SOL    HW219602   2.156   2.262   3.990
 6235SOL     OW19603   2.404   6.942   3.255
 6235SOL    HW119604   2.378   6.857   3.209
 6235SOL    HW219605   2.449   7.002   3.190
 6236SOL     OW19606   0.091   4.250   0.678
 6236SOL    HW119607   0.143   4.320   0.727
 6236SOL    HW219608   0.097   4.268   0.580
 6237SOL     OW19609   4.278   6.995   0.594
 6237SOL    HW119610   4.303   6.905   0.629
 6237SOL    HW219611   4.356   0.013   0.547
 6238SOL     OW19612   4.886   4.723   1.228
 6238SOL    HW119613   4.808   4.769   1.271
 6238SOL    HW219614   4.947   4.792   1.188
 6239SOL     OW19615   2.577   0.313   3.539
 6239SOL    HW119616   2.629   0.229   3.553
 6239SOL    HW219617   2.494   0.294   3.489
 6240SOL     OW19618   1.585   3.819   0.581
 6240SOL    HW119619   1.498   3.866   0.599
 6240SOL    HW219620   1.614   3.836   0.487
 6241SOL     OW19621   4.418   0.181   1.279
 6241SOL    HW119622   4.442   0.272   1.246
 6241SOL    HW219623   4.488   0.116   1.251
 6242SOL     OW19624   4.669   2.163   3.656
 6242SOL    HW119625   4.675   2.136   3.560
 6242SOL    HW219626   4.670   2.080   3.713
 6243SOL     OW19627   6.048   6.076   3.956
 6243SOL    HW119628   6.026   5.985   3.991
 6243SOL    HW219629   6.147   6.090   3.962
 6244SOL     OW19630   2.758   1.795   2.069
 6244SOL    HW119631   2.726   1.856   2.142
 6244SOL    HW219632   2.681   1.767   2.012
 6245SOL     OW19633   3.178   4.174   0.638
 6245SOL    HW119634   3.168   4.229   0.555
 6245SOL    HW219635   3.091   4.171   0.687
 6246SOL     OW19636   2.679   1.043   5.590
 6246SOL    HW119637   2.671   0.964   5.651
 6246SOL    HW219638   2.757   1.099   5.617
 6247SOL     OW19639   0.279   6.114   2.944
 6247SOL    HW119640   0.220   6.165   3.007
 6247SOL    HW219641   0.224   6.077   2.869
 6248SOL     OW19642   0.392   4.780   1.215
 6248SOL    HW119643   0.323   4.719   1.177
 6248SOL    HW219644   0.348   4.845   1.277
 6249SOL     OW19645   5.955   3.962   6.559
 6249SOL    HW119646   5.875   4.022   6.567
 6249SOL    HW219647   5.925   3.869   6.538
 6250SOL     OW19648   6.049   5.844   0.022
 6250SOL    HW119649   5.987   5.786   6.992
 6250SOL    HW219650   6.047   5.937   7.008
 6251SOL     OW19651   4.538   1.577   0.496
 6251SOL    HW119652   4.575   1.571   0.404
 6251SOL    HW219653   4.446   1.616   0.493
 6252SOL     OW19654   2.457   6.189   5.355
 6252SOL    HW119655   2.379   6.245   5.382
 6252SOL    HW219656   2.427   6.094   5.342
 6253SOL     OW19657   1.905   4.042   1.877
 6253SOL    HW119658   1.936   4.058   1.971
 6253SOL    HW219659   1.815   4.082   1.865
 6254SOL     OW19660   5.024   0.498   0.440
 6254SOL    HW119661   5.002   0.417   0.494
 6254SOL    HW219662   5.093   0.553   0.488
 6255SOL     OW19663   0.708   1.331   2.344
 6255SOL    HW119664   0.740   1.236   2.342
 6255SOL    HW219665   0.621   1.336   2.393
 6256SOL     OW19666   2.925   5.250   2.765
 6256SOL    HW119667   2.916   5.345   2.735
 6256SOL    HW219668   2.860   5.193   2.714
 6257SOL     OW19669   5.380   2.374   6.856
 6257SOL    HW119670   5.319   2.315   6.803
 6257SOL    HW219671   5.474   2.357   6.829
 6258SOL     OW19672   5.043   1.850   2.283
 6258SOL    HW119673   5.102   1.923   2.248
 6258SOL    HW219674   5.014   1.873   2.376
 6259SOL     OW19675   2.778   2.634   1.722
 6259SOL    HW119676   2.735   2.561   1.669
 6259SOL    HW219677   2.856   2.598   1.773
 6260SOL     OW19678   3.616   3.747   0.140
 6260SOL    HW119679   3.703   3.729   0.187
 6260SOL    HW219680   3.617   3.702   0.051
 6261SOL     OW19681   4.113   1.107   0.438
 6261SOL    HW119682   4.191   1.069   0.388
 6261SOL    HW219683   4.062   1.032   0.480
 6262SOL     OW19684   0.488   5.049   6.182
 6262SOL    HW119685   0.558   5.076   6.117
 6262SOL    HW219686   0.469   5.124   6.245
 6263SOL     OW19687   6.638   0.285   0.696
 6263SOL    HW119688   6.639   0.334   0.609
 6263SOL    HW219689   6.614   0.189   0.681
 6264SOL     OW19690   2.926   1.464   0.859
 6264SOL    HW119691   2.847   1.430   0.808
 6264SOL    HW219692   2.893   1.519   0.936
 6265SOL     OW19693   3.536   2.904   1.199
 6265SOL    HW119694   3.559   2.932   1.293
 6265SOL    HW219695   3.499   2.811   1.200
 6266SOL     OW19696   2.496   0.386   2.965
 6266SOL    HW119697   2.555   0.449   2.915
 6266SOL    HW219698   2.455   0.435   3.043
 6267SOL     OW19699   3.375   7.022   6.314
 6267SOL    HW119700   3.424   6.936   6.306
 6267SOL    HW219701   3.440   0.074   6.319
 6268SOL     OW19702   3.448   5.176   2.543
 6268SOL    HW119703   3.368   5.197   2.599
 6268SOL    HW219704   3.524   5.148   2.603
 6269SOL     OW19705   6.372   4.799   1.497
 6269SOL    HW119706   6.288   4.831   1.453
 6269SOL    HW219707   6.451   4.840   1.452
 6270SOL     OW19708   0.803   0.660   4.904
 6270SOL    HW119709   0.868   0.641   4.830
 6270SOL    HW219710   0.745   0.580   4.919
 6271SOL     OW19711   5.833   1.600   0.597
 6271SOL    HW119712   5.922   1.585   0.554
 6271SOL    HW219713   5.767   1.626   0.528
 6272SOL     OW19714   1.854   1.924   3.509
 6272SOL    HW119715   1.833   1.857   3.580
 6272SOL    HW219716   1.886   1.877   3.427
 6273SOL     OW19717   3.289   0.876   1.799
 6273SOL    HW119718   3.295   0.782   1.766
 6273SOL    HW219719   3.201   0.916   1.771
 6274SOL     OW19720   4.472   6.873   6.319
 6274SOL    HW119721   4.560   6.910   6.291
 6274SOL    HW219722   4.446   6.799   6.258
 6275SOL     OW19723   2.302   0.729   4.639
 6275SOL    HW119724   2.360   0.649   4.620
 6275SOL    HW219725   2.219   0.699   4.685
 6276SOL     OW19726   1.236   5.370   4.020
 6276SOL    HW119727   1.150   5.402   4.062
 6276SOL    HW219728   1.312   5.391   4.081
 6277SOL     OW19729   5.553   3.422   2.842
 6277SOL    HW119730   5.488   3.498   2.848
 6277SOL    HW219731   5.624   3.445   2.776
 6278SOL     OW19732   5.133   0.782   4.663
 6278SOL    HW119733   5.060   0.747   4.723
 6278SOL    HW219734   5.142   0.881   4.677
 6279SOL     OW19735   4.967   1.853   0.477
 6279SOL    HW119736   4.999   1.760   0.493
 6279SOL    HW219737   4.930   1.891   0.562
 6280SOL     OW19738   0.479   4.661   5.664
 6280SOL    HW119739   0.504   4.672   5.761
 6280SOL    HW219740   0.499   4.745   5.614
 6281SOL     OW19741   2.576   6.752   5.281
 6281SOL    HW119742   2.599   6.662   5.318
 6281SOL    HW219743   2.530   6.742   5.193
 6282SOL     OW19744   1.472   7.013   4.148
 6282SOL    HW119745   1.429   0.012   4.060
 6282SOL    HW219746   1.473   6.914   4.160
 6283SOL     OW19747   6.645   2.168   5.279
 6283SOL    HW119748   6.713   2.195   5.211
 6283SOL    HW219749   6.562   2.136   5.231
 6284SOL     OW19750   2.053   4.466   6.022
 6284SOL    HW119751   2.082   4.539   6.083
 6284SOL    HW219752   2.070   4.493   5.927
 6285SOL     OW19753   1.732   4.348   2.446
 6285SOL    HW119754   1.763   4.406   2.522
 6285SOL    HW219755   1.640   4.313   2.466
 6286SOL     OW19756   5.825   1.146   3.804
 6286SOL    HW119757   5.848   1.063   3.753
 6286SOL    HW219758   5.732   1.138   3.841
 6287SOL     OW19759   4.624   4.368   1.688
 6287SOL    HW119760   4.698   4.385   1.754
 6287SOL    HW219761   4.541   4.344   1.737
 6288SOL     OW19762   5.470   3.491   0.742
 6288SOL    HW119763   5.504   3.577   0.703
 6288SOL    HW219764   5.425   3.437   0.671
 6289SOL     OW19765   1.735   1.199   3.582
 6289SOL    HW119766   1.747   1.104   3.555
 6289SOL    HW219767   1.691   1.203   3.672
 6290SOL     OW19768   5.655   3.783   3.100
 6290SOL    HW119769   5.576   3.746   3.148
 6290SOL    HW219770   5.730   3.717   3.103
 6291SOL     OW19771   3.656   4.068   3.448
 6291SOL    HW119772   3.566   4.078   3.490
 6291SOL    HW219773   3.650   4.088   3.350
 6292SOL     OW19774   1.211   2.040   2.338
 6292SOL    HW119775   1.180   2.112   2.401
 6292SOL    HW219776   1.244   2.081   2.253
 6293SOL     OW19777   4.503   0.094   0.455
 6293SOL    HW119778   4.592   0.087   0.411
 6293SOL    HW219779   4.476   0.190   0.463
 6294SOL     OW19780   4.155   5.224   2.795
 6294SOL    HW119781   4.087   5.182   2.736
 6294SOL    HW219782   4.160   5.322   2.776
 6295SOL     OW19783   6.289   6.704   6.532
 6295SOL    HW119784   6.257   6.640   6.602
 6295SOL    HW219785   6.273   6.798   6.563
 6296SOL     OW19786   6.266   1.218   3.498
 6296SOL    HW119787   6.240   1.221   3.595
 6296SOL    HW219788   6.268   1.122   3.468
 6297SOL     OW19789   5.365   0.094   5.592
 6297SOL    HW119790   5.279   0.110   5.543
 6297SOL    HW219791   5.353   0.118   5.689
 6298SOL     OW19792   1.237   1.666   4.924
 6298SOL    HW119793   1.141   1.657   4.896
 6298SOL    HW219794   1.293   1.689   4.844
 6299SOL     OW19795   6.154   2.909   0.117
 6299SOL    HW119796   6.169   2.816   0.083
 6299SOL    HW219797   6.065   2.913   0.163
 6300SOL     OW19798   5.412   0.161   3.861
 6300SOL    HW119799   5.385   0.256   3.876
 6300SOL    HW219800   5.512   0.155   3.853
 6301SOL     OW19801   3.050   6.857   0.624
 6301SOL    HW119802   3.101   6.776   0.595
 6301SOL    HW219803   3.047   6.923   0.548
 6302SOL     OW19804   1.249   0.827   3.441
 6302SOL    HW119805   1.160   0.822   3.395
 6302SOL    HW219806   1.285   0.734   3.453
 6303SOL     OW19807   1.731   5.892   5.617
 6303SOL    HW119808   1.760   5.904   5.522
 6303SOL    HW219809   1.727   5.795   5.639
 6304SOL     OW19810   3.270   1.313   6.511
 6304SOL    HW119811   3.172   1.324   6.497
 6304SOL    HW219812   3.298   1.221   6.485
 6305SOL     OW19813   6.010   0.997   1.198
 6305SOL    HW119814   6.106   1.001   1.169
 6305SOL    HW219815   5.980   0.902   1.203
 6306SOL     OW19816   6.272   3.120   3.989
 6306SOL    HW119817   6.227   3.031   3.980
 6306SOL    HW219818   6.233   3.184   3.923
 6307SOL     OW19819   2.400   4.868   0.737
 6307SOL    HW119820   2.374   4.803   0.808
 6307SOL    HW219821   2.476   4.830   0.684
 6308SOL     OW19822   2.933   2.211   5.144
 6308SOL    HW119823   2.890   2.286   5.195
 6308SOL    HW219824   3.031   2.229   5.136
 6309SOL     OW19825   5.868   2.015   4.431
 6309SOL    HW119826   5.947   1.996   4.490
 6309SOL    HW219827   5.859   1.943   4.363
 6310SOL     OW19828   1.445   4.820   5.154
 6310SOL    HW119829   1.498   4.802   5.071
 6310SOL    HW219830   1.385   4.742   5.172
 6311SOL     OW19831   5.965   0.539   5.159
 6311SOL    HW119832   6.047   0.522   5.104
 6311SOL    HW219833   5.989   0.598   5.237
 6312SOL     OW19834   4.246   5.024   6.030
 6312SOL    HW119835   4.288   4.937   6.007
 6312SOL    HW219836   4.277   5.095   5.967
 6313SOL     OW19837   2.447   5.405   2.782
 6313SOL    HW119838   2.378   5.345   2.823
 6313SOL    HW219839   2.404   5.465   2.716
 6314SOL     OW19840   3.181   5.952   3.204
 6314SOL    HW119841   3.135   5.903   3.130
 6314SOL    HW219842   3.230   6.031   3.167
 6315SOL     OW19843   2.956   3.036   0.669
 6315SOL    HW119844   2.931   3.116   0.615
 6315SOL    HW219845   2.976   3.065   0.763
 6316SOL     OW19846   5.580   1.884   5.946
 6316SOL    HW119847   5.652   1.815   5.935
 6316SOL    HW219848   5.507   1.847   6.005
 6317SOL     OW19849   6.151   6.268   4.354
 6317SOL    HW119850   6.174   6.277   4.257
 6317SOL    HW219851   6.153   6.359   4.396
 6318SOL     OW19852   2.790   1.773   4.655
 6318SOL    HW119853   2.831   1.702   4.713
 6318SOL    HW219854   2.704   1.803   4.697
 6319SOL     OW19855   0.252   1.574   2.987
 6319SOL    HW119856   0.304   1.634   3.048
 6319SOL    HW219857   0.224   1.626   2.906
 6320SOL     OW19858   6.221   2.943   3.674
 6320SOL    HW119859   6.269   2.856   3.687
 6320SOL    HW219860   6.122   2.927   3.678
 6321SOL     OW19861   2.453   3.689   0.505
 6321SOL    HW119862   2.375   3.748   0.486
 6321SOL    HW219863   2.516   3.735   0.568
 6322SOL     OW19864   1.304   1.298   6.923
 6322SOL    HW119865   1.273   1.229   6.988
 6322SOL    HW219866   1.382   1.347   6.962
 6323SOL     OW19867   3.931   2.445   0.590
 6323SOL    HW119868   3.911   2.464   0.686
 6323SOL    HW219869   3.847   2.453   0.536
 6324SOL     OW19870   4.456   0.923   6.504
 6324SOL    HW119871   4.489   0.987   6.574
 6324SOL    HW219872   4.482   0.957   6.413
 6325SOL     OW19873   1.151   2.297   2.494
 6325SOL    HW119874   1.061   2.304   2.451
 6325SOL    HW219875   1.203   2.380   2.473
 6326SOL     OW19876   5.081   6.095   0.986
 6326SOL    HW119877   5.006   6.084   1.051
 6326SOL    HW219878   5.159   6.137   1.032
 6327SOL     OW19879   5.189   5.779   6.086
 6327SOL    HW119880   5.261   5.721   6.125
 6327SOL    HW219881   5.167   5.749   5.993
 6328SOL     OW19882   2.888   4.308   6.535
 6328SOL    HW119883   2.831   4.296   6.453
 6328SOL    HW219884   2.953   4.382   6.519
 6329SOL     OW19885   0.745   1.676   3.190
 6329SOL    HW119886   0.785   1.697   3.101
 6329SOL    HW219887   0.706   1.584   3.189
 6330SOL     OW19888   3.757   1.636   0.326
 6330SOL    HW119889   3.773   1.717   0.383
 6330SOL    HW219890   3.830   1.628   0.259
 6331SOL     OW19891   6.306   3.015   1.617
 6331SOL    HW119892   6.303   2.971   1.527
 6331SOL    HW219893   6.373   3.090   1.616
 6332SOL     OW19894   5.333   6.385   1.699
 6332SOL    HW119895   5.408   6.393   1.633
 6332SOL    HW219896   5.346   6.451   1.772
 6333SOL     OW19897   2.964   4.806   2.654
 6333SOL    HW119898   3.045   4.772   2.702
 6333SOL    HW219899   2.992   4.866   2.580
 6334SOL     OW19900   2.474   1.845   2.666
 6334SOL    HW119901   2.460   1.746   2.659
 6334SOL    HW219902   2.517   1.867   2.754
 6335SOL     OW19903   6.701   1.467   0.133
 6335SOL    HW119904   6.644   1.549   0.129
 6335SOL    HW219905   6.688   1.421   0.220
 6336SOL     OW19906   0.240   2.433   4.872
 6336SOL    HW119907   0.179   2.362   4.836
 6336SOL    HW219908   0.187   2.509   4.908
 6337SOL     OW19909   6.166   4.553   5.364
 6337SOL    HW119910   6.165   4.565   5.463
 6337SOL    HW219911   6.208   4.464   5.342
 6338SOL     OW19912   3.952   1.218   3.465
 6338SOL    HW119913   3.957   1.219   3.365
 6338SOL    HW219914   4.025   1.161   3.501
 6339SOL     OW19915   6.639   2.014   4.714
 6339SOL    HW119916   6.542   1.993   4.697
 6339SOL    HW219917   6.671   1.960   4.792
 6340SOL     OW19918   1.967   5.459   4.069
 6340SOL    HW119919   1.927   5.414   3.989
 6340SOL    HW219920   1.978   5.393   4.143
 6341SOL     OW19921   0.467   4.456   3.226
 6341SOL    HW119922   0.474   4.383   3.158
 6341SOL    HW219923   0.495   4.543   3.184
 6342SOL     OW19924   1.512   2.728   0.988
 6342SOL    HW119925   1.563   2.731   1.074
 6342SOL    HW219926   1.512   2.635   0.952
 6343SOL     OW19927   3.960   1.469   6.725
 6343SOL    HW119928   3.919   1.531   6.658
 6343SOL    HW219929   3.891   1.404   6.757
 6344SOL     OW19930   0.931   4.266   4.169
 6344SOL    HW119931   1.015   4.219   4.143
 6344SOL    HW219932   0.853   4.206   4.151
 6345SOL     OW19933   3.736   1.904   2.229
 6345SOL    HW119934   3.679   1.972   2.183
 6345SOL    HW219935   3.765   1.940   2.318
 6346SOL     OW19936   0.973   4.771   3.364
 6346SOL    HW119937   0.958   4.712   3.443
 6346SOL    HW219938   0.943   4.864   3.385
 6347SOL     OW19939   3.429   0.576   1.506
 6347SOL    HW119940   3.374   0.580   1.589
 6347SOL    HW219941   3.415   0.659   1.453
 6348SOL     OW19942   1.472   3.118   3.937
 6348SOL    HW119943   1.504   3.067   3.857
 6348SOL    HW219944   1.490   3.215   3.924
 6349SOL     OW19945   2.754   0.499   0.463
 6349SOL    HW119946   2.759   0.498   0.363
 6349SOL    HW219947   2.789   0.585   0.497
 6350SOL     OW19948   1.107   6.398   2.103
 6350SOL    HW119949   1.090   6.331   2.174
 6350SOL    HW219950   1.142   6.482   2.144
 6351SOL     OW19951   6.973   1.086   2.928
 6351SOL    HW119952   6.907   1.018   2.894
 6351SOL    HW219953   0.038   1.070   2.884
 6352SOL     OW19954   0.336   5.552   2.116
 6352SOL    HW119955   0.352   5.648   2.089
 6352SOL    HW219956   0.422   5.502   2.113
 6353SOL     OW19957   6.941   6.740   1.594
 6353SOL    HW119958   6.889   6.819   1.626
 6353SOL    HW219959   0.010   6.743   1.632
 6354SOL     OW19960   0.528   6.653   3.684
 6354SOL    HW119961   0.480   6.582   3.736
 6354SOL    HW219962   0.616   6.671   3.729
 6355SOL     OW19963   2.023   2.691   2.852
 6355SOL    HW119964   2.036   2.651   2.943
 6355SOL    HW219965   2.020   2.618   2.784
 6356SOL     OW19966   3.333   3.429   1.093
 6356SOL    HW119967   3.339   3.375   1.010
 6356SOL    HW219968   3.345   3.526   1.071
 6357SOL     OW19969   4.567   2.196   6.924
 6357SOL    HW119970   4.587   2.102   6.953
 6357SOL    HW219971   4.634   2.258   6.964
 6358SOL     OW19972   7.017   2.373   3.593
 6358SOL    HW119973   6.949   2.302   3.613
 6358SOL    HW219974   0.083   2.330   3.581
 6359SOL     OW19975   0.053   0.829   0.231
 6359SOL    HW119976   6.998   0.796   0.283
 6359SOL    HW219977   0.025   0.905   0.173
 6360SOL     OW19978   3.219   5.498   4.018
 6360SOL    HW119979   3.276   5.564   4.068
 6360SOL    HW219980   3.256   5.486   3.926
 6361SOL     OW19981   4.096   6.104   5.831
 6361SOL    HW119982   4.141   6.177   5.780
 6361SOL    HW219983   4.159   6.028   5.843
 6362SOL     OW19984   6.121   5.195   6.523
 6362SOL    HW119985   6.090   5.188   6.618
 6362SOL    HW219986   6.221   5.185   6.519
 6363SOL     OW19987   0.804   5.882   4.082
 6363SOL    HW119988   0.872   5.816   4.050
 6363SOL    HW219989   0.720   5.835   4.108
 6364SOL     OW19990   2.667   2.427   5.984
 6364SOL    HW119991   2.600   2.401   5.915
 6364SOL    HW219992   2.749   2.462   5.939
 6365SOL     OW19993   4.996   6.342   2.756
 6365SOL    HW119994   4.972   6.330   2.852
 6365SOL    HW219995   5.078   6.290   2.734
 6366SOL     OW19996   0.147   4.937   5.671
 6366SOL    HW119997   0.180   5.026   5.639
 6366SOL    HW219998   0.178   4.923   5.765
 6367SOL     OW19999   5.648   6.310   3.785
 6367SOL    HW120000   5.576   6.333   3.850
 6367SOL    HW220001   5.737   6.320   3.829
 6368SOL     OW20002   2.572   0.170   4.107
 6368SOL    HW120003   2.622   0.188   4.023
 6368SOL    HW220004   2.563   0.071   4.119
 6369SOL     OW20005   2.296   5.265   4.335
 6369SOL    HW120006   2.337   5.333   4.274
 6369SOL    HW220007   2.346   5.179   4.328
 6370SOL     OW20008   5.844   2.984   1.432
 6370SOL    HW120009   5.781   3.033   1.372
 6370SOL    HW220010   5.843   2.886   1.410
 6371SOL     OW20011   4.969   2.010   3.363
 6371SOL    HW120012   4.971   2.091   3.305
 6371SOL    HW220013   5.029   2.025   3.442
 6372SOL     OW20014   2.814   6.184   2.448
 6372SOL    HW120015   2.743   6.115   2.457
 6372SOL    HW220016   2.794   6.260   2.510
 6373SOL     OW20017   3.416   5.115   0.211
 6373SOL    HW120018   3.353   5.131   0.135
 6373SOL    HW220019   3.378   5.044   0.271
 6374SOL     OW20020   2.921   3.194   2.095
 6374SOL    HW120021   2.877   3.113   2.135
 6374SOL    HW220022   3.004   3.166   2.047
 6375SOL     OW20023   1.513   6.728   2.734
 6375SOL    HW120024   1.483   6.645   2.783
 6375SOL    HW220025   1.531   6.705   2.638
 6376SOL     OW20026   0.203   2.441   5.419
 6376SOL    HW120027   0.170   2.534   5.434
 6376SOL    HW220028   0.249   2.436   5.330
 6377SOL     OW20029   0.994   0.705   3.760
 6377SOL    HW120030   0.934   0.735   3.686
 6377SOL    HW220031   1.082   0.677   3.722
 6378SOL     OW20032   4.885   4.077   3.927
 6378SOL    HW120033   4.852   4.029   4.008
 6378SOL    HW220034   4.894   4.174   3.947
 6379SOL     OW20035   2.648   4.767   3.044
 6379SOL    HW120036   2.695   4.716   2.972
 6379SOL    HW220037   2.714   4.820   3.097
 6380SOL     OW20038   0.651   0.891   6.022
 6380SOL    HW120039   0.608   0.807   6.053
 6380SOL    HW220040   0.611   0.918   5.934
 6381SOL     OW20041   3.122   3.908   2.665
 6381SOL    HW120042   3.055   3.910   2.739
 6381SOL    HW220043   3.110   3.825   2.610
 6382SOL     OW20044   1.040   3.642   5.354
 6382SOL    HW120045   1.013   3.601   5.267
 6382SOL    HW220046   0.984   3.723   5.372
 6383SOL     OW20047   3.251   1.237   3.979
 6383SOL    HW120048   3.347   1.228   3.951
 6383SOL    HW220049   3.207   1.148   3.975
 6384SOL     OW20050   6.429   4.526   3.239
 6384SOL    HW120051   6.499   4.456   3.250
 6384SOL    HW220052   6.469   4.616   3.258
 6385SOL     OW20053   0.400   5.799   4.456
 6385SOL    HW120054   0.470   5.729   4.469
 6385SOL    HW220055   0.328   5.787   4.524
 6386SOL     OW20056   2.781   5.278   1.377
 6386SOL    HW120057   2.877   5.300   1.392
 6386SOL    HW220058   2.746   5.227   1.455
 6387SOL     OW20059   6.338   0.799   5.459
 6387SOL    HW120060   6.332   0.699   5.465
 6387SOL    HW220061   6.354   0.826   5.364
 6388SOL     OW20062   2.633   4.623   2.456
 6388SOL    HW120063   2.728   4.646   2.474
 6388SOL    HW220064   2.585   4.705   2.423
 6389SOL     OW20065   0.912   4.736   2.738
 6389SOL    HW120066   0.968   4.751   2.656
 6389SOL    HW220067   0.890   4.639   2.746
 6390SOL     OW20068   0.702   3.345   3.639
 6390SOL    HW120069   0.689   3.363   3.542
 6390SOL    HW220070   0.628   3.287   3.673
 6391SOL     OW20071   3.153   1.266   0.467
 6391SOL    HW120072   3.220   1.195   0.492
 6391SOL    HW220073   3.173   1.298   0.374
 6392SOL     OW20074   1.407   6.825   3.733
 6392SOL    HW120075   1.382   6.792   3.824
 6392SOL    HW220076   1.405   6.925   3.733
 6393SOL     OW20077   5.927   6.681   0.796
 6393SOL    HW120078   5.867   6.612   0.757
 6393SOL    HW220079   6.021   6.662   0.768
 6394SOL     OW20080   2.578   4.516   0.899
 6394SOL    HW120081   2.657   4.574   0.877
 6394SOL    HW220082   2.611   4.424   0.920
 6395SOL     OW20083   5.892   1.850   1.061
 6395SOL    HW120084   5.976   1.901   1.041
 6395SOL    HW220085   5.895   1.762   1.012
 6396SOL     OW20086   5.092   4.259   4.977
 6396SOL    HW120087   5.137   4.348   4.989
 6396SOL    HW220088   5.143   4.189   5.025
 6397SOL     OW20089   0.278   1.144   0.987
 6397SOL    HW120090   0.296   1.137   1.085
 6397SOL    HW220091   0.220   1.224   0.970
 6398SOL     OW20092   3.597   1.694   1.656
 6398SOL    HW120093   3.697   1.694   1.653
 6398SOL    HW220094   3.566   1.706   1.750
 6399SOL     OW20095   2.369   5.412   6.797
 6399SOL    HW120096   2.414   5.489   6.844
 6399SOL    HW220097   2.424   5.384   6.719
 6400SOL     OW20098   2.628   5.519   3.562
 6400SOL    HW120099   2.609   5.517   3.660
 6400SOL    HW220100   2.700   5.453   3.540
 6401SOL     OW20101   0.809   4.855   4.013
 6401SOL    HW120102   0.891   4.898   4.051
 6401SOL    HW220103   0.788   4.896   3.924
 6402SOL     OW20104   2.520   1.412   3.017
 6402SOL    HW120105   2.605   1.373   3.055
 6402SOL    HW220106   2.494   1.361   2.935
 6403SOL     OW20107   0.047   6.214   0.635
 6403SOL    HW120108   0.134   6.241   0.594
 6403SOL    HW220109   0.060   6.132   0.691
 6404SOL     OW20110   5.430   0.765   2.797
 6404SOL    HW120111   5.417   0.717   2.711
 6404SOL    HW220112   5.412   0.702   2.873
 6405SOL     OW20113   3.025   1.522   2.303
 6405SOL    HW120114   3.067   1.606   2.338
 6405SOL    HW220115   2.941   1.545   2.254
 6406SOL     OW20116   2.943   1.793   3.920
 6406SOL    HW120117   2.940   1.892   3.905
 6406SOL    HW220118   2.855   1.753   3.895
 6407SOL     OW20119   3.806   5.518   6.245
 6407SOL    HW120120   3.781   5.460   6.323
 6407SOL    HW220121   3.724   5.561   6.208
 6408SOL     OW20122   6.553   1.841   0.337
 6408SOL    HW120123   6.622   1.811   0.403
 6408SOL    HW220124   6.476   1.882   0.386
 6409SOL     OW20125   1.358   4.646   2.214
 6409SOL    HW120126   1.269   4.692   2.212
 6409SOL    HW220127   1.418   4.688   2.146
 6410SOL     OW20128   0.947   1.248   1.263
 6410SOL    HW120129   1.009   1.303   1.319
 6410SOL    HW220130   0.968   1.151   1.275
 6411SOL     OW20131   1.394   1.047   3.638
 6411SOL    HW120132   1.422   1.140   3.659
 6411SOL    HW220133   1.383   1.036   3.539
 6412SOL     OW20134   0.098   2.012   4.894
 6412SOL    HW120135   0.138   1.959   4.819
 6412SOL    HW220136   0.031   1.956   4.943
 6413SOL     OW20137   6.957   4.862   0.660
 6413SOL    HW120138   6.946   4.778   0.713
 6413SOL    HW220139   7.012   4.842   0.578
 6414SOL     OW20140   5.591   6.816   2.171
 6414SOL    HW120141   5.498   6.785   2.190
 6414SOL    HW220142   5.655   6.773   2.236
 6415SOL     OW20143   1.659   2.006   1.947
 6415SOL    HW120144   1.564   1.978   1.960
 6415SOL    HW220145   1.690   2.056   2.028
 6416SOL     OW20146   1.228   0.275   6.781
 6416SOL    HW120147   1.193   0.312   6.694
 6416SOL    HW220148   1.320   0.238   6.767
 6417SOL     OW20149   0.665   6.810   2.831
 6417SOL    HW120150   0.650   6.893   2.778
 6417SOL    HW220151   0.732   6.752   2.784
 6418SOL     OW20152   6.152   5.836   2.238
 6418SOL    HW120153   6.202   5.778   2.174
 6418SOL    HW220154   6.207   5.916   2.261
 6419SOL     OW20155   2.997   4.898   1.553
 6419SOL    HW120156   2.990   4.835   1.631
 6419SOL    HW220157   2.910   4.901   1.505
 6420SOL     OW20158   1.343   3.707   6.882
 6420SOL    HW120159   1.416   3.754   6.832
 6420SOL    HW220160   1.300   3.640   6.822
 6421SOL     OW20161   5.443   2.038   0.933
 6421SOL    HW120162   5.480   2.008   1.020
 6421SOL    HW220163   5.515   2.036   0.863
 6422SOL     OW20164   5.682   1.775   3.202
 6422SOL    HW120165   5.755   1.774   3.134
 6422SOL    HW220166   5.629   1.860   3.193
 6423SOL     OW20167   4.864   4.232   0.301
 6423SOL    HW120168   4.769   4.233   0.330
 6423SOL    HW220169   4.896   4.137   0.297
 6424SOL     OW20170   0.085   5.230   5.281
 6424SOL    HW120171   0.155   5.270   5.341
 6424SOL    HW220172   0.007   5.200   5.337
 6425SOL     OW20173   0.619   4.702   1.576
 6425SOL    HW120174   0.632   4.606   1.602
 6425SOL    HW220175   0.624   4.711   1.477
 6426SOL     OW20176   7.017   3.073   3.857
 6426SOL    HW120177   6.920   3.047   3.863
 6426SOL    HW220178   0.000   3.173   3.857
 6427SOL     OW20179   1.903   3.402   5.075
 6427SOL    HW120180   1.962   3.347   5.016
 6427SOL    HW220181   1.904   3.365   5.168
 6428SOL     OW20182   6.757   3.229   2.527
 6428SOL    HW120183   6.669   3.275   2.519
 6428SOL    HW220184   6.757   3.170   2.608
 6429SOL     OW20185   1.270   0.904   4.076
 6429SOL    HW120186   1.362   0.902   4.115
 6429SOL    HW220187   1.208   0.854   4.136
 6430SOL     OW20188   5.833   3.767   0.847
 6430SOL    HW120189   5.884   3.749   0.931
 6430SOL    HW220190   5.865   3.852   0.805
 6431SOL     OW20191   5.521   0.165   2.989
 6431SOL    HW120192   5.551   0.202   3.077
 6431SOL    HW220193   5.471   0.080   3.004
 6432SOL     OW20194   5.513   3.159   0.630
 6432SOL    HW120195   5.451   3.227   0.590
 6432SOL    HW220196   5.508   3.075   0.578
 6433SOL     OW20197   2.519   3.881   1.502
 6433SOL    HW120198   2.452   3.946   1.538
 6433SOL    HW220199   2.548   3.819   1.575
 6434SOL     OW20200   1.446   4.878   0.991
 6434SOL    HW120201   1.380   4.901   1.062
 6434SOL    HW220202   1.490   4.961   0.957
 6435SOL     OW20203   4.828   4.259   6.804
 6435SOL    HW120204   4.736   4.284   6.836
 6435SOL    HW220205   4.854   4.316   6.727
 6436SOL     OW20206   1.583   3.018   2.947
 6436SOL    HW120207   1.517   3.093   2.939
 6436SOL    HW220208   1.549   2.951   3.014
 6437SOL     OW20209   1.128   0.870   6.871
 6437SOL    HW120210   1.190   0.844   6.797
 6437SOL    HW220211   1.048   0.917   6.834
 6438SOL     OW20212   1.551   3.512   3.307
 6438SOL    HW120213   1.534   3.462   3.222
 6438SOL    HW220214   1.650   3.516   3.323
 6439SOL     OW20215   0.404   0.326   1.770
 6439SOL    HW120216   0.387   0.273   1.854
 6439SOL    HW220217   0.414   0.264   1.693
 6440SOL     OW20218   0.830   1.473   2.707
 6440SOL    HW120219   0.732   1.488   2.697
 6440SOL    HW220220   0.879   1.517   2.632
 6441SOL     OW20221   3.310   1.366   3.554
 6441SOL    HW120222   3.273   1.331   3.468
 6441SOL    HW220223   3.399   1.407   3.538
 6442SOL     OW20224   3.582   1.104   3.462
 6442SOL    HW120225   3.493   1.071   3.493
 6442SOL    HW220226   3.571   1.194   3.420
 6443SOL     OW20227   2.917   1.382   0.477
 6443SOL    HW120228   2.911   1.476   0.513
 6443SOL    HW220229   3.010   1.348   0.487
 6444SOL     OW20230   0.360   0.890   3.394
 6444SOL    HW120231   0.408   0.850   3.316
 6444SOL    HW220232   0.299   0.963   3.361
 6445SOL     OW20233   3.832   3.164   5.017
 6445SOL    HW120234   3.750   3.127   5.061
 6445SOL    HW220235   3.820   3.160   4.918
 6446SOL     OW20236   6.281   1.691   0.526
 6446SOL    HW120237   6.353   1.681   0.594
 6446SOL    HW220238   6.266   1.788   0.507
 6447SOL     OW20239   1.296   0.788   2.847
 6447SOL    HW120240   1.230   0.859   2.822
 6447SOL    HW220241   1.299   0.779   2.946
 6448SOL     OW20242   5.711   2.313   2.891
 6448SOL    HW120243   5.738   2.362   2.808
 6448SOL    HW220244   5.631   2.257   2.872
 6449SOL     OW20245   3.506   3.119   1.028
 6449SOL    HW120246   3.504   3.033   1.080
 6449SOL    HW220247   3.546   3.191   1.085
 6450SOL     OW20248   6.761   3.139   0.101
 6450SOL    HW120249   6.741   3.115   0.196
 6450SOL    HW220250   6.677   3.168   0.056
 6451SOL     OW20251   2.055   7.005   4.566
 6451SOL    HW120252   2.095   6.914   4.581
 6451SOL    HW220253   1.995   0.005   4.643
 6452SOL     OW20254   4.229   6.376   3.219
 6452SOL    HW120255   4.159   6.307   3.239
 6452SOL    HW220256   4.302   6.334   3.164
 6453SOL     OW20257   1.712   5.594   6.382
 6453SOL    HW120258   1.623   5.551   6.377
 6453SOL    HW220259   1.759   5.566   6.465
 6454SOL     OW20260   3.032   1.335   4.622
 6454SOL    HW120261   3.006   1.432   4.622
 6454SOL    HW220262   3.082   1.314   4.538
 6455SOL     OW20263   6.376   3.010   5.314
 6455SOL    HW120264   6.426   3.076   5.369
 6455SOL    HW220265   6.282   3.040   5.302
 6456SOL     OW20266   0.034   0.674   4.456
 6456SOL    HW120267   6.995   0.736   4.408
 6456SOL    HW220268   0.064   0.602   4.393
 6457SOL     OW20269   6.779   2.947   1.094
 6457SOL    HW120270   6.839   2.945   1.173
 6457SOL    HW220271   6.747   2.855   1.073
 6458SOL     OW20272   1.240   5.945   2.565
 6458SOL    HW120273   1.147   5.962   2.535
 6458SOL    HW220274   1.283   5.877   2.505
 6459SOL     OW20275   5.375   4.775   0.461
 6459SOL    HW120276   5.340   4.735   0.546
 6459SOL    HW220277   5.391   4.702   0.394
 6460SOL     OW20278   3.236   5.145   6.130
 6460SOL    HW120279   3.301   5.075   6.156
 6460SOL    HW220280   3.204   5.193   6.212
 6461SOL     OW20281   3.632   5.767   4.716
 6461SOL    HW120282   3.706   5.815   4.763
 6461SOL    HW220283   3.551   5.764   4.775
 6462SOL     OW20284   2.104   3.371   3.992
 6462SOL    HW120285   2.125   3.275   4.012
 6462SOL    HW220286   2.107   3.386   3.894
 6463SOL     OW20287   1.340   4.342   5.378
 6463SOL    HW120288   1.301   4.265   5.428
 6463SOL    HW220289   1.409   4.308   5.314
 6464SOL     OW20290   0.776   5.261   3.061
 6464SOL    HW120291   0.682   5.266   3.095
 6464SOL    HW220292   0.836   5.223   3.132
 6465SOL     OW20293   6.285   0.671   3.088
 6465SOL    HW120294   6.325   0.752   3.045
 6465SOL    HW220295   6.229   0.622   3.021
 6466SOL     OW20296   6.693   2.513   4.868
 6466SOL    HW120297   6.739   2.445   4.925
 6466SOL    HW220298   6.760   2.583   4.841
 6467SOL     OW20299   2.700   0.696   6.782
 6467SOL    HW120300   2.654   0.734   6.701
 6467SOL    HW220301   2.760   0.621   6.753
 6468SOL     OW20302   4.925   4.746   0.887
 6468SOL    HW120303   4.882   4.657   0.873
 6468SOL    HW220304   4.857   4.809   0.926
 6469SOL     OW20305   0.282   1.546   5.617
 6469SOL    HW120306   0.183   1.547   5.604
 6469SOL    HW220307   0.307   1.605   5.693
 6470SOL     OW20308   6.648   6.505   5.899
 6470SOL    HW120309   6.563   6.497   5.845
 6470SOL    HW220310   6.726   6.481   5.841
 6471SOL     OW20311   5.586   4.554   5.862
 6471SOL    HW120312   5.640   4.579   5.942
 6471SOL    HW220313   5.617   4.606   5.782
 6472SOL     OW20314   1.399   5.916   0.930
 6472SOL    HW120315   1.302   5.897   0.943
 6472SOL    HW220316   1.450   5.830   0.932
 6473SOL     OW20317   2.509   1.651   6.087
 6473SOL    HW120318   2.584   1.689   6.032
 6473SOL    HW220319   2.489   1.558   6.057
 6474SOL     OW20320   1.957   3.294   5.320
 6474SOL    HW120321   2.052   3.302   5.291
 6474SOL    HW220322   1.934   3.367   5.384
 6475SOL     OW20323   4.467   6.386   3.799
 6475SOL    HW120324   4.458   6.316   3.728
 6475SOL    HW220325   4.377   6.403   3.840
 6476SOL     OW20326   4.795   5.267   2.932
 6476SOL    HW120327   4.757   5.191   2.880
 6476SOL    HW220328   4.729   5.297   3.001
 6477SOL     OW20329   0.002   5.893   7.005
 6477SOL    HW120330   7.023   5.833   0.062
 6477SOL    HW220331   6.974   5.851   6.930
 6478SOL     OW20332   4.784   6.501   0.966
 6478SOL    HW120333   4.864   6.506   1.026
 6478SOL    HW220334   4.802   6.435   0.892
 6479SOL     OW20335   3.758   5.230   2.740
 6479SOL    HW120336   3.732   5.265   2.830
 6479SOL    HW220337   3.736   5.298   2.670
 6480SOL     OW20338   2.905   2.281   6.941
 6480SOL    HW120339   2.900   2.184   6.915
 6480SOL    HW220340   2.909   2.337   6.858
 6481SOL     OW20341   5.092   0.623   1.058
 6481SOL    HW120342   5.078   0.722   1.053
 6481SOL    HW220343   5.004   0.576   1.052
 6482SOL     OW20344   0.314   0.544   6.696
 6482SOL    HW120345   0.364   0.625   6.664
 6482SOL    HW220346   0.223   0.542   6.654
 6483SOL     OW20347   1.921   6.555   2.283
 6483SOL    HW120348   1.931   6.457   2.300
 6483SOL    HW220349   1.866   6.569   2.200
 6484SOL     OW20350   5.536   6.575   3.682
 6484SOL    HW120351   5.501   6.492   3.639
 6484SOL    HW220352   5.537   6.649   3.614
 6485SOL     OW20353   1.568   2.741   3.067
 6485SOL    HW120354   1.607   2.767   2.978
 6485SOL    HW220355   1.569   2.641   3.076
 6486SOL     OW20356   1.788   3.183   3.232
 6486SOL    HW120357   1.845   3.126   3.291
 6486SOL    HW220358   1.800   3.154   3.137
 6487SOL     OW20359   5.898   6.298   3.902
 6487SOL    HW120360   5.950   6.213   3.910
 6487SOL    HW220361   5.947   6.371   3.951
 6488SOL     OW20362   3.451   5.491   5.990
 6488SOL    HW120363   3.483   5.404   5.952
 6488SOL    HW220364   3.363   5.515   5.949
 6489SOL     OW20365   1.971   1.804   5.642
 6489SOL    HW120366   1.938   1.830   5.732
 6489SOL    HW220367   2.034   1.726   5.651
 6490SOL     OW20368   3.048   1.081   0.258
 6490SOL    HW120369   3.037   1.131   0.344
 6490SOL    HW220370   3.042   0.983   0.275
 6491SOL     OW20371   3.470   1.833   6.433
 6491SOL    HW120372   3.441   1.924   6.463
 6491SOL    HW220373   3.402   1.766   6.462
 6492SOL     OW20374   6.085   5.926   0.280
 6492SOL    HW120375   6.044   5.915   0.190
 6492SOL    HW220376   6.185   5.920   0.272
 6493SOL     OW20377   0.860   6.526   6.295
 6493SOL    HW120378   0.778   6.573   6.262
 6493SOL    HW220379   0.843   6.427   6.296
 6494SOL     OW20380   1.411   0.548   3.861
 6494SOL    HW120381   1.472   0.619   3.825
 6494SOL    HW220382   1.408   0.554   3.961
 6495SOL     OW20383   5.413   5.043   3.047
 6495SOL    HW120384   5.463   4.972   2.997
 6495SOL    HW220385   5.369   5.002   3.127
 6496SOL     OW20386   2.046   0.232   2.182
 6496SOL    HW120387   1.989   0.152   2.201
 6496SOL    HW220388   2.048   0.249   2.083
 6497SOL     OW20389   0.826   4.341   0.001
 6497SOL    HW120390   0.863   4.406   0.067
 6497SOL    HW220391   0.886   4.261   7.019
 6498SOL     OW20392   1.912   4.525   3.956
 6498SOL    HW120393   2.001   4.490   3.984
 6498SOL    HW220394   1.849   4.449   3.940
 6499SOL     OW20395   5.859   1.255   4.068
 6499SOL    HW120396   5.867   1.218   3.975
 6499SOL    HW220397   5.839   1.352   4.063
 6500SOL     OW20398   5.660   4.985   3.592
 6500SOL    HW120399   5.740   4.931   3.619
 6500SOL    HW220400   5.681   5.038   3.511
 6501SOL     OW20401   6.991   4.062   1.026
 6501SOL    HW120402   6.891   4.070   1.030
 6501SOL    HW220403   7.021   4.058   0.931
 6502SOL     OW20404   1.340   5.282   2.487
 6502SOL    HW120405   1.311   5.197   2.532
 6502SOL    HW220406   1.274   5.354   2.508
 6503SOL     OW20407   4.604   0.214   4.659
 6503SOL    HW120408   4.589   0.193   4.562
 6503SOL    HW220409   4.699   0.242   4.673
 6504SOL     OW20410   2.779   1.086   0.866
 6504SOL    HW120411   2.876   1.082   0.841
 6504SOL    HW220412   2.767   1.047   0.957
 6505SOL     OW20413   5.516   5.125   1.101
 6505SOL    HW120414   5.473   5.107   1.190
 6505SOL    HW220415   5.450   5.111   1.028
 6506SOL     OW20416   2.181   2.303   0.630
 6506SOL    HW120417   2.214   2.394   0.605
 6506SOL    HW220418   2.089   2.310   0.669
 6507SOL     OW20419   2.327   1.031   2.155
 6507SOL    HW120420   2.300   1.103   2.091
 6507SOL    HW220421   2.321   0.942   2.110
 6508SOL     OW20422   1.695   1.676   2.851
 6508SOL    HW120423   1.690   1.578   2.828
 6508SOL    HW220424   1.618   1.700   2.909
 6509SOL     OW20425   0.283   2.348   4.566
 6509SOL    HW120426   0.230   2.410   4.508
 6509SOL    HW220427   0.365   2.318   4.516
 6510SOL     OW20428   5.368   4.560   6.255
 6510SOL    HW120429   5.318   4.476   6.273
 6510SOL    HW220430   5.326   4.607   6.177
 6511SOL     OW20431   6.161   5.940   6.210
 6511SOL    HW120432   6.076   5.906   6.172
 6511SOL    HW220433   6.203   5.870   6.268
 6512SOL     OW20434   5.133   6.815   3.729
 6512SOL    HW120435   5.144   6.852   3.637
 6512SOL    HW220436   5.130   6.891   3.795
 6513SOL     OW20437   3.268   0.151   2.928
 6513SOL    HW120438   3.180   0.119   2.962
 6513SOL    HW220439   3.281   0.247   2.954
 6514SOL     OW20440   3.331   6.879   3.652
 6514SOL    HW120441   3.278   6.901   3.734
 6514SOL    HW220442   3.402   6.949   3.639
 6515SOL     OW20443   1.384   0.509   4.990
 6515SOL    HW120444   1.391   0.575   4.915
 6515SOL    HW220445   1.294   0.517   5.033
 6516SOL     OW20446   1.166   1.672   5.738
 6516SOL    HW120447   1.089   1.670   5.674
 6516SOL    HW220448   1.252   1.680   5.687
 6517SOL     OW20449   1.222   1.800   6.671
 6517SOL    HW120450   1.159   1.869   6.634
 6517SOL    HW220451   1.169   1.724   6.708
 6518SOL     OW20452   6.445   6.078   0.999
 6518SOL    HW120453   6.507   6.043   1.069
 6518SOL    HW220454   6.382   6.144   1.041
 6519SOL     OW20455   2.387   2.005   3.543
 6519SOL    HW120456   2.377   2.094   3.588
 6519SOL    HW220457   2.383   2.017   3.444
 6520SOL     OW20458   5.759   5.821   1.425
 6520SOL    HW120459   5.749   5.722   1.420
 6520SOL    HW220460   5.825   5.851   1.355
 6521SOL     OW20461   0.956   1.667   5.584
 6521SOL    HW120462   1.015   1.619   5.518
 6521SOL    HW220463   0.884   1.716   5.534
 6522SOL     OW20464   2.281   5.185   5.522
 6522SOL    HW120465   2.292   5.086   5.526
 6522SOL    HW220466   2.362   5.226   5.481
 6523SOL     OW20467   2.014   2.013   6.275
 6523SOL    HW120468   2.015   2.051   6.368
 6523SOL    HW220469   2.106   2.013   6.237
 6524SOL     OW20470   3.340   4.135   4.503
 6524SOL    HW120471   3.428   4.139   4.457
 6524SOL    HW220472   3.352   4.157   4.600
 6525SOL     OW20473   6.956   2.699   3.863
 6525SOL    HW120474   6.925   2.712   3.769
 6525SOL    HW220475   6.877   2.688   3.923
 6526SOL     OW20476   1.621   6.277   4.530
 6526SOL    HW120477   1.592   6.232   4.446
 6526SOL    HW220478   1.718   6.300   4.524
 6527SOL     OW20479   1.457   1.181   4.324
 6527SOL    HW120480   1.371   1.228   4.302
 6527SOL    HW220481   1.515   1.179   4.243
 6528SOL     OW20482   6.539   0.838   3.675
 6528SOL    HW120483   6.621   0.784   3.656
 6528SOL    HW220484   6.467   0.814   3.609
 6529SOL     OW20485   7.001   2.145   2.272
 6529SOL    HW120486   6.937   2.163   2.347
 6529SOL    HW220487   6.977   2.201   2.193
 6530SOL     OW20488   6.877   2.184   0.651
 6530SOL    HW120489   6.833   2.272   0.667
 6530SOL    HW220490   6.976   2.194   0.658
 6531SOL     OW20491   4.711   2.894   4.514
 6531SOL    HW120492   4.741   2.981   4.475
 6531SOL    HW220493   4.713   2.823   4.444
 6532SOL     OW20494   0.126   1.894   6.513
 6532SOL    HW120495   0.117   1.936   6.604
 6532SOL    HW220496   0.222   1.878   6.493
 6533SOL     OW20497   4.807   0.521   1.054
 6533SOL    HW120498   4.721   0.537   1.103
 6533SOL    HW220499   4.810   0.425   1.024
 6534SOL     OW20500   2.096   3.747   1.039
 6534SOL    HW120501   2.064   3.658   1.071
 6534SOL    HW220502   2.043   3.820   1.082
 6535SOL     OW20503   1.217   4.112   5.485
 6535SOL    HW120504   1.196   4.089   5.579
 6535SOL    HW220505   1.228   4.029   5.431
 6536SOL     OW20506   0.239   2.684   0.147
 6536SOL    HW120507   0.186   2.706   0.229
 6536SOL    HW220508   0.189   2.617   0.092
 6537SOL     OW20509   1.293   6.872   0.670
 6537SOL    HW120510   1.267   6.943   0.604
 6537SOL    HW220511   1.247   6.786   0.645
 6538SOL     OW20512   2.211   3.251   6.529
 6538SOL    HW120513   2.162   3.172   6.492
 6538SOL    HW220514   2.168   3.335   6.496
 6539SOL     OW20515   2.427   1.628   6.865
 6539SOL    HW120516   2.365   1.685   6.811
 6539SOL    HW220517   2.521   1.643   6.834
 6540SOL     OW20518   3.141   0.953   4.002
 6540SOL    HW120519   3.063   0.999   3.960
 6540SOL    HW220520   3.123   0.939   4.100
 6541SOL     OW20521   2.204   2.134   5.904
 6541SOL    HW120522   2.270   2.112   5.975
 6541SOL    HW220523   2.210   2.067   5.830
 6542SOL     OW20524   6.163   4.527   3.322
 6542SOL    HW120525   6.120   4.498   3.407
 6542SOL    HW220526   6.258   4.495   3.320
 6543SOL     OW20527   6.909   5.785   0.249
 6543SOL    HW120528   6.895   5.859   0.315
 6543SOL    HW220529   6.820   5.757   0.212
 6544SOL     OW20530   6.507   6.353   4.520
 6544SOL    HW120531   6.435   6.355   4.589
 6544SOL    HW220532   6.499   6.434   4.461
 6545SOL     OW20533   5.097   1.995   5.797
 6545SOL    HW120534   5.031   1.996   5.872
 6545SOL    HW220535   5.183   2.036   5.827
 6546SOL     OW20536   2.923   4.186   6.173
 6546SOL    HW120537   2.938   4.132   6.256
 6546SOL    HW220538   2.832   4.228   6.176
 6547SOL     OW20539   4.603   2.282   6.664
 6547SOL    HW120540   4.576   2.205   6.606
 6547SOL    HW220541   4.596   2.256   6.760
 6548SOL     OW20542   6.880   5.186   5.440
 6548SOL    HW120543   6.803   5.163   5.381
 6548SOL    HW220544   6.848   5.240   5.518
 6549SOL     OW20545   3.557   1.490   1.047
 6549SOL    HW120546   3.656   1.499   1.054
 6549SOL    HW220547   3.523   1.547   0.972
 6550SOL     OW20548   0.601   5.526   3.398
 6550SOL    HW120549   0.569   5.588   3.327
 6550SOL    HW220550   0.698   5.506   3.384
 6551SOL     OW20551   1.985   5.092   2.488
 6551SOL    HW120552   2.050   5.023   2.521
 6551SOL    HW220553   1.983   5.092   2.388
 6552SOL     OW20554   3.473   4.986   6.100
 6552SOL    HW120555   3.554   4.983   6.041
 6552SOL    HW220556   3.499   4.958   6.192
 6553SOL     OW20557   6.984   2.844   2.657
 6553SOL    HW120558   0.018   2.925   2.662
 6553SOL    HW220559   7.013   2.778   2.726
 6554SOL     OW20560   0.466   2.757   5.313
 6554SOL    HW120561   0.432   2.780   5.404
 6554SOL    HW220562   0.450   2.834   5.251
 6555SOL     OW20563   0.118   1.449   2.117
 6555SOL    HW120564   0.152   1.402   2.035
 6555SOL    HW220565   0.038   1.505   2.093
 6556SOL     OW20566   3.548   6.890   4.269
 6556SOL    HW120567   3.572   6.801   4.307
 6556SOL    HW220568   3.613   6.915   4.198
 6557SOL     OW20569   6.464   5.790   0.958
 6557SOL    HW120570   6.443   5.766   1.054
 6557SOL    HW220571   6.449   5.887   0.944
 6558SOL     OW20572   6.333   5.387   6.822
 6558SOL    HW120573   6.268   5.454   6.787
 6558SOL    HW220574   6.424   5.426   6.824
 6559SOL     OW20575   3.827   3.390   0.821
 6559SOL    HW120576   3.900   3.417   0.883
 6559SOL    HW220577   3.867   3.350   0.738
 6560SOL     OW20578   3.861   2.373   0.191
 6560SOL    HW120579   3.913   2.347   0.110
 6560SOL    HW220580   3.917   2.434   0.248
 6561SOL     OW20581   4.051   3.759   4.585
 6561SOL    HW120582   4.047   3.748   4.486
 6561SOL    HW220583   4.065   3.856   4.608
 6562SOL     OW20584   6.064   3.885   5.767
 6562SOL    HW120585   6.148   3.867   5.715
 6562SOL    HW220586   6.064   3.831   5.851
 6563SOL     OW20587   1.679   5.665   1.792
 6563SOL    HW120588   1.660   5.569   1.770
 6563SOL    HW220589   1.608   5.723   1.754
 6564SOL     OW20590   1.147   5.442   2.597
 6564SOL    HW120591   1.197   5.441   2.683
 6564SOL    HW220592   1.088   5.523   2.593
 6565SOL     OW20593   6.487   3.146   5.509
 6565SOL    HW120594   6.456   3.232   5.549
 6565SOL    HW220595   6.585   3.134   5.529
 6566SOL     OW20596   3.440   6.971   0.482
 6566SOL    HW120597   3.369   6.945   0.417
 6566SOL    HW220598   3.499   0.017   0.441
 6567SOL     OW20599   5.595   3.181   1.377
 6567SOL    HW120600   5.536   3.188   1.457
 6567SOL    HW220601   5.542   3.146   1.300
 6568SOL     OW20602   3.978   4.629   1.149
 6568SOL    HW120603   3.908   4.615   1.220
 6568SOL    HW220604   4.034   4.546   1.142
 6569SOL     OW20605   0.352   4.648   6.558
 6569SOL    HW120606   0.354   4.671   6.655
 6569SOL    HW220607   0.274   4.694   6.515
 6570SOL     OW20608   6.370   2.402   0.989
 6570SOL    HW120609   6.287   2.350   0.969
 6570SOL    HW220610   6.349   2.472   1.057
 6571SOL     OW20611   2.793   5.816   3.853
 6571SOL    HW120612   2.829   5.903   3.887
 6571SOL    HW220613   2.710   5.793   3.904
 6572SOL     OW20614   0.938   3.682   6.237
 6572SOL    HW120615   1.018   3.729   6.200
 6572SOL    HW220616   0.855   3.723   6.200
 6573SOL     OW20617   2.087   2.063   2.702
 6573SOL    HW120618   2.143   2.012   2.637
 6573SOL    HW220619   2.040   1.999   2.763
 6574SOL     OW20620   2.921   5.234   3.040
 6574SOL    HW120621   2.831   5.275   3.028
 6574SOL    HW220622   2.952   5.196   2.953
 6575SOL     OW20623   0.786   1.219   2.987
 6575SOL    HW120624   0.818   1.200   2.894
 6575SOL    HW220625   0.759   1.133   3.030
 6576SOL     OW20626   1.054   6.173   5.680
 6576SOL    HW120627   1.001   6.220   5.750
 6576SOL    HW220628   1.119   6.110   5.723
 6577SOL     OW20629   6.258   1.615   4.120
 6577SOL    HW120630   6.248   1.621   4.219
 6577SOL    HW220631   6.168   1.618   4.077
 6578SOL     OW20632   6.189   5.141   3.543
 6578SOL    HW120633   6.278   5.096   3.536
 6578SOL    HW220634   6.133   5.115   3.465
 6579SOL     OW20635   0.393   3.790   2.560
 6579SOL    HW120636   0.299   3.814   2.533
 6579SOL    HW220637   0.393   3.752   2.652
 6580SOL     OW20638   6.150   2.621   1.839
 6580SOL    HW120639   6.131   2.718   1.854
 6580SOL    HW220640   6.095   2.587   1.762
 6581SOL     OW20641   2.481   1.959   5.811
 6581SOL    HW120642   2.501   1.862   5.823
 6581SOL    HW220643   2.564   2.012   5.823
 6582SOL     OW20644   6.785   6.867   2.773
 6582SOL    HW120645   6.730   6.806   2.715
 6582SOL    HW220646   6.743   6.958   2.774
 6583SOL     OW20647   5.980   1.795   5.615
 6583SOL    HW120648   5.964   1.893   5.602
 6583SOL    HW220649   5.907   1.756   5.670
 6584SOL     OW20650   5.984   1.539   6.608
 6584SOL    HW120651   5.939   1.473   6.669
 6584SOL    HW220652   6.082   1.519   6.603
 6585SOL     OW20653   2.083   1.079   7.018
 6585SOL    HW120654   2.062   1.160   0.049
 6585SOL    HW220655   2.178   1.051   0.012
 6586SOL     OW20656   0.064   2.571   6.111
 6586SOL    HW120657   0.086   2.655   6.159
 6586SOL    HW220658   0.102   2.493   6.161
 6587SOL     OW20659   2.001   6.669   2.635
 6587SOL    HW120660   2.027   6.691   2.729
 6587SOL    HW220661   1.902   6.661   2.629
 6588SOL     OW20662   2.119   3.131   6.947
 6588SOL    HW120663   2.078   3.181   6.871
 6588SOL    HW220664   2.047   3.089   7.002
 6589SOL     OW20665   4.725   1.797   5.721
 6589SOL    HW120666   4.641   1.772   5.768
 6589SOL    HW220667   4.801   1.742   5.757
 6590SOL     OW20668   6.757   1.048   5.520
 6590SOL    HW120669   6.816   1.067   5.599
 6590SOL    HW220670   6.804   0.985   5.458
 6591SOL     OW20671   5.709   0.805   2.726
 6591SOL    HW120672   5.780   0.759   2.780
 6591SOL    HW220673   5.620   0.790   2.769
 6592SOL     OW20674   4.735   5.836   4.662
 6592SOL    HW120675   4.646   5.882   4.655
 6592SOL    HW220676   4.730   5.763   4.730
 6593SOL     OW20677   4.079   0.804   2.385
 6593SOL    HW120678   4.036   0.733   2.442
 6593SOL    HW220679   4.048   0.894   2.415
 6594SOL     OW20680   6.072   0.682   6.151
 6594SOL    HW120681   5.989   0.704   6.202
 6594SOL    HW220682   6.057   0.698   6.053
 6595SOL     OW20683   1.094   4.059   0.529
 6595SOL    HW120684   1.009   4.045   0.580
 6595SOL    HW220685   1.092   4.004   0.445
 6596SOL     OW20686   4.037   6.852   4.782
 6596SOL    HW120687   4.033   6.862   4.882
 6596SOL    HW220688   4.003   6.935   4.739
 6597SOL     OW20689   0.160   4.654   5.344
 6597SOL    HW120690   0.213   4.738   5.328
 6597SOL    HW220691   0.067   4.679   5.371
 6598SOL     OW20692   1.615   5.634   5.723
 6598SOL    HW120693   1.680   5.580   5.777
 6598SOL    HW220694   1.571   5.701   5.783
 6599SOL     OW20695   4.236   4.159   5.990
 6599SOL    HW120696   4.241   4.105   6.073
 6599SOL    HW220697   4.141   4.188   5.974
 6600SOL     OW20698   4.926   6.213   4.382
 6600SOL    HW120699   4.893   6.298   4.422
 6600SOL    HW220700   4.895   6.207   4.287
 6601SOL     OW20701   1.426   0.066   1.260
 6601SOL    HW120702   1.401   7.006   1.210
 6601SOL    HW220703   1.508   0.105   1.219
 6602SOL     OW20704   6.525   1.390   1.381
 6602SOL    HW120705   6.539   1.383   1.480
 6602SOL    HW220706   6.428   1.403   1.362
 6603SOL     OW20707   2.149   3.181   3.207
 6603SOL    HW120708   2.112   3.231   3.128
 6603SOL    HW220709   2.213   3.111   3.176
 6604SOL     OW20710   3.343   6.067   2.798
 6604SOL    HW120711   3.420   6.128   2.814
 6604SOL    HW220712   3.377   5.978   2.767
 6605SOL     OW20713   6.042   6.603   0.283
 6605SOL    HW120714   6.011   6.685   0.333
 6605SOL    HW220715   6.087   6.631   0.199
 6606SOL     OW20716   5.031   1.046   2.724
 6606SOL    HW120717   4.986   1.125   2.681
 6606SOL    HW220718   5.057   1.070   2.818
 6607SOL     OW20719   1.232   2.705   3.066
 6607SOL    HW120720   1.141   2.713   3.105
 6607SOL    HW220721   1.297   2.759   3.120
 6608SOL     OW20722   6.029   3.697   4.762
 6608SOL    HW120723   6.081   3.613   4.744
 6608SOL    HW220724   6.025   3.752   4.678
 6609SOL     OW20725   5.888   1.790   6.736
 6609SOL    HW120726   5.872   1.877   6.690
 6609SOL    HW220727   5.954   1.736   6.683
 6610SOL     OW20728   2.855   0.830   0.251
 6610SOL    HW120729   2.887   0.779   0.171
 6610SOL    HW220730   2.801   0.909   0.220
 6611SOL     OW20731   5.694   2.893   3.056
 6611SOL    HW120732   5.723   2.970   2.999
 6611SOL    HW220733   5.756   2.884   3.134
 6612SOL     OW20734   1.604   6.274   6.702
 6612SOL    HW120735   1.672   6.283   6.630
 6612SOL    HW220736   1.563   6.182   6.698
 6613SOL     OW20737   4.776   5.486   1.583
 6613SOL    HW120738   4.842   5.467   1.510
 6613SOL    HW220739   4.713   5.408   1.592
 6614SOL     OW20740   5.611   5.644   6.253
 6614SOL    HW120741   5.516   5.630   6.226
 6614SOL    HW220742   5.623   5.738   6.284
 6615SOL     OW20743   0.906   3.809   5.094
 6615SOL    HW120744   0.874   3.896   5.056
 6615SOL    HW220745   1.006   3.811   5.100
 6616SOL     OW20746   4.706   0.418   4.884
 6616SOL    HW120747   4.635   0.354   4.856
 6616SOL    HW220748   4.684   0.509   4.848
 6617SOL     OW20749   4.018   6.932   5.075
 6617SOL    HW120750   3.996   0.003   5.096
 6617SOL    HW220751   4.104   6.907   5.119
 6618SOL     OW20752   0.880   4.167   1.636
 6618SOL    HW120753   0.885   4.255   1.590
 6618SOL    HW220754   0.941   4.102   1.590
 6619SOL     OW20755   5.192   5.823   2.508
 6619SOL    HW120756   5.103   5.864   2.488
 6619SOL    HW220757   5.189   5.725   2.487
 6620SOL     OW20758   2.459   2.978   5.604
 6620SOL    HW120759   2.494   2.900   5.655
 6620SOL    HW220760   2.448   3.056   5.666
 6621SOL     OW20761   2.778   4.086   6.888
 6621SOL    HW120762   2.686   4.076   6.852
 6621SOL    HW220763   2.845   4.069   6.815
 6622SOL     OW20764   6.574   0.018   0.651
 6622SOL    HW120765   6.663   7.009   0.619
 6622SOL    HW220766   6.510   6.965   0.656
 6623SOL     OW20767   3.605   3.802   1.907
 6623SOL    HW120768   3.677   3.782   1.840
 6623SOL    HW220769   3.516   3.774   1.869
 6624SOL     OW20770   4.207   4.783   4.125
 6624SOL    HW120771   4.247   4.874   4.130
 6624SOL    HW220772   4.252   4.723   4.192
 6625SOL     OW20773   6.403   0.465   0.554
 6625SOL    HW120774   6.419   0.505   0.644
 6625SOL    HW220775   6.486   0.470   0.500
 6626SOL     OW20776   3.112   4.819   3.324
 6626SOL    HW120777   3.197   4.844   3.369
 6626SOL    HW220778   3.125   4.819   3.225
 6627SOL     OW20779   2.120   6.016   1.465
 6627SOL    HW120780   2.135   6.000   1.368
 6627SOL    HW220781   2.027   5.987   1.490
 6628SOL     OW20782   4.009   6.211   3.242
 6628SOL    HW120783   3.950   6.220   3.162
 6628SOL    HW220784   3.954   6.193   3.323
 6629SOL     OW20785   3.161   4.543   0.080
 6629SOL    HW120786   3.242   4.590   0.113
 6629SOL    HW220787   3.090   4.543   0.151
 6630SOL     OW20788   2.785   2.193   6.369
 6630SOL    HW120789   2.768   2.289   6.347
 6630SOL    HW220790   2.883   2.180   6.386
 6631SOL     OW20791   4.410   0.818   2.222
 6631SOL    HW120792   4.369   0.727   2.221
 6631SOL    HW220793   4.485   0.819   2.288
 6632SOL     OW20794   0.051   2.048   1.972
 6632SOL    HW120795   0.073   1.962   2.018
 6632SOL    HW220796   0.114   2.062   1.896
 6633SOL     OW20797   0.411   0.124   1.114
 6633SOL    HW120798   0.392   0.034   1.153
 6633SOL    HW220799   0.377   0.128   1.020
 6634SOL     OW20800   6.833   2.998   5.713
 6634SOL    HW120801   6.756   2.941   5.740
 6634SOL    HW220802   6.904   2.994   5.784
 6635SOL     OW20803   4.839   4.392   3.673
 6635SOL    HW120804   4.882   4.414   3.585
 6635SOL    HW220805   4.742   4.416   3.669
 6636SOL     OW20806   1.698   2.769   4.434
 6636SOL    HW120807   1.778   2.758   4.492
 6636SOL    HW220808   1.711   2.719   4.349
 6637SOL     OW20809   6.318   1.325   1.106
 6637SOL    HW120810   6.412   1.350   1.081
 6637SOL    HW220811   6.295   1.367   1.193
 6638SOL     OW20812   2.205   5.820   5.722
 6638SOL    HW120813   2.294   5.819   5.676
 6638SOL    HW220814   2.189   5.909   5.763
 6639SOL     OW20815   5.678   5.574   0.027
 6639SOL    HW120816   5.686   5.631   0.109
 6639SOL    HW220817   5.704   5.627   6.970
 6640SOL     OW20818   5.561   3.271   3.517
 6640SOL    HW120819   5.520   3.283   3.427
 6640SOL    HW220820   5.577   3.361   3.558
 6641SOL     OW20821   2.052   4.213   6.406
 6641SOL    HW120822   2.038   4.264   6.321
 6641SOL    HW220823   2.140   4.238   6.447
 6642SOL     OW20824   0.334   6.304   0.583
 6642SOL    HW120825   0.389   6.224   0.604
 6642SOL    HW220826   0.385   6.365   0.521
 6643SOL     OW20827   4.367   5.381   6.825
 6643SOL    HW120828   4.304   5.316   6.781
 6643SOL    HW220829   4.338   5.474   6.805
 6644SOL     OW20830   2.848   4.726   2.284
 6644SOL    HW120831   2.762   4.773   2.304
 6644SOL    HW220832   2.840   4.681   2.195
 6645SOL     OW20833   0.386   5.103   5.388
 6645SOL    HW120834   0.303   5.124   5.439
 6645SOL    HW220835   0.456   5.068   5.451
 6646SOL     OW20836   2.406   5.726   3.759
 6646SOL    HW120837   2.476   5.692   3.821
 6646SOL    HW220838   2.378   5.654   3.696
 6647SOL     OW20839   3.429   2.055   2.324
 6647SOL    HW120840   3.337   2.095   2.325
 6647SOL    HW220841   3.462   2.047   2.230
 6648SOL     OW20842   4.519   5.648   2.360
 6648SOL    HW120843   4.557   5.740   2.358
 6648SOL    HW220844   4.592   5.582   2.342
 6649SOL     OW20845   3.871   2.660   6.331
 6649SOL    HW120846   3.825   2.666   6.242
 6649SOL    HW220847   3.827   2.590   6.386
 6650SOL     OW20848   3.115   2.165   3.079
 6650SOL    HW120849   3.115   2.123   2.988
 6650SOL    HW220850   3.204   2.151   3.122
 6651SOL     OW20851   1.344   2.391   6.723
 6651SOL    HW120852   1.258   2.402   6.773
 6651SOL    HW220853   1.325   2.380   6.626
 6652SOL     OW20854   6.606   5.371   3.031
 6652SOL    HW120855   6.641   5.393   3.122
 6652SOL    HW220856   6.527   5.429   3.012
 6653SOL     OW20857   3.599   3.244   3.417
 6653SOL    HW120858   3.553   3.254   3.505
 6653SOL    HW220859   3.606   3.334   3.373
 6654SOL     OW20860   2.036   3.441   1.802
 6654SOL    HW120861   2.101   3.438   1.878
 6654SOL    HW220862   2.086   3.441   1.715
 6655SOL     OW20863   2.435   6.912   1.231
 6655SOL    HW120864   2.451   6.819   1.262
 6655SOL    HW220865   2.438   6.974   1.309
 6656SOL     OW20866   5.943   2.731   1.375
 6656SOL    HW120867   5.962   2.683   1.289
 6656SOL    HW220868   6.029   2.766   1.413
 6657SOL     OW20869   3.010   6.401   6.112
 6657SOL    HW120870   3.066   6.325   6.145
 6657SOL    HW220871   2.921   6.398   6.158
 6658SOL     OW20872   5.010   0.960   5.669
 6658SOL    HW120873   4.994   0.902   5.589
 6658SOL    HW220874   5.095   1.011   5.656
 6659SOL     OW20875   1.534   3.244   6.460
 6659SOL    HW120876   1.567   3.314   6.397
 6659SOL    HW220877   1.608   3.180   6.480
 6660SOL     OW20878   6.717   6.528   2.926
 6660SOL    HW120879   6.660   6.451   2.895
 6660SOL    HW220880   6.711   6.603   2.860
 6661SOL     OW20881   0.199   6.290   3.691
 6661SOL    HW120882   0.202   6.245   3.603
 6661SOL    HW220883   0.119   6.351   3.695
 6662SOL     OW20884   1.100   3.224   6.731
 6662SOL    HW120885   1.178   3.214   6.669
 6662SOL    HW220886   1.072   3.134   6.764
 6663SOL     OW20887   0.506   5.802   2.161
 6663SOL    HW120888   0.506   5.896   2.197
 6663SOL    HW220889   0.592   5.758   2.184
 6664SOL     OW20890   1.045   1.502   3.146
 6664SOL    HW120891   1.061   1.507   3.048
 6664SOL    HW220892   1.080   1.585   3.190
 6665SOL     OW20893   2.489   6.806   2.973
 6665SOL    HW120894   2.474   6.782   2.877
 6665SOL    HW220895   2.570   6.759   3.007
 6666SOL     OW20896   6.512   0.436   0.179
 6666SOL    HW120897   6.491   0.340   0.159
 6666SOL    HW220898   6.427   0.488   0.189
 6667SOL     OW20899   6.684   4.961   4.800
 6667SOL    HW120900   6.598   4.911   4.807
 6667SOL    HW220901   6.745   4.915   4.735
 6668SOL     OW20902   0.911   4.816   1.601
 6668SOL    HW120903   0.920   4.863   1.513
 6668SOL    HW220904   0.816   4.785   1.612
 6669SOL     OW20905   2.528   6.114   2.537
 6669SOL    HW120906   2.453   6.129   2.472
 6669SOL    HW220907   2.500   6.046   2.605
 6670SOL     OW20908   3.744   4.740   6.923
 6670SOL    HW120909   3.648   4.731   6.948
 6670SOL    HW220910   3.800   4.751   7.005
 6671SOL     OW20911   6.918   2.651   4.794
 6671SOL    HW120912   6.919   2.585   4.719
 6671SOL    HW220913   6.978   2.618   4.868
 6672SOL     OW20914   1.996   0.996   5.529
 6672SOL    HW120915   2.004   0.943   5.613
 6672SOL    HW220916   1.948   0.942   5.460
 6673SOL     OW20917   4.672   4.803   1.354
 6673SOL    HW120918   4.592   4.857   1.330
 6673SOL    HW220919   4.645   4.730   1.417
 6674SOL     OW20920   0.670   6.830   4.358
 6674SOL    HW120921   0.697   6.839   4.453
 6674SOL    HW220922   0.729   6.887   4.300
 6675SOL     OW20923   6.075   5.244   0.388
 6675SOL    HW120924   6.166   5.225   0.351
 6675SOL    HW220925   6.081   5.323   0.450
 6676SOL     OW20926   1.159   2.568   5.912
 6676SOL    HW120927   1.229   2.630   5.947
 6676SOL    HW220928   1.091   2.620   5.859
 6677SOL     OW20929   0.504   3.480   0.138
 6677SOL    HW120930   0.454   3.553   0.184
 6677SOL    HW220931   0.600   3.506   0.129
 6678SOL     OW20932   1.213   3.035   5.422
 6678SOL    HW120933   1.307   3.040   5.456
 6678SOL    HW220934   1.181   3.127   5.400
 6679SOL     OW20935   1.279   1.942   4.535
 6679SOL    HW120936   1.277   1.877   4.459
 6679SOL    HW220937   1.336   2.020   4.510
 6680SOL     OW20938   3.105   6.745   6.285
 6680SOL    HW120939   3.109   6.648   6.260
 6680SOL    HW220940   3.192   6.789   6.264
 6681SOL     OW20941   5.608   5.150   0.185
 6681SOL    HW120942   5.640   5.241   0.211
 6681SOL    HW220943   5.686   5.087   0.181
 6682SOL     OW20944   6.959   6.354   1.954
 6682SOL    HW120945   6.926   6.415   1.882
 6682SOL    HW220946   7.005   6.276   1.913
 6683SOL     OW20947   5.449   2.163   4.209
 6683SOL    HW120948   5.531   2.186   4.262
 6683SOL    HW220949   5.439   2.229   4.134
 6684SOL     OW20950   2.071   6.937   2.577
 6684SOL    HW120951   2.050   6.842   2.601
 6684SOL    HW220952   2.032   6.998   2.646
 6685SOL     OW20953   5.262   3.448   6.476
 6685SOL    HW120954   5.293   3.524   6.419
 6685SOL    HW220955   5.204   3.387   6.423
 6686SOL     OW20956   6.055   3.596   3.910
 6686SOL    HW120957   6.058   3.501   3.939
 6686SOL    HW220958   5.994   3.606   3.831
 6687SOL     OW20959   1.754   1.811   0.092
 6687SOL    HW120960   1.693   1.851   0.160
 6687SOL    HW220961   1.847   1.808   0.129
 6688SOL     OW20962   0.616   5.027   2.937
 6688SOL    HW120963   0.616   5.118   2.895
 6688SOL    HW220964   0.710   4.993   2.942
 6689SOL     OW20965   4.349   4.802   0.156
 6689SOL    HW120966   4.387   4.840   0.240
 6689SOL    HW220967   4.321   4.707   0.171
 6690SOL     OW20968   1.951   2.230   1.102
 6690SOL    HW120969   1.945   2.132   1.117
 6690SOL    HW220970   2.046   2.260   1.116
 6691SOL     OW20971   1.667   4.733   1.657
 6691SOL    HW120972   1.734   4.807   1.657
 6691SOL    HW220973   1.582   4.766   1.616
 6692SOL     OW20974   3.328   3.988   6.022
 6692SOL    HW120975   3.253   4.054   6.017
 6692SOL    HW220976   3.316   3.930   6.102
 6693SOL     OW20977   4.086   3.264   5.102
 6693SOL    HW120978   4.005   3.208   5.086
 6693SOL    HW220979   4.100   3.325   5.024
 6694SOL     OW20980   3.037   6.232   1.074
 6694SOL    HW120981   3.029   6.219   0.975
 6694SOL    HW220982   3.094   6.160   1.112
 6695SOL     OW20983   1.574   2.218   0.079
 6695SOL    HW120984   1.670   2.240   0.098
 6695SOL    HW220985   1.533   2.291   0.025
 6696SOL     OW20986   2.191   3.089   1.800
 6696SOL    HW120987   2.216   3.163   1.738
 6696SOL    HW220988   2.152   3.127   1.884
 6697SOL     OW20989   4.932   1.366   3.060
 6697SOL    HW120990   4.853   1.421   3.033
 6697SOL    HW220991   4.912   1.269   3.043
 6698SOL     OW20992   3.753   3.668   0.377
 6698SOL    HW120993   3.831   3.722   0.409
 6698SOL    HW220994   3.728   3.603   0.449
 6699SOL     OW20995   1.060   3.647   0.151
 6699SOL    HW120996   1.041   3.690   0.063
 6699SOL    HW220997   0.973   3.625   0.197
 6700SOL     OW20998   6.780   6.424   0.162
 6700SOL    HW120999   6.747   6.343   0.114
 6700SOL    HW221000   6.731   6.505   0.128
 6701SOL     OW21001   0.794   1.764   0.987
 6701SOL    HW121002   0.774   1.767   1.085
 6701SOL    HW221003   0.889   1.737   0.973
 6702SOL     OW21004   2.557   2.248   0.834
 6702SOL    HW121005   2.619   2.183   0.790
 6702SOL    HW221006   2.473   2.202   0.862
 6703SOL     OW21007   0.486   2.222   6.588
 6703SOL    HW121008   0.453   2.169   6.666
 6703SOL    HW221009   0.547   2.294   6.620
 6704SOL     OW21010   5.246   2.082   2.679
 6704SOL    HW121011   5.277   2.006   2.622
 6704SOL    HW221012   5.153   2.066   2.710
 6705SOL     OW21013   5.934   1.271   0.215
 6705SOL    HW121014   5.950   1.251   0.311
 6705SOL    HW221015   5.996   1.216   0.159
 6706SOL     OW21016   0.342   4.854   6.297
 6706SOL    HW121017   0.364   4.757   6.286
 6706SOL    HW221018   0.423   4.909   6.279
 6707SOL     OW21019   1.098   6.524   2.636
 6707SOL    HW121020   1.089   6.446   2.698
 6707SOL    HW221021   1.176   6.509   2.575
 6708SOL     OW21022   2.422   5.796   1.496
 6708SOL    HW121023   2.361   5.790   1.416
 6708SOL    HW221024   2.507   5.747   1.476
 6709SOL     OW21025   4.571   1.334   3.029
 6709SOL    HW121026   4.608   1.400   2.965
 6709SOL    HW221027   4.643   1.306   3.093
 6710SOL     OW21028   2.853   2.445   0.806
 6710SOL    HW121029   2.832   2.364   0.861
 6710SOL    HW221030   2.814   2.434   0.714
 6711SOL     OW21031   3.627   3.894   0.958
 6711SOL    HW121032   3.673   3.917   1.044
 6711SOL    HW221033   3.581   3.975   0.922
 6712SOL     OW21034   3.371   5.626   0.459
 6712SOL    HW121035   3.377   5.543   0.404
 6712SOL    HW221036   3.404   5.704   0.405
 6713SOL     OW21037   2.009   2.116   2.300
 6713SOL    HW121038   2.098   2.156   2.322
 6713SOL    HW221039   1.949   2.124   2.379
 6714SOL     OW21040   6.287   0.356   3.816
 6714SOL    HW121041   6.301   0.454   3.808
 6714SOL    HW221042   6.346   0.309   3.751
 6715SOL     OW21043   0.788   1.760   1.264
 6715SOL    HW121044   0.829   1.840   1.308
 6715SOL    HW221045   0.752   1.698   1.334
 6716SOL     OW21046   2.539   6.024   0.574
 6716SOL    HW121047   2.615   6.089   0.577
 6716SOL    HW221048   2.453   6.074   0.563
 6717SOL     OW21049   3.463   1.698   6.820
 6717SOL    HW121050   3.521   1.662   6.893
 6717SOL    HW221051   3.448   1.795   6.834
 6718SOL     OW21052   3.744   0.264   6.952
 6718SOL    HW121053   3.687   0.249   6.871
 6718SOL    HW221054   3.689   0.255   0.011
 6719SOL     OW21055   0.748   0.557   5.772
 6719SOL    HW121056   0.766   0.646   5.731
 6719SOL    HW221057   0.650   0.548   5.789
 6720SOL     OW21058   2.095   4.610   1.966
 6720SOL    HW121059   2.086   4.648   2.058
 6720SOL    HW221060   2.051   4.520   1.963
 6721SOL     OW21061   6.444   6.700   3.921
 6721SOL    HW121062   6.458   6.746   3.834
 6721SOL    HW221063   6.510   6.625   3.930
 6722SOL     OW21064   4.712   3.977   0.024
 6722SOL    HW121065   4.708   3.878   0.034
 6722SOL    HW221066   4.792   4.002   6.992
 6723SOL     OW21067   3.890   6.899   2.116
 6723SOL    HW121068   3.946   6.974   2.082
 6723SOL    HW221069   3.805   6.894   2.063
 6724SOL     OW21070   3.465   4.745   5.327
 6724SOL    HW121071   3.452   4.652   5.294
 6724SOL    HW221072   3.380   4.796   5.318
 6725SOL     OW21073   0.449   4.637   2.650
 6725SOL    HW121074   0.404   4.693   2.720
 6725SOL    HW221075   0.515   4.693   2.601
 6726SOL     OW21076   2.529   2.394   2.401
 6726SOL    HW121077   2.508   2.384   2.498
 6726SOL    HW221078   2.614   2.345   2.380
 6727SOL     OW21079   4.004   4.173   0.050
 6727SOL    HW121080   3.943   4.208   0.121
 6727SOL    HW221081   4.099   4.185   0.079
 6728SOL     OW21082   4.574   1.072   4.038
 6728SOL    HW121083   4.503   1.013   4.076
 6728SOL    HW221084   4.531   1.156   4.002
 6729SOL     OW21085   5.977   0.027   2.642
 6729SOL    HW121086   6.021   0.028   2.552
 6729SOL    HW221087   6.035   0.077   2.707
 6730SOL     OW21088   1.707   0.390   0.736
 6730SOL    HW121089   1.739   0.298   0.714
 6730SOL    HW221090   1.771   0.457   0.699
 6731SOL     OW21091   2.415   4.632   1.878
 6731SOL    HW121092   2.321   4.658   1.900
 6731SOL    HW221093   2.421   4.533   1.868
 6732SOL     OW21094   1.913   4.202   1.003
 6732SOL    HW121095   1.824   4.247   0.999
 6732SOL    HW221096   1.985   4.270   1.004
 6733SOL     OW21097   5.511   5.958   6.006
 6733SOL    HW121098   5.455   6.011   6.069
 6733SOL    HW221099   5.451   5.908   5.943
 6734SOL     OW21100   2.156   3.539   5.819
 6734SOL    HW121101   2.134   3.441   5.815
 6734SOL    HW221102   2.255   3.552   5.807
 6735SOL     OW21103   0.081   5.238   6.137
 6735SOL    HW121104   0.124   5.149   6.119
 6735SOL    HW221105   7.006   5.231   6.123
 6736SOL     OW21106   2.126   3.751   2.563
 6736SOL    HW121107   2.159   3.781   2.473
 6736SOL    HW221108   2.074   3.666   2.552
 6737SOL     OW21109   2.255   1.410   0.828
 6737SOL    HW121110   2.158   1.400   0.808
 6737SOL    HW221111   2.300   1.321   0.823
 6738SOL     OW21112   3.882   1.712   2.073
 6738SOL    HW121113   3.845   1.789   2.126
 6738SOL    HW221114   3.979   1.728   2.054
 6739SOL     OW21115   3.925   6.627   4.641
 6739SOL    HW121116   3.830   6.646   4.667
 6739SOL    HW221117   3.980   6.710   4.653
 6740SOL     OW21118   6.210   2.778   4.513
 6740SOL    HW121119   6.168   2.825   4.590
 6740SOL    HW221120   6.138   2.745   4.451
 6741SOL     OW21121   0.017   6.821   6.312
 6741SOL    HW121122   0.071   6.823   6.227
 6741SOL    HW221123   6.943   6.823   6.289
 6742SOL     OW21124   6.344   5.955   5.982
 6742SOL    HW121125   6.409   6.002   6.041
 6742SOL    HW221126   6.251   5.972   6.016
 6743SOL     OW21127   4.757   3.409   0.864
 6743SOL    HW121128   4.722   3.496   0.899
 6743SOL    HW221129   4.692   3.372   0.797
 6744SOL     OW21130   5.182   5.131   5.956
 6744SOL    HW121131   5.224   5.096   5.873
 6744SOL    HW221132   5.084   5.115   5.953
 6745SOL     OW21133   6.890   3.892   3.903
 6745SOL    HW121134   6.814   3.853   3.850
 6745SOL    HW221135   6.974   3.843   3.881
 6746SOL     OW21136   0.241   1.588   1.242
 6746SOL    HW121137   0.334   1.569   1.274
 6746SOL    HW221138   0.221   1.685   1.257
 6747SOL     OW21139   5.604   6.275   6.391
 6747SOL    HW121140   5.577   6.335   6.315
 6747SOL    HW221141   5.696   6.240   6.374
 6748SOL     OW21142   7.015   0.080   2.016
 6748SOL    HW121143   0.058   0.075   2.090
 6748SOL    HW221144   6.983   0.175   2.007
 6749SOL     OW21145   3.696   5.735   1.389
 6749SOL    HW121146   3.725   5.666   1.324
 6749SOL    HW221147   3.768   5.804   1.400
 6750SOL     OW21148   2.603   3.228   5.389
 6750SOL    HW121149   2.524   3.235   5.449
 6750SOL    HW221150   2.593   3.148   5.330
 6751SOL     OW21151   3.271   2.196   5.437
 6751SOL    HW121152   3.239   2.285   5.469
 6751SOL    HW221153   3.260   2.191   5.338
 6752SOL     OW21154   6.324   2.169   0.348
 6752SOL    HW121155   6.294   2.080   0.313
 6752SOL    HW221156   6.304   2.241   0.282
 6753SOL     OW21157   5.144   1.907   6.112
 6753SOL    HW121158   5.066   1.848   6.089
 6753SOL    HW221159   5.122   1.962   6.192
 6754SOL     OW21160   5.422   0.945   0.304
 6754SOL    HW121161   5.497   0.895   0.347
 6754SOL    HW221162   5.379   0.887   0.234
 6755SOL     OW21163   5.395   1.594   3.142
 6755SOL    HW121164   5.433   1.618   3.231
 6755SOL    HW221165   5.341   1.671   3.107
 6756SOL     OW21166   5.139   3.934   4.003
 6756SOL    HW121167   5.211   4.003   3.997
 6756SOL    HW221168   5.151   3.866   3.931
 6757SOL     OW21169   5.103   5.042   1.972
 6757SOL    HW121170   5.011   5.035   2.010
 6757SOL    HW221171   5.104   5.003   1.879
 6758SOL     OW21172   5.377   2.080   3.037
 6758SOL    HW121173   5.448   2.093   2.967
 6758SOL    HW221174   5.362   2.167   3.085
 6759SOL     OW21175   0.302   4.701   3.305
 6759SOL    HW121176   0.398   4.673   3.300
 6759SOL    HW221177   0.243   4.620   3.303
 6760SOL     OW21178   6.934   4.017   4.869
 6760SOL    HW121179   6.878   3.989   4.947
 6760SOL    HW221180   7.017   3.961   4.866
 6761SOL     OW21181   5.759   3.381   6.415
 6761SOL    HW121182   5.788   3.286   6.408
 6761SOL    HW221183   5.661   3.384   6.438
 6762SOL     OW21184   5.417   4.861   3.557
 6762SOL    HW121185   5.347   4.931   3.543
 6762SOL    HW221186   5.508   4.904   3.560
 6763SOL     OW21187   5.367   6.249   5.985
 6763SOL    HW121188   5.325   6.229   5.896
 6763SOL    HW221189   5.368   6.166   6.040
 6764SOL     OW21190   2.324   3.658   0.043
 6764SOL    HW121191   2.319   3.626   0.137
 6764SOL    HW221192   2.417   3.647   0.009
 6765SOL     OW21193   4.901   5.437   2.761
 6765SOL    HW121194   4.869   5.358   2.813
 6765SOL    HW221195   4.824   5.498   2.743
 6766SOL     OW21196   1.333   1.319   5.271
 6766SOL    HW121197   1.348   1.221   5.275
 6766SOL    HW221198   1.350   1.359   5.361
 6767SOL     OW21199   1.234   2.750   5.662
 6767SOL    HW121200   1.196   2.745   5.570
 6767SOL    HW221201   1.209   2.838   5.703
 6768SOL     OW21202   0.298   0.416   5.541
 6768SOL    HW121203   0.215   0.360   5.541
 6768SOL    HW221204   0.378   0.358   5.556
 6769SOL     OW21205   1.460   2.951   6.571
 6769SOL    HW121206   1.523   3.023   6.544
 6769SOL    HW221207   1.508   2.884   6.629
 6770SOL     OW21208   6.834   1.219   3.997
 6770SOL    HW121209   6.867   1.255   4.085
 6770SOL    HW221210   6.791   1.130   4.012
 6771SOL     OW21211   4.171   1.771   1.985
 6771SOL    HW121212   4.240   1.801   2.052
 6771SOL    HW221213   4.129   1.852   1.943
 6772SOL     OW21214   0.336   0.993   1.567
 6772SOL    HW121215   0.332   0.955   1.659
 6772SOL    HW221216   0.264   0.951   1.511
 6773SOL     OW21217   1.113   0.985   2.050
 6773SOL    HW121218   1.060   1.068   2.031
 6773SOL    HW221219   1.182   1.005   2.119
 6774SOL     OW21220   3.014   1.423   5.423
 6774SOL    HW121221   3.092   1.372   5.387
 6774SOL    HW221222   3.036   1.456   5.515
 6775SOL     OW21223   0.664   2.880   4.921
 6775SOL    HW121224   0.719   2.963   4.911
 6775SOL    HW221225   0.719   2.809   4.964
 6776SOL     OW21226   3.487   3.757   3.462
 6776SOL    HW121227   3.405   3.705   3.488
 6776SOL    HW221228   3.528   3.798   3.543
 6777SOL     OW21229   0.160   6.511   6.722
 6777SOL    HW121230   0.134   6.466   6.636
 6777SOL    HW221231   0.107   6.595   6.733
 6778SOL     OW21232   5.976   5.739   2.418
 6778SOL    HW121233   5.946   5.801   2.490
 6778SOL    HW221234   6.036   5.788   2.355
 6779SOL     OW21235   4.939   4.139   6.354
 6779SOL    HW121236   4.892   4.069   6.407
 6779SOL    HW221237   4.968   4.101   6.266
 6780SOL     OW21238   3.824   1.496   1.896
 6780SOL    HW121239   3.842   1.568   1.963
 6780SOL    HW221240   3.769   1.424   1.937
 6781SOL     OW21241   6.165   2.548   3.163
 6781SOL    HW121242   6.125   2.524   3.252
 6781SOL    HW221243   6.104   2.516   3.090
 6782SOL     OW21244   0.061   1.813   3.317
 6782SOL    HW121245   0.046   1.746   3.389
 6782SOL    HW221246   0.131   1.780   3.254
 6783SOL     OW21247   0.777   6.446   6.020
 6783SOL    HW121248   0.837   6.390   5.962
 6783SOL    HW221249   0.811   6.540   6.023
 6784SOL     OW21250   1.310   4.517   1.122
 6784SOL    HW121251   1.389   4.518   1.184
 6784SOL    HW221252   1.322   4.588   1.052
 6785SOL     OW21253   5.243   4.534   3.363
 6785SOL    HW121254   5.248   4.587   3.278
 6785SOL    HW221255   5.240   4.436   3.341
 6786SOL     OW21256   6.413   2.285   5.892
 6786SOL    HW121257   6.343   2.357   5.891
 6786SOL    HW221258   6.428   2.255   5.987
 6787SOL     OW21259   2.996   1.618   0.610
 6787SOL    HW121260   2.923   1.683   0.589
 6787SOL    HW221261   2.973   1.569   0.695
 6788SOL     OW21262   0.567   4.267   0.992
 6788SOL    HW121263   0.483   4.320   0.980
 6788SOL    HW221264   0.559   4.180   0.944
 6789SOL     OW21265   5.729   4.841   2.482
 6789SOL    HW121266   5.681   4.848   2.569
 6789SOL    HW221267   5.672   4.881   2.410
 6790SOL     OW21268   0.519   6.071   0.612
 6790SOL    HW121269   0.586   6.002   0.584
 6790SOL    HW221270   0.475   6.043   0.697
 6791SOL     OW21271   2.365   6.522   3.314
 6791SOL    HW121272   2.319   6.450   3.262
 6791SOL    HW221273   2.375   6.494   3.409
 6792SOL     OW21274   3.905   6.752   6.064
 6792SOL    HW121275   3.932   6.849   6.061
 6792SOL    HW221276   3.825   6.741   6.123
 6793SOL     OW21277   2.020   3.070   6.119
 6793SOL    HW121278   1.971   3.148   6.080
 6793SOL    HW221279   1.981   3.048   6.208
 6794SOL     OW21280   5.412   2.619   5.217
 6794SOL    HW121281   5.407   2.567   5.131
 6794SOL    HW221282   5.489   2.682   5.213
 6795SOL     OW21283   1.221   0.625   1.699
 6795SOL    HW121284   1.171   0.658   1.779
 6795SOL    HW221285   1.303   0.681   1.685
 6796SOL     OW21286   6.776   1.719   3.050
 6796SOL    HW121287   6.709   1.655   3.087
 6796SOL    HW221288   6.824   1.677   2.973
 6797SOL     OW21289   0.900   3.022   1.004
 6797SOL    HW121290   0.947   3.064   1.081
 6797SOL    HW221291   0.967   2.980   0.943
 6798SOL     OW21292   4.846   1.220   1.887
 6798SOL    HW121293   4.932   1.200   1.934
 6798SOL    HW221294   4.824   1.317   1.899
 6799SOL     OW21295   6.983   0.228   2.967
 6799SOL    HW121296   6.936   0.266   2.888
 6799SOL    HW221297   6.992   0.129   2.957
 6800SOL     OW21298   6.719   2.870   1.556
 6800SOL    HW121299   6.647   2.841   1.619
 6800SOL    HW221300   6.747   2.793   1.499
 6801SOL     OW21301   1.055   5.949   6.112
 6801SOL    HW121302   1.066   6.034   6.163
 6801SOL    HW221303   1.076   5.871   6.171
 6802SOL     OW21304   3.008   4.789   1.830
 6802SOL    HW121305   3.104   4.775   1.805
 6802SOL    HW221306   2.967   4.700   1.851
 6803SOL     OW21307   5.366   5.493   6.475
 6803SOL    HW121308   5.379   5.394   6.473
 6803SOL    HW221309   5.405   5.530   6.559
 6804SOL     OW21310   3.411   5.413   2.223
 6804SOL    HW121311   3.408   5.451   2.131
 6804SOL    HW221312   3.347   5.461   2.282
 6805SOL     OW21313   0.946   3.860   4.220
 6805SOL    HW121314   1.032   3.884   4.265
 6805SOL    HW221315   0.887   3.940   4.217
 6806SOL     OW21316   6.262   3.381   2.117
 6806SOL    HW121317   6.166   3.366   2.142
 6806SOL    HW221318   6.269   3.465   2.063
 6807SOL     OW21319   3.393   4.178   2.362
 6807SOL    HW121320   3.360   4.143   2.274
 6807SOL    HW221321   3.380   4.277   2.365
 6808SOL     OW21322   3.590   0.536   3.553
 6808SOL    HW121323   3.549   0.504   3.467
 6808SOL    HW221324   3.654   0.467   3.587
 6809SOL     OW21325   5.808   2.776   0.538
 6809SOL    HW121326   5.784   2.698   0.481
 6809SOL    HW221327   5.806   2.749   0.634
 6810SOL     OW21328   2.648   0.655   4.879
 6810SOL    HW121329   2.625   0.749   4.906
 6810SOL    HW221330   2.661   0.651   4.780
 6811SOL     OW21331   6.626   1.626   1.275
 6811SOL    HW121332   6.595   1.541   1.319
 6811SOL    HW221333   6.671   1.684   1.343
 6812SOL     OW21334   3.058   4.809   5.174
 6812SOL    HW121335   3.096   4.731   5.222
 6812SOL    HW221336   2.959   4.797   5.163
 6813SOL     OW21337   0.069   4.032   2.286
 6813SOL    HW121338   0.063   4.058   2.383
 6813SOL    HW221339   0.161   4.049   2.253
 6814SOL     OW21340   5.552   1.544   1.269
 6814SOL    HW121341   5.588   1.457   1.234
 6814SOL    HW221342   5.458   1.532   1.300
 6815SOL     OW21343   0.659   5.931   6.836
 6815SOL    HW121344   0.622   5.965   6.922
 6815SOL    HW221345   0.632   5.835   6.825
 6816SOL     OW21346   6.564   6.804   4.668
 6816SOL    HW121347   6.601   6.827   4.578
 6816SOL    HW221348   6.482   6.749   4.657
 6817SOL     OW21349   4.790   1.732   1.253
 6817SOL    HW121350   4.820   1.642   1.221
 6817SOL    HW221351   4.741   1.721   1.340
 6818SOL     OW21352   0.951   0.092   5.389
 6818SOL    HW121353   0.856   0.072   5.411
 6818SOL    HW221354   0.955   0.166   5.322
 6819SOL     OW21355   4.981   4.298   1.748
 6819SOL    HW121356   4.920   4.353   1.804
 6819SOL    HW221357   4.932   4.219   1.711
 6820SOL     OW21358   2.437   5.012   1.808
 6820SOL    HW121359   2.491   5.049   1.883
 6820SOL    HW221360   2.489   4.940   1.762
 6821SOL     OW21361   3.297   2.903   5.956
 6821SOL    HW121362   3.261   2.903   6.050
 6821SOL    HW221363   3.228   2.943   5.895
 6822SOL     OW21364   5.730   3.903   5.513
 6822SOL    HW121365   5.715   3.806   5.532
 6822SOL    HW221366   5.655   3.939   5.459
 6823SOL     OW21367   0.769   2.643   5.978
 6823SOL    HW121368   0.840   2.691   5.927
 6823SOL    HW221369   0.757   2.551   5.940
 6824SOL     OW21370   1.382   0.469   5.264
 6824SOL    HW121371   1.395   0.473   5.165
 6824SOL    HW221372   1.343   0.380   5.289
 6825SOL     OW21373   4.220   4.327   1.283
 6825SOL    HW121374   4.152   4.328   1.210
 6825SOL    HW221375   4.291   4.395   1.264
 6826SOL     OW21376   6.009   0.502   3.501
 6826SOL    HW121377   5.962   0.590   3.514
 6826SOL    HW221378   5.981   0.438   3.573
 6827SOL     OW21379   4.558   6.020   5.116
 6827SOL    HW121380   4.561   6.120   5.105
 6827SOL    HW221381   4.575   5.997   5.212
 6828SOL     OW21382   3.562   2.065   2.075
 6828SOL    HW121383   3.502   2.041   1.999
 6828SOL    HW221384   3.627   2.135   2.045
 6829SOL     OW21385   4.304   6.989   3.493
 6829SOL    HW121386   4.241   6.960   3.422
 6829SOL    HW221387   4.374   6.919   3.505
 6830SOL     OW21388   4.191   4.933   2.089
 6830SOL    HW121389   4.100   4.913   2.123
 6830SOL    HW221390   4.256   4.867   2.126
 6831SOL     OW21391   2.111   1.288   6.340
 6831SOL    HW121392   2.136   1.233   6.420
 6831SOL    HW221393   2.131   1.236   6.257
 6832SOL     OW21394   2.765   2.626   6.551
 6832SOL    HW121395   2.780   2.725   6.560
 6832SOL    HW221396   2.832   2.577   6.607
 6833SOL     OW21397   3.815   5.179   6.187
 6833SOL    HW121398   3.805   5.083   6.161
 6833SOL    HW221399   3.813   5.236   6.106
 6834SOL     OW21400   6.352   6.195   6.596
 6834SOL    HW121401   6.424   6.141   6.553
 6834SOL    HW221402   6.318   6.263   6.531
 6835SOL     OW21403   3.584   1.005   3.839
 6835SOL    HW121404   3.599   0.915   3.798
 6835SOL    HW221405   3.672   1.048   3.858
 6836SOL     OW21406   0.476   4.345   6.113
 6836SOL    HW121407   0.568   4.382   6.100
 6836SOL    HW221408   0.420   4.366   6.033
 6837SOL     OW21409   6.084   0.552   2.133
 6837SOL    HW121410   6.007   0.614   2.121
 6837SOL    HW221411   6.146   0.589   2.203
 6838SOL     OW21412   2.916   3.772   5.970
 6838SOL    HW121413   2.933   3.856   5.918
 6838SOL    HW221414   2.986   3.704   5.948
 6839SOL     OW21415   5.891   3.083   4.720
 6839SOL    HW121416   5.893   3.110   4.623
 6839SOL    HW221417   5.796   3.068   4.748
 6840SOL     OW21418   2.402   6.203   4.385
 6840SOL    HW121419   2.468   6.145   4.431
 6840SOL    HW221420   2.449   6.268   4.326
 6841SOL     OW21421   4.573   6.694   1.000
 6841SOL    HW121422   4.540   6.743   1.081
 6841SOL    HW221423   4.647   6.632   1.026
 6842SOL     OW21424   0.757   4.030   4.138
 6842SOL    HW121425   0.708   3.958   4.090
 6842SOL    HW221426   0.693   4.082   4.195
 6843SOL     OW21427   4.663   2.678   1.603
 6843SOL    HW121428   4.694   2.694   1.697
 6843SOL    HW221429   4.670   2.580   1.582
 6844SOL     OW21430   3.419   5.721   4.199
 6844SOL    HW121431   3.491   5.717   4.129
 6844SOL    HW221432   3.458   5.697   4.288
 6845SOL     OW21433   3.981   4.312   0.344
 6845SOL    HW121434   3.910   4.371   0.384
 6845SOL    HW221435   4.067   4.363   0.337
 6846SOL     OW21436   3.961   3.158   2.520
 6846SOL    HW121437   3.891   3.126   2.456
 6846SOL    HW221438   4.013   3.232   2.478
 6847SOL     OW21439   6.569   3.562   1.194
 6847SOL    HW121440   6.623   3.502   1.134
 6847SOL    HW221441   6.472   3.544   1.179
 6848SOL     OW21442   6.564   6.219   3.851
 6848SOL    HW121443   6.625   6.158   3.902
 6848SOL    HW221444   6.536   6.174   3.766
 6849SOL     OW21445   3.667   6.420   4.264
 6849SOL    HW121446   3.765   6.433   4.279
 6849SOL    HW221447   3.650   6.413   4.165
 6850SOL     OW21448   5.444   3.313   1.643
 6850SOL    HW121449   5.523   3.371   1.666
 6850SOL    HW221450   5.360   3.362   1.666
 6851SOL     OW21451   1.234   5.420   4.964
 6851SOL    HW121452   1.300   5.495   4.966
 6851SOL    HW221453   1.181   5.424   4.879
 6852SOL     OW21454   0.042   5.088   2.143
 6852SOL    HW121455   0.007   5.153   2.211
 6852SOL    HW221456   0.097   5.018   2.189
 6853SOL     OW21457   6.317   3.926   5.338
 6853SOL    HW121458   6.390   3.981   5.377
 6853SOL    HW221459   6.267   3.979   5.270
 6854SOL     OW21460   0.188   1.848   0.019
 6854SOL    HW121461   0.271   1.794   0.029
 6854SOL    HW221462   0.198   1.933   0.071
 6855SOL     OW21463   2.814   0.001   1.954
 6855SOL    HW121464   2.900   6.991   1.993
 6855SOL    HW221465   2.738   6.976   1.998
 6856SOL     OW21466   0.279   4.791   4.990
 6856SOL    HW121467   0.188   4.759   5.017
 6856SOL    HW221468   0.322   4.723   4.930
 6857SOL     OW21469   4.017   1.265   5.796
 6857SOL    HW121470   3.983   1.354   5.826
 6857SOL    HW221471   3.979   1.193   5.854
 6858SOL     OW21472   3.703   2.803   5.336
 6858SOL    HW121473   3.698   2.792   5.237
 6858SOL    HW221474   3.787   2.853   5.360
 6859SOL     OW21475   3.630   0.638   0.414
 6859SOL    HW121476   3.727   0.656   0.434
 6859SOL    HW221477   3.605   0.548   0.451
 6860SOL     OW21478   4.185   4.783   6.937
 6860SOL    HW121479   4.236   4.718   6.882
 6860SOL    HW221480   4.226   4.790   0.004
 6861SOL     OW21481   5.838   4.054   0.934
 6861SOL    HW121482   5.924   4.102   0.950
 6861SOL    HW221483   5.763   4.119   0.936
 6862SOL     OW21484   2.827   5.125   3.765
 6862SOL    HW121485   2.769   5.115   3.846
 6862SOL    HW221486   2.896   5.196   3.782
 6863SOL     OW21487   0.813   3.160   3.982
 6863SOL    HW121488   0.838   3.142   3.887
 6863SOL    HW221489   0.831   3.079   4.038
 6864SOL     OW21490   4.493   5.432   5.859
 6864SOL    HW121491   4.484   5.359   5.927
 6864SOL    HW221492   4.585   5.471   5.865
 6865SOL     OW21493   6.660   3.103   4.373
 6865SOL    HW121494   6.628   3.113   4.467
 6865SOL    HW221495   6.614   3.169   4.314
 6866SOL     OW21496   0.366   3.189   1.990
 6866SOL    HW121497   0.329   3.253   1.923
 6866SOL    HW221498   0.460   3.215   2.013
 6867SOL     OW21499   2.188   4.872   2.567
 6867SOL    HW121500   2.167   4.780   2.602
 6867SOL    HW221501   2.255   4.915   2.628
 6868SOL     OW21502   1.614   5.321   4.523
 6868SOL    HW121503   1.565   5.255   4.581
 6868SOL    HW221504   1.578   5.413   4.540
 6869SOL     OW21505   6.341   3.264   5.162
 6869SOL    HW121506   6.303   3.284   5.252
 6869SOL    HW221507   6.440   3.270   5.165
 6870SOL     OW21508   5.134   3.663   2.402
 6870SOL    HW121509   5.127   3.750   2.353
 6870SOL    HW221510   5.044   3.620   2.407
 6871SOL     OW21511   4.657   6.984   1.532
 6871SOL    HW121512   4.746   0.004   1.550
 6871SOL    HW221513   4.609   6.970   1.618
 6872SOL     OW21514   2.778   3.342   6.641
 6872SOL    HW121515   2.872   3.316   6.661
 6872SOL    HW221516   2.717   3.266   6.661
 6873SOL     OW21517   4.706   3.720   5.671
 6873SOL    HW121518   4.722   3.647   5.737
 6873SOL    HW221519   4.627   3.774   5.700
 6874SOL     OW21520   1.158   2.583   5.407
 6874SOL    HW121521   1.135   2.635   5.325
 6874SOL    HW221522   1.174   2.487   5.382
 6875SOL     OW21523   3.453   2.041   3.831
 6875SOL    HW121524   3.370   2.059   3.883
 6875SOL    HW221525   3.429   2.017   3.737
 6876SOL     OW21526   3.701   6.565   5.007
 6876SOL    HW121527   3.775   6.603   5.062
 6876SOL    HW221528   3.615   6.569   5.058
 6877SOL     OW21529   2.919   3.700   6.890
 6877SOL    HW121530   2.911   3.758   6.971
 6877SOL    HW221531   2.950   3.609   6.918
 6878SOL     OW21532   1.310   1.902   4.795
 6878SOL    HW121533   1.228   1.912   4.851
 6878SOL    HW221534   1.285   1.906   4.698
 6879SOL     OW21535   1.071   1.082   5.615
 6879SOL    HW121536   1.086   0.987   5.644
 6879SOL    HW221537   1.002   1.125   5.673
 6880SOL     OW21538   1.868   3.982   4.800
 6880SOL    HW121539   1.960   4.015   4.822
 6880SOL    HW221540   1.867   3.882   4.800
 6881SOL     OW21541   5.942   5.358   1.770
 6881SOL    HW121542   5.865   5.303   1.804
 6881SOL    HW221543   5.979   5.314   1.688
 6882SOL     OW21544   2.522   6.425   4.980
 6882SOL    HW121545   2.488   6.462   5.067
 6882SOL    HW221546   2.467   6.461   4.905
 6883SOL     OW21547   2.973   6.428   1.337
 6883SOL    HW121548   3.063   6.386   1.344
 6883SOL    HW221549   2.902   6.359   1.351
 6884SOL     OW21550   2.556   5.033   2.847
 6884SOL    HW121551   2.646   5.042   2.889
 6884SOL    HW221552   2.521   4.940   2.864
 6885SOL     OW21553   3.743   5.386   5.333
 6885SOL    HW121554   3.764   5.294   5.301
 6885SOL    HW221555   3.828   5.439   5.340
 6886SOL     OW21556   5.254   2.272   2.241
 6886SOL    HW121557   5.348   2.250   2.264
 6886SOL    HW221558   5.251   2.357   2.188
 6887SOL     OW21559   5.026   1.054   5.106
 6887SOL    HW121560   4.946   1.014   5.062
 6887SOL    HW221561   5.103   1.055   5.041
 6888SOL     OW21562   5.381   6.526   5.141
 6888SOL    HW121563   5.434   6.445   5.164
 6888SOL    HW221564   5.286   6.499   5.122
 6889SOL     OW21565   1.369   4.324   6.162
 6889SOL    HW121566   1.330   4.263   6.093
 6889SOL    HW221567   1.296   4.378   6.204
 6890SOL     OW21568   2.033   0.841   0.723
 6890SOL    HW121569   2.034   0.812   0.627
 6890SOL    HW221570   1.997   0.767   0.779
 6891SOL     OW21571   3.686   4.946   5.328
 6891SOL    HW121572   3.614   4.881   5.355
 6891SOL    HW221573   3.667   4.980   5.236
 6892SOL     OW21574   3.541   0.995   4.534
 6892SOL    HW121575   3.618   0.933   4.547
 6892SOL    HW221576   3.526   1.009   4.436
 6893SOL     OW21577   6.329   6.766   1.427
 6893SOL    HW121578   6.325   6.830   1.350
 6893SOL    HW221579   6.283   6.681   1.402
 6894SOL     OW21580   6.185   4.555   5.632
 6894SOL    HW121581   6.231   4.491   5.694
 6894SOL    HW221582   6.100   4.587   5.674
 6895SOL     OW21583   3.494   5.249   6.717
 6895SOL    HW121584   3.473   5.342   6.746
 6895SOL    HW221585   3.450   5.230   6.630
 6896SOL     OW21586   4.293   0.411   3.203
 6896SOL    HW121587   4.346   0.494   3.186
 6896SOL    HW221588   4.318   0.372   3.292
 6897SOL     OW21589   3.637   1.717   0.635
 6897SOL    HW121590   3.595   1.692   0.548
 6897SOL    HW221591   3.683   1.805   0.626
 6898SOL     OW21592   3.739   1.367   3.016
 6898SOL    HW121593   3.647   1.404   3.027
 6898SOL    HW221594   3.757   1.353   2.919
 6899SOL     OW21595   5.674   6.350   6.897
 6899SOL    HW121596   5.621   6.371   6.815
 6899SOL    HW221597   5.631   6.393   6.976
 6900SOL     OW21598   4.222   1.346   5.633
 6900SOL    HW121599   4.161   1.317   5.707
 6900SOL    HW221600   4.316   1.352   5.668
 6901SOL     OW21601   1.342   0.600   0.104
 6901SOL    HW121602   1.271   0.619   0.036
 6901SOL    HW221603   1.299   0.581   0.192
 6902SOL     OW21604   6.458   5.530   1.505
 6902SOL    HW121605   6.421   5.593   1.574
 6902SOL    HW221606   6.557   5.540   1.500
 6903SOL     OW21607   4.130   4.476   0.778
 6903SOL    HW121608   4.136   4.575   0.763
 6903SOL    HW221609   4.213   4.445   0.824
 6904SOL     OW21610   0.590   1.947   3.075
 6904SOL    HW121611   0.508   1.976   3.125
 6904SOL    HW221612   0.619   1.857   3.109
 6905SOL     OW21613   4.248   4.894   1.062
 6905SOL    HW121614   4.172   4.875   1.000
 6905SOL    HW221615   4.223   4.863   1.154
 6906SOL     OW21616   4.580   5.716   3.689
 6906SOL    HW121617   4.669   5.741   3.728
 6906SOL    HW221618   4.534   5.652   3.751
 6907SOL     OW21619   3.769   1.060   1.225
 6907SOL    HW121620   3.770   0.988   1.156
 6907SOL    HW221621   3.855   1.059   1.276
 6908SOL     OW21622   6.967   6.692   6.728
 6908SOL    HW121623   6.989   6.785   6.699
 6908SOL    HW221624   6.917   6.694   6.814
 6909SOL     OW21625   4.220   3.320   6.932
 6909SOL    HW121626   4.137   3.266   6.920
 6909SOL    HW221627   4.301   3.263   6.916
 6910SOL     OW21628   6.888   1.382   1.972
 6910SOL    HW121629   6.974   1.330   1.978
 6910SOL    HW221630   6.821   1.329   1.921
 6911SOL     OW21631   4.372   0.680   5.302
 6911SOL    HW121632   4.294   0.720   5.255
 6911SOL    HW221633   4.382   0.584   5.275
 6912SOL     OW21634   4.629   5.257   1.639
 6912SOL    HW121635   4.637   5.226   1.734
 6912SOL    HW221636   4.539   5.231   1.604
 6913SOL     OW21637   4.303   5.873   5.485
 6913SOL    HW121638   4.366   5.917   5.549
 6913SOL    HW221639   4.253   5.942   5.434
 6914SOL     OW21640   6.297   4.792   6.761
 6914SOL    HW121641   6.363   4.845   6.814
 6914SOL    HW221642   6.282   4.836   6.672
 6915SOL     OW21643   1.279   5.655   1.335
 6915SOL    HW121644   1.225   5.636   1.416
 6915SOL    HW221645   1.332   5.739   1.349
 6916SOL     OW21646   6.644   0.828   6.286
 6916SOL    HW121647   6.672   0.893   6.216
 6916SOL    HW221648   6.726   0.790   6.329
 6917SOL     OW21649   4.989   0.002   6.631
 6917SOL    HW121650   4.935   0.080   6.599
 6917SOL    HW221651   5.040   6.986   6.554
 6918SOL     OW21652   2.227   2.873   4.041
 6918SOL    HW121653   2.298   2.813   4.077
 6918SOL    HW221654   2.211   2.853   3.945
 6919SOL     OW21655   1.378   6.131   3.319
 6919SOL    HW121656   1.351   6.175   3.405
 6919SOL    HW221657   1.400   6.200   3.251
 6920SOL     OW21658   5.025   6.986   4.666
 6920SOL    HW121659   5.114   6.973   4.710
 6920SOL    HW221660   4.990   0.053   4.688
 6921SOL     OW21661   0.195   6.512   2.987
 6921SOL    HW121662   0.292   6.492   2.973
 6921SOL    HW221663   0.183   6.557   3.075
 6922SOL     OW21664   1.705   5.930   6.765
 6922SOL    HW121665   1.744   5.966   6.680
 6922SOL    HW221666   1.642   5.855   6.744
 6923SOL     OW21667   4.279   6.594   4.232
 6923SOL    HW121668   4.241   6.634   4.149
 6923SOL    HW221669   4.206   6.573   4.296
 6924SOL     OW21670   6.798   5.835   1.284
 6924SOL    HW121671   6.871   5.868   1.344
 6924SOL    HW221672   6.758   5.752   1.325
 6925SOL     OW21673   6.289   5.488   3.224
 6925SOL    HW121674   6.218   5.543   3.269
 6925SOL    HW221675   6.379   5.523   3.250
 6926SOL     OW21676   3.116   4.088   4.919
 6926SOL    HW121677   3.166   4.172   4.936
 6926SOL    HW221678   3.144   4.018   4.985
 6927SOL     OW21679   4.234   3.596   6.890
 6927SOL    HW121680   4.243   3.503   6.926
 6927SOL    HW221681   4.276   3.601   6.800
 6928SOL     OW21682   6.659   6.922   6.564
 6928SOL    HW121683   6.676   6.837   6.515
 6928SOL    HW221684   6.698   6.999   6.512
 6929SOL     OW21685   3.553   5.200   0.697
 6929SOL    HW121686   3.562   5.227   0.602
 6929SOL    HW221687   3.516   5.275   0.751
 6930SOL     OW21688   1.010   0.015   3.251
 6930SOL    HW121689   1.038   6.950   3.287
 6930SOL    HW221690   0.953   0.002   3.170
 6931SOL     OW21691   1.669   0.745   1.912
 6931SOL    HW121692   1.730   0.762   1.990
 6931SOL    HW221693   1.690   0.811   1.839
 6932SOL     OW21694   2.682   1.981   0.377
 6932SOL    HW121695   2.774   2.017   0.391
 6932SOL    HW221696   2.668   1.960   0.281
 6933SOL     OW21697   3.111   6.469   6.826
 6933SOL    HW121698   3.175   6.404   6.785
 6933SOL    HW221699   3.110   6.553   6.771
 6934SOL     OW21700   5.904   4.206   6.337
 6934SOL    HW121701   5.878   4.229   6.243
 6934SOL    HW221702   5.825   4.166   6.383
 6935SOL     OW21703   4.037   5.318   3.401
 6935SOL    HW121704   3.968   5.297   3.332
 6935SOL    HW221705   3.991   5.342   3.487
 6936SOL     OW21706   0.924   4.794   0.904
 6936SOL    HW121707   1.017   4.756   0.909
 6936SOL    HW221708   0.912   4.859   0.979
 6937SOL     OW21709   4.585   6.474   5.925
 6937SOL    HW121710   4.652   6.472   5.999
 6937SOL    HW221711   4.511   6.537   5.950
 6938SOL     OW21712   5.759   2.200   5.139
 6938SOL    HW121713   5.674   2.158   5.108
 6938SOL    HW221714   5.834   2.135   5.127
 6939SOL     OW21715   0.483   4.984   2.347
 6939SOL    HW121716   0.425   4.967   2.427
 6939SOL    HW221717   0.435   5.045   2.284
 6940SOL     OW21718   3.807   0.993   4.846
 6940SOL    HW121719   3.748   0.935   4.902
 6940SOL    HW221720   3.854   0.937   4.778
 6941SOL     OW21721   3.633   2.943   2.978
 6941SOL    HW121722   3.565   2.970   3.045
 6941SOL    HW221723   3.587   2.923   2.891
 6942SOL     OW21724   0.012   1.701   0.573
 6942SOL    HW121725   6.976   1.777   0.601
 6942SOL    HW221726   0.016   1.634   0.647
 6943SOL     OW21727   5.542   6.405   0.108
 6943SOL    HW121728   5.498   6.486   0.146
 6943SOL    HW221729   5.492   6.323   0.137
 6944SOL     OW21730   1.164   6.352   6.076
 6944SOL    HW121731   1.232   6.341   6.003
 6944SOL    HW221732   1.168   6.273   6.138
 6945SOL     OW21733   4.416   2.083   5.529
 6945SOL    HW121734   4.431   2.001   5.474
 6945SOL    HW221735   4.503   2.132   5.540
 6946SOL     OW21736   5.775   4.364   3.806
 6946SOL    HW121737   5.826   4.320   3.733
 6946SOL    HW221738   5.818   4.342   3.894
 6947SOL     OW21739   3.865   0.081   2.752
 6947SOL    HW121740   3.766   0.078   2.746
 6947SOL    HW221741   3.901   7.012   2.765
 6948SOL     OW21742   3.914   2.182   4.766
 6948SOL    HW121743   3.990   2.205   4.826
 6948SOL    HW221744   3.835   2.238   4.788
 6949SOL     OW21745   4.673   0.783   2.341
 6949SOL    HW121746   4.700   0.736   2.426
 6949SOL    HW221747   4.748   0.779   2.275
 6950SOL     OW21748   2.469   1.351   3.631
 6950SOL    HW121749   2.550   1.324   3.579
 6950SOL    HW221750   2.417   1.420   3.580
 6951SOL     OW21751   5.649   5.355   5.687
 6951SOL    HW121752   5.550   5.346   5.683
 6951SOL    HW221753   5.672   5.445   5.726
 6952SOL     OW21754   0.304   5.403   4.618
 6952SOL    HW121755   0.400   5.414   4.592
 6952SOL    HW221756   0.281   5.469   4.690
 6953SOL     OW21757   5.397   2.363   5.590
 6953SOL    HW121758   5.404   2.324   5.498
 6953SOL    HW221759   5.387   2.290   5.657
 6954SOL     OW21760   0.967   5.384   2.877
 6954SOL    HW121761   0.920   5.341   2.954
 6954SOL    HW221762   0.912   5.459   2.842
 6955SOL     OW21763   6.355   5.589   2.801
 6955SOL    HW121764   6.306   5.503   2.792
 6955SOL    HW221765   6.326   5.651   2.728
 6956SOL     OW21766   3.211   4.935   1.166
 6956SOL    HW121767   3.292   4.990   1.147
 6956SOL    HW221768   3.228   4.873   1.241
 6957SOL     OW21769   0.533   3.613   0.493
 6957SOL    HW121770   0.536   3.536   0.557
 6957SOL    HW221771   0.625   3.651   0.481
 6958SOL     OW21772   2.086   3.635   6.106
 6958SOL    HW121773   2.127   3.640   6.198
 6958SOL    HW221774   2.158   3.621   6.038
 6959SOL     OW21775   3.372   1.083   3.650
 6959SOL    HW121776   3.440   1.074   3.722
 6959SOL    HW221777   3.361   1.179   3.625
 6960SOL     OW21778   6.870   4.928   0.105
 6960SOL    HW121779   6.912   4.872   0.034
 6960SOL    HW221780   6.792   4.879   0.144
 6961SOL     OW21781   6.688   1.071   3.000
 6961SOL    HW121782   6.775   1.111   3.029
 6961SOL    HW221783   6.662   1.108   2.910
 6962SOL     OW21784   4.136   3.397   0.722
 6962SOL    HW121785   4.108   3.465   0.790
 6962SOL    HW221786   4.056   3.346   0.692
 6963SOL     OW21787   5.892   5.656   2.166
 6963SOL    HW121788   5.923   5.738   2.119
 6963SOL    HW221789   5.902   5.668   2.264
 6964SOL     OW21790   3.741   6.204   4.777
 6964SOL    HW121791   3.727   6.211   4.678
 6964SOL    HW221792   3.802   6.277   4.807
 6965SOL     OW21793   6.782   3.269   5.770
 6965SOL    HW121794   6.809   3.180   5.733
 6965SOL    HW221795   6.747   3.257   5.863
 6966SOL     OW21796   4.727   2.747   3.646
 6966SOL    HW121797   4.731   2.822   3.712
 6966SOL    HW221798   4.719   2.784   3.554
 6967SOL     OW21799   2.223   1.525   6.339
 6967SOL    HW121800   2.197   1.428   6.343
 6967SOL    HW221801   2.156   1.580   6.388
 6968SOL     OW21802   4.502   0.038   2.288
 6968SOL    HW121803   4.428   7.002   2.260
 6968SOL    HW221804   4.579   7.007   2.322
 6969SOL     OW21805   3.026   2.026   1.290
 6969SOL    HW121806   3.126   2.029   1.295
 6969SOL    HW221807   2.993   2.104   1.237
 6970SOL     OW21808   4.672   3.863   0.454
 6970SOL    HW121809   4.610   3.785   0.454
 6970SOL    HW221810   4.674   3.904   0.545
 6971SOL     OW21811   5.462   0.476   2.376
 6971SOL    HW121812   5.404   0.544   2.330
 6971SOL    HW221813   5.461   0.492   2.474
 6972SOL     OW21814   5.349   5.060   4.663
 6972SOL    HW121815   5.395   5.144   4.692
 6972SOL    HW221816   5.317   5.010   4.743
 6973SOL     OW21817   1.885   4.720   3.729
 6973SOL    HW121818   1.981   4.746   3.727
 6973SOL    HW221819   1.874   4.636   3.782
 6974SOL     OW21820   3.846   4.122   4.793
 6974SOL    HW121821   3.820   4.218   4.786
 6974SOL    HW221822   3.898   4.096   4.712
 6975SOL     OW21823   3.882   1.222   5.339
 6975SOL    HW121824   3.847   1.312   5.363
 6975SOL    HW221825   3.940   1.188   5.413
 6976SOL     OW21826   1.963   5.371   6.986
 6976SOL    HW121827   2.019   5.365   6.903
 6976SOL    HW221828   1.909   5.455   6.984
 6977SOL     OW21829   4.160   2.101   3.056
 6977SOL    HW121830   4.195   2.007   3.059
 6977SOL    HW221831   4.144   2.126   2.961
 6978SOL     OW21832   6.195   1.005   2.877
 6978SOL    HW121833   6.184   0.907   2.859
 6978SOL    HW221834   6.181   1.056   2.792
 6979SOL     OW21835   0.630   4.508   3.492
 6979SOL    HW121836   0.619   4.426   3.547
 6979SOL    HW221837   0.588   4.494   3.402
 6980SOL     OW21838   3.522   1.651   4.155
 6980SOL    HW121839   3.590   1.687   4.218
 6980SOL    HW221840   3.539   1.554   4.139
 6981SOL     OW21841   2.602   4.712   6.608
 6981SOL    HW121842   2.645   4.723   6.518
 6981SOL    HW221843   2.549   4.794   6.630
 6982SOL     OW21844   0.255   6.682   4.720
 6982SOL    HW121845   0.278   6.694   4.816
 6982SOL    HW221846   0.316   6.615   4.679
 6983SOL     OW21847   6.183   0.984   3.804
 6983SOL    HW121848   6.210   1.080   3.798
 6983SOL    HW221849   6.258   0.931   3.843
 6984SOL     OW21850   2.384   1.069   6.520
 6984SOL    HW121851   2.406   1.012   6.441
 6984SOL    HW221852   2.374   1.012   6.601
 6985SOL     OW21853   5.189   6.135   2.442
 6985SOL    HW121854   5.120   6.175   2.381
 6985SOL    HW221855   5.166   6.040   2.461
 6986SOL     OW21856   2.291   6.559   4.855
 6986SOL    HW121857   2.214   6.607   4.897
 6986SOL    HW221858   2.284   6.461   4.874
 6987SOL     OW21859   0.047   3.696   6.734
 6987SOL    HW121860   0.018   3.760   6.805
 6987SOL    HW221861   0.077   3.611   6.777
 6988SOL     OW21862   4.907   1.326   5.224
 6988SOL    HW121863   4.966   1.266   5.278
 6988SOL    HW221864   4.909   1.298   5.128
 6989SOL     OW21865   1.547   2.979   3.731
 6989SOL    HW121866   1.547   2.879   3.735
 6989SOL    HW221867   1.463   3.010   3.687
 6990SOL     OW21868   4.023   3.237   0.366
 6990SOL    HW121869   3.958   3.196   0.303
 6990SOL    HW221870   4.086   3.297   0.316
 6991SOL     OW21871   4.398   4.395   5.434
 6991SOL    HW121872   4.467   4.341   5.386
 6991SOL    HW221873   4.349   4.336   5.499
 6992SOL     OW21874   5.563   5.973   5.608
 6992SOL    HW121875   5.655   5.991   5.573
 6992SOL    HW221876   5.515   6.060   5.620
 6993SOL     OW21877   0.495   6.404   3.279
 6993SOL    HW121878   0.471   6.495   3.312
 6993SOL    HW221879   0.558   6.413   3.201
 6994SOL     OW21880   1.436   2.805   0.296
 6994SOL    HW121881   1.355   2.757   0.262
 6994SOL    HW221882   1.436   2.802   0.396
 6995SOL     OW21883   0.568   5.242   3.240
 6995SOL    HW121884   0.489   5.182   3.254
 6995SOL    HW221885   0.564   5.319   3.304
 6996SOL     OW21886   2.585   6.891   5.774
 6996SOL    HW121887   2.512   6.957   5.756
 6996SOL    HW221888   2.658   6.903   5.707
 6997SOL     OW21889   4.978   0.146   4.377
 6997SOL    HW121890   4.921   0.064   4.364
 6997SOL    HW221891   5.071   0.118   4.402
 6998SOL     OW21892   1.844   2.563   3.313
 6998SOL    HW121893   1.769   2.603   3.365
 6998SOL    HW221894   1.818   2.472   3.281
 6999SOL     OW21895   4.056   1.800   6.392
 6999SOL    HW121896   3.988   1.830   6.325
 6999SOL    HW221897   4.132   1.866   6.395
 7000SOL     OW21898   6.885   6.323   1.301
 7000SOL    HW121899   6.841   6.286   1.383
 7000SOL    HW221900   6.910   6.418   1.317
 7001SOL     OW21901   3.010   1.784   5.466
 7001SOL    HW121902   2.925   1.732   5.466
 7001SOL    HW221903   3.027   1.821   5.374
 7002SOL     OW21904   2.072   5.181   3.244
 7002SOL    HW121905   2.063   5.081   3.248
 7002SOL    HW221906   2.044   5.213   3.153
 7003SOL     OW21907   2.335   6.197   0.162
 7003SOL    HW121908   2.345   6.258   0.083
 7003SOL    HW221909   2.245   6.154   0.160
 7004SOL     OW21910   0.894   4.976   0.656
 7004SOL    HW121911   0.917   4.939   0.746
 7004SOL    HW221912   0.922   4.911   0.585
 7005SOL     OW21913   5.470   6.652   5.480
 7005SOL    HW121914   5.376   6.622   5.498
 7005SOL    HW221915   5.517   6.582   5.425
 7006SOL     OW21916   4.287   4.806   4.996
 7006SOL    HW121917   4.299   4.713   5.031
 7006SOL    HW221918   4.247   4.864   5.067
 7007SOL     OW21919   5.010   5.424   2.255
 7007SOL    HW121920   4.999   5.331   2.219
 7007SOL    HW221921   5.075   5.474   2.198
 7008SOL     OW21922   1.051   4.921   4.161
 7008SOL    HW121923   1.105   4.836   4.166
 7008SOL    HW221924   1.047   4.962   4.252
 7009SOL     OW21925   0.216   4.689   2.489
 7009SOL    HW121926   0.288   4.656   2.550
 7009SOL    HW221927   0.243   4.672   2.394
 7010SOL     OW21928   4.032   4.855   6.643
 7010SOL    HW121929   3.936   4.885   6.649
 7010SOL    HW221930   4.086   4.926   6.598
 7011SOL     OW21931   2.535   1.636   4.807
 7011SOL    HW121932   2.627   1.625   4.845
 7011SOL    HW221933   2.482   1.696   4.868
 7012SOL     OW21934   1.216   1.339   1.672
 7012SOL    HW121935   1.293   1.296   1.720
 7012SOL    HW221936   1.185   1.419   1.723
 7013SOL     OW21937   0.622   0.799   2.384
 7013SOL    HW121938   0.697   0.846   2.431
 7013SOL    HW221939   0.630   0.701   2.399
 7014SOL     OW21940   2.226   4.665   1.318
 7014SOL    HW121941   2.269   4.674   1.228
 7014SOL    HW221942   2.155   4.735   1.327
 7015SOL     OW21943   5.064   2.372   1.983
 7015SOL    HW121944   5.017   2.348   2.068
 7015SOL    HW221945   5.001   2.365   1.906
 7016SOL     OW21946   3.113   4.762   0.953
 7016SOL    HW121947   3.130   4.820   1.032
 7016SOL    HW221948   3.027   4.791   0.909
 7017SOL     OW21949   4.413   1.636   4.237
 7017SOL    HW121950   4.450   1.647   4.145
 7017SOL    HW221951   4.399   1.726   4.279
 7018SOL     OW21952   0.364   5.161   3.402
 7018SOL    HW121953   0.279   5.115   3.429
 7018SOL    HW221954   0.385   5.234   3.466
 7019SOL     OW21955   2.213   6.225   0.771
 7019SOL    HW121956   2.138   6.167   0.801
 7019SOL    HW221957   2.260   6.182   0.694
 7020SOL     OW21958   0.442   6.749   5.545
 7020SOL    HW121959   0.387   6.668   5.567
 7020SOL    HW221960   0.515   6.759   5.614
 7021SOL     OW21961   3.355   0.311   5.433
 7021SOL    HW121962   3.312   0.356   5.355
 7021SOL    HW221963   3.416   0.376   5.479
 7022SOL     OW21964   5.259   4.949   6.158
 7022SOL    HW121965   5.249   4.983   6.065
 7022SOL    HW221966   5.347   4.979   6.196
 7023SOL     OW21967   5.958   3.756   3.174
 7023SOL    HW121968   5.975   3.710   3.087
 7023SOL    HW221969   6.025   3.829   3.186
 7024SOL     OW21970   0.460   6.020   1.158
 7024SOL    HW121971   0.501   6.046   1.070
 7024SOL    HW221972   0.368   5.984   1.142
 7025SOL     OW21973   2.929   0.622   6.438
 7025SOL    HW121974   2.916   0.534   6.485
 7025SOL    HW221975   2.840   0.659   6.412
 7026SOL     OW21976   4.041   2.006   0.814
 7026SOL    HW121977   4.057   2.087   0.757
 7026SOL    HW221978   4.120   1.991   0.874
 7027SOL     OW21979   4.512   6.898   4.507
 7027SOL    HW121980   4.531   6.908   4.605
 7027SOL    HW221981   4.582   6.838   4.466
 7028SOL     OW21982   2.839   6.361   4.269
 7028SOL    HW121983   2.928   6.317   4.255
 7028SOL    HW221984   2.847   6.459   4.248
 7029SOL     OW21985   3.419   0.112   4.598
 7029SOL    HW121986   3.446   0.209   4.600
 7029SOL    HW221987   3.499   0.055   4.618
 7030SOL     OW21988   2.087   3.730   3.743
 7030SOL    HW121989   1.989   3.748   3.742
 7030SOL    HW221990   2.119   3.708   3.651
 7031SOL     OW21991   2.195   6.946   5.407
 7031SOL    HW121992   2.195   0.017   5.439
 7031SOL    HW221993   2.158   6.942   5.315
 7032SOL     OW21994   6.192   2.335   2.872
 7032SOL    HW121995   6.122   2.400   2.900
 7032SOL    HW221996   6.173   2.305   2.778
 7033SOL     OW21997   6.731   0.006   4.699
 7033SOL    HW121998   6.763   7.010   4.791
 7033SOL    HW221999   6.674   6.953   4.666
 7034SOL     OW22000   6.803   5.619   2.694
 7034SOL    HW122001   6.747   5.604   2.613
 7034SOL    HW222002   6.824   5.716   2.702
 7035SOL     OW22003   6.493   5.217   2.106
 7035SOL    HW122004   6.399   5.229   2.138
 7035SOL    HW222005   6.517   5.120   2.109
 7036SOL     OW22006   6.774   4.294   1.293
 7036SOL    HW122007   6.724   4.208   1.304
 7036SOL    HW222008   6.820   4.316   1.379
 7037SOL     OW22009   1.170   6.894   0.337
 7037SOL    HW122010   1.190   6.964   0.407
 7037SOL    HW222011   1.174   6.936   0.247
 7038SOL     OW22012   1.845   3.886   4.162
 7038SOL    HW122013   1.746   3.893   4.178
 7038SOL    HW222014   1.864   3.804   4.108
 7039SOL     OW22015   4.293   1.711   5.984
 7039SOL    HW122016   4.261   1.680   6.073
 7039SOL    HW222017   4.236   1.787   5.952
 7040SOL     OW22018   4.824   2.540   6.417
 7040SOL    HW122019   4.730   2.506   6.424
 7040SOL    HW222020   4.823   2.638   6.396
 7041SOL     OW22021   2.446   1.519   2.606
 7041SOL    HW122022   2.523   1.466   2.569
 7041SOL    HW222023   2.374   1.525   2.537
 7042SOL     OW22024   1.777   0.425   0.024
 7042SOL    HW122025   1.824   0.360   0.083
 7042SOL    HW222026   1.839   0.456   6.976
 7043SOL     OW22027   1.486   2.476   3.193
 7043SOL    HW122028   1.487   2.383   3.229
 7043SOL    HW222029   1.407   2.488   3.133
 7044SOL     OW22030   4.885   6.194   2.404
 7044SOL    HW122031   4.878   6.275   2.462
 7044SOL    HW222032   4.795   6.171   2.366
 7045SOL     OW22033   5.917   5.097   1.339
 7045SOL    HW122034   5.943   5.050   1.424
 7045SOL    HW222035   5.866   5.034   1.280
 7046SOL     OW22036   2.547   0.958   4.214
 7046SOL    HW122037   2.626   0.977   4.156
 7046SOL    HW222038   2.556   0.866   4.253
 7047SOL     OW22039   2.345   1.573   4.108
 7047SOL    HW122040   2.348   1.603   4.203
 7047SOL    HW222041   2.278   1.499   4.099
 7048SOL     OW22042   6.575   6.458   0.715
 7048SOL    HW122043   6.646   6.395   0.746
 7048SOL    HW222044   6.597   6.490   0.623
 7049SOL     OW22045   1.723   0.985   0.471
 7049SOL    HW122046   1.679   0.951   0.554
 7049SOL    HW222047   1.818   0.953   0.468
 7050SOL     OW22048   4.094   3.625   5.394
 7050SOL    HW122049   4.134   3.570   5.467
 7050SOL    HW222050   4.145   3.711   5.385
 7051SOL     OW22051   6.387   6.601   2.210
 7051SOL    HW122052   6.376   6.526   2.144
 7051SOL    HW222053   6.315   6.596   2.279
 7052SOL     OW22054   6.835   1.953   3.525
 7052SOL    HW122055   6.873   1.861   3.538
 7052SOL    HW222056   6.865   1.990   3.437
 7053SOL     OW22057   6.503   4.404   6.152
 7053SOL    HW122058   6.585   4.361   6.189
 7053SOL    HW222059   6.469   4.473   6.216
 7054SOL     OW22060   6.612   0.073   1.761
 7054SOL    HW122061   6.521   0.113   1.776
 7054SOL    HW222062   6.676   0.146   1.737
 7055SOL     OW22063   3.403   7.013   5.341
 7055SOL    HW122064   3.455   0.031   5.416
 7055SOL    HW222065   3.311   0.028   5.340
 7056SOL     OW22066   4.918   5.047   4.121
 7056SOL    HW122067   4.871   5.004   4.044
 7056SOL    HW222068   4.982   4.981   4.162
 7057SOL     OW22069   0.451   5.898   3.457
 7057SOL    HW122070   0.489   5.875   3.547
 7057SOL    HW222071   0.468   5.995   3.437
 7058SOL     OW22072   0.247   5.317   5.012
 7058SOL    HW122073   0.192   5.306   5.095
 7058SOL    HW222074   0.280   5.228   4.982
 7059SOL     OW22075   1.786   0.698   2.617
 7059SOL    HW122076   1.850   0.676   2.543
 7059SOL    HW222077   1.740   0.615   2.647
 7060SOL     OW22078   3.360   0.183   1.392
 7060SOL    HW122079   3.283   0.160   1.452
 7060SOL    HW222080   3.338   0.265   1.339
 7061SOL     OW22081   0.202   1.022   2.565
 7061SOL    HW122082   0.265   0.947   2.546
 7061SOL    HW222083   0.112   1.002   2.525
 7062SOL     OW22084   6.184   1.444   5.333
 7062SOL    HW122085   6.249   1.464   5.407
 7062SOL    HW222086   6.096   1.487   5.354
 7063SOL     OW22087   2.663   6.927   1.531
 7063SOL    HW122088   2.655   6.995   1.459
 7063SOL    HW222089   2.595   6.944   1.602
 7064SOL     OW22090   4.337   2.440   0.421
 7064SOL    HW122091   4.393   2.365   0.385
 7064SOL    HW222092   4.372   2.527   0.386
 7065SOL     OW22093   4.265   4.086   1.661
 7065SOL    HW122094   4.318   4.117   1.582
 7065SOL    HW222095   4.297   4.132   1.743
 7066SOL     OW22096   3.244   6.360   0.657
 7066SOL    HW122097   3.265   6.437   0.717
 7066SOL    HW222098   3.169   6.384   0.596
 7067SOL     OW22099   0.283   3.837   4.760
 7067SOL    HW122100   0.212   3.808   4.696
 7067SOL    HW222101   0.362   3.775   4.754
 7068SOL     OW22102   0.758   0.938   2.602
 7068SOL    HW122103   0.801   0.893   2.680
 7068SOL    HW222104   0.796   1.030   2.591
 7069SOL     OW22105   1.455   3.861   5.023
 7069SOL    HW122106   1.482   3.809   4.942
 7069SOL    HW222107   1.527   3.854   5.092
 7070SOL     OW22108   5.293   5.773   4.316
 7070SOL    HW122109   5.196   5.782   4.337
 7070SOL    HW222110   5.345   5.763   4.400
 7071SOL     OW22111   1.691   6.525   5.446
 7071SOL    HW122112   1.779   6.477   5.445
 7071SOL    HW222113   1.623   6.469   5.494
 7072SOL     OW22114   0.032   6.412   6.507
 7072SOL    HW122115   0.003   6.435   6.414
 7072SOL    HW222116   0.008   6.317   6.527
 7073SOL     OW22117   1.336   1.165   6.332
 7073SOL    HW122118   1.412   1.221   6.299
 7073SOL    HW222119   1.250   1.201   6.298
 7074SOL     OW22120   3.407   2.245   1.130
 7074SOL    HW122121   3.395   2.146   1.129
 7074SOL    HW222122   3.490   2.268   1.182
 7075SOL     OW22123   0.912   5.710   3.170
 7075SOL    HW122124   0.936   5.747   3.081
 7075SOL    HW222125   0.850   5.773   3.217
 7076SOL     OW22126   2.986   2.469   6.740
 7076SOL    HW122127   3.070   2.467   6.686
 7076SOL    HW222128   2.987   2.548   6.801
 7077SOL     OW22129   1.929   5.344   5.745
 7077SOL    HW122130   1.870   5.405   5.800
 7077SOL    HW222131   1.874   5.301   5.674
 7078SOL     OW22132   6.720   0.680   2.949
 7078SOL    HW122133   6.717   0.581   2.967
 7078SOL    HW222134   6.709   0.730   3.034
 7079SOL     OW22135   5.201   5.392   5.485
 7079SOL    HW122136   5.288   5.343   5.473
 7079SOL    HW222137   5.213   5.487   5.455
 7080SOL     OW22138   5.589   0.332   4.179
 7080SOL    HW122139   5.623   0.413   4.227
 7080SOL    HW222140   5.665   0.271   4.158
 7081SOL     OW22141   3.786   0.964   5.291
 7081SOL    HW122142   3.830   1.050   5.318
 7081SOL    HW222143   3.850   0.909   5.238
 7082SOL     OW22144   5.591   1.089   6.138
 7082SOL    HW122145   5.549   1.015   6.085
 7082SOL    HW222146   5.520   1.154   6.166
 7083SOL     OW22147   3.644   6.723   5.880
 7083SOL    HW122148   3.643   6.783   5.800
 7083SOL    HW222149   3.730   6.735   5.930
 7084SOL     OW22150   6.189   6.630   0.775
 7084SOL    HW122151   6.217   6.689   0.851
 7084SOL    HW222152   6.224   6.668   0.689
 7085SOL     OW22153   2.595   2.724   0.630
 7085SOL    HW122154   2.508   2.773   0.626
 7085SOL    HW222155   2.580   2.627   0.609
 7086SOL     OW22156   6.899   0.815   6.543
 7086SOL    HW122157   6.891   0.716   6.531
 7086SOL    HW222158   6.842   0.845   6.619
 7087SOL     OW22159   1.888   2.518   4.256
 7087SOL    HW122160   1.972   2.542   4.208
 7087SOL    HW222161   1.809   2.531   4.196
 7088SOL     OW22162   6.795   2.411   5.393
 7088SOL    HW122163   6.715   2.353   5.377
 7088SOL    HW222164   6.873   2.354   5.420
 7089SOL     OW22165   2.664   1.572   0.311
 7089SOL    HW122166   2.763   1.570   0.295
 7089SOL    HW222167   2.624   1.648   0.260
 7090SOL     OW22168   2.417   2.645   4.626
 7090SOL    HW122169   2.416   2.696   4.712
 7090SOL    HW222170   2.466   2.559   4.639
 7091SOL     OW22171   0.540   6.103   7.008
 7091SOL    HW122172   0.463   6.106   6.945
 7091SOL    HW222173   0.507   6.085   0.077
 7092SOL     OW22174   3.144   3.392   0.480
 7092SOL    HW122175   3.238   3.360   0.480
 7092SOL    HW222176   3.138   3.481   0.435
 7093SOL     OW22177   3.705   2.937   4.836
 7093SOL    HW122178   3.606   2.942   4.826
 7093SOL    HW222179   3.746   3.023   4.803
 7094SOL     OW22180   0.966   0.673   5.966
 7094SOL    HW122181   0.908   0.727   5.905
 7094SOL    HW222182   0.935   0.578   5.965
 7095SOL     OW22183   0.335   3.086   6.493
 7095SOL    HW122184   0.367   3.098   6.399
 7095SOL    HW222185   0.395   3.023   6.542
 7096SOL     OW22186   5.041   1.339   2.103
 7096SOL    HW122187   5.088   1.406   2.161
 7096SOL    HW222188   5.091   1.328   2.017
 7097SOL     OW22189   0.457   0.702   1.980
 7097SOL    HW122190   0.456   0.633   1.908
 7097SOL    HW222191   0.455   0.657   2.069
 7098SOL     OW22192   1.949   6.799   5.829
 7098SOL    HW122193   1.900   6.798   5.916
 7098SOL    HW222194   1.910   6.730   5.768
 7099SOL     OW22195   0.793   1.018   6.475
 7099SOL    HW122196   0.839   1.103   6.447
 7099SOL    HW222197   0.790   0.954   6.398
 7100SOL     OW22198   5.638   2.772   1.171
 7100SOL    HW122199   5.567   2.774   1.101
 7100SOL    HW222200   5.632   2.686   1.222
 7101SOL     OW22201   2.252   6.969   4.789
 7101SOL    HW122202   2.337   6.920   4.771
 7101SOL    HW222203   2.253   0.033   4.739
 7102SOL     OW22204   4.606   2.745   0.590
 7102SOL    HW122205   4.576   2.717   0.681
 7102SOL    HW222206   4.651   2.835   0.596
 7103SOL     OW22207   4.083   6.505   6.169
 7103SOL    HW122208   4.035   6.587   6.139
 7103SOL    HW222209   4.035   6.465   6.248
 7104SOL     OW22210   1.043   2.045   2.678
 7104SOL    HW122211   0.985   2.029   2.759
 7104SOL    HW222212   1.114   2.111   2.701
 7105SOL     OW22213   2.594   3.875   5.358
 7105SOL    HW122214   2.688   3.904   5.340
 7105SOL    HW222215   2.534   3.910   5.286
 7106SOL     OW22216   3.083   2.459   5.412
 7106SOL    HW122217   2.992   2.429   5.385
 7106SOL    HW222218   3.144   2.458   5.332
 7107SOL     OW22219   2.861   1.048   6.711
 7107SOL    HW122220   2.793   0.975   6.708
 7107SOL    HW222221   2.816   1.137   6.705
 7108SOL     OW22222   4.675   0.026   1.218
 7108SOL    HW122223   4.766   0.006   1.182
 7108SOL    HW222224   4.672   7.022   1.315
 7109SOL     OW22225   3.493   5.978   6.477
 7109SOL    HW122226   3.411   6.035   6.483
 7109SOL    HW222227   3.470   5.883   6.501
 7110SOL     OW22228   4.321   4.735   3.332
 7110SOL    HW122229   4.256   4.691   3.394
 7110SOL    HW222230   4.293   4.829   3.316
 7111SOL     OW22231   1.934   2.873   3.588
 7111SOL    HW122232   1.907   2.842   3.679
 7111SOL    HW222233   1.864   2.845   3.521
 7112SOL     OW22234   1.045   6.703   3.000
 7112SOL    HW122235   1.083   6.611   3.005
 7112SOL    HW222236   1.113   6.769   3.032
 7113SOL     OW22237   3.911   4.065   4.528
 7113SOL    HW122238   3.945   4.093   4.438
 7113SOL    HW222239   3.812   4.058   4.525
 7114SOL     OW22240   4.020   0.882   0.974
 7114SOL    HW122241   4.049   0.786   0.982
 7114SOL    HW222242   4.084   0.940   1.025
 7115SOL     OW22243   4.345   2.013   0.803
 7115SOL    HW122244   4.318   2.037   0.710
 7115SOL    HW222245   4.362   2.096   0.855
 7116SOL     OW22246   5.719   3.549   2.670
 7116SOL    HW122247   5.711   3.515   2.576
 7116SOL    HW222248   5.766   3.637   2.669
 7117SOL     OW22249   5.871   6.583   1.587
 7117SOL    HW122250   5.855   6.490   1.621
 7117SOL    HW222251   5.787   6.618   1.546
 7118SOL     OW22252   6.912   3.356   1.316
 7118SOL    HW122253   6.855   3.290   1.365
 7118SOL    HW222254   7.007   3.347   1.346
 7119SOL     OW22255   6.573   1.726   2.834
 7119SOL    HW122256   6.586   1.627   2.839
 7119SOL    HW222257   6.621   1.771   2.909
 7120SOL     OW22258   5.257   0.638   3.634
 7120SOL    HW122259   5.221   0.544   3.632
 7120SOL    HW222260   5.241   0.677   3.725
 7121SOL     OW22261   3.432   6.558   2.120
 7121SOL    HW122262   3.346   6.601   2.092
 7121SOL    HW222263   3.498   6.564   2.044
 7122SOL     OW22264   6.752   0.888   6.747
 7122SOL    HW122265   6.760   0.874   6.846
 7122SOL    HW222266   6.660   0.918   6.725
 7123SOL     OW22267   2.513   4.741   1.231
 7123SOL    HW122268   2.492   4.678   1.306
 7123SOL    HW222269   2.601   4.785   1.249
 7124SOL     OW22270   0.978   5.470   1.281
 7124SOL    HW122271   0.945   5.553   1.325
 7124SOL    HW222272   1.020   5.411   1.350
 7125SOL     OW22273   6.300   6.030   2.368
 7125SOL    HW122274   6.380   6.089   2.358
 7125SOL    HW222275   6.317   5.965   2.443
 7126SOL     OW22276   0.907   4.491   0.230
 7126SOL    HW122277   1.001   4.517   0.254
 7126SOL    HW222278   0.881   4.410   0.283
 7127SOL     OW22279   3.621   6.657   4.405
 7127SOL    HW122280   3.649   6.612   4.489
 7127SOL    HW222281   3.604   6.589   4.334
 7128SOL     OW22282   2.804   4.440   1.327
 7128SOL    HW122283   2.719   4.493   1.337
 7128SOL    HW222284   2.787   4.346   1.358
 7129SOL     OW22285   2.635   1.144   1.953
 7129SOL    HW122286   2.633   1.106   2.045
 7129SOL    HW222287   2.654   1.242   1.958
 7130SOL     OW22288   1.989   5.601   2.524
 7130SOL    HW122289   1.893   5.571   2.524
 7130SOL    HW222290   2.000   5.675   2.458
 7131SOL     OW22291   2.798   0.835   2.958
 7131SOL    HW122292   2.702   0.813   2.941
 7131SOL    HW222293   2.833   0.890   2.883
 7132SOL     OW22294   3.655   4.102   3.184
 7132SOL    HW122295   3.731   4.159   3.156
 7132SOL    HW222296   3.586   4.101   3.111
 7133SOL     OW22297   5.192   4.927   2.879
 7133SOL    HW122298   5.226   4.963   2.966
 7133SOL    HW222299   5.245   4.846   2.853
 7134SOL     OW22300   5.169   3.694   3.855
 7134SOL    HW122301   5.236   3.732   3.791
 7134SOL    HW222302   5.144   3.601   3.827
 7135SOL     OW22303   0.980   1.596   4.811
 7135SOL    HW122304   0.954   1.676   4.756
 7135SOL    HW222305   0.901   1.534   4.819
 7136SOL     OW22306   2.294   1.699   0.325
 7136SOL    HW122307   2.340   1.642   0.393
 7136SOL    HW222308   2.244   1.773   0.370
 7137SOL     OW22309   4.011   0.781   4.727
 7137SOL    HW122310   4.066   0.840   4.668
 7137SOL    HW222311   4.068   0.706   4.761
 7138SOL     OW22312   2.543   3.962   0.098
 7138SOL    HW122313   2.494   3.902   0.161
 7138SOL    HW222314   2.638   3.934   0.092
 7139SOL     OW22315   3.362   1.984   0.762
 7139SOL    HW122316   3.454   1.999   0.726
 7139SOL    HW222317   3.300   1.960   0.687
 7140SOL     OW22318   6.434   3.639   5.193
 7140SOL    HW122319   6.470   3.554   5.231
 7140SOL    HW222320   6.352   3.666   5.244
 7141SOL     OW22321   2.925   6.566   0.705
 7141SOL    HW122322   2.883   6.544   0.793
 7141SOL    HW222323   2.923   6.665   0.692
 7142SOL     OW22324   3.894   6.342   4.462
 7142SOL    HW122325   3.798   6.316   4.477
 7142SOL    HW222326   3.948   6.259   4.448
 7143SOL     OW22327   1.868   3.697   4.825
 7143SOL    HW122328   1.852   3.611   4.778
 7143SOL    HW222329   1.935   3.684   4.898
 7144SOL     OW22330   0.836   2.777   3.965
 7144SOL    HW122331   0.833   2.685   4.003
 7144SOL    HW222332   0.844   2.844   4.038
 7145SOL     OW22333   4.548   0.252   6.572
 7145SOL    HW122334   4.495   0.188   6.628
 7145SOL    HW222335   4.490   0.329   6.547
 7146SOL     OW22336   3.025   4.336   0.417
 7146SOL    HW122337   2.966   4.404   0.373
 7146SOL    HW222338   2.983   4.245   0.408
 7147SOL     OW22339   0.551   0.122   4.097
 7147SOL    HW122340   0.540   0.079   4.187
 7147SOL    HW222341   0.510   0.213   4.098
 7148SOL     OW22342   0.679   1.277   0.700
 7148SOL    HW122343   0.712   1.370   0.712
 7148SOL    HW222344   0.739   1.228   0.637
 7149SOL     OW22345   6.119   1.415   3.972
 7149SOL    HW122346   6.066   1.455   3.898
 7149SOL    HW222347   6.213   1.449   3.968
 7150SOL     OW22348   5.577   3.526   6.863
 7150SOL    HW122349   5.483   3.549   6.889
 7150SOL    HW222350   5.640   3.590   6.906
 7151SOL     OW22351   2.586   5.999   1.316
 7151SOL    HW122352   2.524   5.933   1.358
 7151SOL    HW222353   2.681   5.973   1.337
 7152SOL     OW22354   1.491   2.690   3.830
 7152SOL    HW122355   1.468   2.598   3.861
 7152SOL    HW222356   1.408   2.745   3.824
 7153SOL     OW22357   3.659   1.390   4.047
 7153SOL    HW122358   3.719   1.468   4.030
 7153SOL    HW222359   3.671   1.360   4.142
 7154SOL     OW22360   4.841   5.905   4.407
 7154SOL    HW122361   4.835   5.866   4.499
 7154SOL    HW222362   4.889   5.993   4.411
 7155SOL     OW22363   2.824   0.609   1.914
 7155SOL    HW122364   2.789   0.540   1.850
 7155SOL    HW222365   2.750   0.672   1.938
 7156SOL     OW22366   0.052   5.751   4.519
 7156SOL    HW122367   0.042   5.660   4.478
 7156SOL    HW222368   0.090   5.814   4.451
 7157SOL     OW22369   4.855   4.150   1.068
 7157SOL    HW122370   4.763   4.178   1.041
 7157SOL    HW222371   4.888   4.079   1.006
 7158SOL     OW22372   6.037   6.508   4.453
 7158SOL    HW122373   5.996   6.579   4.510
 7158SOL    HW222374   6.119   6.544   4.409
 7159SOL     OW22375   0.751   5.920   0.250
 7159SOL    HW122376   0.824   5.984   0.273
 7159SOL    HW222377   0.685   5.965   0.189
 7160SOL     OW22378   5.875   0.710   2.014
 7160SOL    HW122379   5.800   0.646   1.996
 7160SOL    HW222380   5.840   0.786   2.070
 7161SOL     OW22381   4.107   3.723   3.804
 7161SOL    HW122382   4.178   3.746   3.871
 7161SOL    HW222383   4.056   3.806   3.781
 7162SOL     OW22384   2.873   4.892   3.117
 7162SOL    HW122385   2.866   4.926   3.211
 7162SOL    HW222386   2.969   4.895   3.087
 7163SOL     OW22387   2.522   0.158   3.103
 7163SOL    HW122388   2.525   0.245   3.053
 7163SOL    HW222389   2.613   0.118   3.107
 7164SOL     OW22390   2.665   1.875   2.846
 7164SOL    HW122391   2.722   1.918   2.775
 7164SOL    HW222392   2.706   1.790   2.875
 7165SOL     OW22393   4.948   0.508   1.677
 7165SOL    HW122394   4.946   0.590   1.620
 7165SOL    HW222395   4.904   0.433   1.629
 7166SOL     OW22396   4.812   5.018   1.828
 7166SOL    HW122397   4.804   5.113   1.861
 7166SOL    HW222398   4.809   5.018   1.728
 7167SOL     OW22399   4.567   2.992   5.343
 7167SOL    HW122400   4.649   3.028   5.388
 7167SOL    HW222401   4.592   2.947   5.258
 7168SOL     OW22402   1.467   0.961   4.466
 7168SOL    HW122403   1.474   1.049   4.420
 7168SOL    HW222404   1.483   0.973   4.564
 7169SOL     OW22405   2.003   2.719   6.343
 7169SOL    HW122406   1.983   2.754   6.251
 7169SOL    HW222407   2.068   2.781   6.388
 7170SOL     OW22408   6.822   4.748   4.626
 7170SOL    HW122409   6.858   4.782   4.539
 7170SOL    HW222410   6.893   4.696   4.672
 7171SOL     OW22411   3.710   2.786   5.067
 7171SOL    HW122412   3.773   2.708   5.066
 7171SOL    HW222413   3.730   2.845   4.990
 7172SOL     OW22414   1.520   6.787   1.238
 7172SOL    HW122415   1.423   6.762   1.231
 7172SOL    HW222416   1.574   6.733   1.174
 7173SOL     OW22417   6.130   6.112   5.747
 7173SOL    HW122418   6.146   6.190   5.687
 7173SOL    HW222419   6.047   6.064   5.717
 7174SOL     OW22420   0.938   5.734   0.153
 7174SOL    HW122421   0.890   5.818   0.179
 7174SOL    HW222422   0.872   5.659   0.147
 7175SOL     OW22423   6.535   3.426   5.321
 7175SOL    HW122424   6.592   3.358   5.274
 7175SOL    HW222425   6.539   3.411   5.420
 7176SOL     OW22426   6.089   4.044   1.248
 7176SOL    HW122427   6.177   4.010   1.215
 7176SOL    HW222428   6.098   4.141   1.272
 7177SOL     OW22429   0.519   6.567   1.927
 7177SOL    HW122430   0.613   6.603   1.929
 7177SOL    HW222431   0.462   6.620   1.989
 7178SOL     OW22432   0.129   2.785   6.255
 7178SOL    HW122433   0.165   2.771   6.347
 7178SOL    HW222434   0.203   2.818   6.195
 7179SOL     OW22435   2.708   4.316   6.292
 7179SOL    HW122436   2.658   4.387   6.242
 7179SOL    HW222437   2.649   4.237   6.306
 7180SOL     OW22438   0.149   6.597   2.419
 7180SOL    HW122439   0.204   6.513   2.429
 7180SOL    HW222440   0.101   6.616   2.505
 7181SOL     OW22441   5.041   0.704   2.434
 7181SOL    HW122442   4.985   0.703   2.351
 7181SOL    HW222443   5.074   0.797   2.450
 7182SOL     OW22444   2.916   3.669   5.414
 7182SOL    HW122445   2.910   3.738   5.342
 7182SOL    HW222446   2.853   3.594   5.394
 7183SOL     OW22447   1.248   5.465   2.836
 7183SOL    HW122448   1.168   5.419   2.875
 7183SOL    HW222449   1.279   5.536   2.899
 7184SOL     OW22450   1.738   6.791   3.533
 7184SOL    HW122451   1.798   6.811   3.456
 7184SOL    HW222452   1.793   6.757   3.610
 7185SOL     OW22453   4.034   2.231   6.431
 7185SOL    HW122454   4.049   2.179   6.515
 7185SOL    HW222455   4.109   2.215   6.368
 7186SOL     OW22456   0.553   6.582   4.299
 7186SOL    HW122457   0.592   6.674   4.295
 7186SOL    HW222458   0.614   6.518   4.253
 7187SOL     OW22459   1.985   5.133   1.419
 7187SOL    HW122460   1.901   5.144   1.365
 7187SOL    HW222461   2.039   5.217   1.414
 7188SOL     OW22462   5.294   0.966   1.722
 7188SOL    HW122463   5.318   0.896   1.655
 7188SOL    HW222464   5.294   1.056   1.678
 7189SOL     OW22465   6.449   0.641   4.730
 7189SOL    HW122466   6.369   0.676   4.778
 7189SOL    HW222467   6.496   0.717   4.684
 7190SOL     OW22468   4.724   4.886   3.723
 7190SOL    HW122469   4.762   4.846   3.806
 7190SOL    HW222470   4.791   4.878   3.649
 7191SOL     OW22471   1.656   3.203   2.365
 7191SOL    HW122472   1.557   3.197   2.373
 7191SOL    HW222473   1.686   3.157   2.281
 7192SOL     OW22474   3.686   4.972   5.947
 7192SOL    HW122475   3.635   4.945   5.865
 7192SOL    HW222476   3.741   5.053   5.927
 7193SOL     OW22477   4.800   1.127   2.951
 7193SOL    HW122478   4.852   1.099   2.870
 7193SOL    HW222479   4.802   1.053   3.018
 7194SOL     OW22480   3.080   1.585   1.730
 7194SOL    HW122481   3.140   1.578   1.809
 7194SOL    HW222482   3.069   1.681   1.704
 7195SOL     OW22483   0.718   5.230   1.896
 7195SOL    HW122484   0.728   5.170   1.975
 7195SOL    HW222485   0.663   5.185   1.826
 7196SOL     OW22486   4.073   2.888   1.640
 7196SOL    HW122487   4.122   2.953   1.582
 7196SOL    HW222488   4.021   2.825   1.583
 7197SOL     OW22489   1.411   1.712   5.609
 7197SOL    HW122490   1.439   1.745   5.699
 7197SOL    HW222491   1.483   1.733   5.542
 7198SOL     OW22492   1.144   5.893   6.566
 7198SOL    HW122493   1.182   5.836   6.493
 7198SOL    HW222494   1.172   5.857   6.654
 7199SOL     OW22495   6.155   6.553   2.804
 7199SOL    HW122496   6.196   6.487   2.742
 7199SOL    HW222497   6.101   6.619   2.751
 7200SOL     OW22498   2.226   1.854   0.860
 7200SOL    HW122499   2.215   1.813   0.950
 7200SOL    HW222500   2.323   1.862   0.839
 7201SOL     OW22501   2.405   4.367   3.584
 7201SOL    HW122502   2.316   4.375   3.629
 7201SOL    HW222503   2.395   4.315   3.500
 7202SOL     OW22504   3.942   0.694   6.578
 7202SOL    HW122505   4.039   0.693   6.553
 7202SOL    HW222506   3.894   0.759   6.519
 7203SOL     OW22507   5.894   0.663   6.739
 7203SOL    HW122508   5.956   0.644   6.815
 7203SOL    HW222509   5.918   0.750   6.697
 7204SOL     OW22510   5.795   1.217   2.216
 7204SOL    HW122511   5.859   1.242   2.289
 7204SOL    HW222512   5.792   1.290   2.148
 7205SOL     OW22513   2.055   4.537   2.382
 7205SOL    HW122514   2.051   4.627   2.340
 7205SOL    HW222515   2.022   4.542   2.477
 7206SOL     OW22516   6.034   1.458   1.693
 7206SOL    HW122517   6.062   1.552   1.707
 7206SOL    HW222518   5.961   1.455   1.624
 7207SOL     OW22519   3.836   0.232   1.692
 7207SOL    HW122520   3.919   0.188   1.657
 7207SOL    HW222521   3.770   0.243   1.617
 7208SOL     OW22522   3.034   0.013   4.843
 7208SOL    HW122523   3.066   6.972   4.774
 7208SOL    HW222524   3.021   0.103   4.801
 7209SOL     OW22525   4.090   3.551   5.000
 7209SOL    HW122526   4.168   3.541   4.937
 7209SOL    HW222527   4.007   3.568   4.947
 7210SOL     OW22528   3.981   0.455   4.491
 7210SOL    HW122529   3.929   0.523   4.440
 7210SOL    HW222530   3.924   0.416   4.563
 7211SOL     OW22531   1.595   5.332   2.600
 7211SOL    HW122532   1.507   5.322   2.554
 7211SOL    HW222533   1.645   5.409   2.560
 7212SOL     OW22534   5.228   6.821   4.347
 7212SOL    HW122535   5.129   6.829   4.360
 7212SOL    HW222536   5.256   6.877   4.269
 7213SOL     OW22537   5.395   0.748   5.400
 7213SOL    HW122538   5.375   0.750   5.302
 7213SOL    HW222539   5.380   0.656   5.436
 7214SOL     OW22540   0.738   4.818   5.020
 7214SOL    HW122541   0.698   4.909   5.033
 7214SOL    HW222542   0.701   4.777   4.937
 7215SOL     OW22543   0.968   3.369   2.998
 7215SOL    HW122544   0.967   3.432   2.921
 7215SOL    HW222545   1.054   3.379   3.048
 7216SOL     OW22546   2.025   1.145   1.335
 7216SOL    HW122547   2.123   1.135   1.347
 7216SOL    HW222548   2.006   1.217   1.268
 7217SOL     OW22549   0.803   3.221   2.308
 7217SOL    HW122550   0.747   3.140   2.290
 7217SOL    HW222551   0.746   3.293   2.346
 7218SOL     OW22552   5.765   2.510   5.857
 7218SOL    HW122553   5.839   2.575   5.872
 7218SOL    HW222554   5.803   2.419   5.840
 7219SOL     OW22555   3.986   1.299   1.713
 7219SOL    HW122556   3.984   1.372   1.781
 7219SOL    HW222557   3.893   1.278   1.684
 7220SOL     OW22558   6.961   0.637   2.567
 7220SOL    HW122559   0.003   0.561   2.577
 7220SOL    HW222560   6.999   0.706   2.505
 7221SOL     OW22561   6.014   5.066   5.373
 7221SOL    HW122562   5.969   5.124   5.441
 7221SOL    HW222563   5.980   4.972   5.382
 7222SOL     OW22564   6.175   6.286   2.684
 7222SOL    HW122565   6.131   6.318   2.600
 7222SOL    HW222566   6.111   6.229   2.735
 7223SOL     OW22567   3.558   0.497   5.151
 7223SOL    HW122568   3.479   0.438   5.134
 7223SOL    HW222569   3.620   0.453   5.215
 7224SOL     OW22570   4.463   0.150   4.447
 7224SOL    HW122571   4.479   0.053   4.466
 7224SOL    HW222572   4.470   0.167   4.349
 7225SOL     OW22573   2.153   6.650   6.908
 7225SOL    HW122574   2.166   6.687   7.000
 7225SOL    HW222575   2.056   6.644   6.888
 7226SOL     OW22576   6.348   6.930   0.322
 7226SOL    HW122577   6.443   6.899   0.313
 7226SOL    HW222578   6.304   6.931   0.233
 7227SOL     OW22579   6.619   2.896   6.103
 7227SOL    HW122580   6.626   2.885   6.004
 7227SOL    HW222581   6.709   2.917   6.140
 7228SOL     OW22582   1.549   0.896   2.800
 7228SOL    HW122583   1.536   0.975   2.860
 7228SOL    HW222584   1.469   0.836   2.806
 7229SOL     OW22585   0.630   0.469   4.109
 7229SOL    HW122586   0.655   0.506   4.198
 7229SOL    HW222587   0.704   0.411   4.075
 7230SOL     OW22588   5.642   4.264   3.032
 7230SOL    HW122589   5.561   4.228   3.079
 7230SOL    HW222590   5.722   4.210   3.057
 7231SOL     OW22591   5.852   1.291   6.301
 7231SOL    HW122592   5.804   1.368   6.342
 7231SOL    HW222593   5.818   1.206   6.342
 7232SOL     OW22594   3.699   4.650   1.172
 7232SOL    HW122595   3.694   4.611   1.080
 7232SOL    HW222596   3.718   4.748   1.165
 7233SOL     OW22597   0.271   2.388   5.958
 7233SOL    HW122598   0.340   2.352   5.895
 7233SOL    HW222599   0.180   2.370   5.921
 7234SOL     OW22600   5.682   2.057   2.587
 7234SOL    HW122601   5.747   1.986   2.559
 7234SOL    HW222602   5.732   2.140   2.612
 7235SOL     OW22603   6.295   3.135   4.876
 7235SOL    HW122604   6.394   3.119   4.867
 7235SOL    HW222605   6.278   3.187   4.960
 7236SOL     OW22606   3.164   1.040   2.891
 7236SOL    HW122607   3.149   1.052   2.989
 7236SOL    HW222608   3.261   1.052   2.870
 7237SOL     OW22609   6.322   5.697   6.314
 7237SOL    HW122610   6.307   5.669   6.219
 7237SOL    HW222611   6.333   5.616   6.371
 7238SOL     OW22612   1.029   0.963   1.649
 7238SOL    HW122613   1.009   0.869   1.624
 7238SOL    HW222614   1.128   0.977   1.653
 7239SOL     OW22615   4.574   1.119   2.097
 7239SOL    HW122616   4.662   1.129   2.143
 7239SOL    HW222617   4.501   1.121   2.166
 7240SOL     OW22618   3.213   3.638   0.879
 7240SOL    HW122619   3.293   3.611   0.824
 7240SOL    HW222620   3.137   3.575   0.860
 7241SOL     OW22621   3.923   0.158   5.052
 7241SOL    HW122622   3.900   0.231   5.117
 7241SOL    HW222623   3.840   0.108   5.029
 7242SOL     OW22624   4.675   4.913   0.545
 7242SOL    HW122625   4.725   4.895   0.630
 7242SOL    HW222626   4.727   4.875   0.468
 7243SOL     OW22627   0.134   5.888   0.419
 7243SOL    HW122628   0.065   5.851   0.482
 7243SOL    HW222629   0.207   5.931   0.472
 7244SOL     OW22630   5.307   1.621   0.885
 7244SOL    HW122631   5.236   1.666   0.939
 7244SOL    HW222632   5.396   1.658   0.911
 7245SOL     OW22633   6.449   1.748   4.541
 7245SOL    HW122634   6.520   1.679   4.528
 7245SOL    HW222635   6.400   1.730   4.627
 7246SOL     OW22636   1.074   5.824   5.420
 7246SOL    HW122637   1.024   5.880   5.353
 7246SOL    HW222638   1.074   5.729   5.391
 7247SOL     OW22639   3.594   5.627   2.690
 7247SOL    HW122640   3.651   5.577   2.625
 7247SOL    HW222641   3.632   5.620   2.782
 7248SOL     OW22642   3.242   0.964   4.732
 7248SOL    HW122643   3.276   1.045   4.683
 7248SOL    HW222644   3.276   0.882   4.687
 7249SOL     OW22645   6.006   4.664   6.635
 7249SOL    HW122646   5.912   4.699   6.639
 7249SOL    HW222647   6.014   4.586   6.697
 7250SOL     OW22648   3.115   4.271   6.725
 7250SOL    HW122649   3.039   4.229   6.676
 7250SOL    HW222650   3.086   4.361   6.760
 7251SOL     OW22651   5.533   0.211   5.428
 7251SOL    HW122652   5.534   0.309   5.451
 7251SOL    HW222653   5.460   0.166   5.480
 7252SOL     OW22654   4.527   3.834   5.326
 7252SOL    HW122655   4.582   3.776   5.266
 7252SOL    HW222656   4.584   3.906   5.365
 7253SOL     OW22657   5.338   5.289   0.783
 7253SOL    HW122658   5.428   5.333   0.786
 7253SOL    HW222659   5.275   5.346   0.731
 7254SOL     OW22660   5.111   6.485   5.120
 7254SOL    HW122661   5.112   6.407   5.058
 7254SOL    HW222662   5.134   6.454   5.213
 7255SOL     OW22663   3.716   4.002   2.057
 7255SOL    HW122664   3.659   3.935   2.008
 7255SOL    HW222665   3.806   3.963   2.072
 7256SOL     OW22666   4.644   4.836   4.159
 7256SOL    HW122667   4.608   4.863   4.248
 7256SOL    HW222668   4.581   4.866   4.087
 7257SOL     OW22669   6.154   3.862   3.367
 7257SOL    HW122670   6.170   3.878   3.464
 7257SOL    HW222671   6.188   3.771   3.342
 7258SOL     OW22672   3.087   6.560   5.386
 7258SOL    HW122673   3.073   6.502   5.467
 7258SOL    HW222674   3.011   6.624   5.378
 7259SOL     OW22675   1.534   5.722   6.049
 7259SOL    HW122676   1.629   5.752   6.039
 7259SOL    HW222677   1.473   5.798   6.028
 7260SOL     OW22678   4.086   2.049   1.918
 7260SOL    HW122679   4.147   2.112   1.871
 7260SOL    HW222680   4.023   2.101   1.976
 7261SOL     OW22681   1.265   4.323   1.351
 7261SOL    HW122682   1.293   4.233   1.383
 7261SOL    HW222683   1.179   4.316   1.300
 7262SOL     OW22684   6.196   1.781   5.953
 7262SOL    HW122685   6.124   1.843   5.922
 7262SOL    HW222686   6.182   1.761   6.050
 7263SOL     OW22687   4.919   6.677   1.972
 7263SOL    HW122688   4.872   6.669   2.061
 7263SOL    HW222689   4.852   6.702   1.902
 7264SOL     OW22690   1.291   6.808   4.537
 7264SOL    HW122691   1.321   6.797   4.443
 7264SOL    HW222692   1.371   6.820   4.597
 7265SOL     OW22693   4.152   3.798   6.100
 7265SOL    HW122694   4.110   3.752   6.177
 7265SOL    HW222695   4.188   3.887   6.129
 7266SOL     OW22696   4.939   1.195   1.598
 7266SOL    HW122697   4.906   1.281   1.559
 7266SOL    HW222698   4.873   1.161   1.665
 7267SOL     OW22699   0.536   2.951   4.298
 7267SOL    HW122700   0.468   2.894   4.252
 7267SOL    HW222701   0.511   3.047   4.287
 7268SOL     OW22702   3.181   0.355   0.676
 7268SOL    HW122703   3.244   0.277   0.671
 7268SOL    HW222704   3.105   0.341   0.613
 7269SOL     OW22705   1.162   0.035   2.046
 7269SOL    HW122706   1.221   7.015   2.115
 7269SOL    HW222707   1.203   0.023   1.956
 7270SOL     OW22708   3.217   1.890   2.579
 7270SOL    HW122709   3.212   1.909   2.677
 7270SOL    HW222710   3.197   1.974   2.528
 7271SOL     OW22711   6.031   4.948   4.647
 7271SOL    HW122712   5.979   4.926   4.564
 7271SOL    HW222713   6.127   4.927   4.632
 7272SOL     OW22714   6.183   1.674   1.037
 7272SOL    HW122715   6.282   1.692   1.039
 7272SOL    HW222716   6.147   1.679   1.130
 7273SOL     OW22717   5.972   6.264   5.923
 7273SOL    HW122718   5.983   6.278   6.021
 7273SOL    HW222719   6.039   6.198   5.890
 7274SOL     OW22720   0.349   4.287   4.371
 7274SOL    HW122721   0.327   4.215   4.437
 7274SOL    HW222722   0.434   4.263   4.324
 7275SOL     OW22723   5.346   6.388   1.339
 7275SOL    HW122724   5.279   6.445   1.387
 7275SOL    HW222725   5.434   6.394   1.385
 7276SOL     OW22726   2.828   2.068   4.022
 7276SOL    HW122727   2.849   1.998   4.090
 7276SOL    HW222728   2.729   2.083   4.019
 7277SOL     OW22729   5.326   1.468   3.902
 7277SOL    HW122730   5.288   1.557   3.875
 7277SOL    HW222731   5.399   1.443   3.839
 7278SOL     OW22732   2.573   1.838   3.122
 7278SOL    HW122733   2.622   1.872   3.042
 7278SOL    HW222734   2.634   1.782   3.178
 7279SOL     OW22735   4.042   4.319   1.088
 7279SOL    HW122736   3.949   4.312   1.052
 7279SOL    HW222737   4.106   4.278   1.022
 7280SOL     OW22738   6.662   1.935   5.770
 7280SOL    HW122739   6.706   1.895   5.689
 7280SOL    HW222740   6.699   1.891   5.852
 7281SOL     OW22741   3.501   5.741   2.151
 7281SOL    HW122742   3.587   5.697   2.179
 7281SOL    HW222743   3.461   5.689   2.075
 7282SOL     OW22744   6.835   3.788   2.088
 7282SOL    HW122745   6.790   3.846   2.156
 7282SOL    HW222746   6.901   3.843   2.036
 7283SOL     OW22747   4.245   4.990   3.273
 7283SOL    HW122748   4.265   5.075   3.224
 7283SOL    HW222749   4.164   5.003   3.330
 7284SOL     OW22750   0.775   1.553   2.192
 7284SOL    HW122751   0.751   1.472   2.245
 7284SOL    HW222752   0.693   1.607   2.173
 7285SOL     OW22753   4.738   3.281   1.681
 7285SOL    HW122754   4.752   3.359   1.742
 7285SOL    HW222755   4.806   3.210   1.701
 7286SOL     OW22756   6.353   1.832   3.767
 7286SOL    HW122757   6.401   1.858   3.683
 7286SOL    HW222758   6.297   1.751   3.750
 7287SOL     OW22759   3.102   1.325   2.920
 7287SOL    HW122760   3.095   1.230   2.889
 7287SOL    HW222761   3.182   1.368   2.878
 7288SOL     OW22762   2.695   1.427   1.990
 7288SOL    HW122763   2.645   1.513   1.984
 7288SOL    HW222764   2.763   1.423   1.916
 7289SOL     OW22765   6.729   2.485   1.870
 7289SOL    HW122766   6.734   2.574   1.916
 7289SOL    HW222767   6.634   2.463   1.850
 7290SOL     OW22768   3.850   1.475   4.957
 7290SOL    HW122769   3.868   1.551   4.895
 7290SOL    HW222770   3.780   1.415   4.917
 7291SOL     OW22771   2.613   1.178   0.646
 7291SOL    HW122772   2.652   1.184   0.554
 7291SOL    HW222773   2.686   1.168   0.713
 7292SOL     OW22774   2.566   0.474   2.517
 7292SOL    HW122775   2.609   0.537   2.453
 7292SOL    HW222776   2.466   0.485   2.513
 7293SOL     OW22777   6.453   1.384   4.270
 7293SOL    HW122778   6.501   1.299   4.247
 7293SOL    HW222779   6.518   1.460   4.269
 7294SOL     OW22780   3.267   6.401   2.492
 7294SOL    HW122781   3.214   6.486   2.479
 7294SOL    HW222782   3.214   6.338   2.549
 7295SOL     OW22783   5.228   4.466   1.356
 7295SOL    HW122784   5.143   4.492   1.310
 7295SOL    HW222785   5.224   4.495   1.452
 7296SOL     OW22786   4.237   5.334   2.272
 7296SOL    HW122787   4.200   5.291   2.190
 7296SOL    HW222788   4.308   5.399   2.246
 7297SOL     OW22789   4.275   6.717   0.637
 7297SOL    HW122790   4.184   6.680   0.656
 7297SOL    HW222791   4.329   6.717   0.722
 7298SOL     OW22792   4.342   5.274   0.701
 7298SOL    HW122793   4.331   5.174   0.701
 7298SOL    HW222794   4.437   5.297   0.723
 7299SOL     OW22795   1.222   2.989   5.769
 7299SOL    HW122796   1.288   3.063   5.757
 7299SOL    HW222797   1.132   3.018   5.735
 7300SOL     OW22798   0.208   5.407   2.310
 7300SOL    HW122799   0.234   5.322   2.265
 7300SOL    HW222800   0.224   5.484   2.249
 7301SOL     OW22801   4.158   2.156   6.185
 7301SOL    HW122802   4.065   2.184   6.161
 7301SOL    HW222803   4.222   2.230   6.163
 7302SOL     OW22804   5.741   2.101   6.018
 7302SOL    HW122805   5.707   2.159   6.091
 7302SOL    HW222806   5.669   2.038   5.989
 7303SOL     OW22807   3.054   1.844   1.638
 7303SOL    HW122808   2.958   1.858   1.661
 7303SOL    HW222809   3.110   1.910   1.689
 7304SOL     OW22810   2.551   5.129   0.779
 7304SOL    HW122811   2.564   5.032   0.800
 7304SOL    HW222812   2.467   5.162   0.821
 7305SOL     OW22813   6.166   1.038   6.900
 7305SOL    HW122814   6.083   1.018   6.952
 7305SOL    HW222815   6.160   1.130   6.862
 7306SOL     OW22816   0.982   3.047   1.552
 7306SOL    HW122817   1.030   3.116   1.607
 7306SOL    HW222818   1.012   3.053   1.457
 7307SOL     OW22819   1.990   0.271   1.479
 7307SOL    HW122820   1.976   0.327   1.561
 7307SOL    HW222821   1.928   0.300   1.408
 7308SOL     OW22822   3.759   1.354   2.720
 7308SOL    HW122823   3.800   1.444   2.708
 7308SOL    HW222824   3.663   1.358   2.693
 7309SOL     OW22825   1.879   5.353   3.848
 7309SOL    HW122826   1.898   5.256   3.837
 7309SOL    HW222827   1.839   5.390   3.765
 7310SOL     OW22828   2.889   2.848   6.241
 7310SOL    HW122829   2.817   2.786   6.270
 7310SOL    HW222830   2.870   2.940   6.274
 7311SOL     OW22831   0.322   5.984   5.773
 7311SOL    HW122832   0.345   6.078   5.748
 7311SOL    HW222833   0.345   5.969   5.870
 7312SOL     OW22834   6.208   2.136   4.089
 7312SOL    HW122835   6.266   2.090   4.155
 7312SOL    HW222836   6.140   2.193   4.137
 7313SOL     OW22837   2.666   0.516   2.775
 7313SOL    HW122838   2.715   0.603   2.778
 7313SOL    HW222839   2.593   0.522   2.706
 7314SOL     OW22840   1.330   4.517   5.906
 7314SOL    HW122841   1.409   4.476   5.859
 7314SOL    HW222842   1.303   4.457   5.981
 7315SOL     OW22843   2.241   4.903   2.318
 7315SOL    HW122844   2.280   4.814   2.291
 7315SOL    HW222845   2.247   4.914   2.417
 7316SOL     OW22846   3.979   1.506   1.413
 7316SOL    HW122847   3.907   1.444   1.382
 7316SOL    HW222848   4.058   1.453   1.443
 7317SOL     OW22849   4.249   2.069   0.055
 7317SOL    HW122850   4.175   2.082   0.121
 7317SOL    HW222851   4.244   2.140   7.009
 7318SOL     OW22852   5.307   6.926   0.520
 7318SOL    HW122853   5.292   6.852   0.455
 7318SOL    HW222854   5.386   6.904   0.579
 7319SOL     OW22855   6.206   6.553   6.769
 7319SOL    HW122856   6.254   6.629   6.813
 7319SOL    HW222857   6.127   6.527   6.824
 7320SOL     OW22858   0.773   2.760   1.063
 7320SOL    HW122859   0.678   2.766   1.032
 7320SOL    HW222860   0.820   2.846   1.042
 7321SOL     OW22861   2.170   1.895   0.087
 7321SOL    HW122862   2.258   1.848   0.079
 7321SOL    HW222863   2.160   1.961   0.012
 7322SOL     OW22864   0.819   3.435   3.241
 7322SOL    HW122865   0.749   3.367   3.266
 7322SOL    HW222866   0.868   3.403   3.160
 7323SOL     OW22867   1.296   2.517   0.480
 7323SOL    HW122868   1.328   2.444   0.419
 7323SOL    HW222869   1.365   2.588   0.487
 7324SOL     OW22870   5.013   3.845   3.304
 7324SOL    HW122871   4.971   3.891   3.382
 7324SOL    HW222872   5.040   3.752   3.330
 7325SOL     OW22873   4.141   1.367   6.070
 7325SOL    HW122874   4.141   1.456   6.116
 7325SOL    HW222875   4.183   1.376   5.980
 7326SOL     OW22876   3.539   0.175   0.372
 7326SOL    HW122877   3.523   0.261   0.420
 7326SOL    HW222878   3.518   0.186   0.275
 7327SOL     OW22879   1.797   4.279   3.585
 7327SOL    HW122880   1.744   4.237   3.511
 7327SOL    HW222881   1.763   4.372   3.602
 7328SOL     OW22882   4.618   5.062   5.548
 7328SOL    HW122883   4.639   4.985   5.608
 7328SOL    HW222884   4.668   5.143   5.578
 7329SOL     OW22885   2.638   3.150   0.748
 7329SOL    HW122886   2.572   3.225   0.741
 7329SOL    HW222887   2.644   3.102   0.660
 7330SOL     OW22888   2.298   3.214   1.205
 7330SOL    HW122889   2.394   3.187   1.216
 7330SOL    HW222890   2.279   3.230   1.108
 7331SOL     OW22891   5.538   2.301   2.267
 7331SOL    HW122892   5.544   2.383   2.323
 7331SOL    HW222893   5.543   2.326   2.170
 7332SOL     OW22894   3.298   6.545   6.209
 7332SOL    HW122895   3.370   6.541   6.140
 7332SOL    HW222896   3.334   6.588   6.292
 7333SOL     OW22897   0.595   0.937   1.504
 7333SOL    HW122898   0.598   0.904   1.410
 7333SOL    HW222899   0.501   0.963   1.528
 7334SOL     OW22900   1.367   5.230   4.362
 7334SOL    HW122901   1.429   5.301   4.331
 7334SOL    HW222902   1.405   5.140   4.339
 7335SOL     OW22903   6.629   3.544   2.206
 7335SOL    HW122904   6.698   3.484   2.166
 7335SOL    HW222905   6.673   3.615   2.261
 7336SOL     OW22906   2.372   6.634   1.575
 7336SOL    HW122907   2.454   6.645   1.630
 7336SOL    HW222908   2.327   6.548   1.598
 7337SOL     OW22909   3.010   1.243   3.342
 7337SOL    HW122910   3.110   1.243   3.340
 7337SOL    HW222911   2.976   1.150   3.334
 7338SOL     OW22912   5.229   4.144   1.088
 7338SOL    HW122913   5.323   4.176   1.102
 7338SOL    HW222914   5.168   4.223   1.080
 7339SOL     OW22915   6.919   6.313   5.112
 7339SOL    HW122916   6.946   6.272   5.025
 7339SOL    HW222917   6.919   6.243   5.183
 7340SOL     OW22918   3.296   6.150   0.446
 7340SOL    HW122919   3.307   6.103   0.358
 7340SOL    HW222920   3.352   6.233   0.446
 7341SOL     OW22921   6.652   5.832   5.034
 7341SOL    HW122922   6.604   5.891   5.099
 7341SOL    HW222923   6.729   5.787   5.081
 7342SOL     OW22924   1.533   5.428   1.402
 7342SOL    HW122925   1.467   5.381   1.461
 7342SOL    HW222926   1.500   5.521   1.382
 7343SOL     OW22927   5.455   2.508   3.609
 7343SOL    HW122928   5.409   2.456   3.682
 7343SOL    HW222929   5.527   2.452   3.569
 7344SOL     OW22930   2.709   0.948   7.011
 7344SOL    HW122931   2.644   0.955   6.936
 7344SOL    HW222932   2.695   0.862   0.036
 7345SOL     OW22933   2.831   6.271   0.204
 7345SOL    HW122934   2.843   6.362   0.244
 7345SOL    HW222935   2.920   6.226   0.196
 7346SOL     OW22936   3.802   5.047   1.832
 7346SOL    HW122937   3.707   5.043   1.801
 7346SOL    HW222938   3.834   4.955   1.853
 7347SOL     OW22939   6.796   3.060   2.326
 7347SOL    HW122940   6.774   3.112   2.408
 7347SOL    HW222941   6.838   2.973   2.352
 7348SOL     OW22942   0.395   1.525   4.709
 7348SOL    HW122943   0.327   1.464   4.668
 7348SOL    HW222944   0.437   1.582   4.638
 7349SOL     OW22945   3.497   1.282   0.787
 7349SOL    HW122946   3.517   1.242   0.876
 7349SOL    HW222947   3.583   1.306   0.741
 7350SOL     OW22948   2.137   1.438   2.738
 7350SOL    HW122949   2.220   1.429   2.793
 7350SOL    HW222950   2.062   1.470   2.795
 7351SOL     OW22951   4.772   5.103   0.152
 7351SOL    HW122952   4.825   5.103   0.236
 7351SOL    HW222953   4.675   5.105   0.174
 7352SOL     OW22954   6.234   0.768   3.337
 7352SOL    HW122955   6.241   0.745   3.240
 7352SOL    HW222956   6.271   0.692   3.392
 7353SOL     OW22957   5.291   2.153   4.701
 7353SOL    HW122958   5.291   2.154   4.601
 7353SOL    HW222959   5.274   2.060   4.733
 7354SOL     OW22960   6.761   4.230   5.356
 7354SOL    HW122961   6.775   4.238   5.257
 7354SOL    HW222962   6.813   4.152   5.390
 7355SOL     OW22963   0.884   4.905   1.349
 7355SOL    HW122964   0.812   4.838   1.333
 7355SOL    HW222965   0.884   4.972   1.275
 7356SOL     OW22966   6.995   1.930   6.025
 7356SOL    HW122967   6.999   1.951   6.123
 7356SOL    HW222968   0.024   1.847   6.007
 7357SOL     OW22969   0.747   1.708   0.499
 7357SOL    HW122970   0.723   1.637   0.565
 7357SOL    HW222971   0.832   1.752   0.526
 7358SOL     OW22972   3.360   0.533   3.811
 7358SOL    HW122973   3.297   0.599   3.770
 7358SOL    HW222974   3.320   0.441   3.805
 7359SOL     OW22975   3.248   3.530   2.878
 7359SOL    HW122976   3.164   3.517   2.930
 7359SOL    HW222977   3.305   3.448   2.885
 7360SOL     OW22978   0.418   3.561   5.821
 7360SOL    HW122979   0.338   3.505   5.841
 7360SOL    HW222980   0.441   3.553   5.724
 7361SOL     OW22981   4.719   6.471   1.783
 7361SOL    HW122982   4.701   6.562   1.744
 7361SOL    HW222983   4.696   6.471   1.880
 7362SOL     OW22984   1.742   6.662   6.399
 7362SOL    HW122985   1.774   6.657   6.494
 7362SOL    HW222986   1.812   6.625   6.338
 7363SOL     OW22987   5.323   3.050   6.470
 7363SOL    HW122988   5.342   2.958   6.434
 7363SOL    HW222989   5.396   3.076   6.533
 7364SOL     OW22990   5.230   0.792   1.449
 7364SOL    HW122991   5.241   0.693   1.446
 7364SOL    HW222992   5.290   0.834   1.381
 7365SOL     OW22993   3.517   0.692   1.995
 7365SOL    HW122994   3.614   0.696   2.017
 7365SOL    HW222995   3.470   0.769   2.038
 7366SOL     OW22996   1.426   5.527   6.974
 7366SOL    HW122997   1.469   5.497   6.889
 7366SOL    HW222998   1.481   5.497   0.029
 7367SOL     OW22999   4.455   3.202   6.883
 7367SOL    HW123000   4.445   3.139   6.806
 7367SOL    HW223001   4.518   3.276   6.859
 7368SOL     OW23002   3.249   3.640   3.517
 7368SOL    HW123003   3.174   3.707   3.506
 7368SOL    HW223004   3.259   3.618   3.614
 7369SOL     OW23005   5.094   2.089   6.360
 7369SOL    HW123006   5.029   2.137   6.418
 7369SOL    HW223007   5.185   2.130   6.370
 7370SOL     OW23008   1.789   5.632   1.057
 7370SOL    HW123009   1.837   5.668   0.977
 7370SOL    HW223010   1.845   5.562   1.101
 7371SOL     OW23011   2.480   5.097   3.812
 7371SOL    HW123012   2.472   5.061   3.719
 7371SOL    HW223013   2.391   5.090   3.858
 7372SOL     OW23014   2.977   5.932   5.632
 7372SOL    HW123015   3.073   5.930   5.659
 7372SOL    HW223016   2.921   5.946   5.714
 7373SOL     OW23017   3.620   0.452   2.075
 7373SOL    HW123018   3.555   0.515   2.033
 7373SOL    HW223019   3.678   0.411   2.003
 7374SOL     OW23020   2.485   3.701   6.730
 7374SOL    HW123021   2.427   3.620   6.721
 7374SOL    HW223022   2.536   3.696   6.815
 7375SOL     OW23023   1.695   6.670   3.115
 7375SOL    HW123024   1.691   6.608   3.037
 7375SOL    HW223025   1.755   6.747   3.094
 7376SOL     OW23026   2.762   4.181   5.682
 7376SOL    HW123027   2.693   4.222   5.742
 7376SOL    HW223028   2.813   4.111   5.732
 7377SOL     OW23029   5.063   5.302   1.841
 7377SOL    HW123030   5.108   5.392   1.843
 7377SOL    HW223031   5.119   5.236   1.891
 7378SOL     OW23032   6.631   2.528   6.026
 7378SOL    HW123033   6.582   2.549   5.941
 7378SOL    HW223034   6.729   2.539   6.011
 7379SOL     OW23035   4.323   1.309   1.040
 7379SOL    HW123036   4.281   1.385   1.090
 7379SOL    HW223037   4.349   1.340   0.949
 7380SOL     OW23038   6.267   2.222   5.332
 7380SOL    HW123039   6.213   2.298   5.295
 7380SOL    HW223040   6.275   2.150   5.264
 7381SOL     OW23041   5.186   2.270   0.136
 7381SOL    HW123042   5.209   2.332   0.061
 7381SOL    HW223043   5.220   2.308   0.222
 7382SOL     OW23044   6.947   6.097   3.802
 7382SOL    HW123045   6.876   6.115   3.735
 7382SOL    HW223046   6.918   6.131   3.892
 7383SOL     OW23047   6.899   5.816   3.584
 7383SOL    HW123048   6.946   5.783   3.502
 7383SOL    HW223049   6.947   5.895   3.622
 7384SOL     OW23050   6.395   1.646   1.660
 7384SOL    HW123051   6.394   1.546   1.669
 7384SOL    HW223052   6.306   1.683   1.685
 7385SOL     OW23053   5.185   0.242   1.654
 7385SOL    HW123054   5.208   0.338   1.639
 7385SOL    HW223055   5.086   0.231   1.659
 7386SOL     OW23056   0.316   2.814   6.041
 7386SOL    HW123057   0.378   2.739   6.063
 7386SOL    HW223058   0.367   2.888   5.998
 7387SOL     OW23059   4.473   5.959   3.966
 7387SOL    HW123060   4.475   5.865   4.000
 7387SOL    HW223061   4.442   6.020   4.039
 7388SOL     OW23062   5.819   4.352   4.714
 7388SOL    HW123063   5.744   4.402   4.671
 7388SOL    HW223064   5.905   4.373   4.667
 7389SOL     OW23065   0.766   4.243   4.705
 7389SOL    HW123066   0.745   4.146   4.694
 7389SOL    HW223067   0.737   4.273   4.796
 7390SOL     OW23068   2.688   0.282   5.799
 7390SOL    HW123069   2.666   0.231   5.882
 7390SOL    HW223070   2.613   0.271   5.733
 7391SOL     OW23071   6.888   4.353   0.098
 7391SOL    HW123072   6.865   4.296   0.177
 7391SOL    HW223073   6.987   4.349   0.082
 7392SOL     OW23074   2.233   4.951   2.956
 7392SOL    HW123075   2.160   4.886   2.974
 7392SOL    HW223076   2.303   4.944   3.027
 7393SOL     OW23077   0.535   3.273   0.297
 7393SOL    HW123078   0.525   3.360   0.249
 7393SOL    HW223079   0.630   3.242   0.291
 7394SOL     OW23080   3.035   3.217   6.628
 7394SOL    HW123081   3.067   3.302   6.586
 7394SOL    HW223082   3.095   3.193   6.704
 7395SOL     OW23083   1.788   6.146   0.567
 7395SOL    HW123084   1.690   6.145   0.588
 7395SOL    HW223085   1.800   6.159   0.469
 7396SOL     OW23086   0.637   6.961   1.608
 7396SOL    HW123087   0.583   0.019   1.587
 7396SOL    HW223088   0.630   6.897   1.531
 7397SOL     OW23089   5.916   4.561   4.389
 7397SOL    HW123090   5.875   4.579   4.478
 7397SOL    HW223091   5.997   4.618   4.378
 7398SOL     OW23092   4.198   6.013   3.153
 7398SOL    HW123093   4.124   6.064   3.196
 7398SOL    HW223094   4.206   6.039   3.057
 7399SOL     OW23095   5.102   4.540   4.945
 7399SOL    HW123096   5.177   4.606   4.942
 7399SOL    HW223097   5.029   4.574   5.004
 7400SOL     OW23098   2.081   5.141   6.674
 7400SOL    HW123099   2.138   5.106   6.749
 7400SOL    HW223100   1.994   5.092   6.673
 7401SOL     OW23101   5.684   1.748   4.971
 7401SOL    HW123102   5.640   1.658   4.965
 7401SOL    HW223103   5.674   1.784   5.063
 7402SOL     OW23104   2.431   6.806   3.955
 7402SOL    HW123105   2.442   6.717   3.911
 7402SOL    HW223106   2.459   6.878   3.891
 7403SOL     OW23107   2.009   3.142   1.425
 7403SOL    HW123108   1.923   3.145   1.476
 7403SOL    HW223109   1.993   3.170   1.331
 7404SOL     OW23110   1.261   1.759   2.787
 7404SOL    HW123111   1.275   1.849   2.745
 7404SOL    HW223112   1.341   1.736   2.842
 7405SOL     OW23113   3.461   5.238   6.349
 7405SOL    HW123114   3.543   5.272   6.394
 7405SOL    HW223115   3.487   5.177   6.274
 7406SOL     OW23116   0.715   5.638   2.262
 7406SOL    HW123117   0.709   5.538   2.264
 7406SOL    HW223118   0.797   5.668   2.310
 7407SOL     OW23119   2.175   0.881   5.792
 7407SOL    HW123120   2.115   0.836   5.859
 7407SOL    HW223121   2.228   0.811   5.744
 7408SOL     OW23122   0.805   3.563   5.106
 7408SOL    HW123123   0.845   3.654   5.097
 7408SOL    HW223124   0.721   3.558   5.052
 7409SOL     OW23125   3.208   6.020   5.767
 7409SOL    HW123126   3.227   6.118   5.779
 7409SOL    HW223127   3.256   5.968   5.836
 7410SOL     OW23128   5.611   4.812   0.181
 7410SOL    HW123129   5.669   4.831   0.260
 7410SOL    HW223130   5.666   4.819   0.097
 7411SOL     OW23131   5.028   5.014   5.530
 7411SOL    HW123132   5.060   5.036   5.438
 7411SOL    HW223133   5.005   4.916   5.535
 7412SOL     OW23134   1.658   2.029   6.911
 7412SOL    HW123135   1.603   2.077   6.979
 7412SOL    HW223136   1.658   1.931   6.931
 7413SOL     OW23137   0.047   3.175   4.646
 7413SOL    HW123138   0.010   3.083   4.630
 7413SOL    HW223139   0.028   3.232   4.566
 7414SOL     OW23140   6.855   5.438   2.902
 7414SOL    HW123141   6.862   5.494   2.819
 7414SOL    HW223142   6.760   5.417   2.921
 7415SOL     OW23143   2.805   2.018   2.663
 7415SOL    HW123144   2.806   1.959   2.582
 7415SOL    HW223145   2.898   2.046   2.685
 7416SOL     OW23146   5.618   0.538   3.957
 7416SOL    HW123147   5.638   0.496   3.869
 7416SOL    HW223148   5.633   0.472   4.030
 7417SOL     OW23149   0.858   6.227   0.827
 7417SOL    HW123150   0.770   6.227   0.875
 7417SOL    HW223151   0.890   6.321   0.819
 7418SOL     OW23152   1.136   3.841   0.326
 7418SOL    HW123153   1.110   3.767   0.264
 7418SOL    HW223154   1.235   3.854   0.323
 7419SOL     OW23155   5.615   1.247   5.469
 7419SOL    HW123156   5.644   1.267   5.562
 7419SOL    HW223157   5.520   1.275   5.456
 7420SOL     OW23158   0.061   5.926   2.215
 7420SOL    HW123159   7.012   5.858   2.202
 7420SOL    HW223160   0.136   5.885   2.267
 7421SOL     OW23161   3.745   2.930   1.393
 7421SOL    HW123162   3.746   2.884   1.482
 7421SOL    HW223163   3.821   2.896   1.338
 7422SOL     OW23164   0.939   2.768   1.302
 7422SOL    HW123165   0.896   2.732   1.220
 7422SOL    HW223166   0.891   2.735   1.383
 7423SOL     OW23167   2.069   4.998   0.397
 7423SOL    HW123168   2.056   4.985   0.495
 7423SOL    HW223169   2.086   5.095   0.378
 7424SOL     OW23170   6.107   1.079   4.710
 7424SOL    HW123171   6.179   1.113   4.771
 7424SOL    HW223172   6.052   1.011   4.758
 7425SOL     OW23173   4.203   0.070   5.253
 7425SOL    HW123174   4.288   0.070   5.199
 7425SOL    HW223175   4.177   0.164   5.276
 7426SOL     OW23176   1.236   1.466   0.170
 7426SOL    HW123177   1.193   1.477   0.081
 7426SOL    HW223178   1.282   1.551   0.196
 7427SOL     OW23179   4.278   5.497   4.553
 7427SOL    HW123180   4.233   5.477   4.640
 7427SOL    HW223181   4.257   5.426   4.487
 7428SOL     OW23182   2.920   1.568   5.724
 7428SOL    HW123183   2.836   1.531   5.763
 7428SOL    HW223184   2.903   1.662   5.692
 7429SOL     OW23185   6.530   0.073   3.907
 7429SOL    HW123186   6.539   0.171   3.925
 7429SOL    HW223187   6.615   0.027   3.929
 7430SOL     OW23188   0.752   4.588   4.605
 7430SOL    HW123189   0.789   4.648   4.535
 7430SOL    HW223190   0.752   4.494   4.572
 7431SOL     OW23191   0.915   4.385   2.459
 7431SOL    HW123192   0.868   4.449   2.398
 7431SOL    HW223193   0.848   4.341   2.519
 7432SOL     OW23194   1.313   6.468   4.845
 7432SOL    HW123195   1.239   6.401   4.841
 7432SOL    HW223196   1.337   6.485   4.941
 7433SOL     OW23197   6.882   6.169   1.053
 7433SOL    HW123198   6.869   6.212   1.142
 7433SOL    HW223199   6.960   6.211   1.007
 7434SOL     OW23200   4.823   0.224   6.745
 7434SOL    HW123201   4.761   0.269   6.680
 7434SOL    HW223202   4.813   0.267   6.835
 7435SOL     OW23203   1.373   5.813   0.021
 7435SOL    HW123204   1.384   5.721   7.009
 7435SOL    HW223205   1.340   5.809   0.115
 7436SOL     OW23206   5.087   2.775   6.800
 7436SOL    HW123207   5.007   2.722   6.773
 7436SOL    HW223208   5.068   2.825   6.884
 7437SOL     OW23209   0.013   5.599   5.877
 7437SOL    HW123210   0.054   5.574   5.965
 7437SOL    HW223211   0.075   5.661   5.828
 7438SOL     OW23212   6.111   4.352   1.856
 7438SOL    HW123213   6.135   4.373   1.950
 7438SOL    HW223214   6.088   4.436   1.807
 7439SOL     OW23215   1.199   5.843   3.897
 7439SOL    HW123216   1.181   5.938   3.871
 7439SOL    HW223217   1.272   5.806   3.840
 7440SOL     OW23218   0.791   2.048   3.636
 7440SOL    HW123219   0.883   2.009   3.633
 7440SOL    HW223220   0.762   2.074   3.544
 7441SOL     OW23221   5.814   0.177   4.140
 7441SOL    HW123222   5.889   0.211   4.196
 7441SOL    HW223223   5.845   0.097   4.088
 7442SOL     OW23224   1.969   0.976   6.606
 7442SOL    HW123225   2.036   1.050   6.608
 7442SOL    HW223226   1.974   0.925   6.693
 7443SOL     OW23227   6.895   1.231   0.812
 7443SOL    HW123228   6.980   1.284   0.809
 7443SOL    HW223229   6.903   1.153   0.750
 7444SOL     OW23230   0.509   2.602   6.052
 7444SOL    HW123231   0.607   2.608   6.034
 7444SOL    HW223232   0.474   2.517   6.013
 7445SOL     OW23233   5.642   2.722   2.023
 7445SOL    HW123234   5.722   2.744   1.967
 7445SOL    HW223235   5.569   2.787   2.004
 7446SOL     OW23236   6.947   3.590   0.917
 7446SOL    HW123237   6.960   3.512   0.979
 7446SOL    HW223238   6.894   3.661   0.963
 7447SOL     OW23239   6.948   4.324   6.207
 7447SOL    HW123240   6.879   4.252   6.211
 7447SOL    HW223241   6.920   4.400   6.266
 7448SOL     OW23242   7.006   6.449   6.255
 7448SOL    HW123243   0.060   6.443   6.191
 7448SOL    HW223244   6.928   6.489   6.208
 7449SOL     OW23245   4.527   0.694   1.596
 7449SOL    HW123246   4.555   0.599   1.583
 7449SOL    HW223247   4.458   0.699   1.668
 7450SOL     OW23248   3.259   0.113   2.657
 7450SOL    HW123249   3.342   0.157   2.624
 7450SOL    HW223250   3.256   0.117   2.757
 7451SOL     OW23251   1.460   1.133   2.892
 7451SOL    HW123252   1.388   1.148   2.960
 7451SOL    HW223253   1.430   1.169   2.804
 7452SOL     OW23254   1.611   6.563   4.360
 7452SOL    HW123255   1.654   6.614   4.435
 7452SOL    HW223256   1.681   6.521   4.303
 7453SOL     OW23257   5.628   5.682   5.708
 7453SOL    HW123258   5.621   5.781   5.698
 7453SOL    HW223259   5.593   5.655   5.798
 7454SOL     OW23260   0.401   3.005   0.315
 7454SOL    HW123261   0.409   3.080   0.382
 7454SOL    HW223262   0.322   2.949   0.338
 7455SOL     OW23263   5.523   1.441   0.412
 7455SOL    HW123264   5.471   1.476   0.490
 7455SOL    HW223265   5.529   1.342   0.418
 7456SOL     OW23266   1.713   2.875   5.756
 7456SOL    HW123267   1.653   2.928   5.815
 7456SOL    HW223268   1.706   2.908   5.662
 7457SOL     OW23269   6.423   0.205   6.113
 7457SOL    HW123270   6.394   0.114   6.144
 7457SOL    HW223271   6.484   0.195   6.034
 7458SOL     OW23272   2.302   0.561   0.620
 7458SOL    HW123273   2.270   0.501   0.547
 7458SOL    HW223274   2.303   0.512   0.707
 7459SOL     OW23275   4.457   0.438   4.501
 7459SOL    HW123276   4.456   0.338   4.503
 7459SOL    HW223277   4.457   0.469   4.406
 7460SOL     OW23278   0.744   5.476   6.949
 7460SOL    HW123279   0.836   5.516   6.940
 7460SOL    HW223280   0.752   5.380   6.975
 7461SOL     OW23281   4.722   0.378   3.977
 7461SOL    HW123282   4.762   0.461   4.017
 7461SOL    HW223283   4.655   0.403   3.908
 7462SOL     OW23284   1.492   1.382   2.694
 7462SOL    HW123285   1.588   1.376   2.720
 7462SOL    HW223286   1.474   1.318   2.619
 7463SOL     OW23287   3.716   3.688   2.230
 7463SOL    HW123288   3.746   3.636   2.151
 7463SOL    HW223289   3.766   3.774   2.235
 7464SOL     OW23290   4.780   6.778   6.481
 7464SOL    HW123291   4.694   6.729   6.487
 7464SOL    HW223292   4.799   6.823   6.568
 7465SOL     OW23293   3.217   1.143   2.192
 7465SOL    HW123294   3.132   1.191   2.170
 7465SOL    HW223295   3.214   1.113   2.287
 7466SOL     OW23296   0.525   0.431   6.521
 7466SOL    HW123297   0.514   0.498   6.448
 7466SOL    HW223298   0.472   0.459   6.601
 7467SOL     OW23299   5.771   1.722   1.306
 7467SOL    HW123300   5.831   1.762   1.236
 7467SOL    HW223301   5.697   1.672   1.262
 7468SOL     OW23302   6.199   3.501   4.670
 7468SOL    HW123303   6.242   3.482   4.759
 7468SOL    HW223304   6.161   3.416   4.633
 7469SOL     OW23305   6.701   1.209   1.855
 7469SOL    HW123306   6.750   1.134   1.811
 7469SOL    HW223307   6.612   1.176   1.887
 7470SOL     OW23308   0.293   2.520   2.326
 7470SOL    HW123309   0.242   2.557   2.404
 7470SOL    HW223310   0.234   2.520   2.245
 7471SOL     OW23311   5.754   4.888   6.438
 7471SOL    HW123312   5.666   4.925   6.410
 7471SOL    HW223313   5.809   4.868   6.357
 7472SOL     OW23314   3.470   5.225   3.396
 7472SOL    HW123315   3.551   5.280   3.420
 7472SOL    HW223316   3.389   5.283   3.399
 7473SOL     OW23317   0.695   3.532   4.673
 7473SOL    HW123318   0.677   3.463   4.603
 7473SOL    HW223319   0.789   3.565   4.664
 7474SOL     OW23320   3.983   1.317   2.519
 7474SOL    HW123321   3.884   1.309   2.535
 7474SOL    HW223322   4.024   1.373   2.591
 7475SOL     OW23323   4.414   1.209   0.093
 7475SOL    HW123324   4.372   1.204   0.003
 7475SOL    HW223325   4.481   1.283   0.096
 7476SOL     OW23326   3.132   6.938   5.074
 7476SOL    HW123327   3.230   6.955   5.084
 7476SOL    HW223328   3.098   6.985   4.993
 7477SOL     OW23329   4.980   2.693   3.194
 7477SOL    HW123330   5.002   2.633   3.116
 7477SOL    HW223331   5.014   2.785   3.175
 7478SOL     OW23332   1.795   5.117   1.218
 7478SOL    HW123333   1.698   5.141   1.226
 7478SOL    HW223334   1.824   5.126   1.122
 7479SOL     OW23335   4.326   0.601   6.107
 7479SOL    HW123336   4.391   0.544   6.057
 7479SOL    HW223337   4.358   0.696   6.106
 7480SOL     OW23338   6.951   4.921   1.240
 7480SOL    HW123339   6.918   4.827   1.240
 7480SOL    HW223340   0.015   4.926   1.289
 7481SOL     OW23341   6.354   5.882   0.522
 7481SOL    HW123342   6.294   5.820   0.572
 7481SOL    HW223343   6.401   5.943   0.587
 7482SOL     OW23344   4.976   0.702   3.784
 7482SOL    HW123345   4.941   0.663   3.699
 7482SOL    HW223346   4.921   0.667   3.861
 7483SOL     OW23347   3.248   0.058   6.077
 7483SOL    HW123348   3.178   7.012   6.060
 7483SOL    HW223349   3.310   0.027   6.148
 7484SOL     OW23350   2.969   0.554   2.343
 7484SOL    HW123351   2.956   0.512   2.253
 7484SOL    HW223352   3.008   0.487   2.406
 7485SOL     OW23353   1.437   6.609   5.854
 7485SOL    HW123354   1.448   6.629   5.756
 7485SOL    HW223355   1.348   6.644   5.885
 7486SOL     OW23356   1.621   0.376   5.006
 7486SOL    HW123357   1.693   0.413   4.948
 7486SOL    HW223358   1.540   0.435   5.001
 7487SOL     OW23359   4.119   5.091   3.726
 7487SOL    HW123360   4.155   5.047   3.643
 7487SOL    HW223361   4.188   5.153   3.763
 7488SOL     OW23362   3.648   0.723   5.332
 7488SOL    HW123363   3.681   0.814   5.309
 7488SOL    HW223364   3.650   0.665   5.250
 7489SOL     OW23365   6.249   3.482   2.894
 7489SOL    HW123366   6.304   3.563   2.874
 7489SOL    HW223367   6.155   3.510   2.916
 7490SOL     OW23368   5.458   1.419   2.019
 7490SOL    HW123369   5.412   1.491   2.072
 7490SOL    HW223370   5.484   1.455   1.930
 7491SOL     OW23371   6.835   6.087   0.106
 7491SOL    HW123372   6.802   6.146   0.032
 7491SOL    HW223373   6.891   6.014   0.068
 7492SOL     OW23374   2.483   2.654   4.175
 7492SOL    HW123375   2.500   2.648   4.077
 7492SOL    HW223376   2.557   2.611   4.225
 7493SOL     OW23377   5.249   4.181   6.904
 7493SOL    HW123378   5.194   4.264   6.911
 7493SOL    HW223379   5.322   4.184   6.971
 7494SOL     OW23380   4.973   1.883   0.766
 7494SOL    HW123381   4.957   1.980   0.786
 7494SOL    HW223382   4.894   1.830   0.798
 7495SOL     OW23383   0.283   1.560   2.325
 7495SOL    HW123384   0.222   1.525   2.253
 7495SOL    HW223385   0.228   1.588   2.404
 7496SOL     OW23386   1.138   4.529   5.364
 7496SOL    HW123387   1.225   4.490   5.396
 7496SOL    HW223388   1.086   4.459   5.315
 7497SOL     OW23389   1.983   5.191   2.162
 7497SOL    HW123390   2.050   5.236   2.103
 7497SOL    HW223391   1.924   5.132   2.107
 7498SOL     OW23392   4.658   1.115   4.304
 7498SOL    HW123393   4.647   1.118   4.205
 7498SOL    HW223394   4.727   1.181   4.331
 7499SOL     OW23395   4.566   6.042   3.716
 7499SOL    HW123396   4.546   5.973   3.647
 7499SOL    HW223397   4.532   6.012   3.805
 7500SOL     OW23398   5.104   4.729   1.766
 7500SOL    HW123399   5.017   4.701   1.725
 7500SOL    HW223400   5.124   4.824   1.740
 7501SOL     OW23401   0.024   4.618   4.195
 7501SOL    HW123402   6.984   4.596   4.121
 7501SOL    HW223403   0.103   4.667   4.159
 7502SOL     OW23404   2.552   1.732   4.461
 7502SOL    HW123405   2.469   1.776   4.494
 7502SOL    HW223406   2.591   1.676   4.533
 7503SOL     OW23407   2.557   2.713   6.396
 7503SOL    HW123408   2.571   2.731   6.298
 7503SOL    HW223409   2.638   2.666   6.433
 7504SOL     OW23410   4.372   5.629   4.011
 7504SOL    HW123411   4.448   5.569   4.037
 7504SOL    HW223412   4.338   5.677   4.091
 7505SOL     OW23413   1.449   2.324   4.558
 7505SOL    HW123414   1.444   2.267   4.640
 7505SOL    HW223415   1.514   2.398   4.572
 7506SOL     OW23416   4.280   1.741   3.392
 7506SOL    HW123417   4.330   1.827   3.385
 7506SOL    HW223418   4.336   1.673   3.439
 7507SOL     OW23419   1.647   6.437   5.991
 7507SOL    HW123420   1.647   6.413   6.088
 7507SOL    HW223421   1.572   6.500   5.972
 7508SOL     OW23422   4.885   6.680   3.907
 7508SOL    HW123423   4.931   6.601   3.868
 7508SOL    HW223424   4.937   6.714   3.985
 7509SOL     OW23425   4.345   3.323   6.040
 7509SOL    HW123426   4.412   3.249   6.032
 7509SOL    HW223427   4.294   3.330   5.954
 7510SOL     OW23428   3.450   4.088   4.801
 7510SOL    HW123429   3.410   4.005   4.840
 7510SOL    HW223430   3.513   4.128   4.868
 7511SOL     OW23431   1.307   0.906   2.494
 7511SOL    HW123432   1.273   0.921   2.587
 7511SOL    HW223433   1.326   0.809   2.480
 7512SOL     OW23434   2.371   2.864   1.829
 7512SOL    HW123435   2.311   2.938   1.799
 7512SOL    HW223436   2.454   2.864   1.773
 7513SOL     OW23437   0.825   3.259   6.499
 7513SOL    HW123438   0.825   3.355   6.469
 7513SOL    HW223439   0.882   3.250   6.580
 7514SOL     OW23440   2.387   6.077   3.197
 7514SOL    HW123441   2.462   6.104   3.138
 7514SOL    HW223442   2.338   6.000   3.155
 7515SOL     OW23443   6.180   5.298   3.059
 7515SOL    HW123444   6.227   5.351   3.130
 7515SOL    HW223445   6.246   5.270   2.989
 7516SOL     OW23446   1.143   1.000   3.048
 7516SOL    HW123447   1.218   0.939   3.023
 7516SOL    HW223448   1.175   1.095   3.044
 7517SOL     OW23449   0.698   4.303   1.301
 7517SOL    HW123450   0.686   4.367   1.226
 7517SOL    HW223451   0.783   4.323   1.350
 7518SOL     OW23452   5.146   5.949   3.164
 7518SOL    HW123453   5.141   5.980   3.069
 7518SOL    HW223454   5.140   5.849   3.166
 7519SOL     OW23455   2.046   5.931   3.869
 7519SOL    HW123456   2.126   5.888   3.913
 7519SOL    HW223457   2.011   5.870   3.799
 7520SOL     OW23458   2.321   6.965   4.408
 7520SOL    HW123459   2.411   6.996   4.439
 7520SOL    HW223460   2.251   7.003   4.468
 7521SOL     OW23461   5.293   4.196   6.149
 7521SOL    HW123462   5.336   4.266   6.207
 7521SOL    HW223463   5.242   4.132   6.206
 7522SOL     OW23464   1.798   0.710   2.154
 7522SOL    HW123465   1.851   0.629   2.179
 7522SOL    HW223466   1.709   0.708   2.201
 7523SOL     OW23467   5.949   6.775   6.928
 7523SOL    HW123468   5.853   6.785   6.902
 7523SOL    HW223469   6.003   6.844   6.881
 7524SOL     OW23470   6.180   1.318   4.230
 7524SOL    HW123471   6.269   1.358   4.255
 7524SOL    HW223472   6.163   1.334   4.133
 7525SOL     OW23473   1.889   6.411   1.016
 7525SOL    HW123474   1.834   6.484   1.056
 7525SOL    HW223475   1.837   6.365   0.944
 7526SOL     OW23476   3.556   3.080   5.146
 7526SOL    HW123477   3.479   3.136   5.114
 7526SOL    HW223478   3.533   2.983   5.137
 7527SOL     OW23479   5.578   4.864   2.217
 7527SOL    HW123480   5.619   4.773   2.224
 7527SOL    HW223481   5.508   4.863   2.145
 7528SOL     OW23482   6.185   3.601   5.869
 7528SOL    HW123483   6.178   3.687   5.920
 7528SOL    HW223484   6.206   3.526   5.931
 7529SOL     OW23485   3.011   6.920   5.338
 7529SOL    HW123486   3.076   6.976   5.388
 7529SOL    HW223487   3.046   6.903   5.245
 7530SOL     OW23488   0.001   3.293   2.571
 7530SOL    HW123489   6.928   3.274   2.559
 7530SOL    HW223490   0.013   3.387   2.605
 7531SOL     OW23491   3.375   1.678   3.626
 7531SOL    HW123492   3.298   1.692   3.689
 7531SOL    HW223493   3.405   1.583   3.631
 7532SOL     OW23494   4.819   4.522   2.162
 7532SOL    HW123495   4.799   4.555   2.254
 7532SOL    HW223496   4.846   4.599   2.104
 7533SOL     OW23497   3.339   6.976   4.403
 7533SOL    HW123498   3.423   6.946   4.358
 7533SOL    HW223499   3.362   7.016   4.492
 7534SOL     OW23500   5.392   7.007   4.635
 7534SOL    HW123501   5.411   0.022   4.725
 7534SOL    HW223502   5.353   6.916   4.645
 7535SOL     OW23503   3.326   4.492   6.649
 7535SOL    HW123504   3.337   4.398   6.684
 7535SOL    HW223505   3.372   4.500   6.561
 7536SOL     OW23506   4.127   6.144   3.894
 7536SOL    HW123507   4.210   6.164   3.842
 7536SOL    HW223508   4.094   6.053   3.869
 7537SOL     OW23509   2.144   4.850   5.893
 7537SOL    HW123510   2.208   4.775   5.881
 7537SOL    HW223511   2.109   4.879   5.803
 7538SOL     OW23512   3.224   3.243   3.037
 7538SOL    HW123513   3.156   3.179   3.001
 7538SOL    HW223514   3.194   3.275   3.127
 7539SOL     OW23515   1.836   2.336   4.452
 7539SOL    HW123516   1.771   2.392   4.503
 7539SOL    HW223517   1.893   2.394   4.393
 7540SOL     OW23518   1.961   1.515   0.281
 7540SOL    HW123519   1.971   1.614   0.272
 7540SOL    HW223520   1.866   1.492   0.301
 7541SOL     OW23521   6.808   2.777   5.507
 7541SOL    HW123522   6.808   2.836   5.588
 7541SOL    HW223523   6.752   2.819   5.436
 7542SOL     OW23524   1.957   0.058   6.746
 7542SOL    HW123525   1.864   0.046   6.710
 7542SOL    HW223526   2.023   0.038   6.675
 7543SOL     OW23527   4.126   2.761   7.015
 7543SOL    HW123528   4.213   2.809   0.006
 7543SOL    HW223529   4.104   2.763   6.917
 7544SOL     OW23530   2.180   2.063   2.998
 7544SOL    HW123531   2.264   2.117   3.000
 7544SOL    HW223532   2.202   1.967   2.983
 7545SOL     OW23533   5.662   0.050   3.832
 7545SOL    HW123534   5.715   0.030   3.750
 7545SOL    HW223535   5.716   0.028   3.914
 7546SOL     OW23536   5.080   0.326   6.629
 7546SOL    HW123537   5.130   0.347   6.714
 7546SOL    HW223538   5.012   0.255   6.648
 7547SOL     OW23539   3.149   0.087   0.038
 7547SOL    HW123540   3.123   0.176   0.076
 7547SOL    HW223541   3.067   0.034   0.017
 7548SOL     OW23542   1.169   3.237   1.326
 7548SOL    HW123543   1.144   3.170   1.257
 7548SOL    HW223544   1.228   3.307   1.285
 7549SOL     OW23545   6.155   2.390   2.041
 7549SOL    HW123546   6.134   2.479   1.999
 7549SOL    HW223547   6.145   2.318   1.972
 7550SOL     OW23548   1.552   5.096   0.901
 7550SOL    HW123549   1.512   5.092   0.810
 7550SOL    HW223550   1.577   5.190   0.922
 7551SOL     OW23551   4.570   4.019   6.259
 7551SOL    HW123552   4.594   3.931   6.299
 7551SOL    HW223553   4.604   4.093   6.317
 7552SOL     OW23554   3.090   4.908   3.811
 7552SOL    HW123555   3.067   4.951   3.723
 7552SOL    HW223556   3.021   4.840   3.835
 7553SOL     OW23557   4.586   4.395   6.174
 7553SOL    HW123558   4.512   4.458   6.195
 7553SOL    HW223559   4.576   4.360   6.081
 7554SOL     OW23560   6.513   0.990   1.206
 7554SOL    HW123561   6.535   0.933   1.127
 7554SOL    HW223562   6.585   1.057   1.221
 7555SOL     OW23563   0.753   5.568   5.505
 7555SOL    HW123564   0.748   5.643   5.570
 7555SOL    HW223565   0.849   5.550   5.482
 7556SOL     OW23566   6.832   2.700   4.428
 7556SOL    HW123567   6.878   2.781   4.389
 7556SOL    HW223568   6.757   2.730   4.486
 7557SOL     OW23569   4.571   3.736   6.948
 7557SOL    HW123570   4.508   3.719   6.873
 7557SOL    HW223571   4.519   3.758   0.007
 7558SOL     OW23572   1.846   3.329   4.094
 7558SOL    HW123573   1.938   3.346   4.058
 7558SOL    HW223574   1.848   3.251   4.156
 7559SOL     OW23575   0.911   4.810   0.419
 7559SOL    HW123576   0.993   4.799   0.363
 7559SOL    HW223577   0.899   4.729   0.477
 7560SOL     OW23578   4.678   6.767   6.112
 7560SOL    HW123579   4.698   6.761   6.014
 7560SOL    HW223580   4.715   6.852   6.149
 7561SOL     OW23581   0.963   3.415   0.802
 7561SOL    HW123582   0.898   3.358   0.853
 7561SOL    HW223583   1.009   3.477   0.866
 7562SOL     OW23584   4.995   5.460   5.666
 7562SOL    HW123585   5.069   5.420   5.611
 7562SOL    HW223586   4.975   5.552   5.633
 7563SOL     OW23587   2.333   1.253   2.331
 7563SOL    HW123588   2.318   1.170   2.279
 7563SOL    HW223589   2.320   1.235   2.428
 7564SOL     OW23590   5.070   6.327   4.004
 7564SOL    HW123591   5.143   6.323   4.073
 7564SOL    HW223592   5.109   6.354   3.916
 7565SOL     OW23593   4.945   4.283   0.661
 7565SOL    HW123594   4.893   4.354   0.614
 7565SOL    HW223595   4.970   4.211   0.595
 7566SOL     OW23596   1.724   5.725   5.213
 7566SOL    HW123597   1.665   5.648   5.237
 7566SOL    HW223598   1.765   5.709   5.124
 7567SOL     OW23599   2.533   3.387   6.911
 7567SOL    HW123600   2.470   3.422   6.842
 7567SOL    HW223601   2.586   3.311   6.872
 7568SOL     OW23602   4.684   4.344   2.906
 7568SOL    HW123603   4.700   4.361   3.003
 7568SOL    HW223604   4.733   4.411   2.852
 7569SOL     OW23605   3.813   0.505   1.108
 7569SOL    HW123606   3.867   0.563   1.169
 7569SOL    HW223607   3.821   0.540   1.014
 7570SOL     OW23608   5.963   4.864   5.021
 7570SOL    HW123609   5.983   4.956   5.053
 7570SOL    HW223610   6.043   4.825   4.976
 7571SOL     OW23611   5.115   4.221   1.982
 7571SOL    HW123612   5.060   4.152   2.028
 7571SOL    HW223613   5.067   4.254   1.901
 7572SOL     OW23614   1.600   2.137   4.269
 7572SOL    HW123615   1.506   2.102   4.270
 7572SOL    HW223616   1.599   2.235   4.284
 7573SOL     OW23617   2.514   5.863   5.173
 7573SOL    HW123618   2.491   5.899   5.082
 7573SOL    HW223619   2.436   5.876   5.234
 7574SOL     OW23620   4.736   5.834   2.766
 7574SOL    HW123621   4.729   5.929   2.798
 7574SOL    HW223622   4.744   5.773   2.845
 7575SOL     OW23623   4.552   2.596   5.141
 7575SOL    HW123624   4.460   2.557   5.148
 7575SOL    HW223625   4.592   2.604   5.232
 7576SOL     OW23626   6.300   3.576   1.187
 7576SOL    HW123627   6.296   3.661   1.241
 7576SOL    HW223628   6.245   3.505   1.232
 7577SOL     OW23629   4.396   0.632   4.972
 7577SOL    HW123630   4.454   0.607   4.895
 7577SOL    HW223631   4.396   0.558   5.039
 7578SOL     OW23632   2.719   4.665   4.495
 7578SOL    HW123633   2.730   4.684   4.592
 7578SOL    HW223634   2.739   4.569   4.476
 7579SOL     OW23635   4.398   1.957   3.262
 7579SOL    HW123636   4.355   1.906   3.188
 7579SOL    HW223637   4.428   2.046   3.228
 7580SOL     OW23638   2.087   3.893   3.175
 7580SOL    HW123639   2.068   3.982   3.217
 7580SOL    HW223640   2.021   3.826   3.208
 7581SOL     OW23641   5.967   0.722   1.207
 7581SOL    HW123642   5.899   0.736   1.135
 7581SOL    HW223643   6.052   0.689   1.167
 7582SOL     OW23644   2.987   1.413   1.166
 7582SOL    HW123645   2.961   1.484   1.231
 7582SOL    HW223646   3.072   1.439   1.120
 7583SOL     OW23647   0.104   3.353   2.319
 7583SOL    HW123648   0.080   3.368   2.415
 7583SOL    HW223649   0.194   3.310   2.313
 7584SOL     OW23650   2.118   1.449   1.068
 7584SOL    HW123651   2.036   1.393   1.072
 7584SOL    HW223652   2.176   1.418   0.993
 7585SOL     OW23653   1.602   5.171   5.900
 7585SOL    HW123654   1.641   5.140   5.986
 7585SOL    HW223655   1.649   5.253   5.869
 7586SOL     OW23656   2.289   1.235   1.652
 7586SOL    HW123657   2.301   1.333   1.663
 7586SOL    HW223658   2.192   1.215   1.638
 7587SOL     OW23659   2.382   0.782   6.045
 7587SOL    HW123660   2.343   0.873   6.061
 7587SOL    HW223661   2.361   0.752   5.952
 7588SOL     OW23662   0.287   4.078   1.373
 7588SOL    HW123663   0.195   4.046   1.351
 7588SOL    HW223664   0.352   4.003   1.361
 7589SOL     OW23665   5.339   6.186   0.077
 7589SOL    HW123666   5.361   6.100   0.123
 7589SOL    HW223667   5.328   6.169   7.003
 7590SOL     OW23668   2.409   0.594   6.417
 7590SOL    HW123669   2.391   0.517   6.478
 7590SOL    HW223670   2.379   0.571   6.325
 7591SOL     OW23671   6.619   5.088   0.349
 7591SOL    HW123672   6.679   5.057   0.422
 7591SOL    HW223673   6.623   5.024   0.272
 7592SOL     OW23674   5.278   6.065   0.409
 7592SOL    HW123675   5.283   6.033   0.504
 7592SOL    HW223676   5.359   6.119   0.389
 7593SOL     OW23677   6.246   2.906   6.744
 7593SOL    HW123678   6.265   2.815   6.707
 7593SOL    HW223679   6.323   2.936   6.800
 7594SOL     OW23680   1.428   6.175   3.896
 7594SOL    HW123681   1.514   6.224   3.903
 7594SOL    HW223682   1.439   6.099   3.832
 7595SOL     OW23683   6.562   2.364   0.368
 7595SOL    HW123684   6.652   2.320   0.371
 7595SOL    HW223685   6.514   2.349   0.455
 7596SOL     OW23686   4.891   4.663   1.631
 7596SOL    HW123687   4.891   4.751   1.584
 7596SOL    HW223688   4.887   4.589   1.564
 7597SOL     OW23689   3.292   5.582   1.735
 7597SOL    HW123690   3.277   5.542   1.644
 7597SOL    HW223691   3.239   5.666   1.744
 7598SOL     OW23692   6.612   0.201   3.266
 7598SOL    HW123693   6.638   0.139   3.340
 7598SOL    HW223694   6.563   0.280   3.303
 7599SOL     OW23695   6.419   2.013   1.939
 7599SOL    HW123696   6.364   2.003   1.857
 7599SOL    HW223697   6.456   1.924   1.965
 7600SOL     OW23698   2.389   1.956   1.598
 7600SOL    HW123699   2.354   2.049   1.611
 7600SOL    HW223700   2.486   1.953   1.624
 7601SOL     OW23701   2.090   6.804   4.930
 7601SOL    HW123702   2.000   6.815   4.886
 7601SOL    HW223703   2.157   6.861   4.882
 7602SOL     OW23704   2.046   3.165   4.962
 7602SOL    HW123705   2.086   3.120   4.882
 7602SOL    HW223706   1.968   3.111   4.994
 7603SOL     OW23707   0.864   0.639   2.164
 7603SOL    HW123708   0.795   0.599   2.223
 7603SOL    HW223709   0.834   0.634   2.069
 7604SOL     OW23710   4.789   6.320   6.446
 7604SOL    HW123711   4.859   6.284   6.384
 7604SOL    HW223712   4.758   6.248   6.508
 7605SOL     OW23713   5.863   4.344   5.769
 7605SOL    HW123714   5.774   4.362   5.726
 7605SOL    HW223715   5.915   4.281   5.712
 7606SOL     OW23716   5.864   2.053   3.152
 7606SOL    HW123717   5.833   2.147   3.163
 7606SOL    HW223718   5.900   2.041   3.059
 7607SOL     OW23719   5.308   6.811   6.736
 7607SOL    HW123720   5.349   6.738   6.790
 7607SOL    HW223721   5.376   6.852   6.676
 7608SOL     OW23722   3.874   3.003   3.637
 7608SOL    HW123723   3.871   2.930   3.569
 7608SOL    HW223724   3.881   3.092   3.591
 7609SOL     OW23725   1.670   3.040   4.227
 7609SOL    HW123726   1.712   3.130   4.236
 7609SOL    HW223727   1.700   2.981   4.302
 7610SOL     OW23728   5.250   0.493   1.392
 7610SOL    HW123729   5.273   0.552   1.314
 7610SOL    HW223730   5.331   0.442   1.419
 7611SOL     OW23731   1.748   1.777   1.520
 7611SOL    HW123732   1.665   1.722   1.537
 7611SOL    HW223733   1.796   1.791   1.607
 7612SOL     OW23734   4.154   1.514   2.594
 7612SOL    HW123735   4.191   1.463   2.517
 7612SOL    HW223736   4.113   1.599   2.562
 7613SOL     OW23737   4.865   1.142   2.183
 7613SOL    HW123738   4.874   1.067   2.117
 7613SOL    HW223739   4.927   1.216   2.158
 7614SOL     OW23740   4.260   1.508   0.218
 7614SOL    HW123741   4.313   1.590   0.235
 7614SOL    HW223742   4.262   1.487   0.120
 7615SOL     OW23743   3.748   5.349   5.665
 7615SOL    HW123744   3.782   5.284   5.598
 7615SOL    HW223745   3.755   5.442   5.628
 7616SOL     OW23746   6.431   5.001   3.532
 7616SOL    HW123747   6.389   4.910   3.531
 7616SOL    HW223748   6.527   4.993   3.558
 7617SOL     OW23749   3.111   6.072   2.385
 7617SOL    HW123750   3.029   6.020   2.359
 7617SOL    HW223751   3.173   6.076   2.307
 7618SOL     OW23752   1.777   2.548   0.774
 7618SOL    HW123753   1.853   2.499   0.817
 7618SOL    HW223754   1.691   2.513   0.811
 7619SOL     OW23755   5.605   3.134   5.671
 7619SOL    HW123756   5.630   3.037   5.680
 7619SOL    HW223757   5.525   3.153   5.728
 7620SOL     OW23758   3.230   6.666   1.468
 7620SOL    HW123759   3.260   6.756   1.499
 7620SOL    HW223760   3.172   6.676   1.387
 7621SOL     OW23761   2.738   1.716   1.646
 7621SOL    HW123762   2.784   1.635   1.681
 7621SOL    HW223763   2.677   1.690   1.571
 7622SOL     OW23764   4.521   2.256   0.590
 7622SOL    HW123765   4.476   2.172   0.560
 7622SOL    HW223766   4.457   2.311   0.644
 7623SOL     OW23767   5.229   0.600   5.656
 7623SOL    HW123768   5.152   0.639   5.605
 7623SOL    HW223769   5.207   0.599   5.753
 7624SOL     OW23770   6.866   0.219   4.221
 7624SOL    HW123771   6.879   0.283   4.145
 7624SOL    HW223772   6.770   0.193   4.226
 7625SOL     OW23773   4.184   6.717   1.328
 7625SOL    HW123774   4.175   6.653   1.251
 7625SOL    HW223775   4.103   6.775   1.333
 7626SOL     OW23776   1.819   4.852   4.854
 7626SOL    HW123777   1.835   4.925   4.921
 7626SOL    HW223778   1.880   4.776   4.872
 7627SOL     OW23779   0.442   2.623   0.464
 7627SOL    HW123780   0.440   2.662   0.371
 7627SOL    HW223781   0.526   2.569   0.475
 7628SOL     OW23782   3.784   2.103   0.823
 7628SOL    HW123783   3.840   2.045   0.763
 7628SOL    HW223784   3.789   2.068   0.916
 7629SOL     OW23785   6.382   5.603   3.956
 7629SOL    HW123786   6.308   5.559   4.007
 7629SOL    HW223787   6.345   5.649   3.876
 7630SOL     OW23788   6.352   0.881   2.006
 7630SOL    HW123789   6.400   0.826   2.075
 7630SOL    HW223790   6.258   0.896   2.034
 7631SOL     OW23791   0.925   2.298   3.666
 7631SOL    HW123792   0.858   2.371   3.651
 7631SOL    HW223793   0.877   2.210   3.671
 7632SOL     OW23794   4.461   1.767   6.256
 7632SOL    HW123795   4.375   1.725   6.228
 7632SOL    HW223796   4.512   1.704   6.313
 7633SOL     OW23797   5.814   4.450   6.718
 7633SOL    HW123798   5.776   4.516   6.783
 7633SOL    HW223799   5.788   4.358   6.746
 7634SOL     OW23800   1.104   1.896   2.001
 7634SOL    HW123801   1.122   1.813   2.054
 7634SOL    HW223802   1.092   1.871   1.904
 7635SOL     OW23803   2.884   4.778   6.081
 7635SOL    HW123804   2.936   4.708   6.031
 7635SOL    HW223805   2.939   4.861   6.089
 7636SOL     OW23806   1.436   0.398   4.329
 7636SOL    HW123807   1.354   0.344   4.347
 7636SOL    HW223808   1.426   0.446   4.242
 7637SOL     OW23809   1.766   5.938   4.557
 7637SOL    HW123810   1.762   5.849   4.513
 7637SOL    HW223811   1.673   5.973   4.569
 7638SOL     OW23812   4.592   4.703   1.784
 7638SOL    HW123813   4.563   4.766   1.712
 7638SOL    HW223814   4.691   4.694   1.784
 7639SOL     OW23815   0.798   1.858   4.235
 7639SOL    HW123816   0.889   1.856   4.193
 7639SOL    HW223817   0.739   1.789   4.193
 7640SOL     OW23818   2.310   2.686   6.463
 7640SOL    HW123819   2.410   2.690   6.472
 7640SOL    HW223820   2.283   2.594   6.435
 7641SOL     OW23821   6.252   3.213   2.959
 7641SOL    HW123822   6.179   3.196   3.026
 7641SOL    HW223823   6.249   3.308   2.930
 7642SOL     OW23824   2.873   2.029   2.380
 7642SOL    HW123825   2.900   2.109   2.433
 7642SOL    HW223826   2.775   2.013   2.391
 7643SOL     OW23827   4.822   3.086   2.937
 7643SOL    HW123828   4.865   3.134   2.860
 7643SOL    HW223829   4.855   3.125   3.023
 7644SOL     OW23830   6.486   3.712   3.380
 7644SOL    HW123831   6.463   3.778   3.452
 7644SOL    HW223832   6.523   3.629   3.422
 7645SOL     OW23833   4.644   3.368   6.785
 7645SOL    HW123834   4.638   3.463   6.815
 7645SOL    HW223835   4.739   3.338   6.791
 7646SOL     OW23836   1.158   1.737   1.767
 7646SOL    HW123837   1.148   1.742   1.667
 7646SOL    HW223838   1.113   1.654   1.800
 7647SOL     OW23839   1.929   4.145   1.343
 7647SOL    HW123840   1.861   4.202   1.297
 7647SOL    HW223841   1.897   4.122   1.435
 7648SOL     OW23842   4.068   0.739   3.283
 7648SOL    HW123843   4.045   0.669   3.215
 7648SOL    HW223844   3.989   0.799   3.296
 7649SOL     OW23845   2.740   1.129   1.388
 7649SOL    HW123846   2.657   1.081   1.360
 7649SOL    HW223847   2.718   1.194   1.461
 7650SOL     OW23848   5.482   4.789   2.958
 7650SOL    HW123849   5.484   4.755   3.053
 7650SOL    HW223850   5.446   4.717   2.898
 7651SOL     OW23851   4.018   1.476   6.342
 7651SOL    HW123852   3.998   1.392   6.393
 7651SOL    HW223853   3.932   1.517   6.310
 7652SOL     OW23854   0.843   2.851   2.640
 7652SOL    HW123855   0.760   2.845   2.586
 7652SOL    HW223856   0.897   2.767   2.628
 7653SOL     OW23857   3.499   2.458   1.404
 7653SOL    HW123858   3.445   2.473   1.486
 7653SOL    HW223859   3.581   2.405   1.427
 7654SOL     OW23860   4.949   3.610   3.574
 7654SOL    HW123861   4.955   3.690   3.634
 7654SOL    HW223862   4.932   3.529   3.630
 7655SOL     OW23863   4.675   6.244   5.337
 7655SOL    HW123864   4.576   6.244   5.323
 7655SOL    HW223865   4.711   6.335   5.318
 7656SOL     OW23866   1.171   6.206   4.855
 7656SOL    HW123867   1.228   6.183   4.777
 7656SOL    HW223868   1.080   6.233   4.823
 7657SOL     OW23869   4.359   1.150   4.521
 7657SOL    HW123870   4.367   1.192   4.611
 7657SOL    HW223871   4.447   1.109   4.496
 7658SOL     OW23872   4.096   0.515   6.249
 7658SOL    HW123873   4.016   0.575   6.241
 7658SOL    HW223874   4.173   0.555   6.198
 7659SOL     OW23875   5.555   6.928   0.304
 7659SOL    HW123876   5.605   6.845   0.331
 7659SOL    HW223877   5.463   6.903   0.276
 7660SOL     OW23878   6.392   4.720   3.907
 7660SOL    HW123879   6.397   4.664   3.824
 7660SOL    HW223880   6.300   4.714   3.946
 7661SOL     OW23881   5.807   3.501   3.113
 7661SOL    HW123882   5.859   3.454   3.184
 7661SOL    HW223883   5.711   3.475   3.119
 7662SOL     OW23884   0.017   5.596   1.789
 7662SOL    HW123885   0.093   5.654   1.759
 7662SOL    HW223886   6.978   5.650   1.845
 7663SOL     OW23887   6.972   5.153   6.984
 7663SOL    HW123888   6.926   5.224   0.013
 7663SOL    HW223889   6.937   5.063   7.011
 7664SOL     OW23890   2.147   5.310   4.589
 7664SOL    HW123891   2.057   5.270   4.598
 7664SOL    HW223892   2.187   5.283   4.501
 7665SOL     OW23893   2.423   6.084   4.805
 7665SOL    HW123894   2.470   6.108   4.890
 7665SOL    HW223895   2.444   6.152   4.735
 7666SOL     OW23896   1.483   1.184   1.630
 7666SOL    HW123897   1.471   1.250   1.556
 7666SOL    HW223898   1.566   1.206   1.682
 7667SOL     OW23899   4.873   5.372   6.097
 7667SOL    HW123900   4.904   5.283   6.130
 7667SOL    HW223901   4.932   5.444   6.133
 7668SOL     OW23902   2.967   3.977   1.525
 7668SOL    HW123903   3.040   3.935   1.471
 7668SOL    HW223904   2.892   3.912   1.536
 7669SOL     OW23905   4.720   6.518   4.555
 7669SOL    HW123906   4.638   6.482   4.510
 7669SOL    HW223907   4.767   6.443   4.603
 7670SOL     OW23908   1.955   4.954   0.950
 7670SOL    HW123909   2.048   4.984   0.932
 7670SOL    HW223910   1.891   5.015   0.903
 7671SOL     OW23911   5.637   2.331   4.632
 7671SOL    HW123912   5.656   2.234   4.647
 7671SOL    HW223913   5.550   2.355   4.674
 7672SOL     OW23914   5.266   0.656   2.283
 7672SOL    HW123915   5.178   0.665   2.329
 7672SOL    HW223916   5.294   0.745   2.246
 7673SOL     OW23917   0.663   4.693   0.871
 7673SOL    HW123918   0.581   4.722   0.921
 7673SOL    HW223919   0.733   4.764   0.878
 7674SOL     OW23920   6.532   0.588   5.168
 7674SOL    HW123921   6.611   0.575   5.228
 7674SOL    HW223922   6.455   0.534   5.203
 7675SOL     OW23923   4.495   0.097   3.680
 7675SOL    HW123924   4.438   0.149   3.743
 7675SOL    HW223925   4.441   0.026   3.636
 7676SOL     OW23926   1.836   6.849   0.953
 7676SOL    HW123927   1.903   6.849   0.879
 7676SOL    HW223928   1.819   6.942   0.984
 7677SOL     OW23929   1.863   3.035   3.008
 7677SOL    HW123930   1.763   3.025   3.015
 7677SOL    HW223931   1.907   2.972   3.072
 7678SOL     OW23932   5.673   0.065   0.023
 7678SOL    HW123933   5.596   0.113   0.065
 7678SOL    HW223934   5.695   0.107   6.958
 7679SOL     OW23935   0.820   5.074   5.319
 7679SOL    HW123936   0.771   5.069   5.232
 7679SOL    HW223937   0.915   5.101   5.303
 7680SOL     OW23938   4.544   2.082   6.513
 7680SOL    HW123939   4.449   2.073   6.486
 7680SOL    HW223940   4.589   1.993   6.508
 7681SOL     OW23941   2.897   1.618   6.993
 7681SOL    HW123942   2.925   1.692   6.932
 7681SOL    HW223943   2.898   1.651   0.064
 7682SOL     OW23944   3.464   6.730   0.900
 7682SOL    HW123945   3.498   6.769   0.815
 7682SOL    HW223946   3.463   6.800   0.972
 7683SOL     OW23947   5.857   1.808   3.438
 7683SOL    HW123948   5.791   1.780   3.368
 7683SOL    HW223949   5.948   1.780   3.410
 7684SOL     OW23950   4.034   1.779   5.759
 7684SOL    HW123951   4.123   1.802   5.721
 7684SOL    HW223952   3.967   1.768   5.685
 7685SOL     OW23953   3.646   3.516   0.998
 7685SOL    HW123954   3.597   3.581   0.939
 7685SOL    HW223955   3.686   3.444   0.941
 7686SOL     OW23956   3.156   0.199   3.962
 7686SOL    HW123957   3.187   0.115   4.006
 7686SOL    HW223958   3.218   0.222   3.886
 7687SOL     OW23959   4.366   4.984   5.412
 7687SOL    HW123960   4.463   5.002   5.432
 7687SOL    HW223961   4.316   5.070   5.413
 7688SOL     OW23962   6.933   6.903   4.465
 7688SOL    HW123963   6.940   6.872   4.560
 7688SOL    HW223964   6.988   6.985   4.452
 7689SOL     OW23965   4.111   6.508   4.406
 7689SOL    HW123966   4.187   6.484   4.468
 7689SOL    HW223967   4.028   6.461   4.436
 7690SOL     OW23968   6.866   6.084   3.334
 7690SOL    HW123969   6.864   6.126   3.425
 7690SOL    HW223970   6.780   6.036   3.318
 7691SOL     OW23971   5.333   4.199   5.102
 7691SOL    HW123972   5.415   4.196   5.159
 7691SOL    HW223973   5.352   4.157   5.013
 7692SOL     OW23974   2.049   6.438   1.641
 7692SOL    HW123975   2.022   6.534   1.644
 7692SOL    HW223976   2.090   6.418   1.552
 7693SOL     OW23977   5.400   0.942   6.556
 7693SOL    HW123978   5.450   1.020   6.519
 7693SOL    HW223979   5.459   0.891   6.619
 7694SOL     OW23980   6.791   5.169   4.550
 7694SOL    HW123981   6.848   5.222   4.612
 7694SOL    HW223982   6.699   5.208   4.547
 7695SOL     OW23983   4.271   0.125   6.599
 7695SOL    HW123984   4.192   0.092   6.651
 7695SOL    HW223985   4.239   0.180   6.522
 7696SOL     OW23986   0.389   3.247   5.770
 7696SOL    HW123987   0.306   3.295   5.798
 7696SOL    HW223988   0.394   3.244   5.670
 7697SOL     OW23989   4.268   1.966   1.609
 7697SOL    HW123990   4.292   1.884   1.662
 7697SOL    HW223991   4.346   1.995   1.555
 7698SOL     OW23992   6.979   3.647   5.765
 7698SOL    HW123993   6.978   3.593   5.848
 7698SOL    HW223994   7.004   3.742   5.787
 7699SOL     OW23995   2.260   4.586   6.781
 7699SOL    HW123996   2.237   4.576   6.878
 7699SOL    HW223997   2.179   4.565   6.725
 7700SOL     OW23998   5.484   6.778   5.173
 7700SOL    HW123999   5.417   6.839   5.132
 7700SOL    HW224000   5.449   6.685   5.173
 7701SOL     OW24001   6.215   1.564   5.106
 7701SOL    HW124002   6.216   1.526   5.199
 7701SOL    HW224003   6.235   1.491   5.040
 7702SOL     OW24004   2.655   6.132   6.268
 7702SOL    HW124005   2.683   6.212   6.215
 7702SOL    HW224006   2.609   6.162   6.352
 7703SOL     OW24007   0.517   2.050   6.870
 7703SOL    HW124008   0.479   1.974   6.817
 7703SOL    HW224009   0.594   2.017   6.925
 7704SOL     OW24010   4.672   5.084   6.896
 7704SOL    HW124011   4.580   5.116   6.871
 7704SOL    HW224012   4.680   5.081   6.996
 7705SOL     OW24013   3.417   5.423   5.152
 7705SOL    HW124014   3.446   5.485   5.079
 7705SOL    HW224015   3.475   5.437   5.232
 7706SOL     OW24016   6.786   0.664   5.283
 7706SOL    HW124017   6.707   0.678   5.343
 7706SOL    HW224018   6.838   0.749   5.274
 7707SOL     OW24019   0.199   4.986   6.079
 7707SOL    HW124020   0.178   4.897   6.040
 7707SOL    HW224021   0.263   4.975   6.155
 7708SOL     OW24022   4.505   6.664   5.004
 7708SOL    HW124023   4.423   6.608   5.005
 7708SOL    HW224024   4.512   6.712   4.917
 7709SOL     OW24025   3.937   2.307   1.794
 7709SOL    HW124026   3.862   2.283   1.857
 7709SOL    HW224027   3.958   2.228   1.737
 7710SOL     OW24028   2.848   2.005   6.928
 7710SOL    HW124029   2.783   1.997   7.003
 7710SOL    HW224030   2.799   1.997   6.841
 7711SOL     OW24031   5.933   6.336   6.250
 7711SOL    HW124032   5.881   6.414   6.284
 7711SOL    HW224033   5.931   6.262   6.317
 7712SOL     OW24034   5.144   5.529   0.973
 7712SOL    HW124035   5.143   5.627   0.993
 7712SOL    HW224036   5.159   5.515   0.875
 7713SOL     OW24037   1.373   4.775   6.697
 7713SOL    HW124038   1.342   4.754   6.790
 7713SOL    HW224039   1.297   4.813   6.644
 7714SOL     OW24040   5.272   4.387   3.948
 7714SOL    HW124041   5.334   4.461   3.924
 7714SOL    HW224042   5.180   4.410   3.919
 7715SOL     OW24043   4.706   1.790   0.839
 7715SOL    HW124044   4.691   1.794   0.741
 7715SOL    HW224045   4.618   1.798   0.886
 7716SOL     OW24046   4.469   2.491   3.043
 7716SOL    HW124047   4.522   2.537   3.114
 7716SOL    HW224048   4.382   2.460   3.082
 7717SOL     OW24049   3.834   0.900   6.316
 7717SOL    HW124050   3.759   0.877   6.378
 7717SOL    HW224051   3.816   0.989   6.273
 7718SOL     OW24052   2.891   5.586   3.774
 7718SOL    HW124053   2.845   5.673   3.792
 7718SOL    HW224054   2.914   5.580   3.677
 7719SOL     OW24055   6.588   1.708   5.075
 7719SOL    HW124056   6.610   1.708   5.173
 7719SOL    HW224057   6.671   1.691   5.023
 7720SOL     OW24058   5.735   5.563   1.432
 7720SOL    HW124059   5.777   5.493   1.374
 7720SOL    HW224060   5.677   5.519   1.501
 7721SOL     OW24061   1.439   4.647   2.633
 7721SOL    HW124062   1.514   4.642   2.567
 7721SOL    HW224063   1.352   4.632   2.587
 7722SOL     OW24064   0.132   5.309   4.023
 7722SOL    HW124065   0.193   5.340   3.950
 7722SOL    HW224066   0.094   5.388   4.071
 7723SOL     OW24067   6.464   3.045   0.188
 7723SOL    HW124068   6.448   3.142   0.175
 7723SOL    HW224069   6.382   2.994   0.165
 7724SOL     OW24070   1.868   4.772   1.144
 7724SOL    HW124071   1.921   4.816   1.071
 7724SOL    HW224072   1.776   4.752   1.111
 7725SOL     OW24073   5.152   3.361   4.643
 7725SOL    HW124074   5.101   3.422   4.582
 7725SOL    HW224075   5.248   3.389   4.646
 7726SOL     OW24076   6.834   4.172   3.683
 7726SOL    HW124077   6.934   4.176   3.695
 7726SOL    HW224078   6.795   4.262   3.703
 7727SOL     OW24079   6.512   2.688   1.678
 7727SOL    HW124080   6.514   2.766   1.740
 7727SOL    HW224081   6.471   2.609   1.724
 7728SOL     OW24082   2.720   2.367   2.671
 7728SOL    HW124083   2.726   2.347   2.769
 7728SOL    HW224084   2.659   2.445   2.657
 7729SOL     OW24085   5.543   2.235   0.459
 7729SOL    HW124086   5.519   2.138   0.456
 7729SOL    HW224087   5.477   2.284   0.517
 7730SOL     OW24088   4.911   0.758   2.202
 7730SOL    HW124089   4.980   0.704   2.155
 7730SOL    HW224090   4.859   0.812   2.135
 7731SOL     OW24091   6.335   1.149   6.151
 7731SOL    HW124092   6.409   1.208   6.119
 7731SOL    HW224093   6.303   1.092   6.075
 7732SOL     OW24094   4.366   5.012   0.746
 7732SOL    HW124095   4.423   4.980   0.822
 7732SOL    HW224096   4.309   4.937   0.713
 7733SOL     OW24097   3.002   0.013   2.267
 7733SOL    HW124098   2.987   6.953   2.215
 7733SOL    HW224099   2.941   0.014   2.347
 7734SOL     OW24100   1.448   1.670   3.415
 7734SOL    HW124101   1.524   1.640   3.474
 7734SOL    HW224102   1.436   1.605   3.341
 7735SOL     OW24103   5.088   4.014   0.590
 7735SOL    HW124104   5.044   3.975   0.508
 7735SOL    HW224105   5.183   4.034   0.570
 7736SOL     OW24106   5.964   4.635   6.353
 7736SOL    HW124107   5.883   4.578   6.342
 7736SOL    HW224108   6.010   4.612   6.439
 7737SOL     OW24109   5.004   1.115   0.393
 7737SOL    HW124110   5.020   1.074   0.304
 7737SOL    HW224111   5.064   1.193   0.406
 7738SOL     OW24112   2.351   5.056   6.770
 7738SOL    HW124113   2.420   5.066   6.698
 7738SOL    HW224114   2.388   5.000   6.844
 7739SOL     OW24115   6.183   3.373   1.637
 7739SOL    HW124116   6.148   3.305   1.572
 7739SOL    HW224117   6.267   3.339   1.678
 7740SOL     OW24118   0.455   6.638   3.418
 7740SOL    HW124119   0.496   6.722   3.382
 7740SOL    HW224120   0.491   6.619   3.509
 7741SOL     OW24121   3.053   5.305   4.683
 7741SOL    HW124122   3.151   5.301   4.661
 7741SOL    HW224123   3.001   5.254   4.615
 7742SOL     OW24124   5.922   0.953   3.663
 7742SOL    HW124125   6.010   0.990   3.691
 7742SOL    HW224126   5.931   0.854   3.648
 7743SOL     OW24127   4.579   2.597   2.798
 7743SOL    HW124128   4.607   2.693   2.807
 7743SOL    HW224129   4.550   2.562   2.887
 7744SOL     OW24130   0.124   0.136   5.133
 7744SOL    HW124131   0.073   0.152   5.048
 7744SOL    HW224132   0.157   0.223   5.169
 7745SOL     OW24133   5.143   3.245   5.420
 7745SOL    HW124134   5.061   3.284   5.461
 7745SOL    HW224135   5.222   3.303   5.442
 7746SOL     OW24136   1.517   0.739   0.319
 7746SOL    HW124137   1.560   0.788   0.244
 7746SOL    HW224138   1.418   0.743   0.309
 7747SOL     OW24139   5.766   5.515   1.105
 7747SOL    HW124140   5.774   5.428   1.056
 7747SOL    HW224141   5.702   5.575   1.057
 7748SOL     OW24142   3.393   3.353   6.937
 7748SOL    HW124143   3.467   3.370   6.872
 7748SOL    HW224144   3.422   3.283   7.003
 7749SOL     OW24145   5.768   3.107   6.386
 7749SOL    HW124146   5.710   3.070   6.459
 7749SOL    HW224147   5.858   3.064   6.390
 7750SOL     OW24148   5.767   5.171   2.594
 7750SOL    HW124149   5.774   5.106   2.518
 7750SOL    HW224150   5.714   5.131   2.668
 7751SOL     OW24151   0.247   2.485   2.043
 7751SOL    HW124152   0.302   2.566   2.027
 7751SOL    HW224153   0.221   2.443   1.955
 7752SOL     OW24154   4.703   2.064   3.402
 7752SOL    HW124155   4.645   2.109   3.334
 7752SOL    HW224156   4.790   2.038   3.359
 7753SOL     OW24157   3.310   1.802   4.610
 7753SOL    HW124158   3.241   1.794   4.683
 7753SOL    HW224159   3.306   1.894   4.571
 7754SOL     OW24160   5.491   6.051   2.443
 7754SOL    HW124161   5.520   6.146   2.450
 7754SOL    HW224162   5.396   6.047   2.411
 7755SOL     OW24163   0.512   4.986   4.173
 7755SOL    HW124164   0.533   4.945   4.261
 7755SOL    HW224165   0.550   4.931   4.100
 7756SOL     OW24166   2.760   5.049   1.919
 7756SOL    HW124167   2.853   5.022   1.894
 7756SOL    HW224168   2.704   4.967   1.932
 7757SOL     OW24169   0.204   4.900   2.232
 7757SOL    HW124170   0.264   4.867   2.159
 7757SOL    HW224171   0.256   4.909   2.317
 7758SOL     OW24172   1.868   1.555   5.174
 7758SOL    HW124173   1.874   1.524   5.269
 7758SOL    HW224174   1.777   1.594   5.158
 7759SOL     OW24175   3.184   2.384   1.219
 7759SOL    HW124176   3.259   2.319   1.205
 7759SOL    HW224177   3.192   2.459   1.153
 7760SOL     OW24178   4.994   3.323   0.253
 7760SOL    HW124179   5.007   3.269   0.336
 7760SOL    HW224180   5.078   3.320   0.198
 7761SOL     OW24181   4.844   5.281   3.799
 7761SOL    HW124182   4.882   5.313   3.712
 7761SOL    HW224183   4.760   5.231   3.783
 7762SOL     OW24184   5.575   1.669   2.054
 7762SOL    HW124185   5.480   1.676   2.025
 7762SOL    HW224186   5.631   1.733   2.001
 7763SOL     OW24187   2.373   0.397   4.111
 7763SOL    HW124188   2.424   0.314   4.087
 7763SOL    HW224189   2.291   0.371   4.162
 7764SOL     OW24190   2.162   4.183   5.932
 7764SOL    HW124191   2.177   4.279   5.910
 7764SOL    HW224192   2.066   4.168   5.953
 7765SOL     OW24193   5.432   3.212   4.774
 7765SOL    HW124194   5.519   3.162   4.770
 7765SOL    HW224195   5.410   3.234   4.869
 7766SOL     OW24196   6.609   3.531   6.633
 7766SOL    HW124197   6.582   3.606   6.693
 7766SOL    HW224198   6.553   3.534   6.550
 7767SOL     OW24199   3.516   0.583   4.038
 7767SOL    HW124200   3.460   0.578   3.956
 7767SOL    HW224201   3.462   0.621   4.114
 7768SOL     OW24202   4.038   5.512   3.620
 7768SOL    HW124203   4.058   5.572   3.542
 7768SOL    HW224204   3.950   5.537   3.660
 7769SOL     OW24205   3.580   2.735   5.667
 7769SOL    HW124206   3.525   2.703   5.744
 7769SOL    HW224207   3.521   2.777   5.599
 7770SOL     OW24208   1.777   3.034   4.553
 7770SOL    HW124209   1.684   3.001   4.569
 7770SOL    HW224210   1.823   3.049   4.640
 7771SOL     OW24211   2.510   3.647   6.464
 7771SOL    HW124212   2.594   3.635   6.411
 7771SOL    HW224213   2.532   3.650   6.561
 7772SOL     OW24214   5.161   6.859   2.026
 7772SOL    HW124215   5.237   6.817   1.977
 7772SOL    HW224216   5.082   6.797   2.023
 7773SOL     OW24217   2.844   6.546   0.311
 7773SOL    HW124218   2.868   6.634   0.272
 7773SOL    HW224219   2.910   6.521   0.382
 7774SOL     OW24220   4.908   1.271   2.657
 7774SOL    HW124221   4.937   1.366   2.647
 7774SOL    HW224222   4.857   1.243   2.575
 7775SOL     OW24223   2.636   2.219   1.157
 7775SOL    HW124224   2.705   2.216   1.085
 7775SOL    HW224225   2.583   2.303   1.148
 7776SOL     OW24226   2.183   1.452   4.616
 7776SOL    HW124227   2.173   1.443   4.715
 7776SOL    HW224228   2.095   1.437   4.572
 7777SOL     OW24229   6.105   6.092   3.646
 7777SOL    HW124230   6.012   6.072   3.615
 7777SOL    HW224231   6.131   6.029   3.719
 7778SOL     OW24232   6.744   4.775   2.628
 7778SOL    HW124233   6.764   4.872   2.642
 7778SOL    HW224234   6.830   4.725   2.615
 7779SOL     OW24235   4.153   5.850   2.173
 7779SOL    HW124236   4.126   5.885   2.083
 7779SOL    HW224237   4.239   5.893   2.200
 7780SOL     OW24238   6.087   6.213   4.701
 7780SOL    HW124239   5.998   6.239   4.663
 7780SOL    HW224240   6.125   6.137   4.648
 7781SOL     OW24241   1.355   2.932   0.827
 7781SOL    HW124242   1.407   2.889   0.900
 7781SOL    HW224243   1.258   2.911   0.838
 7782SOL     OW24244   5.065   2.998   4.923
 7782SOL    HW124245   5.157   2.997   4.962
 7782SOL    HW224246   4.998   3.010   4.997
 7783SOL     OW24247   1.882   6.336   4.465
 7783SOL    HW124248   1.874   6.371   4.372
 7783SOL    HW224249   1.920   6.243   4.463
 7784SOL     OW24250   1.685   2.048   1.430
 7784SOL    HW124251   1.741   1.966   1.439
 7784SOL    HW224252   1.610   2.044   1.496
 7785SOL     OW24253   6.793   6.519   3.178
 7785SOL    HW124254   6.774   6.507   3.081
 7785SOL    HW224255   6.747   6.602   3.211
 7786SOL     OW24256   4.396   0.972   5.622
 7786SOL    HW124257   4.428   1.066   5.631
 7786SOL    HW224258   4.475   0.910   5.621
 7787SOL     OW24259   2.618   2.411   1.921
 7787SOL    HW124260   2.622   2.435   1.824
 7787SOL    HW224261   2.710   2.411   1.959
 7788SOL     OW24262   0.467   4.472   1.776
 7788SOL    HW124263   0.565   4.479   1.758
 7788SOL    HW224264   0.419   4.446   1.692
 7789SOL     OW24265   3.525   1.316   5.923
 7789SOL    HW124266   3.623   1.325   5.938
 7789SOL    HW224267   3.507   1.301   5.825
 7790SOL     OW24268   4.399   5.129   1.769
 7790SOL    HW124269   4.437   5.054   1.824
 7790SOL    HW224270   4.311   5.157   1.809
 7791SOL     OW24271   2.886   5.961   2.641
 7791SOL    HW124272   2.972   5.925   2.676
 7791SOL    HW224273   2.901   6.052   2.601
 7792SOL     OW24274   1.078   1.545   2.865
 7792SOL    HW124275   1.009   1.512   2.800
 7792SOL    HW224276   1.119   1.629   2.830
 7793SOL     OW24277   5.051   0.692   0.217
 7793SOL    HW124278   5.064   0.615   0.280
 7793SOL    HW224279   4.983   0.755   0.255
 7794SOL     OW24280   0.909   6.654   3.354
 7794SOL    HW124281   0.847   6.650   3.275
 7794SOL    HW224282   0.859   6.689   3.433
 7795SOL     OW24283   3.208   4.530   0.497
 7795SOL    HW124284   3.157   4.446   0.477
 7795SOL    HW224285   3.254   4.562   0.414
 7796SOL     OW24286   3.145   2.600   0.265
 7796SOL    HW124287   3.092   2.517   0.244
 7796SOL    HW224288   3.104   2.678   0.219
 7797SOL     OW24289   0.530   5.725   3.226
 7797SOL    HW124290   0.506   5.791   3.297
 7797SOL    HW224291   0.447   5.693   3.180
 7798SOL     OW24292   1.712   3.075   0.739
 7798SOL    HW124293   1.638   3.130   0.699
 7798SOL    HW224294   1.697   2.978   0.717
 7799SOL     OW24295   3.177   5.826   3.801
 7799SOL    HW124296   3.184   5.820   3.900
 7799SOL    HW224297   3.226   5.907   3.769
 7800SOL     OW24298   0.649   6.897   2.314
 7800SOL    HW124299   0.577   6.956   2.351
 7800SOL    HW224300   0.683   6.837   2.386
 7801SOL     OW24301   0.929   2.171   1.720
 7801SOL    HW124302   0.920   2.108   1.643
 7801SOL    HW224303   0.850   2.161   1.781
 7802SOL     OW24304   6.998   3.338   4.444
 7802SOL    HW124305   7.022   3.411   4.380
 7802SOL    HW224306   6.910   3.359   4.486
 7803SOL     OW24307   2.768   2.399   5.588
 7803SOL    HW124308   2.752   2.300   5.584
 7803SOL    HW224309   2.796   2.425   5.680
 7804SOL     OW24310   3.536   1.792   5.144
 7804SOL    HW124311   3.574   1.699   5.141
 7804SOL    HW224312   3.480   1.806   5.062
 7805SOL     OW24313   5.345   2.723   0.102
 7805SOL    HW124314   5.269   2.747   0.162
 7805SOL    HW224315   5.372   2.804   0.049
 7806SOL     OW24316   6.978   1.478   6.229
 7806SOL    HW124317   0.032   1.505   6.288
 7806SOL    HW224318   6.911   1.552   6.227
 7807SOL     OW24319   2.312   5.214   6.024
 7807SOL    HW124320   2.304   5.115   6.015
 7807SOL    HW224321   2.380   5.236   6.094
 7808SOL     OW24322   6.821   3.779   3.562
 7808SOL    HW124323   6.878   3.698   3.579
 7808SOL    HW224324   6.824   3.802   3.465
 7809SOL     OW24325   4.930   5.895   2.178
 7809SOL    HW124326   4.989   5.897   2.259
 7809SOL    HW224327   4.975   5.943   2.103
 7810SOL     OW24328   2.648   6.499   5.995
 7810SOL    HW124329   2.594   6.446   5.931
 7810SOL    HW224330   2.633   6.597   5.980
 7811SOL     OW24331   1.710   5.623   2.898
 7811SOL    HW124332   1.793   5.671   2.871
 7811SOL    HW224333   1.630   5.667   2.856
 7812SOL     OW24334   3.287   0.782   5.920
 7812SOL    HW124335   3.247   0.798   6.010
 7812SOL    HW224336   3.218   0.795   5.849
 7813SOL     OW24337   5.397   0.256   0.769
 7813SOL    HW124338   5.441   0.216   0.688
 7813SOL    HW224339   5.301   0.275   0.749
 7814SOL     OW24340   6.244   2.700   2.459
 7814SOL    HW124341   6.226   2.610   2.420
 7814SOL    HW224342   6.282   2.760   2.388
 7815SOL     OW24343   5.175   5.360   4.872
 7815SOL    HW124344   5.097   5.301   4.850
 7815SOL    HW224345   5.260   5.313   4.848
 7816SOL     OW24346   0.502   1.212   5.498
 7816SOL    HW124347   0.562   1.248   5.569
 7816SOL    HW224348   0.545   1.223   5.409
 7817SOL     OW24349   3.956   2.701   0.203
 7817SOL    HW124350   4.003   2.736   0.122
 7817SOL    HW224351   4.014   2.632   0.247
 7818SOL     OW24352   5.952   0.760   3.401
 7818SOL    HW124353   6.050   0.744   3.390
 7818SOL    HW224354   5.933   0.857   3.382
 7819SOL     OW24355   1.412   3.225   4.891
 7819SOL    HW124356   1.495   3.178   4.860
 7819SOL    HW224357   1.380   3.182   4.976
 7820SOL     OW24358   1.144   0.963   5.254
 7820SOL    HW124359   1.238   0.985   5.282
 7820SOL    HW224360   1.126   0.866   5.270
 7821SOL     OW24361   3.721   6.253   6.693
 7821SOL    HW124362   3.770   6.214   6.615
 7821SOL    HW224363   3.787   6.296   6.756
 7822SOL     OW24364   7.016   1.042   4.879
 7822SOL    HW124365   0.068   0.997   4.832
 7822SOL    HW224366   0.019   1.134   4.907
 7823SOL     OW24367   2.711   3.462   5.347
 7823SOL    HW124368   2.688   3.365   5.352
 7823SOL    HW224369   2.630   3.517   5.370
 7824SOL     OW24370   5.056   3.865   2.765
 7824SOL    HW124371   5.070   3.960   2.793
 7824SOL    HW224372   5.024   3.812   2.843
 7825SOL     OW24373   3.437   3.198   2.499
 7825SOL    HW124374   3.509   3.221   2.565
 7825SOL    HW224375   3.443   3.101   2.475
 7826SOL     OW24376   0.053   0.573   1.170
 7826SOL    HW124377   6.997   0.631   1.190
 7826SOL    HW224378   0.029   0.477   1.184
 7827SOL     OW24379   4.379   3.619   0.668
 7827SOL    HW124380   4.289   3.579   0.651
 7827SOL    HW224381   4.434   3.614   0.585
 7828SOL     OW24382   0.098   5.992   0.769
 7828SOL    HW124383   0.073   5.957   0.859
 7828SOL    HW224384   0.153   5.923   0.721
 7829SOL     OW24385   4.069   3.314   3.002
 7829SOL    HW124386   4.076   3.266   3.089
 7829SOL    HW224387   4.118   3.262   2.932
 7830SOL     OW24388   5.520   3.611   0.185
 7830SOL    HW124389   5.604   3.612   0.130
 7830SOL    HW224390   5.441   3.628   0.127
 7831SOL     OW24391   1.885   2.737   6.655
 7831SOL    HW124392   1.882   2.681   6.572
 7831SOL    HW224393   1.957   2.703   6.716
 7832SOL     OW24394   2.831   2.390   5.324
 7832SOL    HW124395   2.783   2.422   5.242
 7832SOL    HW224396   2.781   2.420   5.406
 7833SOL     OW24397   0.756   0.070   1.221
 7833SOL    HW124398   0.661   0.098   1.203
 7833SOL    HW224399   0.805   0.146   1.263
 7834SOL     OW24400   6.563   0.439   1.594
 7834SOL    HW124401   6.531   0.455   1.688
 7834SOL    HW224402   6.491   0.463   1.530
 7835SOL     OW24403   2.633   2.078   4.258
 7835SOL    HW124404   2.717   2.027   4.273
 7835SOL    HW224405   2.600   2.061   4.165
 7836SOL     OW24406   2.324   0.441   6.801
 7836SOL    HW124407   2.264   0.376   6.848
 7836SOL    HW224408   2.338   0.412   6.707
 7837SOL     OW24409   4.689   6.211   2.761
 7837SOL    HW124410   4.623   6.154   2.712
 7837SOL    HW224411   4.754   6.250   2.696
 7838SOL     OW24412   3.336   6.303   4.106
 7838SOL    HW124413   3.408   6.372   4.097
 7838SOL    HW224414   3.271   6.314   4.031
 7839SOL     OW24415   0.080   4.496   3.719
 7839SOL    HW124416   0.008   4.506   3.650
 7839SOL    HW224417   0.157   4.554   3.696
 7840SOL     OW24418   5.113   3.067   5.792
 7840SOL    HW124419   5.098   3.000   5.718
 7840SOL    HW224420   5.195   3.120   5.772
 7841SOL     OW24421   1.847   1.837   6.182
 7841SOL    HW124422   1.762   1.851   6.233
 7841SOL    HW224423   1.915   1.904   6.213
 7842SOL     OW24424   2.667   0.842   1.963
 7842SOL    HW124425   2.659   0.835   2.063
 7842SOL    HW224426   2.748   0.897   1.940
 7843SOL     OW24427   6.965   3.361   1.053
 7843SOL    HW124428   6.958   3.375   1.152
 7843SOL    HW224429   7.015   3.277   1.035
 7844SOL     OW24430   3.592   1.019   4.254
 7844SOL    HW124431   3.647   1.101   4.239
 7844SOL    HW224432   3.539   0.998   4.172
 7845SOL     OW24433   1.076   1.313   3.865
 7845SOL    HW124434   1.046   1.408   3.874
 7845SOL    HW224435   1.065   1.284   3.770
 7846SOL     OW24436   3.604   6.587   1.897
 7846SOL    HW124437   3.559   6.567   1.810
 7846SOL    HW224438   3.679   6.523   1.911
 7847SOL     OW24439   0.022   0.476   0.482
 7847SOL    HW124440   0.118   0.497   0.499
 7847SOL    HW224441   7.022   0.388   0.523
 7848SOL     OW24442   4.227   4.210   0.908
 7848SOL    HW124443   4.207   4.196   0.811
 7848SOL    HW224444   4.290   4.139   0.939
 7849SOL     OW24445   5.684   3.940   5.198
 7849SOL    HW124446   5.677   3.840   5.193
 7849SOL    HW224447   5.776   3.966   5.227
 7850SOL     OW24448   0.654   1.669   4.113
 7850SOL    HW124449   0.559   1.642   4.129
 7850SOL    HW224450   0.715   1.604   4.157
 7851SOL     OW24451   4.582   6.545   0.707
 7851SOL    HW124452   4.629   6.458   0.725
 7851SOL    HW224453   4.511   6.559   0.777
 7852SOL     OW24454   1.617   0.026   6.868
 7852SOL    HW124455   1.684   0.012   6.941
 7852SOL    HW224456   1.577   6.962   6.843
 7853SOL     OW24457   1.997   2.703   0.457
 7853SOL    HW124458   1.935   2.773   0.419
 7853SOL    HW224459   1.953   2.614   0.452
 7854SOL     OW24460   3.606   4.060   2.855
 7854SOL    HW124461   3.583   4.155   2.832
 7854SOL    HW224462   3.525   4.002   2.843
 7855SOL     OW24463   3.755   0.012   5.315
 7855SOL    HW124464   3.729   0.091   5.370
 7855SOL    HW224465   3.834   6.990   5.357
 7856SOL     OW24466   4.044   3.674   6.309
 7856SOL    HW124467   3.983   3.601   6.339
 7856SOL    HW224468   4.068   3.732   6.387
 7857SOL     OW24469   0.699   2.129   4.605
 7857SOL    HW124470   0.778   2.151   4.662
 7857SOL    HW224471   0.616   2.127   4.661
 7858SOL     OW24472   5.970   4.108   2.945
 7858SOL    HW124473   5.970   4.176   3.019
 7858SOL    HW224474   6.057   4.112   2.896
 7859SOL     OW24475   0.936   5.647   6.887
 7859SOL    HW124476   1.026   5.640   6.930
 7859SOL    HW224477   0.896   5.737   6.907
 7860SOL     OW24478   3.640   0.161   2.018
 7860SOL    HW124479   3.595   0.209   2.094
 7860SOL    HW224480   3.733   0.195   2.007
 7861SOL     OW24481   5.366   4.084   0.617
 7861SOL    HW124482   5.394   4.180   0.607
 7861SOL    HW224483   5.445   4.025   0.600
 7862SOL     OW24484   2.983   4.449   1.600
 7862SOL    HW124485   2.947   4.474   1.689
 7862SOL    HW224486   2.911   4.459   1.531
 7863SOL     OW24487   6.009   5.658   2.844
 7863SOL    HW124488   5.925   5.711   2.843
 7863SOL    HW224489   6.054   5.666   2.754
 7864SOL     OW24490   0.698   5.606   4.265
 7864SOL    HW124491   0.626   5.537   4.258
 7864SOL    HW224492   0.693   5.651   4.355
 7865SOL     OW24493   3.722   1.081   2.873
 7865SOL    HW124494   3.759   1.012   2.811
 7865SOL    HW224495   3.724   1.171   2.829
 7866SOL     OW24496   2.541   2.083   3.984
 7866SOL    HW124497   2.476   2.157   3.970
 7866SOL    HW224498   2.493   1.996   3.986
 7867SOL     OW24499   5.584   3.907   2.107
 7867SOL    HW124500   5.531   3.983   2.144
 7867SOL    HW224501   5.528   3.854   2.044
 7868SOL     OW24502   5.563   0.072   0.932
 7868SOL    HW124503   5.477   0.026   0.953
 7868SOL    HW224504   5.560   0.107   0.839
 7869SOL     OW24505   6.606   1.942   3.883
 7869SOL    HW124506   6.508   1.939   3.866
 7869SOL    HW224507   6.655   1.913   3.800
 7870SOL     OW24508   0.088   6.867   3.252
 7870SOL    HW124509   0.113   6.771   3.245
 7870SOL    HW224510   7.015   6.879   3.228
 7871SOL     OW24511   5.364   3.105   4.194
 7871SOL    HW124512   5.277   3.154   4.185
 7871SOL    HW224513   5.425   3.157   4.254
 7872SOL     OW24514   6.612   3.295   4.172
 7872SOL    HW124515   6.693   3.343   4.137
 7872SOL    HW224516   6.575   3.236   4.101
 7873SOL     OW24517   6.766   5.372   5.041
 7873SOL    HW124518   6.710   5.290   5.029
 7873SOL    HW224519   6.770   5.396   5.138
 7874SOL     OW24520   6.128   1.459   0.598
 7874SOL    HW124521   6.162   1.436   0.689
 7874SOL    HW224522   6.135   1.558   0.584
 7875SOL     OW24523   4.475   3.254   0.149
 7875SOL    HW124524   4.473   3.207   0.061
 7875SOL    HW224525   4.569   3.280   0.171
 7876SOL     OW24526   6.846   0.804   4.790
 7876SOL    HW124527   6.871   0.895   4.824
 7876SOL    HW224528   6.770   0.768   4.844
 7877SOL     OW24529   6.315   2.317   2.549
 7877SOL    HW124530   6.237   2.270   2.591
 7877SOL    HW224531   6.284   2.370   2.471
 7878SOL     OW24532   4.590   4.347   1.145
 7878SOL    HW124533   4.568   4.444   1.132
 7878SOL    HW224534   4.609   4.329   1.242
 7879SOL     OW24535   5.519   0.662   5.104
 7879SOL    HW124536   5.431   0.708   5.106
 7879SOL    HW224537   5.591   0.728   5.082
 7880SOL     OW24538   0.963   6.782   6.345
 7880SOL    HW124539   1.027   6.706   6.346
 7880SOL    HW224540   0.877   6.754   6.388
 7881SOL     OW24541   0.829   5.010   3.429
 7881SOL    HW124542   0.730   5.004   3.420
 7881SOL    HW224543   0.855   5.001   3.525
 7882SOL     OW24544   0.657   4.053   1.749
 7882SOL    HW124545   0.731   4.087   1.692
 7882SOL    HW224546   0.694   4.016   1.834
 7883SOL     OW24547   3.585   2.141   3.180
 7883SOL    HW124548   3.606   2.070   3.248
 7883SOL    HW224549   3.669   2.171   3.136
 7884SOL     OW24550   0.785   3.705   4.355
 7884SOL    HW124551   0.837   3.784   4.323
 7884SOL    HW224552   0.805   3.626   4.297
 7885SOL     OW24553   5.759   5.235   3.109
 7885SOL    HW124554   5.758   5.303   3.182
 7885SOL    HW224555   5.736   5.278   3.022
 7886SOL     OW24556   5.053   3.332   2.954
 7886SOL    HW124557   5.019   3.410   3.007
 7886SOL    HW224558   5.113   3.276   3.011
 7887SOL     OW24559   2.214   2.443   1.705
 7887SOL    HW124560   2.181   2.526   1.660
 7887SOL    HW224561   2.210   2.455   1.804
 7888SOL     OW24562   6.250   0.794   4.857
 7888SOL    HW124563   6.158   0.787   4.818
 7888SOL    HW224564   6.257   0.878   4.911
 7889SOL     OW24565   5.484   5.180   6.814
 7889SOL    HW124566   5.451   5.201   6.907
 7889SOL    HW224567   5.549   5.250   6.785
 7890SOL     OW24568   2.096   3.121   4.076
 7890SOL    HW124569   2.039   3.111   4.158
 7890SOL    HW224570   2.148   3.036   4.061
 7891SOL     OW24571   6.236   1.654   4.386
 7891SOL    HW124572   6.189   1.579   4.433
 7891SOL    HW224573   6.299   1.699   4.450
 7892SOL     OW24574   0.796   1.685   5.106
 7892SOL    HW124575   0.790   1.740   5.023
 7892SOL    HW224576   0.846   1.600   5.087
 7893SOL     OW24577   5.351   0.470   0.156
 7893SOL    HW124578   5.261   0.425   0.155
 7893SOL    HW224579   5.345   0.557   0.108
 7894SOL     OW24580   3.385   1.496   6.240
 7894SOL    HW124581   3.348   1.448   6.160
 7894SOL    HW224582   3.359   1.447   6.323
 7895SOL     OW24583   6.013   6.933   3.016
 7895SOL    HW124584   6.079   6.867   2.980
 7895SOL    HW224585   6.014   6.929   3.116
 7896SOL     OW24586   2.501   2.391   0.362
 7896SOL    HW124587   2.464   2.477   0.327
 7896SOL    HW224588   2.427   2.326   0.375
 7897SOL     OW24589   3.260   2.639   0.776
 7897SOL    HW124590   3.171   2.670   0.809
 7897SOL    HW224591   3.254   2.617   0.679
 7898SOL     OW24592   5.468   6.412   3.435
 7898SOL    HW124593   5.443   6.341   3.369
 7898SOL    HW224594   5.385   6.442   3.483
 7899SOL     OW24595   6.189   4.186   4.161
 7899SOL    HW124596   6.178   4.087   4.161
 7899SOL    HW224597   6.285   4.210   4.176
 7900SOL     OW24598   0.879   3.682   0.979
 7900SOL    HW124599   0.938   3.607   1.009
 7900SOL    HW224600   0.931   3.745   0.921
 7901SOL     OW24601   0.736   1.671   6.730
 7901SOL    HW124602   0.759   1.578   6.699
 7901SOL    HW224603   0.671   1.665   6.806
 7902SOL     OW24604   1.348   6.982   2.622
 7902SOL    HW124605   1.289   0.020   2.673
 7902SOL    HW224606   1.406   6.931   2.686
 7903SOL     OW24607   2.401   1.813   5.013
 7903SOL    HW124608   2.330   1.870   5.054
 7903SOL    HW224609   2.476   1.871   4.982
 7904SOL     OW24610   4.627   1.590   2.610
 7904SOL    HW124611   4.645   1.524   2.537
 7904SOL    HW224612   4.536   1.575   2.648
 7905SOL     OW24613   5.264   1.369   0.796
 7905SOL    HW124614   5.267   1.466   0.819
 7905SOL    HW224615   5.184   1.327   0.837
 7906SOL     OW24616   1.281   5.090   0.431
 7906SOL    HW124617   1.197   5.113   0.381
 7906SOL    HW224618   1.360   5.131   0.385
 7907SOL     OW24619   5.764   6.285   2.603
 7907SOL    HW124620   5.666   6.297   2.589
 7907SOL    HW224621   5.784   6.274   2.700
 7908SOL     OW24622   1.053   0.016   6.346
 7908SOL    HW124623   1.148   7.023   6.322
 7908SOL    HW224624   1.006   6.952   6.360
 7909SOL     OW24625   5.411   4.114   2.156
 7909SOL    HW124626   5.318   4.149   2.143
 7909SOL    HW224627   5.454   4.161   2.233
 7910SOL     OW24628   0.784   3.723   6.631
 7910SOL    HW124629   0.717   3.698   6.701
 7910SOL    HW224630   0.764   3.815   6.598
 7911SOL     OW24631   6.972   4.661   6.265
 7911SOL    HW124632   6.955   4.694   6.173
 7911SOL    HW224633   6.894   4.604   6.295
 7912SOL     OW24634   6.197   5.187   1.093
 7912SOL    HW124635   6.281   5.163   1.141
 7912SOL    HW224636   6.183   5.286   1.097
 7913SOL     OW24637   1.144   4.860   0.572
 7913SOL    HW124638   1.202   4.939   0.552
 7913SOL    HW224639   1.117   4.816   0.486
 7914SOL     OW24640   0.607   6.981   5.244
 7914SOL    HW124641   0.663   6.968   5.163
 7914SOL    HW224642   0.563   6.894   5.269
 7915SOL     OW24643   3.348   5.371   3.006
 7915SOL    HW124644   3.408   5.441   3.045
 7915SOL    HW224645   3.314   5.403   2.917
 7916SOL     OW24646   1.177   0.285   4.413
 7916SOL    HW124647   1.091   0.334   4.398
 7916SOL    HW224648   1.163   0.187   4.395
 7917SOL     OW24649   4.140   2.359   1.206
 7917SOL    HW124650   4.199   2.286   1.239
 7917SOL    HW224651   4.195   2.428   1.160
 7918SOL     OW24652   2.067   2.254   3.720
 7918SOL    HW124653   2.062   2.352   3.703
 7918SOL    HW224654   2.096   2.207   3.637
 7919SOL     OW24655   1.689   6.167   5.296
 7919SOL    HW124656   1.749   6.090   5.275
 7919SOL    HW224657   1.658   6.209   5.210
 7920SOL     OW24658   4.982   0.280   0.990
 7920SOL    HW124659   4.995   0.244   1.082
 7920SOL    HW224660   4.895   0.247   0.953
 7921SOL     OW24661   5.635   2.515   1.316
 7921SOL    HW124662   5.538   2.500   1.335
 7921SOL    HW224663   5.679   2.555   1.396
 7922SOL     OW24664   2.678   6.603   1.625
 7922SOL    HW124665   2.682   6.676   1.557
 7922SOL    HW224666   2.734   6.628   1.704
 7923SOL     OW24667   5.120   1.208   6.981
 7923SOL    HW124668   5.100   1.306   6.982
 7923SOL    HW224669   5.143   1.179   6.888
 7924SOL     OW24670   6.238   6.192   0.335
 7924SOL    HW124671   6.274   6.118   0.278
 7924SOL    HW224672   6.246   6.168   0.431
 7925SOL     OW24673   1.766   5.297   6.765
 7925SOL    HW124674   1.720   5.241   6.834
 7925SOL    HW224675   1.800   5.238   6.691
 7926SOL     OW24676   4.948   5.758   0.168
 7926SOL    HW124677   5.032   5.752   0.115
 7926SOL    HW224678   4.954   5.835   0.232
 7927SOL     OW24679   4.292   6.922   2.202
 7927SOL    HW124680   4.205   6.954   2.166
 7927SOL    HW224681   4.275   6.861   2.280
 7928SOL     OW24682   5.580   2.004   3.286
 7928SOL    HW124683   5.509   2.072   3.304
 7928SOL    HW224684   5.656   2.046   3.237
 7929SOL     OW24685   4.422   4.542   6.375
 7929SOL    HW124686   4.499   4.577   6.428
 7929SOL    HW224687   4.374   4.472   6.428
 7930SOL     OW24688   4.150   6.118   6.735
 7930SOL    HW124689   4.222   6.053   6.710
 7930SOL    HW224690   4.145   6.191   6.667
 7931SOL     OW24691   4.324   2.208   0.989
 7931SOL    HW124692   4.369   2.175   1.073
 7931SOL    HW224693   4.288   2.300   1.004
 7932SOL     OW24694   1.521   3.835   1.872
 7932SOL    HW124695   1.548   3.751   1.919
 7932SOL    HW224696   1.421   3.839   1.866
 7933SOL     OW24697   0.837   1.780   0.249
 7933SOL    HW124698   0.808   1.736   0.334
 7933SOL    HW224699   0.936   1.767   0.238
 7934SOL     OW24700   0.753   5.785   1.161
 7934SOL    HW124701   0.825   5.751   1.221
 7934SOL    HW224702   0.665   5.781   1.208
 7935SOL     OW24703   5.420   2.844   3.081
 7935SOL    HW124704   5.370   2.819   2.999
 7935SOL    HW224705   5.516   2.817   3.072
 7936SOL     OW24706   3.145   5.897   3.492
 7936SOL    HW124707   3.097   5.830   3.549
 7936SOL    HW224708   3.112   5.890   3.398
 7937SOL     OW24709   3.293   0.973   6.947
 7937SOL    HW124710   3.322   1.066   6.928
 7937SOL    HW224711   3.194   0.972   6.963
 7938SOL     OW24712   2.744   6.543   3.956
 7938SOL    HW124713   2.682   6.591   3.894
 7938SOL    HW224714   2.700   6.460   3.991
 7939SOL     OW24715   0.498   1.212   3.414
 7939SOL    HW124716   0.580   1.220   3.470
 7939SOL    HW224717   0.501   1.280   3.341
 7940SOL     OW24718   5.448   1.434   4.119
 7940SOL    HW124719   5.385   1.446   4.042
 7940SOL    HW224720   5.468   1.524   4.160
 7941SOL     OW24721   3.689   0.318   0.690
 7941SOL    HW124722   3.709   0.301   0.786
 7941SOL    HW224723   3.772   0.308   0.636
 7942SOL     OW24724   1.119   4.763   0.256
 7942SOL    HW124725   1.080   4.825   0.187
 7942SOL    HW224726   1.209   4.733   0.225
 7943SOL     OW24727   1.413   5.981   6.026
 7943SOL    HW124728   1.486   6.044   5.998
 7943SOL    HW224729   1.348   6.029   6.084
 7944SOL     OW24730   1.371   2.808   1.743
 7944SOL    HW124731   1.389   2.725   1.796
 7944SOL    HW224732   1.280   2.801   1.700
 7945SOL     OW24733   6.154   4.206   3.667
 7945SOL    HW124734   6.185   4.218   3.761
 7945SOL    HW224735   6.181   4.115   3.634
 7946SOL     OW24736   4.203   1.041   6.460
 7946SOL    HW124737   4.298   1.010   6.465
 7946SOL    HW224738   4.161   1.005   6.377
 7947SOL     OW24739   0.073   3.991   6.598
 7947SOL    HW124740   0.040   3.947   6.682
 7947SOL    HW224741   0.081   3.922   6.526
 7948SOL     OW24742   1.891   5.459   3.077
 7948SOL    HW124743   1.947   5.450   2.995
 7948SOL    HW224744   1.807   5.509   3.055
 7949SOL     OW24745   3.226   6.054   6.457
 7949SOL    HW124746   3.219   6.102   6.370
 7949SOL    HW224747   3.209   5.956   6.442
 7950SOL     OW24748   5.928   4.331   5.463
 7950SOL    HW124749   5.844   4.345   5.516
 7950SOL    HW224750   6.001   4.298   5.523
 7951SOL     OW24751   3.994   5.906   2.400
 7951SOL    HW124752   4.047   5.889   2.317
 7951SOL    HW224753   3.994   5.824   2.457
 7952SOL     OW24754   6.328   4.586   6.323
 7952SOL    HW124755   6.353   4.584   6.420
 7952SOL    HW224756   6.389   4.648   6.274
 7953SOL     OW24757   1.934   6.592   0.459
 7953SOL    HW124758   2.010   6.571   0.521
 7953SOL    HW224759   1.849   6.558   0.499
 7954SOL     OW24760   4.235   4.228   6.816
 7954SOL    HW124761   4.139   4.231   6.787
 7954SOL    HW224762   4.258   4.135   6.844
 7955SOL     OW24763   1.983   1.636   6.486
 7955SOL    HW124764   1.904   1.695   6.502
 7955SOL    HW224765   1.953   1.550   6.443
 7956SOL     OW24766   6.647   6.177   0.483
 7956SOL    HW124767   6.697   6.239   0.544
 7956SOL    HW224768   6.711   6.113   0.441
 7957SOL     OW24769   4.637   1.121   5.891
 7957SOL    HW124770   4.688   1.164   5.965
 7957SOL    HW224771   4.655   1.022   5.890
 7958SOL     OW24772   5.904   2.589   0.299
 7958SOL    HW124773   5.839   2.530   0.347
 7958SOL    HW224774   5.969   2.532   0.248
 7959SOL     OW24775   6.187   1.953   0.189
 7959SOL    HW124776   6.093   1.984   0.202
 7959SOL    HW224777   6.224   1.991   0.104
 7960SOL     OW24778   0.959   1.177   5.271
 7960SOL    HW124779   1.021   1.098   5.275
 7960SOL    HW224780   0.870   1.151   5.309
 7961SOL     OW24781   6.273   6.457   0.376
 7961SOL    HW124782   6.243   6.363   0.357
 7961SOL    HW224783   6.196   6.520   0.360
 7962SOL     OW24784   5.850   6.556   5.338
 7962SOL    HW124785   5.789   6.631   5.314
 7962SOL    HW224786   5.945   6.588   5.336
 7963SOL     OW24787   6.346   6.954   4.083
 7963SOL    HW124788   6.403   7.019   4.033
 7963SOL    HW224789   6.387   6.863   4.077
 7964SOL     OW24790   6.419   4.225   1.876
 7964SOL    HW124791   6.501   4.248   1.824
 7964SOL    HW224792   6.363   4.162   1.823
 7965SOL     OW24793   4.131   2.729   6.281
 7965SOL    HW124794   4.114   2.808   6.222
 7965SOL    HW224795   4.044   2.687   6.307
 7966SOL     OW24796   4.930   3.656   4.798
 7966SOL    HW124797   5.024   3.663   4.832
 7966SOL    HW224798   4.867   3.672   4.873
 7967SOL     OW24799   1.527   4.532   1.288
 7967SOL    HW124800   1.626   4.538   1.307
 7967SOL    HW224801   1.477   4.529   1.375
 7968SOL     OW24802   0.050   2.584   4.993
 7968SOL    HW124803   6.992   2.567   5.049
 7968SOL    HW224804   0.111   2.645   5.042
 7969SOL     OW24805   3.697   5.646   6.693
 7969SOL    HW124806   3.727   5.689   6.607
 7969SOL    HW224807   3.629   5.576   6.673
 7970SOL     OW24808   6.481   2.779   3.699
 7970SOL    HW124809   6.493   2.853   3.632
 7970SOL    HW224810   6.571   2.746   3.727
 7971SOL     OW24811   2.688   1.420   6.962
 7971SOL    HW124812   2.763   1.458   7.016
 7971SOL    HW224813   2.608   1.408   7.021
 7972SOL     OW24814   3.836   4.065   4.023
 7972SOL    HW124815   3.920   4.024   4.057
 7972SOL    HW224816   3.786   4.106   4.099
 7973SOL     OW24817   5.887   4.250   2.486
 7973SOL    HW124818   5.804   4.227   2.536
 7973SOL    HW224819   5.937   4.167   2.464
 7974SOL     OW24820   0.160   2.995   5.690
 7974SOL    HW124821   0.125   3.007   5.783
 7974SOL    HW224822   0.249   2.950   5.693
 7975SOL     OW24823   5.568   0.241   1.185
 7975SOL    HW124824   5.559   0.162   1.124
 7975SOL    HW224825   5.650   0.292   1.161
 7976SOL     OW24826   0.778   0.679   0.994
 7976SOL    HW124827   0.688   0.714   1.019
 7976SOL    HW224828   0.828   0.749   0.943
 7977SOL     OW24829   5.507   6.100   4.104
 7977SOL    HW124830   5.483   6.061   4.193
 7977SOL    HW224831   5.605   6.090   4.089
 7978SOL     OW24832   0.368   4.476   1.539
 7978SOL    HW124833   0.277   4.506   1.510
 7978SOL    HW224834   0.405   4.412   1.472
 7979SOL     OW24835   1.911   2.104   4.603
 7979SOL    HW124836   1.843   2.091   4.675
 7979SOL    HW224837   1.909   2.199   4.572
 7980SOL     OW24838   3.916   5.581   0.556
 7980SOL    HW124839   3.966   5.662   0.525
 7980SOL    HW224840   3.937   5.564   0.652
 7981SOL     OW24841   1.511   4.463   3.917
 7981SOL    HW124842   1.480   4.484   3.824
 7981SOL    HW224843   1.595   4.408   3.912
 7982SOL     OW24844   6.602   0.851   5.848
 7982SOL    HW124845   6.693   0.813   5.834
 7982SOL    HW224846   6.557   0.865   5.760
 7983SOL     OW24847   4.715   0.886   1.620
 7983SOL    HW124848   4.699   0.924   1.712
 7983SOL    HW224849   4.640   0.825   1.596
 7984SOL     OW24850   0.377   2.315   2.676
 7984SOL    HW124851   0.293   2.289   2.724
 7984SOL    HW224852   0.398   2.411   2.693
 7985SOL     OW24853   2.872   3.158   5.381
 7985SOL    HW124854   2.917   3.105   5.453
 7985SOL    HW224855   2.785   3.194   5.415
 7986SOL     OW24856   3.816   0.832   4.206
 7986SOL    HW124857   3.734   0.874   4.244
 7986SOL    HW224858   3.792   0.781   4.123
 7987SOL     OW24859   0.827   3.544   0.206
 7987SOL    HW124860   0.845   3.456   0.251
 7987SOL    HW224861   0.786   3.528   0.116
 7988SOL     OW24862   6.569   1.154   2.204
 7988SOL    HW124863   6.479   1.197   2.215
 7988SOL    HW224864   6.578   1.120   2.111
 7989SOL     OW24865   0.330   4.410   0.976
 7989SOL    HW124866   0.281   4.349   1.039
 7989SOL    HW224867   0.296   4.396   0.883
 7990SOL     OW24868   4.604   5.914   5.381
 7990SOL    HW124869   4.548   5.940   5.460
 7990SOL    HW224870   4.675   5.850   5.411
 7991SOL     OW24871   5.945   0.867   5.135
 7991SOL    HW124872   5.985   0.957   5.150
 7991SOL    HW224873   5.941   0.817   5.222
 7992SOL     OW24874   2.526   6.794   0.007
 7992SOL    HW124875   2.555   6.708   0.049
 7992SOL    HW224876   2.496   6.858   0.077
 7993SOL     OW24877   6.169   5.711   0.610
 7993SOL    HW124878   6.093   5.764   0.571
 7993SOL    HW224879   6.166   5.617   0.575
 7994SOL     OW24880   6.218   0.263   4.053
 7994SOL    HW124881   6.245   0.276   3.957
 7994SOL    HW224882   6.230   0.166   4.077
 7995SOL     OW24883   0.644   4.675   1.303
 7995SOL    HW124884   0.663   4.606   1.233
 7995SOL    HW224885   0.555   4.718   1.284
 7996SOL     OW24886   2.991   6.602   3.399
 7996SOL    HW124887   3.088   6.600   3.374
 7996SOL    HW224888   2.938   6.646   3.327
 7997SOL     OW24889   1.877   1.562   6.150
 7997SOL    HW124890   1.835   1.651   6.135
 7997SOL    HW224891   1.849   1.526   6.239
 7998SOL     OW24892   2.509   0.944   0.381
 7998SOL    HW124893   2.534   1.021   0.440
 7998SOL    HW224894   2.496   0.976   0.288
 7999SOL     OW24895   1.324   0.390   4.668
 7999SOL    HW124896   1.286   0.312   4.620
 7999SOL    HW224897   1.384   0.442   4.606
 8000SOL     OW24898   3.944   5.439   0.332
 8000SOL    HW124899   3.926   5.502   0.407
 8000SOL    HW224900   3.880   5.363   0.336
 8001SOL     OW24901   4.408   5.228   1.187
 8001SOL    HW124902   4.333   5.177   1.228
 8001SOL    HW224903   4.412   5.319   1.227
 8002SOL     OW24904   1.167   0.293   5.353
 8002SOL    HW124905   1.130   0.203   5.373
 8002SOL    HW224906   1.119   0.361   5.409
 8003SOL     OW24907   2.284   5.782   2.175
 8003SOL    HW124908   2.339   5.855   2.133
 8003SOL    HW224909   2.226   5.740   2.105
 8004SOL     OW24910   1.069   3.125   3.628
 8004SOL    HW124911   1.008   3.055   3.665
 8004SOL    HW224912   1.050   3.139   3.531
 8005SOL     OW24913   2.359   0.709   3.120
 8005SOL    HW124914   2.366   0.623   3.171
 8005SOL    HW224915   2.272   0.710   3.070
 8006SOL     OW24916   3.853   4.612   5.431
 8006SOL    HW124917   3.838   4.525   5.386
 8006SOL    HW224918   3.767   4.645   5.470
 8007SOL     OW24919   6.881   0.667   0.575
 8007SOL    HW124920   6.936   0.594   0.535
 8007SOL    HW224921   6.908   0.755   0.536
 8008SOL     OW24922   4.933   6.327   0.297
 8008SOL    HW124923   4.909   6.398   0.363
 8008SOL    HW224924   4.872   6.332   0.218
 8009SOL     OW24925   5.723   0.889   6.779
 8009SOL    HW124926   5.687   0.914   6.869
 8009SOL    HW224927   5.773   0.803   6.786
 8010SOL     OW24928   2.957   0.148   5.661
 8010SOL    HW124929   3.056   0.157   5.648
 8010SOL    HW224930   2.917   0.239   5.674
 8011SOL     OW24931   3.885   2.080   3.183
 8011SOL    HW124932   3.982   2.075   3.159
 8011SOL    HW224933   3.876   2.076   3.282
 8012SOL     OW24934   5.856   1.641   4.741
 8012SOL    HW124935   5.801   1.622   4.822
 8012SOL    HW224936   5.797   1.681   4.670
 8013SOL     OW24937   3.387   1.344   2.229
 8013SOL    HW124938   3.418   1.412   2.163
 8013SOL    HW224939   3.304   1.299   2.194
 8014SOL     OW24940   2.042   2.508   2.653
 8014SOL    HW124941   2.075   2.443   2.721
 8014SOL    HW224942   2.103   2.509   2.575
 8015SOL     OW24943   3.372   6.929   4.925
 8015SOL    HW124944   3.404   6.999   4.861
 8015SOL    HW224945   3.300   6.875   4.882
 8016SOL     OW24946   3.565   2.136   5.128
 8016SOL    HW124947   3.541   2.212   5.188
 8016SOL    HW224948   3.654   2.152   5.087
 8017SOL     OW24949   6.692   5.726   0.837
 8017SOL    HW124950   6.604   5.747   0.880
 8017SOL    HW224951   6.765   5.770   0.889
 8018SOL     OW24952   4.245   2.199   6.647
 8018SOL    HW124953   4.245   2.099   6.642
 8018SOL    HW224954   4.260   2.227   6.741
 8019SOL     OW24955   2.718   3.434   0.770
 8019SOL    HW124956   2.813   3.437   0.802
 8019SOL    HW224957   2.696   3.340   0.740
 8020SOL     OW24958   0.873   0.809   5.686
 8020SOL    HW124959   0.932   0.763   5.620
 8020SOL    HW224960   0.926   0.878   5.736
 8021SOL     OW24961   1.143   2.641   0.954
 8021SOL    HW124962   1.211   2.641   1.027
 8021SOL    HW224963   1.179   2.590   0.876
 8022SOL     OW24964   4.487   1.138   1.638
 8022SOL    HW124965   4.534   1.117   1.553
 8022SOL    HW224966   4.398   1.093   1.639
 8023SOL     OW24967   4.813   6.258   1.612
 8023SOL    HW124968   4.802   6.216   1.522
 8023SOL    HW224969   4.860   6.346   1.602
 8024SOL     OW24970   2.498   1.329   6.564
 8024SOL    HW124971   2.453   1.245   6.534
 8024SOL    HW224972   2.502   1.394   6.487
 8025SOL     OW24973   1.372   6.012   1.886
 8025SOL    HW124974   1.279   5.992   1.918
 8025SOL    HW224975   1.436   6.001   1.961
 8026SOL     OW24976   0.372   6.101   6.248
 8026SOL    HW124977   0.403   6.177   6.304
 8026SOL    HW224978   0.380   6.016   6.300
 8027SOL     OW24979   3.767   0.571   6.983
 8027SOL    HW124980   3.730   0.664   6.977
 8027SOL    HW224981   3.717   0.511   6.920
 8028SOL     OW24982   3.207   5.716   5.110
 8028SOL    HW124983   3.156   5.634   5.084
 8028SOL    HW224984   3.152   5.797   5.092
 8029SOL     OW24985   0.722   0.052   0.707
 8029SOL    HW124986   0.698   0.110   0.786
 8029SOL    HW224987   0.763   0.109   0.636
 8030SOL     OW24988   0.788   4.289   0.786
 8030SOL    HW124989   0.699   4.271   0.827
 8030SOL    HW224990   0.776   4.340   0.701
 8031SOL     OW24991   0.415   0.421   3.017
 8031SOL    HW124992   0.379   0.495   2.961
 8031SOL    HW224993   0.392   0.438   3.113
 8032SOL     OW24994   0.022   3.096   1.063
 8032SOL    HW124995   0.052   3.116   1.156
 8032SOL    HW224996   6.951   3.063   1.065
 8033SOL     OW24997   4.435   4.073   1.127
 8033SOL    HW124998   4.399   4.017   1.202
 8033SOL    HW224999   4.443   4.168   1.157
 8034SOL     OW25000   6.718   6.777   6.269
 8034SOL    HW125001   6.625   6.759   6.301
 8034SOL    HW225002   6.729   6.875   6.252
 8035SOL     OW25003   6.176   1.041   3.300
 8035SOL    HW125004   6.219   0.955   3.326
 8035SOL    HW225005   6.077   1.030   3.298
 8036SOL     OW25006   4.962   2.623   4.235
 8036SOL    HW125007   5.012   2.690   4.291
 8036SOL    HW225008   4.896   2.671   4.178
 8037SOL     OW25009   2.122   1.552   5.629
 8037SOL    HW125010   2.036   1.537   5.580
 8037SOL    HW225011   2.141   1.472   5.686
 8038SOL     OW25012   6.722   5.166   1.929
 8038SOL    HW125013   6.804   5.220   1.947
 8038SOL    HW225014   6.648   5.195   1.990
 8039SOL     OW25015   1.243   2.311   5.361
 8039SOL    HW125016   1.174   2.241   5.382
 8039SOL    HW225017   1.287   2.290   5.274
 8040SOL     OW25018   1.556   5.451   6.731
 8040SOL    HW125019   1.641   5.399   6.742
 8040SOL    HW225020   1.528   5.449   6.635
 8041SOL     OW25021   3.328   1.499   2.872
 8041SOL    HW125022   3.406   1.510   2.811
 8041SOL    HW225023   3.272   1.582   2.871
 8042SOL     OW25024   4.123   3.590   5.916
 8042SOL    HW125025   4.115   3.670   5.976
 8042SOL    HW225026   4.042   3.584   5.857
 8043SOL     OW25027   5.435   5.672   6.771
 8043SOL    HW125028   5.470   5.579   6.764
 8043SOL    HW225029   5.498   5.728   6.824
 8044SOL     OW25030   2.626   3.686   1.713
 8044SOL    HW125031   2.550   3.627   1.740
 8044SOL    HW225032   2.704   3.670   1.774
 8045SOL     OW25033   6.694   2.712   3.965
 8045SOL    HW125034   6.622   2.643   3.969
 8045SOL    HW225035   6.688   2.772   4.044
 8046SOL     OW25036   6.873   4.553   2.224
 8046SOL    HW125037   6.914   4.633   2.268
 8046SOL    HW225038   6.929   4.527   2.145
 8047SOL     OW25039   3.104   5.953   6.721
 8047SOL    HW125040   3.159   6.021   6.770
 8047SOL    HW225041   3.146   5.936   6.631
 8048SOL     OW25042   3.501   2.546   6.106
 8048SOL    HW125043   3.482   2.449   6.092
 8048SOL    HW225044   3.600   2.561   6.109
 8049SOL     OW25045   1.814   1.989   0.710
 8049SOL    HW125046   1.845   1.984   0.805
 8049SOL    HW225047   1.766   2.075   0.695
 8050SOL     OW25048   0.756   4.878   5.537
 8050SOL    HW125049   0.821   4.888   5.613
 8050SOL    HW225050   0.764   4.957   5.476
 8051SOL     OW25051   4.278   0.231   3.417
 8051SOL    HW125052   4.359   0.221   3.475
 8051SOL    HW225053   4.241   0.140   3.395
 8052SOL     OW25054   3.055   1.818   2.351
 8052SOL    HW125055   3.111   1.838   2.431
 8052SOL    HW225056   3.027   1.903   2.307
 8053SOL     OW25057   2.152   2.457   6.403
 8053SOL    HW125058   2.100   2.481   6.321
 8053SOL    HW225059   2.195   2.368   6.391
 8054SOL     OW25060   4.772   3.279   5.203
 8054SOL    HW125061   4.871   3.273   5.187
 8054SOL    HW225062   4.740   3.371   5.179
 8055SOL     OW25063   5.949   0.539   0.187
 8055SOL    HW125064   5.896   0.597   0.248
 8055SOL    HW225065   5.918   0.444   0.195
 8056SOL     OW25066   2.425   0.767   3.897
 8056SOL    HW125067   2.492   0.693   3.900
 8056SOL    HW225068   2.333   0.727   3.893
 8057SOL     OW25069   3.017   2.283   1.644
 8057SOL    HW125070   2.947   2.321   1.704
 8057SOL    HW225071   3.009   2.323   1.553
 8058SOL     OW25072   3.483   6.407   1.690
 8058SOL    HW125073   3.467   6.436   1.596
 8058SOL    HW225074   3.396   6.380   1.731
 8059SOL     OW25075   2.885   2.521   5.844
 8059SOL    HW125076   2.937   2.602   5.871
 8059SOL    HW225077   2.947   2.449   5.814
 8060SOL     OW25078   6.451   0.977   6.390
 8060SOL    HW125079   6.432   1.033   6.310
 8060SOL    HW225080   6.519   0.907   6.367
 8061SOL     OW25081   0.342   0.204   2.779
 8061SOL    HW125082   0.265   0.148   2.747
 8061SOL    HW225083   0.418   0.145   2.804
 8062SOL     OW25084   3.982   5.586   5.308
 8062SOL    HW125085   3.984   5.637   5.222
 8062SOL    HW225086   4.069   5.596   5.355
 8063SOL     OW25087   3.222   4.898   2.774
 8063SOL    HW125088   3.267   4.907   2.685
 8063SOL    HW225089   3.258   4.965   2.838
 8064SOL     OW25090   6.608   2.056   0.731
 8064SOL    HW125091   6.535   2.103   0.680
 8064SOL    HW225092   6.697   2.086   0.697
 8065SOL     OW25093   4.360   5.912   6.421
 8065SOL    HW125094   4.373   5.889   6.325
 8065SOL    HW225095   4.303   5.994   6.428
 8066SOL     OW25096   0.675   6.832   6.003
 8066SOL    HW125097   0.591   6.781   6.018
 8066SOL    HW225098   0.684   6.904   6.073
 8067SOL     OW25099   5.151   1.986   3.570
 8067SOL    HW125100   5.073   1.952   3.623
 8067SOL    HW225101   5.236   1.964   3.618
 8068SOL     OW25102   5.670   3.939   1.480
 8068SOL    HW125103   5.746   3.973   1.424
 8068SOL    HW225104   5.644   3.848   1.449
 8069SOL     OW25105   1.907   4.352   3.042
 8069SOL    HW125106   1.853   4.387   3.118
 8069SOL    HW225107   2.004   4.359   3.064
 8070SOL     OW25108   4.868   4.730   0.419
 8070SOL    HW125109   4.844   4.698   0.328
 8070SOL    HW225110   4.949   4.789   0.414
 8071SOL     OW25111   2.316   0.190   5.982
 8071SOL    HW125112   2.246   0.146   6.038
 8071SOL    HW225113   2.324   0.143   5.895
 8072SOL     OW25114   2.209   1.366   5.306
 8072SOL    HW125115   2.305   1.394   5.312
 8072SOL    HW225116   2.191   1.294   5.373
 8073SOL     OW25117   4.991   0.482   6.445
 8073SOL    HW125118   5.027   0.429   6.522
 8073SOL    HW225119   4.891   0.475   6.444
 8074SOL     OW25120   1.736   0.993   6.450
 8074SOL    HW125121   1.827   1.015   6.485
 8074SOL    HW225122   1.681   1.076   6.444
 8075SOL     OW25123   6.911   6.933   1.193
 8075SOL    HW125124   6.935   6.866   1.123
 8075SOL    HW225125   6.818   6.915   1.226
 8076SOL     OW25126   0.130   6.472   0.408
 8076SOL    HW125127   0.195   6.542   0.440
 8076SOL    HW225128   0.151   6.385   0.454
 8077SOL     OW25129   4.816   4.519   0.598
 8077SOL    HW125130   4.829   4.597   0.536
 8077SOL    HW225131   4.734   4.469   0.572
 8078SOL     OW25132   0.258   1.465   1.580
 8078SOL    HW125133   0.204   1.537   1.625
 8078SOL    HW225134   0.310   1.505   1.505
 8079SOL     OW25135   2.071   1.115   5.955
 8079SOL    HW125136   2.107   1.034   5.907
 8079SOL    HW225137   1.982   1.094   5.995
 8080SOL     OW25138   0.763   3.184   3.010
 8080SOL    HW125139   0.703   3.201   3.088
 8080SOL    HW225140   0.828   3.259   3.000
 8081SOL     OW25141   5.682   6.640   4.864
 8081SOL    HW125142   5.687   6.732   4.901
 8081SOL    HW225143   5.587   6.617   4.842
 8082SOL     OW25144   3.827   1.561   3.953
 8082SOL    HW125145   3.881   1.496   3.900
 8082SOL    HW225146   3.883   1.598   4.027
 8083SOL     OW25147   6.148   1.941   4.301
 8083SOL    HW125148   6.155   1.843   4.285
 8083SOL    HW225149   6.156   1.960   4.399
 8084SOL     OW25150   3.850   1.350   6.062
 8084SOL    HW125151   3.797   1.432   6.038
 8084SOL    HW225152   3.940   1.378   6.097
 8085SOL     OW25153   1.915   6.078   4.800
 8085SOL    HW125154   1.936   6.009   4.730
 8085SOL    HW225155   1.978   6.155   4.791
 8086SOL     OW25156   6.767   0.455   2.183
 8086SOL    HW125157   6.854   0.504   2.177
 8086SOL    HW225158   6.782   0.358   2.161
 8087SOL     OW25159   0.958   0.762   0.166
 8087SOL    HW125160   0.882   0.825   0.183
 8087SOL    HW225161   0.947   0.721   0.076
 8088SOL     OW25162   6.572   0.175   5.315
 8088SOL    HW125163   6.614   0.147   5.402
 8088SOL    HW225164   6.629   0.143   5.239
 8089SOL     OW25165   6.411   2.100   6.112
 8089SOL    HW125166   6.333   2.066   6.163
 8089SOL    HW225167   6.455   2.175   6.162
 8090SOL     OW25168   4.216   2.161   5.329
 8090SOL    HW125169   4.251   2.118   5.412
 8090SOL    HW225170   4.158   2.097   5.280
 8091SOL     OW25171   1.474   5.113   4.005
 8091SOL    HW125172   1.518   5.194   4.045
 8091SOL    HW225173   1.539   5.067   3.944
 8092SOL     OW25174   4.921   1.705   6.363
 8092SOL    HW125175   4.892   1.620   6.408
 8092SOL    HW225176   5.000   1.743   6.411
 8093SOL     OW25177   3.539   5.888   2.661
 8093SOL    HW125178   3.544   5.919   2.566
 8093SOL    HW225179   3.557   5.790   2.665
 8094SOL     OW25180   2.154   4.173   4.278
 8094SOL    HW125181   2.077   4.203   4.221
 8094SOL    HW225182   2.160   4.073   4.276
 8095SOL     OW25183   1.463   4.802   5.597
 8095SOL    HW125184   1.554   4.810   5.638
 8095SOL    HW225185   1.461   4.721   5.538
 8096SOL     OW25186   1.260   5.932   0.493
 8096SOL    HW125187   1.286   6.017   0.539
 8096SOL    HW225188   1.201   5.878   0.552
 8097SOL     OW25189   4.545   6.280   6.174
 8097SOL    HW125190   4.597   6.361   6.147
 8097SOL    HW225191   4.565   6.257   6.269
 8098SOL     OW25192   1.886   6.030   5.080
 8098SOL    HW125193   1.803   5.974   5.076
 8098SOL    HW225194   1.906   6.067   4.989
 8099SOL     OW25195   2.121   4.342   2.765
 8099SOL    HW125196   2.026   4.352   2.794
 8099SOL    HW225197   2.127   4.269   2.697
 8100SOL     OW25198   0.013   1.082   6.790
 8100SOL    HW125199   7.021   1.138   6.709
 8100SOL    HW225200   0.090   1.120   6.842
 8101SOL     OW25201   3.291   5.276   0.562
 8101SOL    HW125202   3.329   5.332   0.635
 8101SOL    HW225203   3.200   5.310   0.538
 8102SOL     OW25204   1.186   3.860   5.047
 8102SOL    HW125205   1.280   3.829   5.061
 8102SOL    HW225206   1.169   3.874   4.950
 8103SOL     OW25207   2.947   0.955   1.924
 8103SOL    HW125208   2.964   1.024   1.853
 8103SOL    HW225209   2.985   0.868   1.894
 8104SOL     OW25210   2.094   6.032   0.520
 8104SOL    HW125211   2.184   6.075   0.517
 8104SOL    HW225212   2.028   6.095   0.561
 8105SOL     OW25213   6.930   6.823   3.556
 8105SOL    HW125214   6.963   6.895   3.617
 8105SOL    HW225215   7.005   6.762   3.533
 8106SOL     OW25216   2.098   0.081   6.075
 8106SOL    HW125217   2.071   7.010   6.096
 8106SOL    HW225218   2.033   0.121   6.011
 8107SOL     OW25219   1.339   6.448   6.469
 8107SOL    HW125220   1.313   6.418   6.561
 8107SOL    HW225221   1.257   6.465   6.415
 8108SOL     OW25222   1.420   1.547   6.679
 8108SOL    HW125223   1.322   1.530   6.680
 8108SOL    HW225224   1.449   1.582   6.768
 8109SOL     OW25225   6.393   3.286   0.798
 8109SOL    HW125226   6.349   3.201   0.770
 8109SOL    HW225227   6.469   3.265   0.859
 8110SOL     OW25228   3.758   4.950   1.142
 8110SOL    HW125229   3.721   4.995   1.061
 8110SOL    HW225230   3.719   4.991   1.224
 8111SOL     OW25231   5.926   1.341   2.433
 8111SOL    HW125232   6.001   1.373   2.375
 8111SOL    HW225233   5.962   1.281   2.504
 8112SOL     OW25234   1.695   4.071   6.211
 8112SOL    HW125235   1.672   4.001   6.143
 8112SOL    HW225236   1.752   4.141   6.169
 8113SOL     OW25237   5.185   3.569   5.710
 8113SOL    HW125238   5.218   3.662   5.696
 8113SOL    HW225239   5.127   3.565   5.791
 8114SOL     OW25240   1.544   4.102   2.196
 8114SOL    HW125241   1.532   4.018   2.249
 8114SOL    HW225242   1.516   4.087   2.102
 8115SOL     OW25243   2.713   1.819   5.988
 8115SOL    HW125244   2.750   1.892   5.930
 8115SOL    HW225245   2.692   1.857   6.078
 8116SOL     OW25246   4.015   3.262   1.071
 8116SOL    HW125247   4.087   3.330   1.082
 8116SOL    HW225248   3.969   3.248   1.159
 8117SOL     OW25249   2.252   6.755   3.635
 8117SOL    HW125250   2.312   6.691   3.683
 8117SOL    HW225251   2.210   6.708   3.557
 8118SOL     OW25252   6.158   3.258   0.382
 8118SOL    HW125253   6.255   3.281   0.377
 8118SOL    HW225254   6.110   3.328   0.434
 8119SOL     OW25255   5.977   6.184   0.491
 8119SOL    HW125256   6.067   6.186   0.535
 8119SOL    HW225257   5.963   6.269   0.441
 8120SOL     OW25258   2.425   0.249   1.501
 8120SOL    HW125259   2.425   0.341   1.462
 8120SOL    HW225260   2.364   0.246   1.580
 8121SOL     OW25261   0.515   3.352   2.742
 8121SOL    HW125262   0.428   3.396   2.762
 8121SOL    HW225263   0.507   3.253   2.756
 8122SOL     OW25264   0.692   4.493   1.089
 8122SOL    HW125265   0.649   4.418   1.038
 8122SOL    HW225266   0.714   4.568   1.026
 8123SOL     OW25267   0.169   1.586   6.922
 8123SOL    HW125268   0.144   1.676   6.958
 8123SOL    HW225269   0.090   1.525   6.928
 8124SOL     OW25270   5.276   4.946   4.896
 8124SOL    HW125271   5.264   4.847   4.888
 8124SOL    HW225272   5.211   4.983   4.963
 8125SOL     OW25273   1.782   6.251   3.266
 8125SOL    HW125274   1.852   6.252   3.195
 8125SOL    HW225275   1.808   6.188   3.338
 8126SOL     OW25276   3.512   4.922   4.283
 8126SOL    HW125277   3.450   4.930   4.205
 8126SOL    HW225278   3.604   4.950   4.255
 8127SOL     OW25279   3.661   2.491   0.463
 8127SOL    HW125280   3.570   2.453   0.447
 8127SOL    HW225281   3.663   2.586   0.432
 8128SOL     OW25282   3.665   3.247   1.577
 8128SOL    HW125283   3.736   3.254   1.507
 8128SOL    HW225284   3.693   3.299   1.658
 8129SOL     OW25285   1.591   2.695   2.142
 8129SOL    HW125286   1.620   2.599   2.147
 8129SOL    HW225287   1.633   2.738   2.063
 8130SOL     OW25288   0.522   5.572   6.601
 8130SOL    HW125289   0.548   5.585   6.697
 8130SOL    HW225290   0.425   5.551   6.596
 8131SOL     OW25291   1.558   3.813   6.721
 8131SOL    HW125292   1.630   3.747   6.699
 8131SOL    HW225293   1.576   3.899   6.674
 8132SOL     OW25294   0.632   0.524   5.423
 8132SOL    HW125295   0.620   0.427   5.444
 8132SOL    HW225296   0.544   0.571   5.428
 8133SOL     OW25297   3.749   5.064   0.540
 8133SOL    HW125298   3.687   5.075   0.618
 8133SOL    HW225299   3.835   5.026   0.572
 8134SOL     OW25300   5.625   1.412   5.724
 8134SOL    HW125301   5.547   1.463   5.761
 8134SOL    HW225302   5.616   1.316   5.750
 8135SOL     OW25303   2.667   0.168   1.795
 8135SOL    HW125304   2.580   0.123   1.776
 8135SOL    HW225305   2.720   0.111   1.858
 8136SOL     OW25306   4.781   4.404   1.904
 8136SOL    HW125307   4.807   4.460   1.983
 8136SOL    HW225308   4.716   4.334   1.932
 8137SOL     OW25309   4.119   1.447   5.060
 8137SOL    HW125310   4.207   1.410   5.029
 8137SOL    HW225311   4.047   1.416   4.999
 8138SOL     OW25312   5.219   1.267   1.928
 8138SOL    HW125313   5.306   1.304   1.961
 8138SOL    HW225314   5.236   1.209   1.848
 8139SOL     OW25315   0.735   2.180   3.413
 8139SOL    HW125316   0.668   2.253   3.399
 8139SOL    HW225317   0.787   2.166   3.329
 8140SOL     OW25318   4.173   1.036   3.257
 8140SOL    HW125319   4.190   1.081   3.344
 8140SOL    HW225320   4.146   0.941   3.274
 8141SOL     OW25321   4.929   4.773   5.033
 8141SOL    HW125322   4.955   4.869   5.030
 8141SOL    HW225323   4.875   4.755   5.115
 8142SOL     OW25324   6.822   6.287   0.651
 8142SOL    HW125325   6.915   6.265   0.622
 8142SOL    HW225326   6.800   6.235   0.733
 8143SOL     OW25327   6.550   3.381   4.807
 8143SOL    HW125328   6.478   3.424   4.861
 8143SOL    HW225329   6.541   3.282   4.809
 8144SOL     OW25330   5.794   0.052   6.137
 8144SOL    HW125331   5.700   0.066   6.107
 8144SOL    HW225332   5.814   6.978   6.139
 8145SOL     OW25333   5.467   6.019   2.726
 8145SOL    HW125334   5.394   6.087   2.730
 8145SOL    HW225335   5.505   6.016   2.634
 8146SOL     OW25336   2.959   1.122   3.907
 8146SOL    HW125337   2.964   1.157   3.814
 8146SOL    HW225338   2.900   1.181   3.962
 8147SOL     OW25339   4.853   0.772   3.403
 8147SOL    HW125340   4.880   0.868   3.403
 8147SOL    HW225341   4.932   0.715   3.426
 8148SOL     OW25342   5.313   3.853   3.698
 8148SOL    HW125343   5.394   3.844   3.639
 8148SOL    HW225344   5.258   3.930   3.667
 8149SOL     OW25345   4.529   4.555   3.327
 8149SOL    HW125346   4.542   4.522   3.420
 8149SOL    HW225347   4.449   4.615   3.323
 8150SOL     OW25348   0.946   5.732   1.363
 8150SOL    HW125349   0.958   5.719   1.461
 8150SOL    HW225350   0.985   5.820   1.336
 8151SOL     OW25351   1.071   1.928   4.932
 8151SOL    HW125352   1.055   1.874   5.015
 8151SOL    HW225353   0.992   1.920   4.872
 8152SOL     OW25354   1.417   1.242   3.244
 8152SOL    HW125355   1.488   1.311   3.251
 8152SOL    HW225356   1.454   1.153   3.273
 8153SOL     OW25357   1.885   6.879   0.533
 8153SOL    HW125358   1.939   6.953   0.493
 8153SOL    HW225359   1.909   6.793   0.488
 8154SOL     OW25360   2.000   0.081   3.516
 8154SOL    HW125361   1.955   0.025   3.586
 8154SOL    HW225362   2.080   0.032   3.482
 8155SOL     OW25363   2.928   3.552   3.527
 8155SOL    HW125364   2.945   3.606   3.610
 8155SOL    HW225365   2.973   3.463   3.536
 8156SOL     OW25366   6.756   0.004   6.144
 8156SOL    HW125367   6.819   6.965   6.096
 8156SOL    HW225368   6.699   0.051   6.077
 8157SOL     OW25369   6.119   3.176   0.072
 8157SOL    HW125370   6.149   3.081   0.080
 8157SOL    HW225371   6.138   3.224   0.157
 8158SOL     OW25372   1.801   5.633   2.293
 8158SOL    HW125373   1.765   5.540   2.304
 8158SOL    HW225374   1.901   5.631   2.296
 8159SOL     OW25375   1.377   6.086   2.204
 8159SOL    HW125376   1.373   6.179   2.166
 8159SOL    HW225377   1.443   6.032   2.153
 8160SOL     OW25378   4.554   2.469   1.878
 8160SOL    HW125379   4.533   2.422   1.965
 8160SOL    HW225380   4.581   2.563   1.896
 8161SOL     OW25381   4.664   1.795   0.561
 8161SOL    HW125382   4.613   1.709   0.559
 8161SOL    HW225383   4.654   1.841   0.473
 8162SOL     OW25384   6.010   0.599   1.443
 8162SOL    HW125385   5.998   0.641   1.353
 8162SOL    HW225386   5.968   0.656   1.513
 8163SOL     OW25387   2.372   4.079   5.399
 8163SOL    HW125388   2.390   4.052   5.304
 8163SOL    HW225389   2.303   4.019   5.438
 8164SOL     OW25390   4.730   1.999   1.651
 8164SOL    HW125391   4.704   2.004   1.747
 8164SOL    HW225392   4.823   1.964   1.643
 8165SOL     OW25393   2.208   4.706   1.575
 8165SOL    HW125394   2.201   4.611   1.604
 8165SOL    HW225395   2.230   4.709   1.477
 8166SOL     OW25396   2.920   6.935   1.698
 8166SOL    HW125397   2.873   6.929   1.610
 8166SOL    HW225398   2.852   6.941   1.772
 8167SOL     OW25399   5.127   3.098   4.422
 8167SOL    HW125400   5.201   3.063   4.480
 8167SOL    HW225401   5.159   3.178   4.371
 8168SOL     OW25402   3.472   1.457   3.097
 8168SOL    HW125403   3.485   1.551   3.128
 8168SOL    HW225404   3.407   1.456   3.020
 8169SOL     OW25405   4.950   4.080   6.091
 8169SOL    HW125406   4.919   4.004   6.035
 8169SOL    HW225407   4.933   4.166   6.043
 8170SOL     OW25408   0.458   5.297   3.636
 8170SOL    HW125409   0.551   5.280   3.669
 8170SOL    HW225410   0.397   5.227   3.674
 8171SOL     OW25411   1.351   1.147   5.562
 8171SOL    HW125412   1.253   1.144   5.578
 8171SOL    HW225413   1.388   1.233   5.599
 8172SOL     OW25414   0.083   6.273   0.929
 8172SOL    HW125415   0.041   6.270   0.838
 8172SOL    HW225416   0.173   6.316   0.922
 8173SOL     OW25417   4.856   2.663   6.693
 8173SOL    HW125418   4.772   2.612   6.707
 8173SOL    HW225419   4.877   2.668   6.596
 8174SOL     OW25420   5.289   0.458   2.097
 8174SOL    HW125421   5.381   0.455   2.059
 8174SOL    HW225422   5.284   0.528   2.168
 8175SOL     OW25423   1.060   3.642   5.636
 8175SOL    HW125424   1.035   3.657   5.540
 8175SOL    HW225425   0.993   3.581   5.678
 8176SOL     OW25426   3.402   5.777   3.087
 8176SOL    HW125427   3.371   5.725   3.008
 8176SOL    HW225428   3.334   5.847   3.109
 8177SOL     OW25429   1.578   0.080   6.188
 8177SOL    HW125430   1.593   0.130   6.274
 8177SOL    HW225431   1.591   7.006   6.204
 8178SOL     OW25432   1.946   6.248   6.313
 8178SOL    HW125433   2.021   6.266   6.377
 8178SOL    HW225434   1.859   6.254   6.361
 8179SOL     OW25435   3.217   0.686   0.498
 8179SOL    HW125436   3.130   0.735   0.499
 8179SOL    HW225437   3.245   0.665   0.591
 8180SOL     OW25438   4.457   5.532   5.022
 8180SOL    HW125439   4.411   5.462   5.076
 8180SOL    HW225440   4.448   5.510   4.924
 8181SOL     OW25441   2.883   2.275   2.483
 8181SOL    HW125442   2.850   2.304   2.393
 8181SOL    HW225443   2.815   2.299   2.552
 8182SOL     OW25444   3.502   2.339   5.732
 8182SOL    HW125445   3.592   2.378   5.756
 8182SOL    HW225446   3.514   2.267   5.664
 8183SOL     OW25447   1.888   3.166   4.344
 8183SOL    HW125448   1.854   3.102   4.413
 8183SOL    HW225449   1.985   3.185   4.361
 8184SOL     OW25450   6.178   5.842   5.555
 8184SOL    HW125451   6.186   5.880   5.647
 8184SOL    HW225452   6.084   5.814   5.538
 8185SOL     OW25453   1.470   1.738   2.985
 8185SOL    HW125454   1.423   1.788   3.058
 8185SOL    HW225455   1.443   1.642   2.988
 8186SOL     OW25456   3.542   4.693   6.075
 8186SOL    HW125457   3.520   4.790   6.068
 8186SOL    HW225458   3.458   4.641   6.093
 8187SOL     OW25459   1.753   1.337   6.049
 8187SOL    HW125460   1.836   1.389   6.069
 8187SOL    HW225461   1.683   1.398   6.013
 8188SOL     OW25462   6.277   3.335   2.653
 8188SOL    HW125463   6.179   3.318   2.639
 8188SOL    HW225464   6.289   3.400   2.728
 8189SOL     OW25465   6.227   4.781   2.576
 8189SOL    HW125466   6.147   4.732   2.542
 8189SOL    HW225467   6.201   4.876   2.597
 8190SOL     OW25468   5.341   3.273   2.604
 8190SOL    HW125469   5.402   3.267   2.524
 8190SOL    HW225470   5.312   3.368   2.617
 8191SOL     OW25471   0.279   5.147   1.905
 8191SOL    HW125472   0.209   5.108   1.964
 8191SOL    HW225473   0.253   5.239   1.878
 8192SOL     OW25474   1.663   3.871   1.085
 8192SOL    HW125475   1.680   3.872   0.987
 8192SOL    HW225476   1.650   3.777   1.116
 8193SOL     OW25477   3.374   0.132   5.855
 8193SOL    HW125478   3.335   0.213   5.810
 8193SOL    HW225479   3.306   0.093   5.917
 8194SOL     OW25480   1.727   0.620   1.307
 8194SOL    HW125481   1.763   0.712   1.320
 8194SOL    HW225482   1.692   0.611   1.213
 8195SOL     OW25483   6.388   0.584   0.807
 8195SOL    HW125484   6.327   0.514   0.843
 8195SOL    HW225485   6.481   0.567   0.839
 8196SOL     OW25486   1.952   0.540   6.838
 8196SOL    HW125487   1.943   0.505   6.745
 8196SOL    HW225488   1.955   0.640   6.836
 8197SOL     OW25489   0.921   6.913   0.673
 8197SOL    HW125490   1.000   6.935   0.731
 8197SOL    HW225491   0.845   6.974   0.697
 8198SOL     OW25492   4.005   6.540   2.902
 8198SOL    HW125493   4.099   6.528   2.868
 8198SOL    HW225494   4.007   6.593   2.986
 8199SOL     OW25495   6.060   4.191   0.640
 8199SOL    HW125496   6.069   4.248   0.558
 8199SOL    HW225497   6.054   4.250   0.721
 8200SOL     OW25498   4.726   3.348   1.437
 8200SOL    HW125499   4.698   3.444   1.434
 8200SOL    HW225500   4.739   3.320   1.532
 8201SOL     OW25501   6.332   0.939   4.607
 8201SOL    HW125502   6.257   0.977   4.662
 8201SOL    HW225503   6.296   0.865   4.550
 8202SOL     OW25504   1.491   3.913   3.885
 8202SOL    HW125505   1.587   3.900   3.910
 8202SOL    HW225506   1.485   3.949   3.792
 8203SOL     OW25507   6.141   3.913   0.923
 8203SOL    HW125508   6.205   3.919   1.000
 8203SOL    HW225509   6.099   4.002   0.908
 8204SOL     OW25510   3.550   0.662   0.157
 8204SOL    HW125511   3.511   0.750   0.130
 8204SOL    HW225512   3.583   0.668   0.251
 8205SOL     OW25513   5.767   5.646   3.160
 8205SOL    HW125514   5.844   5.590   3.130
 8205SOL    HW225515   5.714   5.597   3.228
 8206SOL     OW25516   3.956   2.169   4.313
 8206SOL    HW125517   4.037   2.183   4.255
 8206SOL    HW225518   3.976   2.100   4.382
 8207SOL     OW25519   2.630   6.083   0.165
 8207SOL    HW125520   2.699   6.155   0.160
 8207SOL    HW225521   2.540   6.123   0.151
 8208SOL     OW25522   1.577   5.226   6.230
 8208SOL    HW125523   1.485   5.194   6.255
 8208SOL    HW225524   1.570   5.289   6.153
 8209SOL     OW25525   1.131   6.336   5.457
 8209SOL    HW125526   1.093   6.256   5.504
 8209SOL    HW225527   1.117   6.417   5.515
 8210SOL     OW25528   2.939   1.674   0.245
 8210SOL    HW125529   2.989   1.587   0.241
 8210SOL    HW225530   2.953   1.717   0.335
 8211SOL     OW25531   2.937   3.801   4.618
 8211SOL    HW125532   2.851   3.844   4.645
 8211SOL    HW225533   3.012   3.867   4.626
 8212SOL     OW25534   3.780   6.235   1.022
 8212SOL    HW125535   3.825   6.147   1.005
 8212SOL    HW225536   3.682   6.226   1.005
 8213SOL     OW25537   4.358   4.500   1.810
 8213SOL    HW125538   4.374   4.404   1.831
 8213SOL    HW225539   4.444   4.550   1.818
 8214SOL     OW25540   4.298   5.259   3.915
 8214SOL    HW125541   4.392   5.289   3.902
 8214SOL    HW225542   4.239   5.338   3.931
 8215SOL     OW25543   2.927   6.171   6.558
 8215SOL    HW125544   2.906   6.258   6.513
 8215SOL    HW225545   3.025   6.151   6.547
 8216SOL     OW25546   5.415   4.889   1.527
 8216SOL    HW125547   5.352   4.842   1.588
 8216SOL    HW225548   5.436   4.830   1.449
 8217SOL     OW25549   2.468   6.605   3.771
 8217SOL    HW125550   2.549   6.639   3.724
 8217SOL    HW225551   2.419   6.541   3.712
 8218SOL     OW25552   2.012   5.761   4.786
 8218SOL    HW125553   2.034   5.693   4.716
 8218SOL    HW225554   2.097   5.803   4.818
 8219SOL     OW25555   4.197   3.135   1.781
 8219SOL    HW125556   4.133   3.105   1.710
 8219SOL    HW225557   4.291   3.126   1.746
 8220SOL     OW25558   3.373   3.848   4.887
 8220SOL    HW125559   3.310   3.791   4.834
 8220SOL    HW225560   3.466   3.810   4.881
 8221SOL     OW25561   6.155   4.147   3.294
 8221SOL    HW125562   6.083   4.185   3.237
 8221SOL    HW225563   6.135   4.051   3.314
 8222SOL     OW25564   6.802   3.054   0.399
 8222SOL    HW125565   6.893   3.089   0.383
 8222SOL    HW225566   6.791   2.966   0.352
 8223SOL     OW25567   2.738   6.371   6.225
 8223SOL    HW125568   2.706   6.408   6.138
 8223SOL    HW225569   2.714   6.434   6.299
 8224SOL     OW25570   4.799   0.994   6.856
 8224SOL    HW125571   4.762   1.082   6.886
 8224SOL    HW225572   4.820   0.937   6.935
 8225SOL     OW25573   5.872   1.914   6.477
 8225SOL    HW125574   5.781   1.890   6.446
 8225SOL    HW225575   5.868   2.000   6.528
 8226SOL     OW25576   3.762   0.885   0.068
 8226SOL    HW125577   3.835   0.871   0.136
 8226SOL    HW225578   3.676   0.848   0.104
 8227SOL     OW25579   4.364   2.345   2.638
 8227SOL    HW125580   4.410   2.332   2.726
 8227SOL    HW225581   4.296   2.418   2.646
 8228SOL     OW25582   2.833   6.989   4.492
 8228SOL    HW125583   2.862   0.002   4.404
 8228SOL    HW225584   2.847   6.890   4.493
 8229SOL     OW25585   4.654   4.247   0.902
 8229SOL    HW125586   4.605   4.265   0.987
 8229SOL    HW225587   4.589   4.228   0.828
 8230SOL     OW25588   6.146   6.962   5.836
 8230SOL    HW125589   6.133   0.015   5.900
 8230SOL    HW225590   6.061   6.945   5.787
 8231SOL     OW25591   2.880   1.053   2.410
 8231SOL    HW125592   2.887   0.993   2.331
 8231SOL    HW225593   2.784   1.075   2.428
 8232SOL     OW25594   3.602   5.703   3.368
 8232SOL    HW125595   3.665   5.701   3.446
 8232SOL    HW225596   3.558   5.792   3.363
 8233SOL     OW25597   2.091   0.812   6.398
 8233SOL    HW125598   2.025   0.870   6.447
 8233SOL    HW225599   2.059   0.798   6.305
 8234SOL     OW25600   1.504   2.250   1.002
 8234SOL    HW125601   1.531   2.245   1.098
 8234SOL    HW225602   1.410   2.217   0.993
 8235SOL     OW25603   0.862   0.770   1.403
 8235SOL    HW125604   0.777   0.768   1.350
 8235SOL    HW225605   0.927   0.705   1.365
 8236SOL     OW25606   1.444   0.168   1.940
 8236SOL    HW125607   1.385   0.237   1.898
 8236SOL    HW225608   1.454   0.188   2.037
 8237SOL     OW25609   3.882   4.712   6.025
 8237SOL    HW125610   3.922   4.794   6.066
 8237SOL    HW225611   3.782   4.718   6.028
 8238SOL     OW25612   0.932   5.231   1.098
 8238SOL    HW125613   0.909   5.294   1.171
 8238SOL    HW225614   0.989   5.277   1.030
 8239SOL     OW25615   2.425   1.391   6.032
 8239SOL    HW125616   2.342   1.385   5.977
 8239SOL    HW225617   2.440   1.305   6.080
 8240SOL     OW25618   3.616   2.974   4.497
 8240SOL    HW125619   3.535   2.935   4.541
 8240SOL    HW225620   3.696   2.956   4.553
 8241SOL     OW25621   1.620   3.561   5.793
 8241SOL    HW125622   1.582   3.653   5.780
 8241SOL    HW225623   1.719   3.566   5.801
 8242SOL     OW25624   0.355   3.309   2.435
 8242SOL    HW125625   0.415   3.351   2.368
 8242SOL    HW225626   0.362   3.359   2.522
 8243SOL     OW25627   1.007   5.675   4.003
 8243SOL    HW125628   1.034   5.666   4.099
 8243SOL    HW225629   1.055   5.753   3.962
 8244SOL     OW25630   6.895   1.439   3.480
 8244SOL    HW125631   6.888   1.379   3.401
 8244SOL    HW225632   6.890   1.385   3.564
 8245SOL     OW25633   5.105   2.608   2.597
 8245SOL    HW125634   5.079   2.548   2.522
 8245SOL    HW225635   5.147   2.554   2.670
 8246SOL     OW25636   1.659   5.082   6.934
 8246SOL    HW125637   1.562   5.103   6.947
 8246SOL    HW225638   1.672   4.983   6.935
 8247SOL     OW25639   2.798   5.595   3.014
 8247SOL    HW125640   2.806   5.688   3.048
 8247SOL    HW225641   2.869   5.537   3.055
 8248SOL     OW25642   6.504   5.664   4.272
 8248SOL    HW125643   6.522   5.729   4.197
 8248SOL    HW225644   6.468   5.579   4.234
 8249SOL     OW25645   3.374   1.404   6.756
 8249SOL    HW125646   3.355   1.369   6.665
 8249SOL    HW225647   3.430   1.487   6.749
 8250SOL     OW25648   1.038   1.976   6.593
 8250SOL    HW125649   0.972   2.033   6.643
 8250SOL    HW225650   1.073   2.027   6.515
 8251SOL     OW25651   0.621   2.352   5.067
 8251SOL    HW125652   0.627   2.375   4.969
 8251SOL    HW225653   0.642   2.432   5.121
 8252SOL     OW25654   0.821   1.897   6.867
 8252SOL    HW125655   0.851   1.985   6.832
 8252SOL    HW225656   0.826   1.828   6.794
 8253SOL     OW25657   4.938   5.262   6.448
 8253SOL    HW125658   4.967   5.352   6.418
 8253SOL    HW225659   4.887   5.270   6.534
 8254SOL     OW25660   6.527   5.479   0.182
 8254SOL    HW125661   6.611   5.472   0.128
 8254SOL    HW225662   6.529   5.564   0.235
 8255SOL     OW25663   2.277   0.273   5.318
 8255SOL    HW125664   2.266   0.204   5.246
 8255SOL    HW225665   2.253   0.232   5.406
 8256SOL     OW25666   0.861   5.763   4.485
 8256SOL    HW125667   0.905   5.720   4.564
 8256SOL    HW225668   0.860   5.863   4.498
 8257SOL     OW25669   5.245   3.903   3.148
 8257SOL    HW125670   5.174   3.882   3.216
 8257SOL    HW225671   5.210   3.971   3.084
 8258SOL     OW25672   0.703   2.861   3.567
 8258SOL    HW125673   0.723   2.909   3.481
 8258SOL    HW225674   0.744   2.770   3.565
 8259SOL     OW25675   5.681   2.184   4.352
 8259SOL    HW125676   5.671   2.220   4.445
 8259SOL    HW225677   5.762   2.125   4.348
 8260SOL     OW25678   5.177   3.311   0.830
 8260SOL    HW125679   5.198   3.298   0.927
 8260SOL    HW225680   5.214   3.399   0.799
 8261SOL     OW25681   5.633   1.212   2.627
 8261SOL    HW125682   5.592   1.216   2.536
 8261SOL    HW225683   5.566   1.240   2.696
 8262SOL     OW25684   5.207   3.900   2.264
 8262SOL    HW125685   5.298   3.934   2.243
 8262SOL    HW225686   5.147   3.976   2.288
 8263SOL     OW25687   6.727   1.786   5.986
 8263SOL    HW125688   6.637   1.820   6.014
 8263SOL    HW225689   6.784   1.771   6.067
 8264SOL     OW25690   3.143   0.437   2.547
 8264SOL    HW125691   3.156   0.354   2.493
 8264SOL    HW225692   3.195   0.512   2.505
 8265SOL     OW25693   4.869   5.662   0.468
 8265SOL    HW125694   4.810   5.656   0.548
 8265SOL    HW225695   4.857   5.580   0.411
 8266SOL     OW25696   3.751   0.712   3.942
 8266SOL    HW125697   3.745   0.781   3.870
 8266SOL    HW225698   3.659   0.692   3.976
 8267SOL     OW25699   2.198   3.100   2.651
 8267SOL    HW125700   2.297   3.084   2.656
 8267SOL    HW225701   2.167   3.083   2.557
 8268SOL     OW25702   3.255   4.675   6.843
 8268SOL    HW125703   3.287   4.623   6.763
 8268SOL    HW225704   3.190   4.619   6.895
 8269SOL     OW25705   6.271   2.787   5.195
 8269SOL    HW125706   6.316   2.871   5.225
 8269SOL    HW225707   6.290   2.714   5.260
 8270SOL     OW25708   4.707   5.594   6.624
 8270SOL    HW125709   4.692   5.500   6.656
 8270SOL    HW225710   4.630   5.623   6.567
 8271SOL     OW25711   3.524   6.799   6.286
 8271SOL    HW125712   3.474   6.783   6.201
 8271SOL    HW225713   3.587   6.723   6.302
 8272SOL     OW25714   1.025   0.816   2.300
 8272SOL    HW125715   1.041   0.770   2.387
 8272SOL    HW225716   0.972   0.757   2.240
 8273SOL     OW25717   4.428   0.515   0.046
 8273SOL    HW125718   4.420   0.491   6.973
 8273SOL    HW225719   4.339   0.505   0.091
 8274SOL     OW25720   5.335   6.174   5.659
 8274SOL    HW125721   5.253   6.197   5.713
 8274SOL    HW225722   5.307   6.141   5.569
 8275SOL     OW25723   5.201   1.032   4.446
 8275SOL    HW125724   5.104   1.022   4.470
 8275SOL    HW225725   5.240   1.109   4.497
 8276SOL     OW25726   6.212   1.842   6.721
 8276SOL    HW125727   6.162   1.828   6.636
 8276SOL    HW225728   6.248   1.936   6.723
 8277SOL     OW25729   1.486   6.842   0.925
 8277SOL    HW125730   1.557   6.782   0.888
 8277SOL    HW225731   1.414   6.855   0.857
 8278SOL     OW25732   2.371   1.158   0.822
 8278SOL    HW125733   2.445   1.166   0.756
 8278SOL    HW225734   2.409   1.145   0.914
 8279SOL     OW25735   4.208   6.044   5.317
 8279SOL    HW125736   4.200   6.026   5.219
 8279SOL    HW225737   4.128   6.096   5.348
 8280SOL     OW25738   5.577   3.973   6.867
 8280SOL    HW125739   5.522   3.894   6.895
 8280SOL    HW225740   5.632   4.005   6.944
 8281SOL     OW25741   2.781   5.946   6.540
 8281SOL    HW125742   2.847   5.870   6.539
 8281SOL    HW225743   2.829   6.032   6.553
 8282SOL     OW25744   2.850   3.247   1.697
 8282SOL    HW125745   2.795   3.265   1.615
 8282SOL    HW225746   2.809   3.293   1.776
 8283SOL     OW25747   0.705   0.211   3.664
 8283SOL    HW125748   0.651   0.290   3.634
 8283SOL    HW225749   0.721   0.151   3.585
 8284SOL     OW25750   4.319   1.569   1.492
 8284SOL    HW125751   4.329   1.470   1.508
 8284SOL    HW225752   4.331   1.618   1.579
 8285SOL     OW25753   1.596   4.014   0.191
 8285SOL    HW125754   1.535   3.991   0.115
 8285SOL    HW225755   1.553   4.086   0.246
 8286SOL     OW25756   6.420   2.640   6.148
 8286SOL    HW125757   6.516   2.625   6.123
 8286SOL    HW225758   6.412   2.726   6.199
 8287SOL     OW25759   2.213   1.192   3.675
 8287SOL    HW125760   2.166   1.276   3.704
 8287SOL    HW225761   2.310   1.199   3.697
 8288SOL     OW25762   1.490   0.201   3.161
 8288SOL    HW125763   1.445   0.118   3.129
 8288SOL    HW225764   1.559   0.178   3.230
 8289SOL     OW25765   5.663   0.493   7.010
 8289SOL    HW125766   5.711   0.462   6.927
 8289SOL    HW225767   5.704   0.578   0.018
 8290SOL     OW25768   4.734   2.745   1.860
 8290SOL    HW125769   4.812   2.711   1.913
 8290SOL    HW225770   4.695   2.825   1.905
 8291SOL     OW25771   5.113   5.993   6.265
 8291SOL    HW125772   5.162   5.915   6.225
 8291SOL    HW225773   5.041   5.960   6.326
 8292SOL     OW25774   0.768   2.933   5.425
 8292SOL    HW125775   0.737   2.878   5.348
 8292SOL    HW225776   0.860   2.904   5.451
 8293SOL     OW25777   2.444   5.512   4.196
 8293SOL    HW125778   2.411   5.594   4.150
 8293SOL    HW225779   2.470   5.535   4.290
 8294SOL     OW25780   5.230   4.062   5.676
 8294SOL    HW125781   5.217   3.970   5.714
 8294SOL    HW225782   5.198   4.130   5.742
 8295SOL     OW25783   4.722   4.721   2.332
 8295SOL    HW125784   4.638   4.775   2.335
 8295SOL    HW225785   4.800   4.778   2.357
 8296SOL     OW25786   3.749   6.728   2.363
 8296SOL    HW125787   3.654   6.705   2.342
 8296SOL    HW225788   3.769   6.821   2.330
 8297SOL     OW25789   5.431   4.632   2.475
 8297SOL    HW125790   5.373   4.563   2.433
 8297SOL    HW225791   5.416   4.633   2.574
 8298SOL     OW25792   6.998   6.917   0.758
 8298SOL    HW125793   6.997   6.988   0.828
 8298SOL    HW225794   6.912   6.918   0.708
 8299SOL     OW25795   1.099   3.008   0.076
 8299SOL    HW125796   1.072   2.996   7.004
 8299SOL    HW225797   1.165   3.082   0.083
 8300SOL     OW25798   6.446   5.261   3.802
 8300SOL    HW125799   6.408   5.172   3.830
 8300SOL    HW225800   6.503   5.297   3.876
 8301SOL     OW25801   5.760   6.034   0.425
 8301SOL    HW125802   5.837   6.093   0.452
 8301SOL    HW225803   5.754   6.031   0.326
 8302SOL     OW25804   3.772   6.943   4.981
 8302SOL    HW125805   3.867   6.923   5.005
 8302SOL    HW225806   3.760   6.939   4.882
 8303SOL     OW25807   0.067   5.372   3.039
 8303SOL    HW125808   7.011   5.396   2.983
 8303SOL    HW225809   0.041   5.372   3.136
 8304SOL     OW25810   6.267   3.575   3.645
 8304SOL    HW125811   6.299   3.654   3.697
 8304SOL    HW225812   6.310   3.492   3.680
 8305SOL     OW25813   4.983   0.051   5.734
 8305SOL    HW125814   5.070   0.096   5.753
 8305SOL    HW225815   4.941   0.022   5.819
 8306SOL     OW25816   6.278   1.234   3.774
 8306SOL    HW125817   6.367   1.195   3.798
 8306SOL    HW225818   6.265   1.321   3.823
 8307SOL     OW25819   1.413   3.738   3.307
 8307SOL    HW125820   1.479   3.665   3.287
 8307SOL    HW225821   1.340   3.702   3.365
 8308SOL     OW25822   1.444   5.664   0.987
 8308SOL    HW125823   1.483   5.664   1.079
 8308SOL    HW225824   1.352   5.626   0.990
 8309SOL     OW25825   6.087   5.219   4.509
 8309SOL    HW125826   6.020   5.146   4.520
 8309SOL    HW225827   6.099   5.267   4.597
 8310SOL     OW25828   2.264   0.444   2.145
 8310SOL    HW125829   2.188   0.380   2.152
 8310SOL    HW225830   2.338   0.403   2.092
 8311SOL     OW25831   4.370   5.576   3.262
 8311SOL    HW125832   4.422   5.497   3.231
 8311SOL    HW225833   4.402   5.602   3.354
 8312SOL     OW25834   5.787   1.888   0.441
 8312SOL    HW125835   5.783   1.806   0.384
 8312SOL    HW225836   5.700   1.937   0.436
 8313SOL     OW25837   5.894   2.254   5.802
 8313SOL    HW125838   5.898   2.200   5.718
 8313SOL    HW225839   5.836   2.207   5.869
 8314SOL     OW25840   4.410   6.150   4.325
 8314SOL    HW125841   4.411   6.175   4.228
 8314SOL    HW225842   4.463   6.066   4.338
 8315SOL     OW25843   3.384   3.279   5.080
 8315SOL    HW125844   3.442   3.341   5.027
 8315SOL    HW225845   3.313   3.242   5.021
 8316SOL     OW25846   2.775   1.266   5.328
 8316SOL    HW125847   2.688   1.314   5.313
 8316SOL    HW225848   2.847   1.333   5.347
 8317SOL     OW25849   1.375   2.026   3.954
 8317SOL    HW125850   1.440   2.078   3.899
 8317SOL    HW225851   1.290   2.013   3.902
 8318SOL     OW25852   4.072   6.447   5.690
 8318SOL    HW125853   4.136   6.376   5.720
 8318SOL    HW225854   3.982   6.429   5.730
 8319SOL     OW25855   1.469   5.485   6.032
 8319SOL    HW125856   1.401   5.460   6.101
 8319SOL    HW225857   1.497   5.580   6.047
 8320SOL     OW25858   3.918   3.977   5.486
 8320SOL    HW125859   3.912   4.072   5.519
 8320SOL    HW225860   3.986   3.972   5.413
 8321SOL     OW25861   0.939   0.451   1.082
 8321SOL    HW125862   0.881   0.533   1.073
 8321SOL    HW225863   0.992   0.439   0.998
 8322SOL     OW25864   1.148   0.221   0.979
 8322SOL    HW125865   1.223   0.270   0.934
 8322SOL    HW225866   1.165   0.219   1.078
 8323SOL     OW25867   6.004   4.312   0.067
 8323SOL    HW125868   6.015   4.405   0.031
 8323SOL    HW225869   6.089   4.261   0.054
 8324SOL     OW25870   5.362   6.657   0.150
 8324SOL    HW125871   5.340   6.752   0.175
 8324SOL    HW225872   5.288   6.597   0.183
 8325SOL     OW25873   1.554   6.635   4.904
 8325SOL    HW125874   1.571   6.539   4.881
 8325SOL    HW225875   1.622   6.667   4.969
 8326SOL     OW25876   2.512   2.944   6.549
 8326SOL    HW125877   2.500   3.039   6.519
 8326SOL    HW225878   2.529   2.886   6.469
 8327SOL     OW25879   0.673   6.284   4.817
 8327SOL    HW125880   0.687   6.259   4.721
 8327SOL    HW225881   0.756   6.325   4.854
 8328SOL     OW25882   1.143   6.624   0.621
 8328SOL    HW125883   1.219   6.616   0.684
 8328SOL    HW225884   1.069   6.563   0.650
 8329SOL     OW25885   1.621   2.714   5.162
 8329SOL    HW125886   1.686   2.638   5.171
 8329SOL    HW225887   1.577   2.731   5.251
 8330SOL     OW25888   3.322   6.646   6.477
 8330SOL    HW125889   3.255   6.583   6.516
 8330SOL    HW225890   3.404   6.646   6.533
 8331SOL     OW25891   2.439   2.182   6.979
 8331SOL    HW125892   2.493   2.156   6.899
 8331SOL    HW225893   2.428   2.282   6.981
 8332SOL     OW25894   6.365   4.098   1.440
 8332SOL    HW125895   6.357   4.189   1.401
 8332SOL    HW225896   6.458   4.086   1.477
 8333SOL     OW25897   2.000   4.313   0.001
 8333SOL    HW125898   2.079   4.263   0.035
 8333SOL    HW225899   1.977   4.281   6.932
 8334SOL     OW25900   3.267   2.037   5.137
 8334SOL    HW125901   3.233   2.128   5.112
 8334SOL    HW225902   3.366   2.034   5.126
 8335SOL     OW25903   5.475   4.975   5.487
 8335SOL    HW125904   5.455   4.886   5.446
 8335SOL    HW225905   5.574   4.989   5.489
 8336SOL     OW25906   1.243   3.593   3.484
 8336SOL    HW125907   1.168   3.567   3.425
 8336SOL    HW225908   1.215   3.586   3.580
 8337SOL     OW25909   6.590   0.720   4.155
 8337SOL    HW125910   6.584   0.628   4.117
 8337SOL    HW225911   6.515   0.734   4.219
 8338SOL     OW25912   2.689   5.193   1.135
 8338SOL    HW125913   2.715   5.207   1.230
 8338SOL    HW225914   2.771   5.192   1.078
 8339SOL     OW25915   5.973   0.202   1.788
 8339SOL    HW125916   6.059   0.152   1.776
 8339SOL    HW225917   5.960   0.222   1.885
 8340SOL     OW25918   6.258   2.437   6.286
 8340SOL    HW125919   6.189   2.396   6.226
 8340SOL    HW225920   6.337   2.464   6.232
 8341SOL     OW25921   3.840   1.514   0.646
 8341SOL    HW125922   3.855   1.524   0.547
 8341SOL    HW225923   3.762   1.569   0.674
 8342SOL     OW25924   4.155   0.217   0.629
 8342SOL    HW125925   4.192   0.288   0.569
 8342SOL    HW225926   4.200   0.130   0.610
 8343SOL     OW25927   5.765   4.795   3.327
 8343SOL    HW125928   5.676   4.787   3.282
 8343SOL    HW225929   5.752   4.788   3.426
 8344SOL     OW25930   1.093   4.938   6.032
 8344SOL    HW125931   1.158   4.889   5.975
 8344SOL    HW225932   1.057   5.017   5.982
 8345SOL     OW25933   6.000   0.367   3.733
 8345SOL    HW125934   5.977   0.410   3.820
 8345SOL    HW225935   6.094   0.334   3.737
 8346SOL     OW25936   5.736   3.176   4.244
 8346SOL    HW125937   5.638   3.172   4.262
 8346SOL    HW225938   5.768   3.270   4.252
 8347SOL     OW25939   2.583   1.827   6.337
 8347SOL    HW125940   2.681   1.824   6.352
 8347SOL    HW225941   2.561   1.784   6.249
 8348SOL     OW25942   2.985   6.200   1.954
 8348SOL    HW125943   3.027   6.273   2.008
 8348SOL    HW225944   2.910   6.238   1.899
 8349SOL     OW25945   5.351   6.292   2.180
 8349SOL    HW125946   5.257   6.270   2.205
 8349SOL    HW225947   5.353   6.377   2.128
 8350SOL     OW25948   1.581   1.084   0.240
 8350SOL    HW125949   1.607   1.011   0.177
 8350SOL    HW225950   1.616   1.064   0.331
 8351SOL     OW25951   0.041   2.362   3.049
 8351SOL    HW125952   6.983   2.305   3.040
 8351SOL    HW225953   0.037   2.413   3.135
 8352SOL     OW25954   2.940   5.910   0.395
 8352SOL    HW125955   2.970   6.003   0.377
 8352SOL    HW225956   2.863   5.888   0.334
 8353SOL     OW25957   0.658   5.643   1.715
 8353SOL    HW125958   0.729   5.606   1.655
 8353SOL    HW225959   0.592   5.571   1.736
 8354SOL     OW25960   3.887   1.187   3.178
 8354SOL    HW125961   3.829   1.229   3.109
 8354SOL    HW225962   3.942   1.115   3.136
 8355SOL     OW25963   3.145   5.774   6.308
 8355SOL    HW125964   3.103   5.731   6.228
 8355SOL    HW225965   3.240   5.797   6.286
 8356SOL     OW25966   2.770   4.267   0.894
 8356SOL    HW125967   2.813   4.313   0.972
 8356SOL    HW225968   2.831   4.271   0.815
 8357SOL     OW25969   4.952   6.609   5.496
 8357SOL    HW125970   4.970   6.707   5.502
 8357SOL    HW225971   5.033   6.563   5.460
 8358SOL     OW25972   1.159   0.811   5.636
 8358SOL    HW125973   1.177   0.771   5.546
 8358SOL    HW225974   1.246   0.825   5.684
 8359SOL     OW25975   4.214   1.997   5.859
 8359SOL    HW125976   4.122   1.968   5.883
 8359SOL    HW225977   4.212   2.093   5.830
 8360SOL     OW25978   4.271   0.143   0.934
 8360SOL    HW125979   4.345   0.134   1.001
 8360SOL    HW225980   4.184   0.152   0.981
 8361SOL     OW25981   4.611   1.556   6.935
 8361SOL    HW125982   4.512   1.557   6.926
 8361SOL    HW225983   4.653   1.549   6.844
 8362SOL     OW25984   0.018   4.222   1.425
 8362SOL    HW125985   0.002   4.200   1.521
 8362SOL    HW225986   0.023   4.137   1.372
 8363SOL     OW25987   1.894   2.497   1.445
 8363SOL    HW125988   1.947   2.550   1.511
 8363SOL    HW225989   1.917   2.400   1.453
 8364SOL     OW25990   0.205   2.205   4.289
 8364SOL    HW125991   0.120   2.204   4.236
 8364SOL    HW225992   0.188   2.250   4.377
 8365SOL     OW25993   1.540   2.423   2.067
 8365SOL    HW125994   1.510   2.399   2.159
 8365SOL    HW225995   1.515   2.349   2.004
 8366SOL     OW25996   5.481   4.615   1.843
 8366SOL    HW125997   5.504   4.703   1.886
 8366SOL    HW225998   5.527   4.608   1.755
 8367SOL     OW25999   2.148   4.418   4.038
 8367SOL    HW126000   2.201   4.333   4.043
 8367SOL    HW226001   2.167   4.474   4.119
 8368SOL     OW26002   5.790   6.210   5.580
 8368SOL    HW126003   5.850   6.236   5.504
 8368SOL    HW226004   5.831   6.133   5.630
 8369SOL     OW26005   2.240   6.600   0.369
 8369SOL    HW126006   2.206   6.507   0.357
 8369SOL    HW226007   2.175   6.665   0.331
 8370SOL     OW26008   2.962   3.599   0.561
 8370SOL    HW126009   2.991   3.514   0.604
 8370SOL    HW226010   2.990   3.677   0.618
 8371SOL     OW26011   2.291   3.956   5.923
 8371SOL    HW126012   2.381   3.942   5.882
 8371SOL    HW226013   2.261   4.050   5.906
 8372SOL     OW26014   1.986   6.440   0.732
 8372SOL    HW126015   2.040   6.357   0.729
 8372SOL    HW226016   2.000   6.487   0.820
 8373SOL     OW26017   6.505   1.754   4.109
 8373SOL    HW126018   6.419   1.708   4.088
 8373SOL    HW226019   6.542   1.795   4.025
 8374SOL     OW26020   6.874   0.891   3.866
 8374SOL    HW126021   6.966   0.866   3.898
 8374SOL    HW226022   6.866   0.867   3.769
 8375SOL     OW26023   2.260   1.372   4.931
 8375SOL    HW126024   2.305   1.438   4.992
 8375SOL    HW226025   2.325   1.299   4.908
 8376SOL     OW26026   0.656   2.067   4.079
 8376SOL    HW126027   0.570   2.075   4.129
 8376SOL    HW226028   0.714   1.998   4.124
 8377SOL     OW26029   4.247   5.619   6.685
 8377SOL    HW126030   4.271   5.711   6.656
 8377SOL    HW226031   4.150   5.602   6.665
 8378SOL     OW26032   4.888   5.994   4.844
 8378SOL    HW126033   4.858   5.952   4.759
 8378SOL    HW226034   4.852   5.942   4.921
 8379SOL     OW26035   5.906   1.828   1.850
 8379SOL    HW126036   5.807   1.817   1.843
 8379SOL    HW226037   5.926   1.900   1.917
 8380SOL     OW26038   0.385   6.222   1.370
 8380SOL    HW126039   0.312   6.290   1.361
 8380SOL    HW226040   0.391   6.169   1.286
 8381SOL     OW26041   0.528   1.752   2.837
 8381SOL    HW126042   0.584   1.832   2.858
 8381SOL    HW226043   0.472   1.771   2.755
 8382SOL     OW26044   1.316   0.513   1.277
 8382SOL    HW126045   1.288   0.417   1.267
 8382SOL    HW226046   1.389   0.519   1.345
 8383SOL     OW26047   2.864   0.041   5.887
 8383SOL    HW126048   2.764   0.051   5.892
 8383SOL    HW226049   2.899   0.097   5.813
 8384SOL     OW26050   0.655   3.543   2.917
 8384SOL    HW126051   0.595   3.544   2.998
 8384SOL    HW226052   0.624   3.473   2.853
 8385SOL     OW26053   4.375   2.438   1.390
 8385SOL    HW126054   4.470   2.430   1.360
 8385SOL    HW226055   4.369   2.420   1.488
 8386SOL     OW26056   2.751   5.776   1.703
 8386SOL    HW126057   2.816   5.738   1.638
 8386SOL    HW226058   2.671   5.716   1.710
 8387SOL     OW26059   0.950   1.569   3.544
 8387SOL    HW126060   1.016   1.581   3.619
 8387SOL    HW226061   0.911   1.477   3.550
 8388SOL     OW26062   4.212   5.434   0.892
 8388SOL    HW126063   4.246   5.452   0.799
 8388SOL    HW226064   4.264   5.358   0.932
 8389SOL     OW26065   0.792   2.946   4.173
 8389SOL    HW126066   0.852   2.965   4.251
 8389SOL    HW226067   0.698   2.938   4.204
 8390SOL     OW26068   2.826   6.976   5.545
 8390SOL    HW126069   2.877   6.977   5.459
 8390SOL    HW226070   2.826   0.044   5.585
 8391SOL     OW26071   5.756   5.959   0.804
 8391SOL    HW126072   5.812   5.881   0.829
 8391SOL    HW226073   5.780   6.037   0.861
 8392SOL     OW26074   5.223   6.465   6.438
 8392SOL    HW126075   5.166   6.547   6.443
 8392SOL    HW226076   5.212   6.421   6.349
 8393SOL     OW26077   7.004   5.118   2.509
 8393SOL    HW126078   0.071   5.094   2.475
 8393SOL    HW226079   7.012   5.156   2.601
 8394SOL     OW26080   0.727   1.924   2.733
 8394SOL    HW126081   0.716   1.918   2.634
 8394SOL    HW226082   0.692   2.013   2.764
 8395SOL     OW26083   0.804   6.007   5.567
 8395SOL    HW126084   0.849   6.009   5.478
 8395SOL    HW226085   0.859   6.058   5.633
 8396SOL     OW26086   4.317   2.522   1.071
 8396SOL    HW126087   4.402   2.473   1.089
 8396SOL    HW226088   4.335   2.621   1.067
 8397SOL     OW26089   2.130   4.886   3.843
 8397SOL    HW126090   2.185   4.967   3.862
 8397SOL    HW226091   2.181   4.805   3.874
 8398SOL     OW26092   5.648   0.958   0.024
 8398SOL    HW126093   5.618   0.906   0.104
 8398SOL    HW226094   5.633   1.055   0.041
 8399SOL     OW26095   5.773   6.001   0.134
 8399SOL    HW126096   5.843   5.930   0.122
 8399SOL    HW226097   5.682   5.958   0.138
 8400SOL     OW26098   6.319   0.080   4.652
 8400SOL    HW126099   6.352   0.111   4.741
 8400SOL    HW226100   6.373   0.124   4.580
 8401SOL     OW26101   2.570   4.264   5.902
 8401SOL    HW126102   2.641   4.334   5.912
 8401SOL    HW226103   2.480   4.307   5.907
 8402SOL     OW26104   4.676   1.446   6.201
 8402SOL    HW126105   4.721   1.366   6.243
 8402SOL    HW226106   4.665   1.430   6.103
 8403SOL     OW26107   1.036   2.056   4.622
 8403SOL    HW126108   1.130   2.022   4.618
 8403SOL    HW226109   1.021   2.104   4.709
 8404SOL     OW26110   4.758   4.987   5.310
 8404SOL    HW126111   4.709   5.029   5.387
 8404SOL    HW226112   4.802   5.058   5.255
 8405SOL     OW26113   1.111   2.580   4.943
 8405SOL    HW126114   1.135   2.532   4.859
 8405SOL    HW226115   1.194   2.605   4.992
 8406SOL     OW26116   5.051   3.941   1.241
 8406SOL    HW126117   5.097   3.957   1.154
 8406SOL    HW226118   5.060   4.023   1.298
 8407SOL     OW26119   4.947   3.108   2.606
 8407SOL    HW126120   4.936   3.021   2.558
 8407SOL    HW226121   5.037   3.110   2.650
 8408SOL     OW26122   4.877   3.250   4.137
 8408SOL    HW126123   4.851   3.325   4.077
 8408SOL    HW226124   4.859   3.276   4.232
 8409SOL     OW26125   0.293   1.697   4.045
 8409SOL    HW126126   0.216   1.716   3.984
 8409SOL    HW226127   0.306   1.775   4.107
 8410SOL     OW26128   2.376   6.673   2.742
 8410SOL    HW126129   2.369   6.699   2.646
 8410SOL    HW226130   2.394   6.575   2.749
 8411SOL     OW26131   1.959   2.817   3.204
 8411SOL    HW126132   1.972   2.878   3.282
 8411SOL    HW226133   1.898   2.742   3.230
 8412SOL     OW26134   6.013   3.308   2.187
 8412SOL    HW126135   6.025   3.255   2.103
 8412SOL    HW226136   5.986   3.246   2.261
 8413SOL     OW26137   2.587   4.525   1.453
 8413SOL    HW126138   2.612   4.523   1.550
 8413SOL    HW226139   2.513   4.460   1.437
 8414SOL     OW26140   5.523   6.606   2.547
 8414SOL    HW126141   5.543   6.645   2.637
 8414SOL    HW226142   5.588   6.642   2.481
 8415SOL     OW26143   6.565   3.886   1.748
 8415SOL    HW126144   6.612   3.833   1.819
 8415SOL    HW226145   6.484   3.837   1.717
 8416SOL     OW26146   5.004   4.337   2.294
 8416SOL    HW126147   4.995   4.237   2.297
 8416SOL    HW226148   4.923   4.376   2.249
 8417SOL     OW26149   2.402   5.535   6.311
 8417SOL    HW126150   2.463   5.458   6.290
 8417SOL    HW226151   2.438   5.618   6.267
 8418SOL     OW26152   6.137   5.622   2.585
 8418SOL    HW126153   6.065   5.646   2.519
 8418SOL    HW226154   6.177   5.534   2.561
 8419SOL     OW26155   4.301   0.202   3.914
 8419SOL    HW126156   4.317   0.299   3.898
 8419SOL    HW226157   4.221   0.190   3.973
 8420SOL     OW26158   3.496   2.110   5.551
 8420SOL    HW126159   3.422   2.165   5.513
 8420SOL    HW226160   3.537   2.054   5.480
 8421SOL     OW26161   1.278   6.458   1.446
 8421SOL    HW126162   1.375   6.450   1.469
 8421SOL    HW226163   1.268   6.498   1.355
 8422SOL     OW26164   3.943   6.378   1.646
 8422SOL    HW126165   3.936   6.301   1.583
 8422SOL    HW226166   3.859   6.385   1.700
 8423SOL     OW26167   1.925   3.913   1.138
 8423SOL    HW126168   1.947   3.991   1.197
 8423SOL    HW226169   1.827   3.913   1.117
 8424SOL     OW26170   3.156   2.126   2.335
 8424SOL    HW126171   3.130   2.222   2.337
 8424SOL    HW226172   3.115   2.082   2.255
 8425SOL     OW26173   6.090   4.905   6.973
 8425SOL    HW126174   6.183   4.936   6.992
 8425SOL    HW226175   6.084   4.873   6.879
 8426SOL     OW26176   4.042   3.576   2.097
 8426SOL    HW126177   4.059   3.565   2.195
 8426SOL    HW226178   3.954   3.536   2.074
 8427SOL     OW26179   2.297   2.906   6.242
 8427SOL    HW126180   2.314   2.840   6.168
 8427SOL    HW226181   2.289   2.857   6.329
 8428SOL     OW26182   6.052   4.651   1.723
 8428SOL    HW126183   6.040   4.638   1.625
 8428SOL    HW226184   5.963   4.651   1.768
 8429SOL     OW26185   2.333   0.292   2.737
 8429SOL    HW126186   2.354   0.197   2.717
 8429SOL    HW226187   2.395   0.325   2.809
 8430SOL     OW26188   5.492   4.115   3.219
 8430SOL    HW126189   5.580   4.070   3.234
 8430SOL    HW226190   5.419   4.046   3.218
 8431SOL     OW26191   2.799   3.766   1.481
 8431SOL    HW126192   2.728   3.753   1.411
 8431SOL    HW226193   2.772   3.720   1.565
 8432SOL     OW26194   4.500   6.506   0.445
 8432SOL    HW126195   4.426   6.573   0.448
 8432SOL    HW226196   4.548   6.506   0.533
 8433SOL     OW26197   1.354   1.630   4.626
 8433SOL    HW126198   1.333   1.643   4.529
 8433SOL    HW226199   1.380   1.534   4.641
 8434SOL     OW26200   5.543   6.056   6.574
 8434SOL    HW126201   5.548   6.137   6.516
 8434SOL    HW226202   5.554   6.082   6.670
 8435SOL     OW26203   5.163   2.927   1.221
 8435SOL    HW126204   5.087   2.986   1.246
 8435SOL    HW226205   5.187   2.869   1.299
 8436SOL     OW26206   3.285   4.364   1.610
 8436SOL    HW126207   3.319   4.287   1.663
 8436SOL    HW226208   3.185   4.369   1.618
 8437SOL     OW26209   6.904   2.256   1.233
 8437SOL    HW126210   6.898   2.288   1.138
 8437SOL    HW226211   6.854   2.319   1.293
 8438SOL     OW26212   2.313   6.643   1.130
 8438SOL    HW126213   2.274   6.608   1.044
 8438SOL    HW226214   2.264   6.725   1.158
 8439SOL     OW26215   6.319   6.890   2.243
 8439SOL    HW126216   6.352   6.825   2.175
 8439SOL    HW226217   6.222   6.871   2.262
 8440SOL     OW26218   0.199   2.136   3.578
 8440SOL    HW126219   0.298   2.125   3.563
 8440SOL    HW226220   0.152   2.138   3.490
 8441SOL     OW26221   4.363   5.237   1.518
 8441SOL    HW126222   4.292   5.193   1.464
 8441SOL    HW226223   4.365   5.198   1.611
 8442SOL     OW26224   1.885   3.694   0.193
 8442SOL    HW126225   1.916   3.783   0.227
 8442SOL    HW226226   1.787   3.697   0.176
 8443SOL     OW26227   0.835   1.971   2.343
 8443SOL    HW126228   0.753   1.917   2.363
 8443SOL    HW226229   0.916   1.924   2.379
 8444SOL     OW26230   4.336   0.850   2.541
 8444SOL    HW126231   4.296   0.817   2.627
 8444SOL    HW226232   4.281   0.819   2.464
 8445SOL     OW26233   3.865   5.514   2.040
 8445SOL    HW126234   3.955   5.556   2.028
 8445SOL    HW226235   3.872   5.415   2.028
 8446SOL     OW26236   6.746   4.811   3.843
 8446SOL    HW126237   6.782   4.894   3.800
 8446SOL    HW226238   6.647   4.811   3.837
 8447SOL     OW26239   4.666   3.157   1.230
 8447SOL    HW126240   4.719   3.195   1.155
 8447SOL    HW226241   4.688   3.206   1.315
 8448SOL     OW26242   1.435   2.389   6.166
 8448SOL    HW126243   1.510   2.406   6.101
 8448SOL    HW226244   1.349   2.379   6.115
 8449SOL     OW26245   1.380   1.656   5.196
 8449SOL    HW126246   1.460   1.697   5.154
 8449SOL    HW226247   1.319   1.621   5.125
 8450SOL     OW26248   2.153   5.579   2.017
 8450SOL    HW126249   2.074   5.599   1.959
 8450SOL    HW226250   2.178   5.483   2.007
 8451SOL     OW26251   4.324   3.261   0.568
 8451SOL    HW126252   4.276   3.174   0.559
 8451SOL    HW226253   4.267   3.324   0.621
 8452SOL     OW26254   7.013   5.551   0.821
 8452SOL    HW126255   6.920   5.521   0.800
 8452SOL    HW226256   0.049   5.531   0.743
 8453SOL     OW26257   0.301   4.874   5.247
 8453SOL    HW126258   0.323   4.960   5.293
 8453SOL    HW226259   0.317   4.883   5.149
 8454SOL     OW26260   1.868   6.442   5.076
 8454SOL    HW126261   1.795   6.375   5.059
 8454SOL    HW226262   1.826   6.530   5.102
 8455SOL     OW26263   6.175   2.683   0.809
 8455SOL    HW126264   6.115   2.660   0.885
 8455SOL    HW226265   6.214   2.774   0.824
 8456SOL     OW26266   5.726   5.910   3.289
 8456SOL    HW126267   5.754   5.818   3.262
 8456SOL    HW226268   5.661   5.946   3.221
 8457SOL     OW26269   6.181   5.961   6.594
 8457SOL    HW126270   6.224   6.050   6.611
 8457SOL    HW226271   6.102   5.950   6.654
 8458SOL     OW26272   1.257   1.727   1.390
 8458SOL    HW126273   1.338   1.681   1.425
 8458SOL    HW226274   1.279   1.823   1.369
 8459SOL     OW26275   2.843   5.603   2.339
 8459SOL    HW126276   2.858   5.506   2.363
 8459SOL    HW226277   2.842   5.613   2.240
 8460SOL     OW26278   3.973   0.877   0.535
 8460SOL    HW126279   3.967   0.918   0.626
 8460SOL    HW226280   3.970   0.777   0.544
 8461SOL     OW26281   4.994   4.245   2.641
 8461SOL    HW126282   4.950   4.309   2.579
 8461SOL    HW226283   4.925   4.200   2.697
 8462SOL     OW26284   2.539   4.075   0.523
 8462SOL    HW126285   2.446   4.067   0.485
 8462SOL    HW226286   2.595   4.130   0.461
 8463SOL     OW26287   6.265   0.793   7.002
 8463SOL    HW126288   6.193   0.859   6.982
 8463SOL    HW226289   6.348   0.841   0.007
 8464SOL     OW26290   6.905   4.035   6.100
 8464SOL    HW126291   6.820   4.081   6.126
 8464SOL    HW226292   6.979   4.102   6.097
 8465SOL     OW26293   4.840   3.214   1.026
 8465SOL    HW126294   4.791   3.288   0.981
 8465SOL    HW226295   4.922   3.250   1.070
 8466SOL     OW26296   6.803   1.267   5.762
 8466SOL    HW126297   6.841   1.311   5.843
 8466SOL    HW226298   6.718   1.219   5.787
 8467SOL     OW26299   3.712   1.335   0.340
 8467SOL    HW126300   3.771   1.261   0.308
 8467SOL    HW226301   3.754   1.423   0.319
 8468SOL     OW26302   5.630   3.264   6.842
 8468SOL    HW126303   5.595   3.357   6.835
 8468SOL    HW226304   5.721   3.266   6.882
 8469SOL     OW26305   4.253   3.458   5.573
 8469SOL    HW126306   4.322   3.485   5.505
 8469SOL    HW226307   4.279   3.494   5.662
 8470SOL     OW26308   1.352   5.320   1.552
 8470SOL    HW126309   1.338   5.228   1.588
 8470SOL    HW226310   1.358   5.384   1.629
 8471SOL     OW26311   3.702   1.743   4.314
 8471SOL    HW126312   3.741   1.828   4.279
 8471SOL    HW226313   3.679   1.754   4.410
 8472SOL     OW26314   6.528   1.612   6.168
 8472SOL    HW126315   6.514   1.522   6.128
 8472SOL    HW226316   6.484   1.681   6.111
 8473SOL     OW26317   5.070   4.357   0.184
 8473SOL    HW126318   4.999   4.298   0.223
 8473SOL    HW226319   5.062   4.357   0.085
 8474SOL     OW26320   3.974   3.963   3.812
 8474SOL    HW126321   3.935   3.962   3.720
 8474SOL    HW226322   3.940   4.043   3.862
 8475SOL     OW26323   6.613   2.609   2.867
 8475SOL    HW126324   6.548   2.601   2.942
 8475SOL    HW226325   6.565   2.599   2.780
 8476SOL     OW26326   6.129   1.193   1.394
 8476SOL    HW126327   6.157   1.170   1.487
 8476SOL    HW226328   6.105   1.110   1.344
 8477SOL     OW26329   5.717   6.847   1.859
 8477SOL    HW126330   5.736   6.932   1.811
 8477SOL    HW226331   5.702   6.866   1.956
 8478SOL     OW26332   0.171   0.197   5.664
 8478SOL    HW126333   0.072   0.187   5.667
 8478SOL    HW226334   0.204   0.227   5.754
 8479SOL     OW26335   1.059   2.803   0.586
 8479SOL    HW126336   1.071   2.859   0.504
 8479SOL    HW226337   1.032   2.711   0.560
 8480SOL     OW26338   4.218   3.608   0.373
 8480SOL    HW126339   4.139   3.627   0.432
 8480SOL    HW226340   4.202   3.522   0.323
 8481SOL     OW26341   4.580   2.179   3.192
 8481SOL    HW126342   4.558   2.151   3.099
 8481SOL    HW226343   4.502   2.226   3.232
 8482SOL     OW26344   4.779   0.747   0.564
 8482SOL    HW126345   4.805   0.759   0.659
 8482SOL    HW226346   4.776   0.650   0.542
 8483SOL     OW26347   3.746   4.993   2.899
 8483SOL    HW126348   3.687   4.927   2.853
 8483SOL    HW226349   3.764   5.070   2.838
 8484SOL     OW26350   4.777   5.857   5.042
 8484SOL    HW126351   4.694   5.910   5.053
 8484SOL    HW226352   4.809   5.825   5.131
 8485SOL     OW26353   3.688   1.917   0.200
 8485SOL    HW126354   3.631   1.837   0.217
 8485SOL    HW226355   3.661   1.960   0.114
 8486SOL     OW26356   6.361   2.508   3.605
 8486SOL    HW126357   6.454   2.541   3.621
 8486SOL    HW226358   6.358   2.458   3.518
 8487SOL     OW26359   6.672   1.747   6.503
 8487SOL    HW126360   6.718   1.806   6.570
 8487SOL    HW226361   6.577   1.734   6.530
 8488SOL     OW26362   4.743   5.555   1.958
 8488SOL    HW126363   4.787   5.613   1.890
 8488SOL    HW226364   4.745   5.601   2.047
 8489SOL     OW26365   6.243   2.018   1.709
 8489SOL    HW126366   6.180   1.943   1.687
 8489SOL    HW226367   6.202   2.077   1.778
 8490SOL     OW26368   3.346   0.381   6.505
 8490SOL    HW126369   3.257   0.347   6.534
 8490SOL    HW226370   3.337   0.474   6.469
 8491SOL     OW26371   3.146   5.818   1.742
 8491SOL    HW126372   3.135   5.896   1.680
 8491SOL    HW226373   3.123   5.847   1.835
 8492SOL     OW26374   6.295   6.433   4.696
 8492SOL    HW126375   6.279   6.527   4.665
 8492SOL    HW226376   6.210   6.382   4.693
 8493SOL     OW26377   5.056   1.330   6.587
 8493SOL    HW126378   5.013   1.415   6.620
 8493SOL    HW226379   4.985   1.260   6.574
 8494SOL     OW26380   6.583   4.273   2.609
 8494SOL    HW126381   6.587   4.173   2.606
 8494SOL    HW226382   6.583   4.309   2.516
 8495SOL     OW26383   6.221   5.100   5.876
 8495SOL    HW126384   6.274   5.172   5.832
 8495SOL    HW226385   6.232   5.014   5.826
 8496SOL     OW26386   5.129   2.849   2.223
 8496SOL    HW126387   5.120   2.858   2.322
 8496SOL    HW226388   5.179   2.927   2.186
 8497SOL     OW26389   6.583   0.689   3.203
 8497SOL    HW126390   6.506   0.724   3.149
 8497SOL    HW226391   6.614   0.761   3.266
 8498SOL     OW26392   4.954   0.272   3.886
 8498SOL    HW126393   4.948   0.177   3.853
 8498SOL    HW226394   4.862   0.308   3.900
 8499SOL     OW26395   5.726   6.440   5.093
 8499SOL    HW126396   5.717   6.466   5.189
 8499SOL    HW226397   5.713   6.521   5.035
 8500SOL     OW26398   1.349   0.960   6.133
 8500SOL    HW126399   1.362   1.010   6.219
 8500SOL    HW226400   1.253   0.935   6.124
 8501SOL     OW26401   2.133   1.180   6.695
 8501SOL    HW126402   2.127   1.129   6.780
 8501SOL    HW226403   2.120   1.278   6.713
 8502SOL     OW26404   0.307   4.015   6.420
 8502SOL    HW126405   0.292   4.105   6.379
 8502SOL    HW226406   0.230   3.955   6.398
 8503SOL     OW26407   4.821   1.451   4.873
 8503SOL    HW126408   4.757   1.428   4.946
 8503SOL    HW226409   4.769   1.471   4.789
 8504SOL     OW26410   1.463   0.247   2.197
 8504SOL    HW126411   1.422   0.168   2.244
 8504SOL    HW226412   1.402   0.325   2.203
 8505SOL     OW26413   5.427   3.288   2.335
 8505SOL    HW126414   5.483   3.255   2.259
 8505SOL    HW226415   5.331   3.271   2.315
 8506SOL     OW26416   1.893   0.730   6.184
 8506SOL    HW126417   1.820   0.751   6.119
 8506SOL    HW226418   1.977   0.709   6.135
 8507SOL     OW26419   3.053   6.089   5.256
 8507SOL    HW126420   3.064   6.184   5.228
 8507SOL    HW226421   3.116   6.069   5.331
 8508SOL     OW26422   2.950   1.313   0.053
 8508SOL    HW126423   3.016   1.362   7.020
 8508SOL    HW226424   2.969   1.330   0.150
 8509SOL     OW26425   5.724   2.306   3.157
 8509SOL    HW126426   5.702   2.398   3.191
 8509SOL    HW226427   5.728   2.308   3.057
 8510SOL     OW26428   0.088   2.249   4.736
 8510SOL    HW126429   0.167   2.275   4.680
 8510SOL    HW226430   0.088   2.150   4.749
 8511SOL     OW26431   5.519   2.162   2.803
 8511SOL    HW126432   5.563   2.119   2.724
 8511SOL    HW226433   5.421   2.172   2.785
 8512SOL     OW26434   2.196   6.560   5.914
 8512SOL    HW126435   2.180   6.644   5.862
 8512SOL    HW226436   2.168   6.481   5.860
 8513SOL     OW26437   5.077   6.043   7.021
 8513SOL    HW126438   5.079   6.039   0.097
 8513SOL    HW226439   5.170   6.051   6.986
 8514SOL     OW26440   3.163   6.342   3.909
 8514SOL    HW126441   3.081   6.357   3.965
 8514SOL    HW226442   3.171   6.416   3.842
 8515SOL     OW26443   5.646   2.089   0.763
 8515SOL    HW126444   5.636   2.187   0.744
 8515SOL    HW226445   5.738   2.060   0.736
 8516SOL     OW26446   7.018   1.852   2.372
 8516SOL    HW126447   6.968   1.789   2.312
 8516SOL    HW226448   0.002   1.941   2.327
 8517SOL     OW26449   1.418   3.835   0.320
 8517SOL    HW126450   1.442   3.751   0.369
 8517SOL    HW226451   1.497   3.896   0.318
 8518SOL     OW26452   3.033   6.189   0.440
 8518SOL    HW126453   3.129   6.163   0.449
 8518SOL    HW226454   3.026   6.288   0.428
 8519SOL     OW26455   2.211   5.855   3.110
 8519SOL    HW126456   2.203   5.776   3.050
 8519SOL    HW226457   2.245   5.826   3.199
 8520SOL     OW26458   3.552   0.314   6.668
 8520SOL    HW126459   3.631   0.375   6.660
 8520SOL    HW226460   3.482   0.341   6.601
 8521SOL     OW26461   1.433   0.345   0.890
 8521SOL    HW126462   1.483   0.422   0.850
 8521SOL    HW226463   1.491   0.264   0.891
 8522SOL     OW26464   2.245   6.030   4.544
 8522SOL    HW126465   2.287   6.026   4.635
 8522SOL    HW226466   2.304   6.081   4.482
 8523SOL     OW26467   1.365   6.611   0.066
 8523SOL    HW126468   1.396   6.538   0.126
 8523SOL    HW226469   1.396   6.699   0.102
 8524SOL     OW26470   1.733   1.765   6.532
 8524SOL    HW126471   1.657   1.762   6.597
 8524SOL    HW226472   1.706   1.820   6.452
 8525SOL     OW26473   5.226   3.170   3.121
 8525SOL    HW126474   5.317   3.150   3.158
 8525SOL    HW226475   5.173   3.086   3.117
 8526SOL     OW26476   1.610   3.279   2.795
 8526SOL    HW126477   1.705   3.267   2.822
 8526SOL    HW226478   1.604   3.284   2.696
 8527SOL     OW26479   3.995   0.601   3.833
 8527SOL    HW126480   3.964   0.515   3.793
 8527SOL    HW226481   3.919   0.643   3.883
 8528SOL     OW26482   4.846   2.563   0.127
 8528SOL    HW126483   4.913   2.635   0.115
 8528SOL    HW226484   4.801   2.573   0.216
 8529SOL     OW26485   6.946   5.376   6.492
 8529SOL    HW126486   6.979   5.286   6.463
 8529SOL    HW226487   7.022   5.440   6.497
 8530SOL     OW26488   1.550   4.079   5.827
 8530SOL    HW126489   1.591   3.999   5.869
 8530SOL    HW226490   1.559   4.074   5.728
 8531SOL     OW26491   3.941   4.857   2.187
 8531SOL    HW126492   3.852   4.890   2.156
 8531SOL    HW226493   3.931   4.763   2.222
 8532SOL     OW26494   1.351   4.071   6.780
 8532SOL    HW126495   1.446   4.059   6.751
 8532SOL    HW226496   1.310   4.147   6.729
 8533SOL     OW26497   3.921   0.005   6.050
 8533SOL    HW126498   3.839   0.012   6.107
 8533SOL    HW226499   3.974   0.089   6.059
 8534SOL     OW26500   1.307   2.514   2.501
 8534SOL    HW126501   1.368   2.525   2.580
 8534SOL    HW226502   1.322   2.589   2.437
 8535SOL     OW26503   6.658   3.191   5.230
 8535SOL    HW126504   6.693   3.120   5.168
 8535SOL    HW226505   6.652   3.154   5.323
 8536SOL     OW26506   7.017   1.317   4.482
 8536SOL    HW126507   0.044   1.365   4.554
 8536SOL    HW226508   7.022   1.218   4.497
 8537SOL     OW26509   5.390   6.570   2.985
 8537SOL    HW126510   5.298   6.592   2.951
 8537SOL    HW226511   5.445   6.534   2.909
 8538SOL     OW26512   5.781   0.643   5.500
 8538SOL    HW126513   5.714   0.616   5.431
 8538SOL    HW226514   5.866   0.670   5.454
 8539SOL     OW26515   0.016   2.966   3.357
 8539SOL    HW126516   0.051   3.023   3.431
 8539SOL    HW226517   6.960   3.011   3.315
 8540SOL     OW26518   3.969   6.813   6.566
 8540SOL    HW126519   3.877   6.780   6.544
 8540SOL    HW226520   3.962   6.898   6.618
 8541SOL     OW26521   3.186   6.134   4.867
 8541SOL    HW126522   3.198   6.134   4.966
 8541SOL    HW226523   3.092   6.160   4.845
 8542SOL     OW26524   0.880   5.401   5.837
 8542SOL    HW126525   0.834   5.465   5.775
 8542SOL    HW226526   0.843   5.309   5.823
 8543SOL     OW26527   2.553   2.597   5.650
 8543SOL    HW126528   2.575   2.500   5.659
 8543SOL    HW226529   2.600   2.634   5.569
 8544SOL     OW26530   5.133   5.231   5.250
 8544SOL    HW126531   5.224   5.273   5.253
 8544SOL    HW226532   5.067   5.290   5.295
 8545SOL     OW26533   2.010   6.787   6.502
 8545SOL    HW126534   1.943   6.763   6.572
 8545SOL    HW226535   1.997   6.882   6.474
 8546SOL     OW26536   4.525   1.019   2.938
 8546SOL    HW126537   4.528   1.119   2.934
 8546SOL    HW226538   4.526   0.990   3.034
 8547SOL     OW26539   5.728   6.316   5.847
 8547SOL    HW126540   5.692   6.288   5.758
 8547SOL    HW226541   5.824   6.292   5.853
 8548SOL     OW26542   0.937   3.602   4.622
 8548SOL    HW126543   0.894   3.641   4.541
 8548SOL    HW226544   1.001   3.669   4.661
 8549SOL     OW26545   1.042   0.096   4.239
 8549SOL    HW126546   1.080   0.061   4.154
 8549SOL    HW226547   1.000   0.185   4.223
 8550SOL     OW26548   6.884   5.159   5.839
 8550SOL    HW126549   6.838   5.079   5.802
 8550SOL    HW226550   6.890   5.151   5.939
 8551SOL     OW26551   2.964   0.272   5.292
 8551SOL    HW126552   2.955   0.362   5.335
 8551SOL    HW226553   2.877   0.223   5.300
 8552SOL     OW26554   2.853   1.418   1.778
 8552SOL    HW126555   2.840   1.346   1.710
 8552SOL    HW226556   2.945   1.456   1.769
 8553SOL     OW26557   4.954   3.908   0.389
 8553SOL    HW126558   4.955   3.845   0.311
 8553SOL    HW226559   4.869   3.896   0.440
 8554SOL     OW26560   1.899   0.770   0.233
 8554SOL    HW126561   1.810   0.804   0.202
 8554SOL    HW226562   1.936   0.707   0.165
 8555SOL     OW26563   4.278   1.912   4.146
 8555SOL    HW126564   4.229   1.868   4.071
 8555SOL    HW226565   4.235   1.886   4.233
 8556SOL     OW26566   0.500   5.405   5.928
 8556SOL    HW126567   0.545   5.337   5.986
 8556SOL    HW226568   0.561   5.482   5.913
 8557SOL     OW26569   6.889   0.535   6.536
 8557SOL    HW126570   6.960   0.470   6.565
 8557SOL    HW226571   6.802   0.510   6.577
 8558SOL     OW26572   2.864   5.767   4.273
 8558SOL    HW126573   2.870   5.718   4.360
 8558SOL    HW226574   2.776   5.813   4.267
 8559SOL     OW26575   1.835   4.368   2.785
 8559SOL    HW126576   1.748   4.321   2.767
 8559SOL    HW226577   1.850   4.373   2.884
 8560SOL     OW26578   2.958   3.986   0.785
 8560SOL    HW126579   2.881   3.944   0.736
 8560SOL    HW226580   2.961   3.952   0.879
 8561SOL     OW26581   3.544   0.489   2.955
 8561SOL    HW126582   3.471   0.519   2.894
 8561SOL    HW226583   3.548   0.389   2.956
 8562SOL     OW26584   5.213   2.532   6.990
 8562SOL    HW126585   5.276   2.594   0.014
 8562SOL    HW226586   5.262   2.484   6.917
 8563SOL     OW26587   2.974   5.053   2.441
 8563SOL    HW126588   3.021   4.981   2.389
 8563SOL    HW226589   3.028   5.137   2.437
 8564SOL     OW26590   4.318   6.729   0.385
 8564SOL    HW126591   4.299   6.728   0.484
 8564SOL    HW226592   4.234   6.711   0.335
 8565SOL     OW26593   1.367   4.560   1.510
 8565SOL    HW126594   1.366   4.532   1.606
 8565SOL    HW226595   1.313   4.495   1.455
 8566SOL     OW26596   3.374   1.058   2.565
 8566SOL    HW126597   3.393   1.004   2.483
 8566SOL    HW226598   3.282   1.098   2.558
 8567SOL     OW26599   1.473   2.384   2.323
 8567SOL    HW126600   1.563   2.369   2.364
 8567SOL    HW226601   1.405   2.397   2.395
 8568SOL     OW26602   6.463   0.567   6.317
 8568SOL    HW126603   6.555   0.604   6.331
 8568SOL    HW226604   6.410   0.631   6.262
 8569SOL     OW26605   4.766   2.226   0.341
 8569SOL    HW126606   4.791   2.262   0.431
 8569SOL    HW226607   4.681   2.269   0.310
 8570SOL     OW26608   2.468   2.154   1.842
 8570SOL    HW126609   2.524   2.110   1.771
 8570SOL    HW226610   2.473   2.253   1.832
 8571SOL     OW26611   1.776   0.924   2.989
 8571SOL    HW126612   1.852   0.859   2.987
 8571SOL    HW226613   1.701   0.889   2.934
 8572SOL     OW26614   2.540   3.923   5.806
 8572SOL    HW126615   2.598   3.934   5.725
 8572SOL    HW226616   2.590   3.876   5.878
 8573SOL     OW26617   2.884   6.055   6.852
 8573SOL    HW126618   2.831   5.979   6.890
 8573SOL    HW226619   2.945   6.020   6.781
 8574SOL     OW26620   4.985   0.733   5.503
 8574SOL    HW126621   5.046   0.718   5.425
 8574SOL    HW226622   4.896   0.692   5.484
 8575SOL     OW26623   3.523   6.006   3.725
 8575SOL    HW126624   3.599   6.067   3.751
 8575SOL    HW226625   3.437   6.046   3.755
 8576SOL     OW26626   1.595   4.694   4.332
 8576SOL    HW126627   1.552   4.619   4.281
 8576SOL    HW226628   1.651   4.656   4.406
 8577SOL     OW26629   1.977   1.373   0.724
 8577SOL    HW126630   1.931   1.448   0.772
 8577SOL    HW226631   2.032   1.410   0.649
 8578SOL     OW26632   1.165   0.251   0.068
 8578SOL    HW126633   1.233   0.266   7.020
 8578SOL    HW226634   1.080   0.298   0.044
 8579SOL     OW26635   2.561   6.978   2.631
 8579SOL    HW126636   2.592   6.954   2.540
 8579SOL    HW226637   2.616   0.031   2.666
 8580SOL     OW26638   1.735   0.113   2.094
 8580SOL    HW126639   1.731   0.040   2.026
 8580SOL    HW226640   1.648   0.163   2.093
 8581SOL     OW26641   3.392   4.636   1.129
 8581SOL    HW126642   3.477   4.621   1.181
 8581SOL    HW226643   3.321   4.670   1.190
 8582SOL     OW26644   3.804   5.641   5.672
 8582SOL    HW126645   3.790   5.692   5.586
 8582SOL    HW226646   3.897   5.656   5.705
 8583SOL     OW26647   3.720   6.877   3.009
 8583SOL    HW126648   3.667   6.878   2.924
 8583SOL    HW226649   3.776   6.960   3.015
 8584SOL     OW26650   6.491   1.213   4.584
 8584SOL    HW126651   6.420   1.176   4.525
 8584SOL    HW226652   6.581   1.183   4.551
 8585SOL     OW26653   5.783   2.741   2.653
 8585SOL    HW126654   5.839   2.799   2.712
 8585SOL    HW226655   5.713   2.798   2.609
 8586SOL     OW26656   6.965   6.137   6.591
 8586SOL    HW126657   6.870   6.111   6.603
 8586SOL    HW226658   7.015   6.120   6.676
 8587SOL     OW26659   0.273   2.179   0.115
 8587SOL    HW126660   0.177   2.196   0.095
 8587SOL    HW226661   0.283   2.147   0.209
 8588SOL     OW26662   2.696   0.607   5.432
 8588SOL    HW126663   2.793   0.586   5.442
 8588SOL    HW226664   2.657   0.551   5.359
 8589SOL     OW26665   5.808   2.846   0.183
 8589SOL    HW126666   5.782   2.821   0.090
 8589SOL    HW226667   5.857   2.771   0.226
 8590SOL     OW26668   0.359   0.930   4.232
 8590SOL    HW126669   0.430   0.947   4.163
 8590SOL    HW226670   0.283   0.881   4.190
 8591SOL     OW26671   6.763   4.537   6.352
 8591SOL    HW126672   6.695   4.603   6.383
 8591SOL    HW226673   6.744   4.447   6.391
 8592SOL     OW26674   0.350   1.849   4.314
 8592SOL    HW126675   0.251   1.857   4.329
 8592SOL    HW226676   0.380   1.920   4.251
 8593SOL     OW26677   5.668   1.381   6.909
 8593SOL    HW126678   5.659   1.318   6.986
 8593SOL    HW226679   5.595   1.363   6.843
 8594SOL     OW26680   6.113   3.623   6.648
 8594SOL    HW126681   6.152   3.537   6.681
 8594SOL    HW226682   6.116   3.691   6.721
 8595SOL     OW26683   5.806   6.472   3.191
 8595SOL    HW126684   5.848   6.546   3.243
 8595SOL    HW226685   5.709   6.492   3.176
 8596SOL     OW26686   0.399   1.290   4.059
 8596SOL    HW126687   0.320   1.340   4.095
 8596SOL    HW226688   0.467   1.280   4.131
 8597SOL     OW26689   6.292   2.983   5.947
 8597SOL    HW126690   6.245   2.912   6.000
 8597SOL    HW226691   6.311   2.949   5.855
 8598SOL     OW26692   6.227   0.233   5.070
 8598SOL    HW126693   6.269   0.200   4.986
 8598SOL    HW226694   6.128   0.228   5.062
 8599SOL     OW26695   6.789   3.666   4.265
 8599SOL    HW126696   6.862   3.733   4.254
 8599SOL    HW226697   6.819   3.578   4.227
 8600SOL     OW26698   4.825   2.579   0.748
 8600SOL    HW126699   4.865   2.670   0.737
 8600SOL    HW226700   4.729   2.588   0.774
 8601SOL     OW26701   6.456   6.102   3.386
 8601SOL    HW126702   6.369   6.056   3.371
 8601SOL    HW226703   6.523   6.070   3.318
 8602SOL     OW26704   1.927   6.525   6.191
 8602SOL    HW126705   2.016   6.568   6.172
 8602SOL    HW226706   1.940   6.428   6.209
 8603SOL     OW26707   0.952   0.638   6.962
 8603SOL    HW126708   1.022   0.704   6.934
 8603SOL    HW226709   0.962   0.555   6.908
 8604SOL     OW26710   1.235   4.781   5.849
 8604SOL    HW126711   1.291   4.849   5.803
 8604SOL    HW226712   1.283   4.693   5.850
 8605SOL     OW26713   0.402   4.578   4.389
 8605SOL    HW126714   0.335   4.650   4.375
 8605SOL    HW226715   0.365   4.491   4.358
 8606SOL     OW26716   1.597   2.193   0.465
 8606SOL    HW126717   1.501   2.168   0.477
 8606SOL    HW226718   1.649   2.113   0.438
 8607SOL     OW26719   1.805   4.076   1.585
 8607SOL    HW126720   1.727   4.120   1.630
 8607SOL    HW226721   1.801   3.978   1.599
 8608SOL     OW26722   1.648   6.230   2.687
 8608SOL    HW126723   1.612   6.138   2.703
 8608SOL    HW226724   1.612   6.292   2.756
 8609SOL     OW26725   3.784   1.584   4.680
 8609SOL    HW126726   3.735   1.622   4.601
 8609SOL    HW226727   3.829   1.658   4.730
 8610SOL     OW26728   7.009   5.713   3.182
 8610SOL    HW126729   0.062   5.703   3.245
 8610SOL    HW226730   7.023   5.795   3.126
 8611SOL     OW26731   2.563   1.308   5.009
 8611SOL    HW126732   2.623   1.378   4.972
 8611SOL    HW226733   2.550   1.236   4.940
 8612SOL     OW26734   3.181   3.054   4.063
 8612SOL    HW126735   3.188   2.954   4.057
 8612SOL    HW226736   3.119   3.088   3.992
 8613SOL     OW26737   4.003   3.041   2.791
 8613SOL    HW126738   4.007   3.086   2.702
 8613SOL    HW226739   4.023   2.944   2.781
 8614SOL     OW26740   0.987   2.479   3.222
 8614SOL    HW126741   1.006   2.381   3.221
 8614SOL    HW226742   1.007   2.516   3.312
 8615SOL     OW26743   3.441   1.732   4.887
 8615SOL    HW126744   3.438   1.657   4.822
 8615SOL    HW226745   3.497   1.806   4.849
 8616SOL     OW26746   5.669   4.562   3.655
 8616SOL    HW126747   5.704   4.494   3.719
 8616SOL    HW226748   5.745   4.617   3.620
 8617SOL     OW26749   2.241   0.465   3.594
 8617SOL    HW126750   2.284   0.546   3.555
 8617SOL    HW226751   2.152   0.490   3.633
 8618SOL     OW26752   5.360   4.082   1.386
 8618SOL    HW126753   5.376   4.133   1.302
 8618SOL    HW226754   5.381   4.141   1.465
 8619SOL     OW26755   5.285   5.369   0.425
 8619SOL    HW126756   5.375   5.412   0.425
 8619SOL    HW226757   5.294   5.271   0.444
 8620SOL     OW26758   2.164   6.970   4.132
 8620SOL    HW126759   2.089   7.023   4.172
 8620SOL    HW226760   2.197   6.904   4.200
 8621SOL     OW26761   5.298   3.676   1.568
 8621SOL    HW126762   5.293   3.726   1.481
 8621SOL    HW226763   5.269   3.736   1.642
 8622SOL     OW26764   6.997   5.296   2.299
 8622SOL    HW126765   0.055   5.350   2.315
 8622SOL    HW226766   6.973   5.247   2.383
 8623SOL     OW26767   1.360   3.119   3.579
 8623SOL    HW126768   1.385   3.215   3.567
 8623SOL    HW226769   1.261   3.109   3.582
 8624SOL     OW26770   3.642   3.805   4.821
 8624SOL    HW126771   3.602   3.897   4.816
 8624SOL    HW226772   3.679   3.789   4.913
 8625SOL     OW26773   3.409   2.837   5.100
 8625SOL    HW126774   3.498   2.792   5.108
 8625SOL    HW226775   3.343   2.792   5.161
 8626SOL     OW26776   3.882   2.368   1.314
 8626SOL    HW126777   3.971   2.368   1.268
 8626SOL    HW226778   3.887   2.427   1.395
 8627SOL     OW26779   2.000   1.290   2.545
 8627SOL    HW126780   1.978   1.338   2.460
 8627SOL    HW226781   2.078   1.334   2.589
 8628SOL     OW26782   0.928   6.389   0.461
 8628SOL    HW126783   0.846   6.335   0.439
 8628SOL    HW226784   0.947   6.451   0.386
 8629SOL     OW26785   0.525   6.629   4.861
 8629SOL    HW126786   0.446   6.656   4.916
 8629SOL    HW226787   0.519   6.532   4.839
 8630SOL     OW26788   4.749   2.752   2.175
 8630SOL    HW126789   4.739   2.768   2.274
 8630SOL    HW226790   4.757   2.839   2.127
 8631SOL     OW26791   2.524   6.072   6.514
 8631SOL    HW126792   2.601   6.009   6.511
 8631SOL    HW226793   2.547   6.151   6.570
 8632SOL     OW26794   5.570   5.466   4.529
 8632SOL    HW126795   5.543   5.422   4.443
 8632SOL    HW226796   5.527   5.556   4.535
 8633SOL     OW26797   5.870   4.055   5.357
 8633SOL    HW126798   5.833   3.994   5.427
 8633SOL    HW226799   5.892   4.144   5.399
 8634SOL     OW26800   5.081   3.842   0.097
 8634SOL    HW126801   5.114   3.750   0.114
 8634SOL    HW226802   5.095   3.898   0.178
 8635SOL     OW26803   5.976   2.766   6.654
 8635SOL    HW126804   6.028   2.719   6.582
 8635SOL    HW226805   5.886   2.790   6.618
 8636SOL     OW26806   4.675   6.723   1.685
 8636SOL    HW126807   4.578   6.708   1.666
 8636SOL    HW226808   4.693   6.822   1.688
 8637SOL     OW26809   2.183   1.795   5.892
 8637SOL    HW126810   2.192   1.732   5.969
 8637SOL    HW226811   2.091   1.834   5.893
 8638SOL     OW26812   4.751   2.784   3.357
 8638SOL    HW126813   4.688   2.718   3.318
 8638SOL    HW226814   4.843   2.768   3.321
 8639SOL     OW26815   3.963   3.689   6.961
 8639SOL    HW126816   3.965   3.779   7.005
 8639SOL    HW226817   4.054   3.667   6.926
 8640SOL     OW26818   3.338   3.013   0.703
 8640SOL    HW126819   3.294   2.953   0.770
 8640SOL    HW226820   3.436   3.016   0.719
 8641SOL     OW26821   4.116   4.981   2.381
 8641SOL    HW126822   4.049   4.963   2.309
 8641SOL    HW226823   4.160   4.895   2.408
 8642SOL     OW26824   1.260   5.745   2.958
 8642SOL    HW126825   1.161   5.751   2.953
 8642SOL    HW226826   1.296   5.824   3.008
 8643SOL     OW26827   3.918   6.909   1.014
 8643SOL    HW126828   4.017   6.911   1.019
 8643SOL    HW226829   3.890   6.909   0.918
 8644SOL     OW26830   6.055   2.358   6.098
 8644SOL    HW126831   6.037   2.287   6.030
 8644SOL    HW226832   6.028   2.325   6.188
 8645SOL     OW26833   5.739   5.427   2.912
 8645SOL    HW126834   5.698   5.511   2.876
 8645SOL    HW226835   5.820   5.449   2.965
 8646SOL     OW26836   6.399   2.232   4.913
 8646SOL    HW126837   6.484   2.282   4.895
 8646SOL    HW226838   6.321   2.292   4.894
 8647SOL     OW26839   2.029   5.946   1.812
 8647SOL    HW126840   1.998   5.853   1.832
 8647SOL    HW226841   2.126   5.954   1.836
 8648SOL     OW26842   5.081   4.903   0.523
 8648SOL    HW126843   5.164   4.934   0.476
 8648SOL    HW226844   5.095   4.810   0.557
 8649SOL     OW26845   5.677   1.114   1.569
 8649SOL    HW126846   5.707   1.066   1.487
 8649SOL    HW226847   5.725   1.077   1.649
 8650SOL     OW26848   2.251   6.581   5.511
 8650SOL    HW126849   2.241   6.671   5.552
 8650SOL    HW226850   2.252   6.511   5.582
 8651SOL     OW26851   4.139   2.647   1.430
 8651SOL    HW126852   4.182   2.600   1.507
 8651SOL    HW226853   4.132   2.583   1.352
 8652SOL     OW26854   1.087   2.989   3.254
 8652SOL    HW126855   1.100   3.086   3.277
 8652SOL    HW226856   1.176   2.948   3.235
 8653SOL     OW26857   6.559   1.756   6.848
 8653SOL    HW126858   6.499   1.734   6.772
 8653SOL    HW226859   6.507   1.757   6.933
 8654SOL     OW26860   0.351   4.369   2.638
 8654SOL    HW126861   0.375   4.466   2.648
 8654SOL    HW226862   0.298   4.356   2.554
 8655SOL     OW26863   0.651   0.402   4.794
 8655SOL    HW126864   0.652   0.370   4.888
 8655SOL    HW226865   0.583   0.475   4.785
 8656SOL     OW26866   4.799   6.726   1.352
 8656SOL    HW126867   4.712   6.678   1.340
 8656SOL    HW226868   4.786   6.807   1.408
 8657SOL     OW26869   3.691   1.873   3.498
 8657SOL    HW126870   3.708   1.962   3.540
 8657SOL    HW226871   3.721   1.800   3.560
 8658SOL     OW26872   5.502   4.436   1.242
 8658SOL    HW126873   5.419   4.452   1.295
 8658SOL    HW226874   5.492   4.478   1.151
 8659SOL     OW26875   3.041   0.837   2.489
 8659SOL    HW126876   3.014   0.934   2.483
 8659SOL    HW226877   3.005   0.788   2.410
 8660SOL     OW26878   0.622   4.766   1.916
 8660SOL    HW126879   0.700   4.703   1.915
 8660SOL    HW226880   0.568   4.752   1.833
 8661SOL     OW26881   0.042   3.578   2.548
 8661SOL    HW126882   0.066   3.674   2.534
 8661SOL    HW226883   6.968   3.572   2.569
 8662SOL     OW26884   1.926   3.371   3.498
 8662SOL    HW126885   1.899   3.275   3.493
 8662SOL    HW226886   1.915   3.414   3.408
 8663SOL     OW26887   3.650   5.548   2.932
 8663SOL    HW126888   3.688   5.456   2.941
 8663SOL    HW226889   3.616   5.578   3.021
 8664SOL     OW26890   4.349   5.946   3.373
 8664SOL    HW126891   4.324   5.976   3.280
 8664SOL    HW226892   4.434   5.990   3.400
 8665SOL     OW26893   5.359   3.695   6.411
 8665SOL    HW126894   5.410   3.704   6.325
 8665SOL    HW226895   5.419   3.717   6.488
 8666SOL     OW26896   4.381   6.869   2.741
 8666SOL    HW126897   4.474   6.885   2.708
 8666SOL    HW226898   4.346   6.784   2.701
 8667SOL     OW26899   4.741   1.909   2.976
 8667SOL    HW126900   4.749   1.867   3.066
 8667SOL    HW226901   4.775   2.002   2.979
 8668SOL     OW26902   4.977   2.370   5.312
 8668SOL    HW126903   4.882   2.371   5.281
 8668SOL    HW226904   5.017   2.461   5.302
 8669SOL     OW26905   6.574   6.281   6.088
 8669SOL    HW126906   6.491   6.244   6.131
 8669SOL    HW226907   6.549   6.356   6.026
 8670SOL     OW26908   6.485   4.565   5.935
 8670SOL    HW126909   6.492   4.489   6.000
 8670SOL    HW226910   6.484   4.529   5.842
 8671SOL     OW26911   0.522   3.078   2.750
 8671SOL    HW126912   0.617   3.058   2.726
 8671SOL    HW226913   0.496   3.025   2.830
 8672SOL     OW26914   6.971   1.016   2.429
 8672SOL    HW126915   6.993   1.094   2.370
 8672SOL    HW226916   6.947   0.938   2.372
 8673SOL     OW26917   1.233   2.189   1.308
 8673SOL    HW126918   1.250   2.122   1.381
 8673SOL    HW226919   1.309   2.253   1.304
 8674SOL     OW26920   6.847   3.970   3.145
 8674SOL    HW126921   6.939   3.972   3.107
 8674SOL    HW226922   6.833   4.048   3.206
 8675SOL     OW26923   4.081   2.245   4.985
 8675SOL    HW126924   4.111   2.168   5.042
 8675SOL    HW226925   4.106   2.331   5.029
 8676SOL     OW26926   5.195   1.760   0.641
 8676SOL    HW126927   5.199   1.671   0.686
 8676SOL    HW226928   5.132   1.819   0.690
 8677SOL     OW26929   2.224   6.789   5.689
 8677SOL    HW126930   2.258   6.848   5.762
 8677SOL    HW226931   2.179   6.844   5.620
 8678SOL     OW26932   1.762   2.022   0.303
 8678SOL    HW126933   1.782   2.106   0.253
 8678SOL    HW226934   1.847   1.984   0.339
 8679SOL     OW26935   1.269   1.907   6.150
 8679SOL    HW126936   1.339   1.971   6.119
 8679SOL    HW226937   1.280   1.820   6.102
 8680SOL     OW26938   0.009   0.411   0.163
 8680SOL    HW126939   0.070   0.390   0.240
 8680SOL    HW226940   6.952   0.459   0.196
 8681SOL     OW26941   5.284   5.816   1.070
 8681SOL    HW126942   5.361   5.841   1.128
 8681SOL    HW226943   5.318   5.773   0.986
 8682SOL     OW26944   2.310   0.829   2.512
 8682SOL    HW126945   2.262   0.880   2.441
 8682SOL    HW226946   2.318   0.733   2.486
 8683SOL     OW26947   2.419   4.842   4.834
 8683SOL    HW126948   2.440   4.939   4.847
 8683SOL    HW226949   2.475   4.787   4.896
 8684SOL     OW26950   2.459   4.473   4.293
 8684SOL    HW126951   2.482   4.459   4.197
 8684SOL    HW226952   2.459   4.385   4.340
 8685SOL     OW26953   4.828   2.614   4.812
 8685SOL    HW126954   4.811   2.710   4.791
 8685SOL    HW226955   4.791   2.556   4.740
 8686SOL     OW26956   1.010   5.172   3.283
 8686SOL    HW126957   1.042   5.124   3.201
 8686SOL    HW226958   0.953   5.111   3.337
 8687SOL     OW26959   5.780   4.360   5.219
 8687SOL    HW126960   5.836   4.362   5.136
 8687SOL    HW226961   5.839   4.371   5.299
 8688SOL     OW26962   1.574   3.648   5.154
 8688SOL    HW126963   1.477   3.641   5.174
 8688SOL    HW226964   1.598   3.585   5.080
 8689SOL     OW26965   4.199   3.047   0.128
 8689SOL    HW126966   4.102   3.073   0.131
 8689SOL    HW226967   4.252   3.106   0.188
 8690SOL     OW26968   1.394   2.049   2.531
 8690SOL    HW126969   1.481   2.002   2.521
 8690SOL    HW226970   1.333   2.023   2.455
 8691SOL     OW26971   3.489   2.567   5.439
 8691SOL    HW126972   3.446   2.649   5.402
 8691SOL    HW226973   3.513   2.582   5.535
 8692SOL     OW26974   4.556   2.100   4.917
 8692SOL    HW126975   4.525   2.160   4.991
 8692SOL    HW226976   4.544   2.146   4.829
 8693SOL     OW26977   6.932   6.846   6.054
 8693SOL    HW126978   6.857   6.819   5.993
 8693SOL    HW226979   7.014   6.795   6.030
 8694SOL     OW26980   5.192   2.876   5.559
 8694SOL    HW126981   5.236   2.791   5.532
 8694SOL    HW226982   5.164   2.927   5.477
 8695SOL     OW26983   3.542   4.712   0.520
 8695SOL    HW126984   3.451   4.686   0.554
 8695SOL    HW226985   3.533   4.788   0.455
 8696SOL     OW26986   2.893   5.414   5.877
 8696SOL    HW126987   2.892   5.337   5.814
 8696SOL    HW226988   2.987   5.430   5.909
 8697SOL     OW26989   1.824   3.977   5.403
 8697SOL    HW126990   1.814   3.948   5.307
 8697SOL    HW226991   1.918   3.959   5.433
 8698SOL     OW26992   4.523   5.131   6.269
 8698SOL    HW126993   4.444   5.103   6.323
 8698SOL    HW226994   4.603   5.138   6.328
 8699SOL     OW26995   1.810   2.383   6.862
 8699SOL    HW126996   1.717   2.418   6.851
 8699SOL    HW226997   1.859   2.438   6.930
 8700SOL     OW26998   1.206   1.177   4.075
 8700SOL    HW126999   1.162   1.224   3.999
 8700SOL    HW227000   1.215   1.080   4.054
 8701SOL     OW27001   1.617   2.762   6.719
 8701SOL    HW127002   1.587   2.680   6.768
 8701SOL    HW227003   1.714   2.752   6.695
 8702SOL     OW27004   5.397   4.774   0.911
 8702SOL    HW127005   5.490   4.807   0.926
 8702SOL    HW227006   5.335   4.821   0.974
 8703SOL     OW27007   2.864   5.711   0.868
 8703SOL    HW127008   2.849   5.807   0.892
 8703SOL    HW227009   2.893   5.705   0.773
 8704SOL     OW27010   0.222   0.934   4.748
 8704SOL    HW127011   0.249   0.995   4.673
 8704SOL    HW227012   0.226   0.839   4.717
 8705SOL     OW27013   3.992   2.290   6.966
 8705SOL    HW127014   3.948   2.213   6.920
 8705SOL    HW227015   4.076   2.315   6.916
 8706SOL     OW27016   4.921   2.794   6.374
 8706SOL    HW127017   4.996   2.810   6.438
 8706SOL    HW227018   4.924   2.863   6.301
 8707SOL     OW27019   2.680   1.470   4.224
 8707SOL    HW127020   2.675   1.453   4.323
 8707SOL    HW227021   2.591   1.499   4.191
 8708SOL     OW27022   5.750   2.472   1.042
 8708SOL    HW127023   5.710   2.424   1.120
 8708SOL    HW227024   5.721   2.427   0.957
 8709SOL     OW27025   5.958   6.738   4.885
 8709SOL    HW127026   6.006   6.684   4.954
 8709SOL    HW227027   5.862   6.708   4.881
 8710SOL     OW27028   2.184   1.782   3.500
 8710SOL    HW127029   2.249   1.816   3.568
 8710SOL    HW227030   2.142   1.698   3.534
 8711SOL     OW27031   1.068   1.489   1.862
 8711SOL    HW127032   1.095   1.416   1.926
 8711SOL    HW227033   0.969   1.493   1.856
 8712SOL     OW27034   1.243   4.342   5.022
 8712SOL    HW127035   1.289   4.262   4.984
 8712SOL    HW227036   1.148   4.320   5.041
 8713SOL     OW27037   0.184   3.554   1.120
 8713SOL    HW127038   0.126   3.490   1.069
 8713SOL    HW227039   0.269   3.569   1.070
 8714SOL     OW27040   6.758   4.882   6.675
 8714SOL    HW127041   6.839   4.939   6.663
 8714SOL    HW227042   6.689   4.933   6.727
 8715SOL     OW27043   1.886   3.678   1.872
 8715SOL    HW127044   1.906   3.608   1.804
 8715SOL    HW227045   1.967   3.693   1.929
 8716SOL     OW27046   6.768   0.331   2.432
 8716SOL    HW127047   6.683   0.353   2.479
 8716SOL    HW227048   6.775   0.386   2.348
 8717SOL     OW27049   3.004   2.871   6.765
 8717SOL    HW127050   2.915   2.887   6.721
 8717SOL    HW227051   3.076   2.904   6.705
 8718SOL     OW27052   2.868   5.098   6.330
 8718SOL    HW127053   2.874   5.192   6.364
 8718SOL    HW227054   2.895   5.096   6.234
 8719SOL     OW27055   3.389   0.759   4.231
 8719SOL    HW127056   3.292   0.760   4.257
 8719SOL    HW227057   3.412   0.845   4.186
 8720SOL     OW27058   6.908   5.181   4.873
 8720SOL    HW127059   6.870   5.247   4.937
 8720SOL    HW227060   6.861   5.094   4.882
 8721SOL     OW27061   0.611   0.106   0.086
 8721SOL    HW127062   0.599   0.076   7.014
 8721SOL    HW227063   0.683   0.051   0.129
 8722SOL     OW27064   3.003   1.010   1.084
 8722SOL    HW127065   3.034   0.987   0.992
 8722SOL    HW227066   3.040   1.098   1.112
 8723SOL     OW27067   3.296   6.798   2.192
 8723SOL    HW127068   3.251   6.870   2.140
 8723SOL    HW227069   3.392   6.821   2.206
 8724SOL     OW27070   3.642   1.372   4.599
 8724SOL    HW127071   3.691   1.451   4.636
 8724SOL    HW227072   3.706   1.298   4.579
 8725SOL     OW27073   6.879   0.046   3.416
 8725SOL    HW127074   6.887   6.974   3.446
 8725SOL    HW227075   6.958   0.098   3.448
 8726SOL     OW27076   6.575   1.371   1.067
 8726SOL    HW127077   6.579   1.289   1.125
 8726SOL    HW227078   6.602   1.451   1.120
 8727SOL     OW27079   5.171   6.317   6.667
 8727SOL    HW127080   5.115   6.236   6.645
 8727SOL    HW227081   5.172   6.378   6.588
 8728SOL     OW27082   6.462   0.081   4.912
 8728SOL    HW127083   6.435   7.012   4.939
 8728SOL    HW227084   6.554   0.101   4.947
 8729SOL     OW27085   5.620   5.908   6.345
 8729SOL    HW127086   5.588   5.938   6.435
 8729SOL    HW227087   5.555   5.937   6.275
 8730SOL     OW27088   4.837   5.240   1.173
 8730SOL    HW127089   4.887   5.262   1.090
 8730SOL    HW227090   4.864   5.303   1.246
 8731SOL     OW27091   6.669   1.549   3.680
 8731SOL    HW127092   6.699   1.624   3.621
 8731SOL    HW227093   6.727   1.545   3.761
 8732SOL     OW27094   5.808   6.608   6.642
 8732SOL    HW127095   5.758   6.688   6.675
 8732SOL    HW227096   5.855   6.565   6.718
 8733SOL     OW27097   6.605   4.383   2.350
 8733SOL    HW127098   6.558   4.365   2.264
 8733SOL    HW227099   6.674   4.454   2.337
 8734SOL     OW27100   0.950   4.077   0.940
 8734SOL    HW127101   0.993   4.167   0.932
 8734SOL    HW227102   0.862   4.086   0.986
 8735SOL     OW27103   0.497   2.781   4.722
 8735SOL    HW127104   0.405   2.803   4.754
 8735SOL    HW227105   0.564   2.813   4.788
 8736SOL     OW27106   1.451   5.919   3.150
 8736SOL    HW127107   1.414   5.991   3.209
 8736SOL    HW227108   1.395   5.836   3.159
 8737SOL     OW27109   1.212   5.785   0.271
 8737SOL    HW127110   1.127   5.781   0.218
 8737SOL    HW227111   1.197   5.836   0.355
 8738SOL     OW27112   1.150   2.825   2.822
 8738SOL    HW127113   1.075   2.882   2.856
 8738SOL    HW227114   1.194   2.779   2.899
 8739SOL     OW27115   5.731   5.146   4.789
 8739SOL    HW127116   5.679   5.070   4.829
 8739SOL    HW227117   5.825   5.142   4.823
 8740SOL     OW27118   3.090   1.238   4.207
 8740SOL    HW127119   3.156   1.259   4.135
 8740SOL    HW227120   3.001   1.276   4.182
 8741SOL     OW27121   0.876   1.767   2.931
 8741SOL    HW127122   0.810   1.820   2.879
 8741SOL    HW227123   0.911   1.692   2.874
 8742SOL     OW27124   2.799   2.099   1.954
 8742SOL    HW127125   2.813   2.193   1.986
 8742SOL    HW227126   2.726   2.098   1.886
 8743SOL     OW27127   1.097   2.988   1.206
 8743SOL    HW127128   1.183   2.961   1.250
 8743SOL    HW227129   1.029   2.916   1.218
 8744SOL     OW27130   3.385   3.895   5.757
 8744SOL    HW127131   3.360   3.908   5.853
 8744SOL    HW227132   3.428   3.805   5.745
 8745SOL     OW27133   5.831   1.744   5.862
 8745SOL    HW127134   5.865   1.650   5.869
 8745SOL    HW227135   5.898   1.807   5.902
 8746SOL     OW27136   4.140   4.513   5.507
 8746SOL    HW127137   4.158   4.548   5.599
 8746SOL    HW227138   4.045   4.533   5.482
 8747SOL     OW27139   0.880   0.557   3.063
 8747SOL    HW127140   0.837   0.647   3.054
 8747SOL    HW227141   0.809   0.488   3.076
 8748SOL     OW27142   5.540   1.939   4.832
 8748SOL    HW127143   5.603   1.872   4.871
 8748SOL    HW227144   5.446   1.906   4.839
 8749SOL     OW27145   2.795   1.275   4.051
 8749SOL    HW127146   2.770   1.356   4.104
 8749SOL    HW227147   2.778   1.292   3.954
 8750SOL     OW27148   3.560   4.125   0.821
 8750SOL    HW127149   3.583   4.175   0.737
 8750SOL    HW227150   3.461   4.116   0.829
 8751SOL     OW27151   3.221   6.681   0.429
 8751SOL    HW127152   3.214   6.726   0.340
 8751SOL    HW227153   3.309   6.632   0.435
 8752SOL     OW27154   6.799   2.504   5.689
 8752SOL    HW127155   6.859   2.566   5.742
 8752SOL    HW227156   6.819   2.514   5.592
 8753SOL     OW27157   2.535   2.454   0.639
 8753SOL    HW127158   2.526   2.431   0.542
 8753SOL    HW227159   2.566   2.374   0.690
 8754SOL     OW27160   1.147   5.520   7.003
 8754SOL    HW127161   1.121   5.522   0.076
 8754SOL    HW227162   1.243   5.544   6.993
 8755SOL     OW27163   0.485   2.742   2.281
 8755SOL    HW127164   0.433   2.659   2.300
 8755SOL    HW227165   0.434   2.821   2.316
 8756SOL     OW27166   1.590   1.643   2.099
 8756SOL    HW127167   1.545   1.627   2.188
 8756SOL    HW227168   1.541   1.715   2.049
 8757SOL     OW27169   5.368   5.854   5.782
 8757SOL    HW127170   5.411   5.903   5.706
 8757SOL    HW227171   5.271   5.880   5.787
 8758SOL     OW27172   3.347   5.983   5.207
 8758SOL    HW127173   3.297   5.896   5.199
 8758SOL    HW227174   3.338   6.018   5.300
 8759SOL     OW27175   5.941   1.298   0.844
 8759SOL    HW127176   5.895   1.313   0.931
 8759SOL    HW227177   6.035   1.333   0.849
 8760SOL     OW27178   2.567   2.363   4.280
 8760SOL    HW127179   2.551   2.388   4.376
 8760SOL    HW227180   2.594   2.267   4.274
 8761SOL     OW27181   5.000   1.961   2.744
 8761SOL    HW127182   4.969   1.970   2.650
 8761SOL    HW227183   5.018   1.865   2.764
 8762SOL     OW27184   3.275   5.398   3.321
 8762SOL    HW127185   3.225   5.483   3.331
 8762SOL    HW227186   3.214   5.327   3.284
 8763SOL     OW27187   0.244   0.947   6.608
 8763SOL    HW127188   0.321   1.007   6.631
 8763SOL    HW227189   0.188   0.931   6.689
 8764SOL     OW27190   3.415   4.876   5.769
 8764SOL    HW127191   3.346   4.854   5.838
 8764SOL    HW227192   3.393   4.965   5.728
 8765SOL     OW27193   4.017   0.231   3.754
 8765SOL    HW127194   4.012   0.266   3.847
 8765SOL    HW227195   4.056   0.138   3.755
 8766SOL     OW27196   5.174   6.570   5.863
 8766SOL    HW127197   5.271   6.585   5.844
 8766SOL    HW227198   5.153   6.603   5.955
 8767SOL     OW27199   1.781   1.425   3.430
 8767SOL    HW127200   1.856   1.386   3.377
 8767SOL    HW227201   1.732   1.352   3.478
 8768SOL     OW27202   0.131   2.009   6.779
 8768SOL    HW127203   0.115   2.105   6.755
 8768SOL    HW227204   0.148   2.003   6.878
 8769SOL     OW27205   6.046   0.178   7.017
 8769SOL    HW127206   6.047   0.258   6.957
 8769SOL    HW227207   6.103   0.196   0.074
 8770SOL     OW27208   5.174   2.409   0.392
 8770SOL    HW127209   5.087   2.420   0.440
 8770SOL    HW227210   5.242   2.368   0.454
 8771SOL     OW27211   0.467   2.566   6.844
 8771SOL    HW127212   0.411   2.485   6.857
 8771SOL    HW227213   0.511   2.563   6.754
 8772SOL     OW27214   0.304   0.291   4.743
 8772SOL    HW127215   0.221   0.330   4.784
 8772SOL    HW227216   0.364   0.258   4.816
 8773SOL     OW27217   6.896   0.526   4.237
 8773SOL    HW127218   6.881   0.520   4.336
 8773SOL    HW227219   6.988   0.559   4.219
 8774SOL     OW27220   1.112   1.784   0.356
 8774SOL    HW127221   1.175   1.712   0.384
 8774SOL    HW227222   1.160   1.849   0.297
 8775SOL     OW27223   5.628   2.706   3.905
 8775SOL    HW127224   5.610   2.744   3.814
 8775SOL    HW227225   5.725   2.681   3.912
 8776SOL     OW27226   4.466   2.676   0.336
 8776SOL    HW127227   4.507   2.699   0.425
 8776SOL    HW227228   4.399   2.746   0.311
 8777SOL     OW27229   6.879   1.936   3.212
 8777SOL    HW127230   6.836   1.863   3.160
 8777SOL    HW227231   6.959   1.899   3.261
 8778SOL     OW27232   3.406   4.116   0.076
 8778SOL    HW127233   3.503   4.140   0.077
 8778SOL    HW227234   3.354   4.185   0.026
 8779SOL     OW27235   4.409   5.123   2.831
 8779SOL    HW127236   4.469   5.189   2.786
 8779SOL    HW227237   4.313   5.148   2.813
 8780SOL     OW27238   0.329   4.657   3.735
 8780SOL    HW127239   0.405   4.598   3.759
 8780SOL    HW227240   0.354   4.716   3.659
 8781SOL     OW27241   2.472   1.059   1.066
 8781SOL    HW127242   2.566   1.038   1.094
 8781SOL    HW227243   2.438   1.136   1.119
 8782SOL     OW27244   5.769   2.400   0.459
 8782SOL    HW127245   5.692   2.335   0.457
 8782SOL    HW227246   5.792   2.421   0.555
 8783SOL     OW27247   5.261   4.041   4.865
 8783SOL    HW127248   5.210   4.116   4.822
 8783SOL    HW227249   5.268   3.965   4.801
 8784SOL     OW27250   5.122   0.335   0.756
 8784SOL    HW127251   5.055   0.315   0.684
 8784SOL    HW227252   5.086   0.307   0.845
 8785SOL     OW27253   6.929   5.594   4.917
 8785SOL    HW127254   6.879   5.517   4.957
 8785SOL    HW227255   6.939   5.666   4.986
 8786SOL     OW27256   5.104   1.515   2.294
 8786SOL    HW127257   5.027   1.567   2.332
 8786SOL    HW227258   5.153   1.469   2.368
 8787SOL     OW27259   3.345   5.688   1.058
 8787SOL    HW127260   3.297   5.610   1.097
 8787SOL    HW227261   3.341   5.685   0.958
 8788SOL     OW27262   0.178   6.556   3.975
 8788SOL    HW127263   0.215   6.473   3.935
 8788SOL    HW227264   0.098   6.534   4.032
 8789SOL     OW27265   0.909   2.006   5.928
 8789SOL    HW127266   0.818   2.037   5.901
 8789SOL    HW227267   0.967   2.085   5.948
 8790SOL     OW27268   3.914   2.982   5.442
 8790SOL    HW127269   3.972   3.030   5.507
 8790SOL    HW227270   3.844   3.044   5.407
 8791SOL     OW27271   3.620   6.218   4.518
 8791SOL    HW127272   3.592   6.164   4.439
 8791SOL    HW227273   3.542   6.269   4.553
 8792SOL     OW27274   5.197   4.684   2.028
 8792SOL    HW127275   5.252   4.600   2.034
 8792SOL    HW227276   5.139   4.680   1.946
 8793SOL     OW27277   0.012   6.567   5.119
 8793SOL    HW127278   6.984   6.644   5.156
 8793SOL    HW227279   6.973   6.493   5.096
 8794SOL     OW27280   6.425   1.110   2.606
 8794SOL    HW127281   6.516   1.073   2.625
 8794SOL    HW227282   6.399   1.174   2.678
 8795SOL     OW27283   1.265   6.715   6.836
 8795SOL    HW127284   1.292   6.643   6.900
 8795SOL    HW227285   1.172   6.745   6.857
 8796SOL     OW27286   6.076   3.723   5.110
 8796SOL    HW127287   6.131   3.805   5.123
 8796SOL    HW227288   6.057   3.710   5.012
 8797SOL     OW27289   4.561   6.652   4.177
 8797SOL    HW127290   4.627   6.598   4.126
 8797SOL    HW227291   4.468   6.617   4.159
 8798SOL     OW27292   3.072   6.469   5.636
 8798SOL    HW127293   3.021   6.516   5.709
 8798SOL    HW227294   3.047   6.372   5.635
 8799SOL     OW27295   1.452   5.811   1.682
 8799SOL    HW127296   1.414   5.886   1.737
 8799SOL    HW227297   1.498   5.849   1.602
 8800SOL     OW27298   6.162   6.126   4.956
 8800SOL    HW127299   6.130   6.151   4.865
 8800SOL    HW227300   6.126   6.192   5.023
 8801SOL     OW27301   5.607   3.646   5.528
 8801SOL    HW127302   5.553   3.688   5.602
 8801SOL    HW227303   5.623   3.550   5.549
 8802SOL     OW27304   1.315   5.695   6.429
 8802SOL    HW127305   1.253   5.650   6.366
 8802SOL    HW227306   1.350   5.779   6.387
 8803SOL     OW27307   6.361   6.152   6.189
 8803SOL    HW127308   6.320   6.243   6.191
 8803SOL    HW227309   6.298   6.086   6.232
 8804SOL     OW27310   1.896   6.353   2.026
 8804SOL    HW127311   1.891   6.288   2.102
 8804SOL    HW227312   1.925   6.305   1.943
 8805SOL     OW27313   5.488   4.852   3.260
 8805SOL    HW127314   5.428   4.839   3.338
 8805SOL    HW227315   5.529   4.943   3.264
 8806SOL     OW27316   1.546   6.765   1.522
 8806SOL    HW127317   1.565   6.777   1.424
 8806SOL    HW227318   1.448   6.755   1.536
 8807SOL     OW27319   5.625   3.054   0.859
 8807SOL    HW127320   5.593   3.089   0.771
 8807SOL    HW227321   5.633   3.130   0.924
 8808SOL     OW27322   1.728   2.136   6.163
 8808SOL    HW127323   1.766   2.073   6.230
 8808SOL    HW227324   1.722   2.228   6.203
 8809SOL     OW27325   0.012   3.444   3.207
 8809SOL    HW127326   6.985   3.431   3.292
 8809SOL    HW227327   0.045   3.538   3.201
 8810SOL     OW27328   1.007   1.092   4.673
 8810SOL    HW127329   0.982   1.094   4.770
 8810SOL    HW227330   0.944   1.032   4.623
 8811SOL     OW27331   4.170   4.691   2.369
 8811SOL    HW127332   4.225   4.677   2.452
 8811SOL    HW227333   4.230   4.687   2.289
 8812SOL     OW27334   5.150   1.010   6.463
 8812SOL    HW127335   5.170   1.030   6.367
 8812SOL    HW227336   5.235   0.994   6.512
 8813SOL     OW27337   2.144   3.451   3.296
 8813SOL    HW127338   2.181   3.361   3.316
 8813SOL    HW227339   2.112   3.454   3.201
 8814SOL     OW27340   4.957   7.021   5.319
 8814SOL    HW127341   4.947   6.979   5.229
 8814SOL    HW227342   4.874   0.049   5.341
 8815SOL     OW27343   5.433   1.100   1.399
 8815SOL    HW127344   5.397   1.191   1.377
 8815SOL    HW227345   5.517   1.109   1.452
 8816SOL     OW27346   0.855   6.030   4.538
 8816SOL    HW127347   0.877   6.128   4.538
 8816SOL    HW227348   0.772   6.014   4.590
 8817SOL     OW27349   1.537   3.054   3.360
 8817SOL    HW127350   1.470   3.089   3.425
 8817SOL    HW227351   1.599   3.128   3.333
 8818SOL     OW27352   0.976   0.035   5.855
 8818SOL    HW127353   1.066   7.017   5.839
 8818SOL    HW227354   0.970   0.066   5.949
 8819SOL     OW27355   4.637   4.816   6.366
 8819SOL    HW127356   4.711   4.884   6.366
 8819SOL    HW227357   4.562   4.848   6.424
 8820SOL     OW27358   3.955   6.587   5.470
 8820SOL    HW127359   4.007   6.558   5.551
 8820SOL    HW227360   3.882   6.520   5.451
 8821SOL     OW27361   0.429   4.603   6.280
 8821SOL    HW127362   0.415   4.507   6.253
 8821SOL    HW227363   0.439   4.609   6.379
 8822SOL     OW27364   6.434   0.367   4.725
 8822SOL    HW127365   6.458   0.461   4.701
 8822SOL    HW227366   6.348   0.366   4.775
 8823SOL     OW27367   3.553   1.743   3.154
 8823SOL    HW127368   3.515   1.775   3.241
 8823SOL    HW227369   3.520   1.801   3.080
 8824SOL     OW27370   1.180   0.124   2.796
 8824SOL    HW127371   1.094   0.073   2.796
 8824SOL    HW227372   1.162   0.220   2.776
 8825SOL     OW27373   0.149   0.060   0.370
 8825SOL    HW127374   0.175   0.014   0.455
 8825SOL    HW227375   0.232   0.093   0.324
 8826SOL     OW27376   1.023   4.346   0.927
 8826SOL    HW127377   1.081   4.394   0.861
 8826SOL    HW227378   0.931   4.334   0.889
 8827SOL     OW27379   4.625   6.970   2.680
 8827SOL    HW127380   4.585   0.038   2.677
 8827SOL    HW227381   4.654   6.944   2.588
 8828SOL     OW27382   5.222   2.538   6.628
 8828SOL    HW127383   5.230   2.568   6.533
 8828SOL    HW227384   5.139   2.577   6.668
 8829SOL     OW27385   6.699   0.658   2.495
 8829SOL    HW127386   6.794   0.669   2.524
 8829SOL    HW227387   6.693   0.582   2.430
 8830SOL     OW27388   3.347   0.270   3.281
 8830SOL    HW127389   3.286   0.316   3.217
 8830SOL    HW227390   3.431   0.325   3.291
 8831SOL     OW27391   0.293   2.976   2.177
 8831SOL    HW127392   0.197   2.975   2.148
 8831SOL    HW227393   0.346   3.034   2.116
 8832SOL     OW27394   5.528   6.892   5.623
 8832SOL    HW127395   5.460   6.959   5.591
 8832SOL    HW227396   5.509   6.804   5.580
 8833SOL     OW27397   5.009   2.109   1.468
 8833SOL    HW127398   4.971   2.089   1.378
 8833SOL    HW227399   5.005   2.207   1.485
 8834SOL     OW27400   5.799   3.744   5.927
 8834SOL    HW127401   5.749   3.815   5.877
 8834SOL    HW227402   5.830   3.780   6.015
 8835SOL     OW27403   6.824   0.692   5.617
 8835SOL    HW127404   6.729   0.696   5.585
 8835SOL    HW227405   6.849   0.597   5.637
 8836SOL     OW27406   4.638   1.063   1.411
 8836SOL    HW127407   4.667   1.112   1.329
 8836SOL    HW227408   4.718   1.040   1.466
 8837SOL     OW27409   4.009   6.656   0.726
 8837SOL    HW127410   3.944   6.729   0.750
 8837SOL    HW227411   4.009   6.587   0.798
 8838SOL     OW27412   1.824   3.675   3.774
 8838SOL    HW127413   1.835   3.581   3.742
 8838SOL    HW227414   1.819   3.677   3.874
 8839SOL     OW27415   4.839   6.293   2.025
 8839SOL    HW127416   4.924   6.345   2.029
 8839SOL    HW227417   4.761   6.355   2.035
 8840SOL     OW27418   6.644   0.868   0.988
 8840SOL    HW127419   6.590   0.839   0.909
 8840SOL    HW227420   6.741   0.869   0.963
 8841SOL     OW27421   3.751   1.213   0.706
 8841SOL    HW127422   3.832   1.158   0.728
 8841SOL    HW227423   3.776   1.285   0.642
 8842SOL     OW27424   3.499   3.804   4.495
 8842SOL    HW127425   3.408   3.790   4.456
 8842SOL    HW227426   3.508   3.749   4.578
 8843SOL     OW27427   2.794   5.851   6.220
 8843SOL    HW127428   2.879   5.845   6.168
 8843SOL    HW227429   2.778   5.945   6.249
 8844SOL     OW27430   3.389   2.745   6.336
 8844SOL    HW127431   3.459   2.699   6.282
 8844SOL    HW227432   3.425   2.765   6.427
 8845SOL     OW27433   0.010   3.627   2.257
 8845SOL    HW127434   0.036   3.539   2.298
 8845SOL    HW227435   6.966   3.612   2.185
 8846SOL     OW27436   5.510   4.369   4.392
 8846SOL    HW127437   5.554   4.279   4.397
 8846SOL    HW227438   5.541   4.416   4.309
 8847SOL     OW27439   1.329   2.297   3.492
 8847SOL    HW127440   1.347   2.244   3.575
 8847SOL    HW227441   1.398   2.274   3.423
 8848SOL     OW27442   5.756   0.949   0.336
 8848SOL    HW127443   5.852   0.948   0.364
 8848SOL    HW227444   5.709   0.869   0.374
 8849SOL     OW27445   3.206   4.865   4.343
 8849SOL    HW127446   3.305   4.877   4.334
 8849SOL    HW227447   3.181   4.864   4.439
 8850SOL     OW27448   3.287   1.273   1.513
 8850SOL    HW127449   3.285   1.246   1.417
 8850SOL    HW227450   3.362   1.336   1.529
 8851SOL     OW27451   6.584   4.786   2.375
 8851SOL    HW127452   6.670   4.831   2.352
 8851SOL    HW227453   6.550   4.736   2.295
 8852SOL     OW27454   4.521   2.617   4.615
 8852SOL    HW127455   4.534   2.713   4.638
 8852SOL    HW227456   4.451   2.578   4.673
 8853SOL     OW27457   4.263   1.830   5.604
 8853SOL    HW127458   4.286   1.903   5.669
 8853SOL    HW227459   4.326   1.833   5.527
 8854SOL     OW27460   1.369   1.706   6.951
 8854SOL    HW127461   1.439   1.764   6.911
 8854SOL    HW227462   1.348   1.737   0.020
 8855SOL     OW27463   6.329   4.873   0.272
 8855SOL    HW127464   6.339   4.907   0.178
 8855SOL    HW227465   6.416   4.835   0.303
 8856SOL     OW27466   5.375   1.323   5.175
 8856SOL    HW127467   5.313   1.294   5.247
 8856SOL    HW227468   5.469   1.327   5.211
 8857SOL     OW27469   6.896   2.474   4.595
 8857SOL    HW127470   6.845   2.504   4.515
 8857SOL    HW227471   6.848   2.398   4.639
 8858SOL     OW27472   6.656   4.122   5.827
 8858SOL    HW127473   6.736   4.183   5.826
 8858SOL    HW227474   6.686   4.027   5.834
 8859SOL     OW27475   3.081   5.460   5.413
 8859SOL    HW127476   3.045   5.553   5.413
 8859SOL    HW227477   3.084   5.425   5.320
 8860SOL     OW27478   1.387   2.322   1.801
 8860SOL    HW127479   1.306   2.269   1.826
 8860SOL    HW227480   1.462   2.260   1.779
 8861SOL     OW27481   2.447   2.824   0.920
 8861SOL    HW127482   2.452   2.862   1.012
 8861SOL    HW227483   2.539   2.816   0.882
 8862SOL     OW27484   6.339   1.992   4.801
 8862SOL    HW127485   6.304   1.933   4.873
 8862SOL    HW227486   6.375   2.076   4.842
 8863SOL     OW27487   0.996   5.708   5.118
 8863SOL    HW127488   1.000   5.610   5.099
 8863SOL    HW227489   1.068   5.755   5.067
 8864SOL     OW27490   1.504   3.438   5.583
 8864SOL    HW127491   1.544   3.490   5.659
 8864SOL    HW227492   1.577   3.404   5.523
 8865SOL     OW27493   2.332   2.247   5.599
 8865SOL    HW127494   2.302   2.250   5.504
 8865SOL    HW227495   2.320   2.155   5.636
 8866SOL     OW27496   4.319   6.595   5.438
 8866SOL    HW127497   4.267   6.578   5.521
 8866SOL    HW227498   4.348   6.507   5.399
 8867SOL     OW27499   6.567   2.187   3.670
 8867SOL    HW127500   6.541   2.101   3.626
 8867SOL    HW227501   6.506   2.206   3.747
 8868SOL     OW27502   4.909   3.698   1.206
 8868SOL    HW127503   4.945   3.791   1.213
 8868SOL    HW227504   4.973   3.642   1.152
 8869SOL     OW27505   4.868   3.020   3.275
 8869SOL    HW127506   4.943   2.987   3.333
 8869SOL    HW227507   4.784   2.970   3.297
 8870SOL     OW27508   4.026   1.036   1.303
 8870SOL    HW127509   4.029   0.976   1.383
 8870SOL    HW227510   4.097   1.010   1.239
 8871SOL     OW27511   1.121   2.582   4.533
 8871SOL    HW127512   1.034   2.629   4.520
 8871SOL    HW227513   1.193   2.649   4.550
 8872SOL     OW27514   2.275   2.973   3.108
 8872SOL    HW127515   2.363   2.925   3.106
 8872SOL    HW227516   2.230   2.964   3.019
 8873SOL     OW27517   6.940   6.208   4.865
 8873SOL    HW127518   6.985   6.154   4.793
 8873SOL    HW227519   6.912   6.296   4.828
 8874SOL     OW27520   1.395   1.691   0.224
 8874SOL    HW127521   1.439   1.775   0.195
 8874SOL    HW227522   1.460   1.615   0.219
 8875SOL     OW27523   1.513   1.382   4.033
 8875SOL    HW127524   1.559   1.295   4.052
 8875SOL    HW227525   1.491   1.427   4.119
 8876SOL     OW27526   2.438   0.502   4.566
 8876SOL    HW127527   2.391   0.453   4.492
 8876SOL    HW227528   2.457   0.438   4.640
 8877SOL     OW27529   2.995   6.148   4.512
 8877SOL    HW127530   3.076   6.091   4.526
 8877SOL    HW227531   3.008   6.205   4.430
 8878SOL     OW27532   5.931   4.627   5.759
 8878SOL    HW127533   5.887   4.663   5.841
 8878SOL    HW227534   5.932   4.527   5.762
 8879SOL     OW27535   4.091   5.710   5.029
 8879SOL    HW127536   4.122   5.727   4.935
 8879SOL    HW227537   4.155   5.753   5.093
 8880SOL     OW27538   0.189   5.745   5.739
 8880SOL    HW127539   0.215   5.715   5.647
 8880SOL    HW227540   0.229   5.835   5.758
 8881SOL     OW27541   7.011   0.554   2.061
 8881SOL    HW127542   0.040   0.491   2.005
 8881SOL    HW227543   6.932   0.587   2.010
 8882SOL     OW27544   6.019   1.686   6.173
 8882SOL    HW127545   6.064   1.605   6.136
 8882SOL    HW227546   5.922   1.668   6.184
 8883SOL     OW27547   0.021   1.125   5.693
 8883SOL    HW127548   6.972   1.192   5.680
 8883SOL    HW227549   0.089   1.134   5.620
 8884SOL     OW27550   6.602   0.537   5.704
 8884SOL    HW127551   6.682   0.507   5.756
 8884SOL    HW227552   6.546   0.458   5.681
 8885SOL     OW27553   5.190   3.448   1.654
 8885SOL    HW127554   5.215   3.540   1.624
 8885SOL    HW227555   5.128   3.407   1.587
 8886SOL     OW27556   2.961   6.692   6.592
 8886SOL    HW127557   3.029   6.721   6.525
 8886SOL    HW227558   2.937   6.769   6.651
 8887SOL     OW27559   1.822   0.354   1.275
 8887SOL    HW127560   1.754   0.300   1.225
 8887SOL    HW227561   1.781   0.440   1.304
 8888SOL     OW27562   3.730   1.242   3.670
 8888SOL    HW127563   3.722   1.317   3.603
 8888SOL    HW227564   3.720   1.155   3.623
 8889SOL     OW27565   3.412   6.583   4.908
 8889SOL    HW127566   3.420   6.483   4.905
 8889SOL    HW227567   3.320   6.608   4.938
 8890SOL     OW27568   1.258   4.445   4.058
 8890SOL    HW127569   1.262   4.537   4.099
 8890SOL    HW227570   1.339   4.430   4.002
 8891SOL     OW27571   2.700   1.917   6.726
 8891SOL    HW127572   2.717   1.825   6.762
 8891SOL    HW227573   2.601   1.932   6.720
 8892SOL     OW27574   1.192   6.906   2.440
 8892SOL    HW127575   1.232   6.927   2.351
 8892SOL    HW227576   1.255   6.932   2.513
 8893SOL     OW27577   0.816   1.119   1.577
 8893SOL    HW127578   0.901   1.067   1.592
 8893SOL    HW227579   0.748   1.060   1.534
 8894SOL     OW27580   3.996   3.459   6.590
 8894SOL    HW127581   4.088   3.424   6.606
 8894SOL    HW227582   3.935   3.424   6.661
 8895SOL     OW27583   0.659   0.527   2.349
 8895SOL    HW127584   0.695   0.438   2.379
 8895SOL    HW227585   0.590   0.513   2.279
 8896SOL     OW27586   1.950   4.256   5.002
 8896SOL    HW127587   2.043   4.222   5.018
 8896SOL    HW227588   1.944   4.295   4.910
 8897SOL     OW27589   1.273   1.968   1.538
 8897SOL    HW127590   1.204   1.957   1.610
 8897SOL    HW227591   1.340   2.037   1.566
 8898SOL     OW27592   6.605   2.796   4.587
 8898SOL    HW127593   6.545   2.717   4.573
 8898SOL    HW227594   6.594   2.830   4.680
 8899SOL     OW27595   2.729   4.229   0.317
 8899SOL    HW127596   2.781   4.150   0.349
 8899SOL    HW227597   2.748   4.243   0.219
 8900SOL     OW27598   6.109   1.684   3.360
 8900SOL    HW127599   6.094   1.585   3.366
 8900SOL    HW227600   6.203   1.702   3.331
 8901SOL     OW27601   2.178   6.904   2.102
 8901SOL    HW127602   2.181   6.826   2.165
 8901SOL    HW227603   2.112   6.885   2.029
 8902SOL     OW27604   2.610   5.229   5.681
 8902SOL    HW127605   2.560   5.148   5.649
 8902SOL    HW227606   2.549   5.308   5.679
 8903SOL     OW27607   0.741   1.760   3.785
 8903SOL    HW127608   0.678   1.694   3.826
 8903SOL    HW227609   0.716   1.852   3.814
 8904SOL     OW27610   1.211   5.187   3.539
 8904SOL    HW127611   1.152   5.232   3.472
 8904SOL    HW227612   1.242   5.254   3.607
 8905SOL     OW27613   2.633   4.252   5.439
 8905SOL    HW127614   2.596   4.161   5.420
 8905SOL    HW227615   2.690   4.247   5.522
 8906SOL     OW27616   1.080   4.790   4.556
 8906SOL    HW127617   0.986   4.796   4.524
 8906SOL    HW227618   1.120   4.703   4.527
 8907SOL     OW27619   3.887   2.949   5.868
 8907SOL    HW127620   3.870   2.874   5.805
 8907SOL    HW227621   3.805   2.964   5.925
 8908SOL     OW27622   0.134   3.366   1.426
 8908SOL    HW127623   0.183   3.447   1.392
 8908SOL    HW227624   0.107   3.382   1.521
 8909SOL     OW27625   2.750   6.228   5.771
 8909SOL    HW127626   2.665   6.196   5.729
 8909SOL    HW227627   2.746   6.215   5.870
 8910SOL     OW27628   3.737   3.610   6.609
 8910SOL    HW127629   3.729   3.635   6.705
 8910SOL    HW227630   3.815   3.549   6.597
 8911SOL     OW27631   4.158   2.284   3.942
 8911SOL    HW127632   4.171   2.272   4.040
 8911SOL    HW227633   4.246   2.298   3.898
 8912SOL     OW27634   5.210   2.248   6.668
 8912SOL    HW127635   5.161   2.189   6.732
 8912SOL    HW227636   5.164   2.337   6.662
 8913SOL     OW27637   4.802   3.770   0.788
 8913SOL    HW127638   4.743   3.842   0.752
 8913SOL    HW227639   4.759   3.730   0.869
 8914SOL     OW27640   4.907   2.188   3.766
 8914SOL    HW127641   4.961   2.272   3.759
 8914SOL    HW227642   4.814   2.205   3.733
 8915SOL     OW27643   1.359   5.082   1.655
 8915SOL    HW127644   1.367   4.998   1.600
 8915SOL    HW227645   1.412   5.071   1.740
 8916SOL     OW27646   6.915   4.012   1.714
 8916SOL    HW127647   6.818   4.000   1.697
 8916SOL    HW227648   6.964   3.927   1.695
 8917SOL     OW27649   5.938   5.815   6.094
 8917SOL    HW127650   5.894   5.867   6.020
 8917SOL    HW227651   5.894   5.726   6.103
 8918SOL     OW27652   4.953   4.675   6.502
 8918SOL    HW127653   5.011   4.753   6.479
 8918SOL    HW227654   4.899   4.649   6.422
 8919SOL     OW27655   2.335   3.780   1.326
 8919SOL    HW127656   2.304   3.864   1.282
 8919SOL    HW227657   2.422   3.797   1.373
 8920SOL     OW27658   6.283   5.350   5.773
 8920SOL    HW127659   6.232   5.400   5.703
 8920SOL    HW227660   6.363   5.402   5.800
 8921SOL     OW27661   1.468   5.971   3.740
 8921SOL    HW127662   1.435   5.899   3.802
 8921SOL    HW227663   1.436   5.952   3.648
 8922SOL     OW27664   6.429   4.418   0.514
 8922SOL    HW127665   6.509   4.463   0.474
 8922SOL    HW227666   6.381   4.367   0.442
 8923SOL     OW27667   1.766   4.427   5.139
 8923SOL    HW127668   1.822   4.350   5.107
 8923SOL    HW227669   1.681   4.391   5.178
 8924SOL     OW27670   2.808   6.159   5.038
 8924SOL    HW127671   2.720   6.197   5.068
 8924SOL    HW227672   2.797   6.113   4.950
 8925SOL     OW27673   5.539   6.481   1.529
 8925SOL    HW127674   5.570   6.527   1.446
 8925SOL    HW227675   5.569   6.533   1.609
 8926SOL     OW27676   5.693   1.642   0.356
 8926SOL    HW127677   5.771   1.606   0.306
 8926SOL    HW227678   5.622   1.572   0.364
 8927SOL     OW27679   2.868   2.010   4.544
 8927SOL    HW127680   2.857   1.935   4.610
 8927SOL    HW227681   2.858   1.974   4.451
 8928SOL     OW27682   0.939   6.663   5.245
 8928SOL    HW127683   0.973   6.742   5.295
 8928SOL    HW227684   1.016   6.611   5.207
 8929SOL     OW27685   5.359   4.195   4.579
 8929SOL    HW127686   5.351   4.219   4.483
 8929SOL    HW227687   5.324   4.270   4.636
 8930SOL     OW27688   1.135   4.843   4.836
 8930SOL    HW127689   1.106   4.829   4.741
 8930SOL    HW227690   1.157   4.755   4.878
 8931SOL     OW27691   5.615   1.158   1.955
 8931SOL    HW127692   5.553   1.237   1.954
 8931SOL    HW227693   5.687   1.173   2.023
 8932SOL     OW27694   6.857   0.816   6.994
 8932SOL    HW127695   6.920   0.768   6.934
 8932SOL    HW227696   6.907   0.885   0.023
 8933SOL     OW27697   1.755   0.537   5.573
 8933SOL    HW127698   1.682   0.575   5.517
 8933SOL    HW227699   1.716   0.484   5.649
 8934SOL     OW27700   4.942   6.577   3.238
 8934SOL    HW127701   5.037   6.598   3.217
 8934SOL    HW227702   4.936   6.487   3.281
 8935SOL     OW27703   5.889   2.816   3.236
 8935SOL    HW127704   5.959   2.859   3.179
 8935SOL    HW227705   5.885   2.863   3.325
 8936SOL     OW27706   1.761   4.098   3.161
 8936SOL    HW127707   1.768   4.011   3.211
 8936SOL    HW227708   1.667   4.131   3.165
 8937SOL     OW27709   4.198   7.020   5.527
 8937SOL    HW127710   4.209   0.022   5.431
 8937SOL    HW227711   4.103   6.994   5.544
 8938SOL     OW27712   5.622   0.079   2.154
 8938SOL    HW127713   5.537   0.105   2.108
 8938SOL    HW227714   5.635   7.004   2.146
 8939SOL     OW27715   0.350   2.687   3.892
 8939SOL    HW127716   0.254   2.664   3.908
 8939SOL    HW227717   0.398   2.606   3.855
 8940SOL     OW27718   6.542   3.132   1.003
 8940SOL    HW127719   6.539   3.056   0.937
 8940SOL    HW227720   6.591   3.102   1.085
 8941SOL     OW27721   4.841   2.476   2.168
 8941SOL    HW127722   4.816   2.569   2.140
 8941SOL    HW227723   4.886   2.478   2.257
 8942SOL     OW27724   5.231   4.396   4.750
 8942SOL    HW127725   5.172   4.396   4.831
 8942SOL    HW227726   5.251   4.490   4.723
 8943SOL     OW27727   4.526   2.959   0.836
 8943SOL    HW127728   4.567   2.993   0.751
 8943SOL    HW227729   4.460   3.026   0.870
 8944SOL     OW27730   4.631   5.658   5.233
 8944SOL    HW127731   4.586   5.624   5.150
 8944SOL    HW227732   4.635   5.758   5.231
 8945SOL     OW27733   5.946   4.318   3.112
 8945SOL    HW127734   5.979   4.387   3.048
 8945SOL    HW227735   5.878   4.358   3.173
 8946SOL     OW27736   4.705   1.479   5.351
 8946SOL    HW127737   4.784   1.435   5.308
 8946SOL    HW227738   4.722   1.577   5.358
 8947SOL     OW27739   1.835   5.071   6.590
 8947SOL    HW127740   1.799   4.978   6.599
 8947SOL    HW227741   1.826   5.101   6.495
 8948SOL     OW27742   5.235   1.224   2.692
 8948SOL    HW127743   5.185   1.284   2.756
 8948SOL    HW227744   5.195   1.133   2.694
 8949SOL     OW27745   3.910   6.015   0.956
 8949SOL    HW127746   3.990   5.969   0.996
 8949SOL    HW227747   3.935   6.055   0.868
 8950SOL     OW27748   3.628   3.505   1.740
 8950SOL    HW127749   3.700   3.567   1.709
 8950SOL    HW227750   3.569   3.482   1.662
 8951SOL     OW27751   1.497   0.048   4.745
 8951SOL    HW127752   1.513   6.978   4.714
 8951SOL    HW227753   1.414   0.050   4.801
 8952SOL     OW27754   1.125   4.637   3.744
 8952SOL    HW127755   1.182   4.717   3.764
 8952SOL    HW227756   1.056   4.627   3.816
 8953SOL     OW27757   1.549   5.231   1.224
 8953SOL    HW127758   1.570   5.306   1.286
 8953SOL    HW227759   1.451   5.230   1.204
 8954SOL     OW27760   2.460   4.641   5.625
 8954SOL    HW127761   2.509   4.673   5.706
 8954SOL    HW227762   2.437   4.719   5.567
 8955SOL     OW27763   5.137   2.637   5.328
 8955SOL    HW127764   5.086   2.648   5.243
 8955SOL    HW227765   5.235   2.632   5.309
 8956SOL     OW27766   0.454   6.470   0.394
 8956SOL    HW127767   0.552   6.470   0.375
 8956SOL    HW227768   0.418   6.563   0.386
 8957SOL     OW27769   0.475   6.207   2.703
 8957SOL    HW127770   0.471   6.148   2.623
 8957SOL    HW227771   0.569   6.207   2.739
 8958SOL     OW27772   1.312   3.568   5.226
 8958SOL    HW127773   1.247   3.599   5.157
 8958SOL    HW227774   1.266   3.561   5.315
 8959SOL     OW27775   5.876   2.626   3.822
 8959SOL    HW127776   5.955   2.672   3.862
 8959SOL    HW227777   5.905   2.569   3.745
 8960SOL     OW27778   4.819   4.811   2.850
 8960SOL    HW127779   4.835   4.823   2.948
 8960SOL    HW227780   4.722   4.819   2.830
 8961SOL     OW27781   2.624   1.935   4.944
 8961SOL    HW127782   2.667   1.943   5.034
 8961SOL    HW227783   2.662   2.004   4.883
 8962SOL     OW27784   6.874   5.743   2.167
 8962SOL    HW127785   6.835   5.657   2.200
 8962SOL    HW227786   6.855   5.753   2.069
 8963SOL     OW27787   4.167   6.239   6.098
 8963SOL    HW127788   4.173   6.338   6.098
 8963SOL    HW227789   4.120   6.208   6.015
 8964SOL     OW27790   2.165   3.198   4.434
 8964SOL    HW127791   2.152   3.116   4.490
 8964SOL    HW227792   2.259   3.232   4.446
 8965SOL     OW27793   3.703   5.818   0.119
 8965SOL    HW127794   3.725   5.824   0.022
 8965SOL    HW227795   3.767   5.875   0.172
 8966SOL     OW27796   5.259   6.334   4.790
 8966SOL    HW127797   5.222   6.258   4.737
 8966SOL    HW227798   5.293   6.404   4.727
 8967SOL     OW27799   3.127   6.864   3.448
 8967SOL    HW127800   3.167   6.901   3.365
 8967SOL    HW227801   3.199   6.845   3.515
 8968SOL     OW27802   3.380   4.876   2.508
 8968SOL    HW127803   3.300   4.833   2.466
 8968SOL    HW227804   3.390   4.969   2.474
 8969SOL     OW27805   0.361   0.487   2.673
 8969SOL    HW127806   0.377   0.406   2.729
 8969SOL    HW227807   0.381   0.569   2.726
 8970SOL     OW27808   1.875   0.938   3.732
 8970SOL    HW127809   1.962   0.962   3.691
 8970SOL    HW227810   1.890   0.905   3.825
 8971SOL     OW27811   2.916   4.367   0.683
 8971SOL    HW127812   2.968   4.449   0.708
 8971SOL    HW227813   2.894   4.371   0.586
 8972SOL     OW27814   5.563   3.760   6.604
 8972SOL    HW127815   5.660   3.748   6.581
 8972SOL    HW227816   5.554   3.834   6.670
 8973SOL     OW27817   2.087   2.499   3.089
 8973SOL    HW127818   2.083   2.553   3.174
 8973SOL    HW227819   2.057   2.405   3.108
 8974SOL     OW27820   2.325   4.526   4.605
 8974SOL    HW127821   2.281   4.597   4.550
 8974SOL    HW227822   2.360   4.455   4.545
 8975SOL     OW27823   0.025   4.691   5.682
 8975SOL    HW127824   0.064   4.783   5.675
 8975SOL    HW227825   6.954   4.693   5.650
 8976SOL     OW27826   5.684   0.511   2.150
 8976SOL    HW127827   5.595   0.505   2.195
 8976SOL    HW227828   5.738   0.584   2.192
 8977SOL     OW27829   6.218   4.054   6.644
 8977SOL    HW127830   6.195   4.145   6.677
 8977SOL    HW227831   6.137   4.010   6.607
 8978SOL     OW27832   6.301   5.665   7.002
 8978SOL    HW127833   6.296   5.583   0.035
 8978SOL    HW227834   6.211   5.708   6.998
 8979SOL     OW27835   1.396   4.912   4.506
 8979SOL    HW127836   1.433   4.821   4.524
 8979SOL    HW227837   1.357   4.914   4.414
 8980SOL     OW27838   3.215   0.776   0.207
 8980SOL    HW127839   3.298   0.831   0.207
 8980SOL    HW227840   3.196   0.745   0.300
 8981SOL     OW27841   4.317   3.614   6.333
 8981SOL    HW127842   4.373   3.582   6.256
 8981SOL    HW227843   4.221   3.617   6.305
 8982SOL     OW27844   0.622   2.126   1.663
 8982SOL    HW127845   0.604   2.043   1.610
 8982SOL    HW227846   0.621   2.103   1.761
 8983SOL     OW27847   1.595   6.663   1.831
 8983SOL    HW127848   1.496   6.655   1.845
 8983SOL    HW227849   1.619   6.626   1.741
 8984SOL     OW27850   0.052   1.009   4.525
 8984SOL    HW127851   0.150   0.996   4.535
 8984SOL    HW227852   0.025   0.984   4.432
 8985SOL     OW27853   4.824   1.609   2.362
 8985SOL    HW127854   4.766   1.691   2.358
 8985SOL    HW227855   4.767   1.528   2.370
 8986SOL     OW27856   6.588   4.847   0.593
 8986SOL    HW127857   6.498   4.889   0.604
 8986SOL    HW227858   6.619   4.810   0.681
 8987SOL     OW27859   2.172   6.372   1.424
 8987SOL    HW127860   2.254   6.315   1.414
 8987SOL    HW227861   2.130   6.384   1.334
 8988SOL     OW27862   2.836   0.421   1.482
 8988SOL    HW127863   2.792   0.427   1.572
 8988SOL    HW227864   2.899   0.497   1.471
 8989SOL     OW27865   5.283   1.404   2.469
 8989SOL    HW127866   5.265   1.341   2.544
 8989SOL    HW227867   5.378   1.394   2.440
 8990SOL     OW27868   3.059   0.734   2.763
 8990SOL    HW127869   3.122   0.789   2.818
 8990SOL    HW227870   3.063   0.765   2.668
 8991SOL     OW27871   1.204   2.175   0.964
 8991SOL    HW127872   1.198   2.109   1.039
 8991SOL    HW227873   1.112   2.209   0.943
 8992SOL     OW27874   6.681   4.649   6.614
 8992SOL    HW127875   6.718   4.738   6.638
 8992SOL    HW227876   6.750   4.578   6.632
 8993SOL     OW27877   5.020   3.848   5.040
 8993SOL    HW127878   5.001   3.934   4.993
 8993SOL    HW227879   5.115   3.821   5.021
 8994SOL     OW27880   1.475   5.700   2.788
 8994SOL    HW127881   1.438   5.682   2.697
 8994SOL    HW227882   1.400   5.720   2.851
 8995SOL     OW27883   1.983   3.667   5.091
 8995SOL    HW127884   2.006   3.679   5.187
 8995SOL    HW227885   1.975   3.569   5.070
 8996SOL     OW27886   1.413   3.897   1.597
 8996SOL    HW127887   1.373   3.850   1.519
 8996SOL    HW227888   1.354   3.885   1.677
 8997SOL     OW27889   4.530   1.455   5.562
 8997SOL    HW127890   4.618   1.456   5.609
 8997SOL    HW227891   4.545   1.450   5.463
 8998SOL     OW27892   1.461   1.448   6.355
 8998SOL    HW127893   1.482   1.544   6.369
 8998SOL    HW227894   1.530   1.392   6.401
 8999SOL     OW27895   5.267   1.860   4.901
 8999SOL    HW127896   5.280   1.925   4.975
 8999SOL    HW227897   5.248   1.769   4.939
 9000SOL     OW27898   2.569   4.478   0.358
 9000SOL    HW127899   2.619   4.392   0.361
 9000SOL    HW227900   2.582   4.522   0.269
 9001SOL     OW27901   2.141   4.637   3.641
 9001SOL    HW127902   2.114   4.542   3.658
 9001SOL    HW227903   2.228   4.656   3.688
 9002SOL     OW27904   5.376   3.791   5.323
 9002SOL    HW127905   5.386   3.796   5.224
 9002SOL    HW227906   5.396   3.880   5.363
 9003SOL     OW27907   6.585   2.845   6.679
 9003SOL    HW127908   6.564   2.890   6.766
 9003SOL    HW227909   6.594   2.747   6.693
 9004SOL     OW27910   4.539   5.372   0.929
 9004SOL    HW127911   4.625   5.422   0.940
 9004SOL    HW227912   4.528   5.309   1.006
 9005SOL     OW27913   4.751   2.346   2.812
 9005SOL    HW127914   4.664   2.301   2.832
 9005SOL    HW227915   4.733   2.435   2.770
 9006SOL     OW27916   2.758   6.923   0.728
 9006SOL    HW127917   2.817   6.888   0.656
 9006SOL    HW227918   2.709   6.847   0.771
 9007SOL     OW27919   2.467   6.584   4.447
 9007SOL    HW127920   2.383   6.554   4.402
 9007SOL    HW227921   2.454   6.674   4.487
 9008SOL     OW27922   6.946   4.364   2.668
 9008SOL    HW127923   6.937   4.346   2.570
 9008SOL    HW227924   6.932   4.279   2.719
 9009SOL     OW27925   3.947   6.422   0.841
 9009SOL    HW127926   3.884   6.370   0.899
 9009SOL    HW227927   4.039   6.383   0.848
 9010SOL     OW27928   0.349   5.759   4.727
 9010SOL    HW127929   0.443   5.725   4.727
 9010SOL    HW227930   0.289   5.689   4.765
 9011SOL     OW27931   4.428   2.108   2.027
 9011SOL    HW127932   4.444   2.202   2.057
 9011SOL    HW227933   4.361   2.108   1.953
 9012SOL     OW27934   5.528   5.374   1.952
 9012SOL    HW127935   5.521   5.471   1.925
 9012SOL    HW227936   5.473   5.359   2.033
 9013SOL     OW27937   4.235   6.197   2.260
 9013SOL    HW127938   4.160   6.237   2.207
 9013SOL    HW227939   4.204   6.181   2.354
 9014SOL     OW27940   2.091   1.097   0.888
 9014SOL    HW127941   2.029   1.048   0.825
 9014SOL    HW227942   2.179   1.110   0.843
 9015SOL     OW27943   6.519   1.082   5.073
 9015SOL    HW127944   6.542   1.175   5.043
 9015SOL    HW227945   6.601   1.025   5.072
 9016SOL     OW27946   6.937   5.718   6.779
 9016SOL    HW127947   6.843   5.707   6.744
 9016SOL    HW227948   6.996   5.749   6.704
 9017SOL     OW27949   6.927   4.058   3.414
 9017SOL    HW127950   7.001   4.124   3.418
 9017SOL    HW227951   6.852   4.088   3.472
 9018SOL     OW27952   3.827   1.643   6.203
 9018SOL    HW127953   3.883   1.717   6.164
 9018SOL    HW227954   3.730   1.664   6.191
 9019SOL     OW27955   1.563   5.492   0.182
 9019SOL    HW127956   1.661   5.486   0.204
 9019SOL    HW227957   1.520   5.558   0.243
 9020SOL     OW27958   0.876   4.948   2.924
 9020SOL    HW127959   0.876   4.879   2.851
 9020SOL    HW227960   0.943   4.923   2.994
 9021SOL     OW27961   6.306   6.086   5.491
 9021SOL    HW127962   6.278   5.992   5.475
 9021SOL    HW227963   6.351   6.094   5.580
 9022SOL     OW27964   3.637   0.822   6.471
 9022SOL    HW127965   3.572   0.749   6.450
 9022SOL    HW227966   3.608   0.870   6.554
 9023SOL     OW27967   2.990   3.341   3.239
 9023SOL    HW127968   3.008   3.438   3.253
 9023SOL    HW227969   2.908   3.315   3.291
 9024SOL     OW27970   1.327   6.955   6.903
 9024SOL    HW127971   1.239   6.955   6.949
 9024SOL    HW227972   1.342   6.867   6.858
 9025SOL     OW27973   0.392   3.723   0.289
 9025SOL    HW127974   0.430   3.688   0.374
 9025SOL    HW227975   0.295   3.700   0.283
 9026SOL     OW27976   3.391   3.118   5.696
 9026SOL    HW127977   3.353   3.210   5.686
 9026SOL    HW227978   3.328   3.062   5.749
 9027SOL     OW27979   2.340   2.515   2.934
 9027SOL    HW127980   2.386   2.558   3.012
 9027SOL    HW227981   2.241   2.511   2.952
 9028SOL     OW27982   2.806   5.008   4.916
 9028SOL    HW127983   2.735   4.947   4.949
 9028SOL    HW227984   2.888   4.954   4.893
 9029SOL     OW27985   5.138   5.547   2.742
 9029SOL    HW127986   5.157   5.533   2.645
 9029SOL    HW227987   5.055   5.497   2.768
 9030SOL     OW27988   3.416   2.011   1.869
 9030SOL    HW127989   3.316   2.001   1.866
 9030SOL    HW227990   3.441   2.097   1.824
 9031SOL     OW27991   1.553   1.551   1.157
 9031SOL    HW127992   1.536   1.519   1.250
 9031SOL    HW227993   1.651   1.572   1.146
 9032SOL     OW27994   0.944   2.410   2.735
 9032SOL    HW127995   0.942   2.315   2.705
 9032SOL    HW227996   1.001   2.464   2.673
 9033SOL     OW27997   1.218   3.996   2.239
 9033SOL    HW127998   1.134   4.038   2.274
 9033SOL    HW227999   1.292   4.009   2.305
 9034SOL     OW28000   1.303   0.186   5.915
 9034SOL    HW128001   1.259   0.244   5.983
 9034SOL    HW228002   1.382   0.233   5.876
 9035SOL     OW28003   0.160   0.362   4.517
 9035SOL    HW128004   0.085   0.414   4.559
 9035SOL    HW228005   0.222   0.331   4.589
 9036SOL     OW28006   1.540   1.367   5.114
 9036SOL    HW128007   1.616   1.330   5.167
 9036SOL    HW228008   1.455   1.356   5.165
 9037SOL     OW28009   2.988   4.021   5.854
 9037SOL    HW128010   2.993   4.077   5.936
 9037SOL    HW228011   3.065   4.043   5.794
 9038SOL     OW28012   5.152   6.451   5.384
 9038SOL    HW128013   5.201   6.503   5.454
 9038SOL    HW228014   5.120   6.365   5.423
 9039SOL     OW28015   2.087   4.832   6.560
 9039SOL    HW128016   2.015   4.762   6.568
 9039SOL    HW228017   2.123   4.853   6.651
 9040SOL     OW28018   2.489   1.667   2.058
 9040SOL    HW128019   2.434   1.592   2.094
 9040SOL    HW228020   2.486   1.744   2.123
 9041SOL     OW28021   2.091   2.671   6.827
 9041SOL    HW128022   2.143   2.586   6.823
 9041SOL    HW228023   2.145   2.744   6.785
 9042SOL     OW28024   2.272   6.024   2.873
 9042SOL    HW128025   2.338   6.091   2.906
 9042SOL    HW228026   2.243   5.965   2.949
 9043SOL     OW28027   6.488   2.522   0.761
 9043SOL    HW128028   6.417   2.553   0.698
 9043SOL    HW228029   6.451   2.514   0.853
 9044SOL     OW28030   6.646   4.764   0.848
 9044SOL    HW128031   6.662   4.829   0.922
 9044SOL    HW228032   6.581   4.695   0.878
 9045SOL     OW28033   2.853   5.378   4.043
 9045SOL    HW128034   2.897   5.435   4.112
 9045SOL    HW228035   2.920   5.351   3.973
 9046SOL     OW28036   3.805   4.369   5.810
 9046SOL    HW128037   3.823   4.454   5.760
 9046SOL    HW228038   3.719   4.377   5.860
 9047SOL     OW28039   1.352   4.557   5.158
 9047SOL    HW128040   1.262   4.586   5.191
 9047SOL    HW228041   1.340   4.479   5.095
 9048SOL     OW28042   1.816   1.955   5.147
 9048SOL    HW128043   1.885   1.957   5.075
 9048SOL    HW228044   1.860   1.956   5.237
 9049SOL     OW28045   5.090   6.054   6.561
 9049SOL    HW128046   5.172   5.998   6.548
 9049SOL    HW228047   5.049   6.073   6.472
 9050SOL     OW28048   0.220   5.917   5.146
 9050SOL    HW128049   0.258   5.963   5.065
 9050SOL    HW228050   0.258   5.825   5.152
 9051SOL     OW28051   5.490   6.586   6.258
 9051SOL    HW128052   5.540   6.519   6.202
 9051SOL    HW228053   5.419   6.629   6.202
 9052SOL     OW28054   2.172   4.960   4.690
 9052SOL    HW128055   2.270   4.973   4.674
 9052SOL    HW228056   2.129   5.048   4.708
 9053SOL     OW28057   3.173   1.734   3.795
 9053SOL    HW128058   3.081   1.771   3.785
 9053SOL    HW228059   3.216   1.776   3.876
 9054SOL     OW28060   3.277   0.138   0.970
 9054SOL    HW128061   3.249   0.116   0.877
 9054SOL    HW228062   3.224   0.216   1.004
 9055SOL     OW28063   0.686   1.589   4.755
 9055SOL    HW128064   0.604   1.532   4.766
 9055SOL    HW228065   0.736   1.559   4.674
 9056SOL     OW28066   5.084   2.260   2.479
 9056SOL    HW128067   5.132   2.292   2.397
 9056SOL    HW228068   5.146   2.208   2.536
 9057SOL     OW28069   4.532   6.386   0.029
 9057SOL    HW128070   4.601   6.318   0.054
 9057SOL    HW228071   4.524   6.390   6.953
 9058SOL     OW28072   2.275   2.447   4.233
 9058SOL    HW128073   2.351   2.492   4.187
 9058SOL    HW228074   2.214   2.407   4.165
 9059SOL     OW28075   6.430   0.649   2.560
 9059SOL    HW128076   6.524   0.665   2.529
 9059SOL    HW228077   6.393   0.568   2.513
 9060SOL     OW28078   0.943   5.585   1.612
 9060SOL    HW128079   1.041   5.605   1.612
 9060SOL    HW228080   0.929   5.486   1.620
 9061SOL     OW28081   5.237   4.368   2.698
 9061SOL    HW128082   5.316   4.324   2.654
 9061SOL    HW228083   5.153   4.332   2.659
 9062SOL     OW28084   0.775   5.881   2.808
 9062SOL    HW128085   0.783   5.881   2.708
 9062SOL    HW228086   0.678   5.882   2.834
 9063SOL     OW28087   4.520   1.962   1.486
 9063SOL    HW128088   4.540   1.992   1.393
 9063SOL    HW228089   4.600   1.975   1.544
 9064SOL     OW28090   0.299   5.618   3.102
 9064SOL    HW128091   0.202   5.600   3.118
 9064SOL    HW228092   0.343   5.536   3.066
 9065SOL     OW28093   3.145   4.236   6.038
 9065SOL    HW128094   3.153   4.309   5.970
 9065SOL    HW228095   3.062   4.249   6.091
 9066SOL     OW28096   4.967   5.281   4.510
 9066SOL    HW128097   4.899   5.222   4.467
 9066SOL    HW228098   5.012   5.232   4.585
 9067SOL     OW28099   1.290   6.148   4.628
 9067SOL    HW128100   1.242   6.106   4.551
 9067SOL    HW228101   1.389   6.137   4.615
 9068SOL     OW28102   4.418   6.926   5.669
 9068SOL    HW128103   4.327   6.941   5.631
 9068SOL    HW228104   4.442   6.829   5.661
 9069SOL     OW28105   5.149   2.723   1.046
 9069SOL    HW128106   5.053   2.699   1.056
 9069SOL    HW228107   5.168   2.807   1.097
 9070SOL     OW28108   2.454   1.308   5.565
 9070SOL    HW128109   2.500   1.240   5.508
 9070SOL    HW228110   2.358   1.282   5.577
 9071SOL     OW28111   5.980   2.290   6.338
 9071SOL    HW128112   5.886   2.256   6.334
 9071SOL    HW228113   6.033   2.236   6.403
 9072SOL     OW28114   5.399   0.306   2.796
 9072SOL    HW128115   5.456   0.252   2.858
 9072SOL    HW228116   5.338   0.365   2.850
 9073SOL     OW28117   4.706   2.373   5.179
 9073SOL    HW128118   4.746   2.315   5.109
 9073SOL    HW228119   4.652   2.446   5.136
 9074SOL     OW28120   1.709   1.137   2.348
 9074SOL    HW128121   1.733   1.048   2.386
 9074SOL    HW228122   1.773   1.161   2.275
 9075SOL     OW28123   5.969   5.861   0.539
 9075SOL    HW128124   5.873   5.871   0.565
 9075SOL    HW228125   5.986   5.913   0.455
 9076SOL     OW28126   6.757   6.685   1.918
 9076SOL    HW128127   6.678   6.699   1.977
 9076SOL    HW228128   6.789   6.774   1.885
 9077SOL     OW28129   6.472   1.650   0.146
 9077SOL    HW128130   6.406   1.705   0.096
 9077SOL    HW228131   6.501   1.698   0.229
 9078SOL     OW28132   4.895   6.712   0.109
 9078SOL    HW128133   4.936   6.679   0.025
 9078SOL    HW228134   4.964   6.714   0.181
 9079SOL     OW28135   1.632   1.393   6.565
 9079SOL    HW128136   1.697   1.397   6.640
 9079SOL    HW228137   1.550   1.446   6.588
 9080SOL     OW28138   6.252   3.824   2.171
 9080SOL    HW128139   6.311   3.883   2.115
 9080SOL    HW228140   6.167   3.872   2.192
 9081SOL     OW28141   5.200   0.934   0.488
 9081SOL    HW128142   5.287   0.944   0.440
 9081SOL    HW228143   5.128   0.982   0.438
 9082SOL     OW28144   3.392   5.892   6.167
 9082SOL    HW128145   3.475   5.929   6.209
 9082SOL    HW228146   3.407   5.877   6.069
 9083SOL     OW28147   3.908   5.954   0.217
 9083SOL    HW128148   3.973   5.911   0.153
 9083SOL    HW228149   3.911   6.053   0.205
 9084SOL     OW28150   0.129   3.134   5.458
 9084SOL    HW128151   0.096   3.225   5.483
 9084SOL    HW228152   0.138   3.078   5.541
 9085SOL     OW28153   2.548   4.613   0.123
 9085SOL    HW128154   2.460   4.651   0.152
 9085SOL    HW228155   2.590   4.674   0.055
 9086SOL     OW28156   0.116   4.275   1.110
 9086SOL    HW128157   0.045   4.342   1.132
 9086SOL    HW228158   0.074   4.193   1.073
 9087SOL     OW28159   5.594   0.839   1.180
 9087SOL    HW128160   5.505   0.796   1.192
 9087SOL    HW228161   5.618   0.840   1.082
 9088SOL     OW28162   6.262   6.221   0.600
 9088SOL    HW128163   6.260   6.278   0.682
 9088SOL    HW228164   6.346   6.167   0.599
 9089SOL     OW28165   5.756   5.394   3.337
 9089SOL    HW128166   5.726   5.319   3.396
 9089SOL    HW228167   5.856   5.399   3.337
 9090SOL     OW28168   5.110   5.914   5.736
 9090SOL    HW128169   5.053   5.869   5.804
 9090SOL    HW228170   5.120   6.010   5.759
 9091SOL     OW28171   2.081   1.838   1.818
 9091SOL    HW128172   2.134   1.919   1.843
 9091SOL    HW228173   2.129   1.756   1.847
 9092SOL     OW28174   2.448   1.006   5.443
 9092SOL    HW128175   2.480   0.965   5.358
 9092SOL    HW228176   2.526   1.018   5.506
 9093SOL     OW28177   1.942   3.741   0.547
 9093SOL    HW128178   1.860   3.777   0.501
 9093SOL    HW228179   2.012   3.722   0.479
 9094SOL     OW28180   6.654   4.242   1.726
 9094SOL    HW128181   6.635   4.167   1.662
 9094SOL    HW228182   6.752   4.246   1.743
 9095SOL     OW28183   3.221   2.720   6.985
 9095SOL    HW128184   3.232   2.773   0.046
 9095SOL    HW228185   3.253   2.775   6.907
 9096SOL     OW28186   5.931   3.341   3.295
 9096SOL    HW128187   6.004   3.369   3.359
 9096SOL    HW228188   5.872   3.273   3.339
 9097SOL     OW28189   0.752   4.931   6.126
 9097SOL    HW128190   0.674   4.888   6.173
 9097SOL    HW228191   0.824   4.950   6.193
 9098SOL     OW28192   4.037   3.430   3.319
 9098SOL    HW128193   4.027   3.381   3.232
 9098SOL    HW228194   4.008   3.525   3.306
 9099SOL     OW28195   1.619   2.783   0.740
 9099SOL    HW128196   1.686   2.709   0.734
 9099SOL    HW228197   1.573   2.779   0.829
 9100SOL     OW28198   0.709   3.401   1.050
 9100SOL    HW128199   0.757   3.374   1.134
 9100SOL    HW228200   0.646   3.328   1.023
 9101SOL     OW28201   2.275   2.241   0.358
 9101SOL    HW128202   2.302   2.146   0.344
 9101SOL    HW228203   2.220   2.248   0.442
 9102SOL     OW28204   4.110   5.779   2.828
 9102SOL    HW128205   4.203   5.797   2.794
 9102SOL    HW228206   4.111   5.777   2.928
 9103SOL     OW28207   0.100   3.799   6.411
 9103SOL    HW128208   0.035   3.723   6.407
 9103SOL    HW228209   0.191   3.763   6.433
 9104SOL     OW28210   4.103   6.471   1.872
 9104SOL    HW128211   4.078   6.424   1.787
 9104SOL    HW228212   4.020   6.502   1.918
 9105SOL     OW28213   2.562   1.555   5.580
 9105SOL    HW128214   2.524   1.464   5.564
 9105SOL    HW228215   2.490   1.617   5.610
 9106SOL     OW28216   6.788   5.218   1.110
 9106SOL    HW128217   6.700   5.257   1.140
 9106SOL    HW228218   6.853   5.220   1.185
 9107SOL     OW28219   4.498   0.838   1.357
 9107SOL    HW128220   4.503   0.778   1.437
 9107SOL    HW228221   4.543   0.925   1.378
 9108SOL     OW28222   4.682   5.607   6.194
 9108SOL    HW128223   4.657   5.513   6.172
 9108SOL    HW228224   4.781   5.616   6.198
 9109SOL     OW28225   2.858   2.320   3.953
 9109SOL    HW128226   2.854   2.220   3.958
 9109SOL    HW228227   2.878   2.347   3.859
 9110SOL     OW28228   1.846   3.681   3.460
 9110SOL    HW128229   1.799   3.599   3.493
 9110SOL    HW228230   1.941   3.680   3.494
 9111SOL     OW28231   4.118   4.384   1.670
 9111SOL    HW128232   4.210   4.422   1.659
 9111SOL    HW228233   4.125   4.285   1.686
 9112SOL     OW28234   6.831   4.963   2.335
 9112SOL    HW128235   6.883   5.022   2.396
 9112SOL    HW228236   6.885   4.882   2.313
 9113SOL     OW28237   3.883   6.640   0.145
 9113SOL    HW128238   3.976   6.613   0.172
 9113SOL    HW228239   3.878   6.644   0.046
 9114SOL     OW28240   2.643   4.548   1.720
 9114SOL    HW128241   2.726   4.564   1.774
 9114SOL    HW228242   2.566   4.596   1.761
 9115SOL     OW28243   1.440   4.634   4.634
 9115SOL    HW128244   1.447   4.588   4.722
 9115SOL    HW228245   1.524   4.618   4.581
 9116SOL     OW28246   1.333   1.294   5.973
 9116SOL    HW128247   1.282   1.327   5.893
 9116SOL    HW228248   1.393   1.219   5.945
 9117SOL     OW28249   6.790   2.823   0.251
 9117SOL    HW128250   6.783   2.830   0.151
 9117SOL    HW228251   6.743   2.740   0.281
 9118SOL     OW28252   6.159   6.119   1.759
 9118SOL    HW128253   6.074   6.076   1.730
 9118SOL    HW228254   6.171   6.206   1.712
 9119SOL     OW28255   6.818   0.532   1.510
 9119SOL    HW128256   6.901   0.511   1.562
 9119SOL    HW228257   6.739   0.491   1.556
 9120SOL     OW28258   5.402   1.274   6.220
 9120SOL    HW128259   5.399   1.374   6.210
 9120SOL    HW228260   5.441   1.251   6.309
 9121SOL     OW28261   1.095   1.214   6.173
 9121SOL    HW128262   1.085   1.187   6.077
 9121SOL    HW228263   1.132   1.306   6.179
 9122SOL     OW28264   1.105   3.007   1.958
 9122SOL    HW128265   1.183   2.960   1.997
 9122SOL    HW228266   1.112   3.105   1.977
 9123SOL     OW28267   2.405   4.893   6.991
 9123SOL    HW128268   2.363   4.922   0.054
 9123SOL    HW228269   2.504   4.884   7.005
 9124SOL     OW28270   6.635   5.434   5.313
 9124SOL    HW128271   6.612   5.406   5.406
 9124SOL    HW228272   6.559   5.414   5.252
 9125SOL     OW28273   4.950   4.932   3.436
 9125SOL    HW128274   4.886   4.996   3.394
 9125SOL    HW228275   4.925   4.838   3.411
 9126SOL     OW28276   5.767   0.988   1.337
 9126SOL    HW128277   5.710   0.916   1.297
 9126SOL    HW228278   5.850   0.999   1.282
 9127SOL     OW28279   5.002   0.780   6.982
 9127SOL    HW128280   4.957   0.698   6.947
 9127SOL    HW228281   5.048   0.758   0.044
 9128SOL     OW28282   4.404   2.261   5.054
 9128SOL    HW128283   4.351   2.340   5.025
 9128SOL    HW228284   4.379   2.237   5.148
 9129SOL     OW28285   2.287   1.975   6.226
 9129SOL    HW128286   2.359   1.992   6.158
 9129SOL    HW228287   2.315   1.899   6.285
 9130SOL     OW28288   5.969   4.803   1.070
 9130SOL    HW128289   6.021   4.817   1.154
 9130SOL    HW228290   6.033   4.795   0.993
 9131SOL     OW28291   1.006   4.208   4.442
 9131SOL    HW128292   1.096   4.244   4.418
 9131SOL    HW228293   0.945   4.215   4.363
 9132SOL     OW28294   0.044   2.804   4.579
 9132SOL    HW128295   7.010   2.772   4.655
 9132SOL    HW228296   7.010   2.844   4.508
 9133SOL     OW28297   2.233   4.019   1.179
 9133SOL    HW128298   2.193   4.106   1.210
 9133SOL    HW228299   2.202   3.999   1.086
 9134SOL     OW28300   2.695   5.637   6.064
 9134SOL    HW128301   2.741   5.692   6.134
 9134SOL    HW228302   2.746   5.641   5.979
 9135SOL     OW28303   6.739   6.242   4.535
 9135SOL    HW128304   6.652   6.291   4.529
 9135SOL    HW228305   6.801   6.290   4.597
 9136SOL     OW28306   4.427   4.814   5.625
 9136SOL    HW128307   4.393   4.879   5.558
 9136SOL    HW228308   4.354   4.793   5.691
 9137SOL     OW28309   4.181   1.138   1.649
 9137SOL    HW128310   4.096   1.184   1.674
 9137SOL    HW228311   4.185   1.050   1.696
 9138SOL     OW28312   4.142   5.252   6.732
 9138SOL    HW128313   4.060   5.308   6.720
 9138SOL    HW228314   4.137   5.203   6.819
 9139SOL     OW28315   3.210   1.589   5.135
 9139SOL    HW128316   3.281   1.567   5.069
 9139SOL    HW228317   3.250   1.595   5.227
 9140SOL     OW28318   0.070   2.441   2.750
 9140SOL    HW128319   0.062   2.489   2.838
 9140SOL    HW228320   0.102   2.348   2.766
 9141SOL     OW28321   5.715   0.133   5.828
 9141SOL    HW128322   5.695   0.077   5.748
 9141SOL    HW228323   5.767   0.080   5.894
 9142SOL     OW28324   0.111   3.003   5.946
 9142SOL    HW128325   0.075   3.053   6.024
 9142SOL    HW228326   0.152   2.917   5.977
 9143SOL     OW28327   4.668   3.986   0.703
 9143SOL    HW128328   4.598   3.997   0.773
 9143SOL    HW228329   4.733   4.063   0.709
 9144SOL     OW28330   2.148   5.367   5.284
 9144SOL    HW128331   2.117   5.461   5.271
 9144SOL    HW228332   2.188   5.357   5.375
 9145SOL     OW28333   0.135   4.746   6.431
 9145SOL    HW128334   0.068   4.707   6.368
 9145SOL    HW228335   0.216   4.774   6.380
 9146SOL     OW28336   6.072   2.173   1.878
 9146SOL    HW128337   6.013   2.142   1.952
 9146SOL    HW228338   6.017   2.222   1.810
 9147SOL     OW28339   4.188   5.608   5.451
 9147SOL    HW128340   4.233   5.692   5.481
 9147SOL    HW228341   4.255   5.533   5.449
 9148SOL     OW28342   4.414   5.199   3.608
 9148SOL    HW128343   4.474   5.208   3.529
 9148SOL    HW228344   4.375   5.288   3.631
 9149SOL     OW28345   5.525   3.302   4.366
 9149SOL    HW128346   5.579   3.372   4.318
 9149SOL    HW228347   5.487   3.341   4.450
 9150SOL     OW28348   5.038   0.230   3.023
 9150SOL    HW128349   5.057   0.159   2.955
 9150SOL    HW228350   4.954   0.208   3.072
 9151SOL     OW28351   1.596   4.095   1.779
 9151SOL    HW128352   1.503   4.132   1.779
 9151SOL    HW228353   1.595   4.001   1.812
 9152SOL     OW28354   1.898   5.867   3.640
 9152SOL    HW128355   1.859   5.945   3.591
 9152SOL    HW228356   1.945   5.808   3.575
 9153SOL     OW28357   2.030   3.023   6.532
 9153SOL    HW128358   2.087   2.967   6.591
 9153SOL    HW228359   1.937   3.025   6.567
 9154SOL     OW28360   2.393   5.708   0.259
 9154SOL    HW128361   2.326   5.746   0.195
 9154SOL    HW228362   2.356   5.624   0.300
 9155SOL     OW28363   1.381   3.968   7.017
 9155SOL    HW128364   1.383   4.028   6.937
 9155SOL    HW228365   1.364   3.874   6.988
 9156SOL     OW28366   4.709   2.162   1.069
 9156SOL    HW128367   4.720   2.226   0.993
 9156SOL    HW228368   4.752   2.074   1.046
 9157SOL     OW28369   5.105   3.841   5.796
 9157SOL    HW128370   5.088   3.841   5.697
 9157SOL    HW228371   5.018   3.850   5.844
 9158SOL     OW28372   0.917   3.521   4.164
 9158SOL    HW128373   0.906   3.578   4.083
 9158SOL    HW228374   0.975   3.442   4.142
 9159SOL     OW28375   6.249   5.370   2.473
 9159SOL    HW128376   6.287   5.300   2.533
 9159SOL    HW228377   6.214   5.328   2.390
 9160SOL     OW28378   0.638   0.389   6.976
 9160SOL    HW128379   0.580   0.354   0.026
 9160SOL    HW228380   0.735   0.379   7.002
 9161SOL     OW28381   4.841   3.928   4.748
 9161SOL    HW128382   4.864   3.977   4.832
 9161SOL    HW228383   4.868   3.832   4.756
 9162SOL     OW28384   4.701   2.781   2.461
 9162SOL    HW128385   4.688   2.688   2.495
 9162SOL    HW228386   4.659   2.845   2.525
 9163SOL     OW28387   3.044   2.093   3.750
 9163SOL    HW128388   2.999   2.022   3.696
 9163SOL    HW228389   2.997   2.180   3.737
 9164SOL     OW28390   3.373   0.430   6.925
 9164SOL    HW128391   3.423   0.407   6.842
 9164SOL    HW228392   3.285   0.381   6.926
 9165SOL     OW28393   5.807   0.408   6.799
 9165SOL    HW128394   5.894   0.361   6.789
 9165SOL    HW228395   5.808   0.493   6.746
 9166SOL     OW28396   3.018   5.183   1.012
 9166SOL    HW128397   3.036   5.251   0.941
 9166SOL    HW228398   3.093   5.118   1.017
 9167SOL     OW28399   1.950   4.531   5.546
 9167SOL    HW128400   2.023   4.527   5.478
 9167SOL    HW228401   1.880   4.596   5.517
 9168SOL     OW28402   2.556   0.588   6.087
 9168SOL    HW128403   2.501   0.667   6.060
 9168SOL    HW228404   2.499   0.506   6.083
 9169SOL     OW28405   0.328   0.907   3.843
 9169SOL    HW128406   0.339   0.974   3.770
 9169SOL    HW228407   0.301   0.819   3.803
 9170SOL     OW28408   6.792   5.356   0.085
 9170SOL    HW128409   6.809   5.368   0.183
 9170SOL    HW228410   6.859   5.410   0.034
 9171SOL     OW28411   2.619   5.411   0.140
 9171SOL    HW128412   2.550   5.441   0.205
 9171SOL    HW228413   2.709   5.442   0.170
 9172SOL     OW28414   3.138   1.397   3.756
 9172SOL    HW128415   3.166   1.373   3.849
 9172SOL    HW228416   3.213   1.380   3.693
 9173SOL     OW28417   6.935   5.209   4.178
 9173SOL    HW128418   6.965   5.237   4.087
 9173SOL    HW228419   6.985   5.262   4.247
 9174SOL     OW28420   0.086   4.773   0.447
 9174SOL    HW128421   0.093   4.686   0.497
 9174SOL    HW228422   0.177   4.816   0.442
 9175SOL     OW28423   1.782   5.819   6.030
 9175SOL    HW128424   1.841   5.739   6.045
 9175SOL    HW228425   1.837   5.902   6.039
 9176SOL     OW28426   2.132   0.423   5.813
 9176SOL    HW128427   2.085   0.401   5.728
 9176SOL    HW228428   2.084   0.381   5.890
 9177SOL     OW28429   1.330   4.271   3.551
 9177SOL    HW128430   1.366   4.326   3.627
 9177SOL    HW228431   1.337   4.322   3.466
 9178SOL     OW28432   1.836   5.167   0.842
 9178SOL    HW128433   1.819   5.250   0.788
 9178SOL    HW228434   1.752   5.113   0.847
 9179SOL     OW28435   2.984   4.857   4.155
 9179SOL    HW128436   3.068   4.835   4.204
 9179SOL    HW228437   2.968   4.956   4.159
 9180SOL     OW28438   5.529   2.229   3.804
 9180SOL    HW128439   5.446   2.272   3.769
 9180SOL    HW228440   5.560   2.159   3.740
 9181SOL     OW28441   4.536   2.329   2.406
 9181SOL    HW128442   4.479   2.338   2.488
 9181SOL    HW228443   4.597   2.251   2.415
 9182SOL     OW28444   0.926   6.402   1.716
 9182SOL    HW128445   1.020   6.375   1.697
 9182SOL    HW228446   0.916   6.500   1.701
 9183SOL     OW28447   4.872   6.368   1.278
 9183SOL    HW128448   4.941   6.346   1.348
 9183SOL    HW228449   4.912   6.431   1.211
 9184SOL     OW28450   4.779   6.891   0.953
 9184SOL    HW128451   4.746   6.880   0.859
 9184SOL    HW228452   4.701   6.905   1.013
 9185SOL     OW28453   3.616   0.761   4.977
 9185SOL    HW128454   3.597   0.666   5.000
 9185SOL    HW228455   3.532   0.807   4.949
 9186SOL     OW28456   6.024   1.184   5.554
 9186SOL    HW128457   6.070   1.165   5.467
 9186SOL    HW228458   6.028   1.282   5.574
 9187SOL     OW28459   2.417   6.690   2.041
 9187SOL    HW128460   2.320   6.703   2.057
 9187SOL    HW228461   2.434   6.598   2.007
 9188SOL     OW28462   2.774   6.607   1.221
 9188SOL    HW128463   2.833   6.569   1.293
 9188SOL    HW228464   2.680   6.613   1.255
 9189SOL     OW28465   5.114   5.675   3.181
 9189SOL    HW128466   5.019   5.653   3.205
 9189SOL    HW228467   5.173   5.659   3.260
 9190SOL     OW28468   1.389   5.019   0.681
 9190SOL    HW128469   1.436   4.936   0.650
 9190SOL    HW228470   1.347   5.064   0.602
 9191SOL     OW28471   6.918   0.482   5.794
 9191SOL    HW128472   7.017   0.495   5.786
 9191SOL    HW228473   6.879   0.561   5.842
 9192SOL     OW28474   6.922   4.159   4.411
 9192SOL    HW128475   6.952   4.188   4.321
 9192SOL    HW228476   6.822   4.164   4.417
 9193SOL     OW28477   3.101   3.355   0.150
 9193SOL    HW128478   3.145   3.440   0.179
 9193SOL    HW228479   3.085   3.297   0.230
 9194SOL     OW28480   3.113   0.692   3.732
 9194SOL    HW128481   3.098   0.659   3.639
 9194SOL    HW228482   3.159   0.780   3.729
 9195SOL     OW28483   1.875   1.954   4.076
 9195SOL    HW128484   1.928   2.016   4.135
 9195SOL    HW228485   1.778   1.965   4.096
 9196SOL     OW28486   4.720   1.757   5.359
 9196SOL    HW128487   4.669   1.842   5.374
 9196SOL    HW228488   4.772   1.765   5.274
 9197SOL     OW28489   2.239   3.647   1.638
 9197SOL    HW128490   2.291   3.608   1.715
 9197SOL    HW228491   2.181   3.721   1.672
 9198SOL     OW28492   6.617   5.144   5.325
 9198SOL    HW128493   6.557   5.158   5.246
 9198SOL    HW228494   6.579   5.192   5.404
 9199SOL     OW28495   0.069   4.382   5.090
 9199SOL    HW128496   0.057   4.302   5.149
 9199SOL    HW228497   7.015   4.445   5.102
 9200SOL     OW28498   3.239   0.483   0.332
 9200SOL    HW128499   3.333   0.486   0.300
 9200SOL    HW228500   3.222   0.560   0.394
 9201SOL     OW28501   1.553   4.258   0.355
 9201SOL    HW128502   1.603   4.341   0.380
 9201SOL    HW228503   1.519   4.214   0.438
 9202SOL     OW28504   1.466   0.481   3.035
 9202SOL    HW128505   1.381   0.501   3.083
 9202SOL    HW228506   1.477   0.382   3.027
 9203SOL     OW28507   6.736   5.469   0.812
 9203SOL    HW128508   6.653   5.414   0.803
 9203SOL    HW228509   6.711   5.565   0.826
 9204SOL     OW28510   5.213   1.056   6.201
 9204SOL    HW128511   5.190   1.019   6.111
 9204SOL    HW228512   5.245   1.150   6.191
 9205SOL     OW28513   6.826   3.708   3.237
 9205SOL    HW128514   6.820   3.802   3.206
 9205SOL    HW228515   6.735   3.666   3.233
 9206SOL     OW28516   3.610   6.070   0.590
 9206SOL    HW128517   3.531   6.014   0.615
 9206SOL    HW228518   3.600   6.161   0.629
 9207SOL     OW28519   4.885   5.382   0.706
 9207SOL    HW128520   4.808   5.423   0.658
 9207SOL    HW228521   4.903   5.292   0.668
 9208SOL     OW28522   0.679   3.825   3.551
 9208SOL    HW128523   0.756   3.883   3.522
 9208SOL    HW228524   0.705   3.773   3.632
 9209SOL     OW28525   2.734   1.287   6.313
 9209SOL    HW128526   2.658   1.351   6.323
 9209SOL    HW228527   2.809   1.331   6.264
 9210SOL     OW28528   6.653   1.128   3.336
 9210SOL    HW128529   6.610   1.207   3.380
 9210SOL    HW228530   6.657   1.142   3.237
 9211SOL     OW28531   0.245   1.502   3.621
 9211SOL    HW128532   0.212   1.468   3.533
 9211SOL    HW228533   0.337   1.539   3.610
 9212SOL     OW28534   3.676   5.027   5.061
 9212SOL    HW128535   3.590   5.053   5.017
 9212SOL    HW228536   3.725   4.961   5.004
 9213SOL     OW28537   5.842   3.919   6.180
 9213SOL    HW128538   5.820   3.989   6.112
 9213SOL    HW228539   5.893   3.960   6.256
 9214SOL     OW28540   0.910   5.998   0.664
 9214SOL    HW128541   0.888   6.067   0.733
 9214SOL    HW228542   0.937   5.913   0.709
 9215SOL     OW28543   1.196   0.899   0.248
 9215SOL    HW128544   1.143   0.819   0.221
 9215SOL    HW228545   1.197   0.906   0.348
 9216SOL     OW28546   2.296   0.021   2.660
 9216SOL    HW128547   2.381   6.998   2.638
 9216SOL    HW228548   2.219   6.988   2.629
 9217SOL     OW28549   1.223   2.127   6.429
 9217SOL    HW128550   1.277   2.058   6.381
 9217SOL    HW228551   1.282   2.201   6.460
 9218SOL     OW28552   2.954   0.308   0.478
 9218SOL    HW128553   2.873   0.354   0.443
 9218SOL    HW228554   2.952   0.211   0.452
 9219SOL     OW28555   0.440   2.477   0.770
 9219SOL    HW128556   0.433   2.574   0.748
 9219SOL    HW228557   0.348   2.439   0.782
 9220SOL     OW28558   3.446   6.500   1.421
 9220SOL    HW128559   3.523   6.545   1.375
 9220SOL    HW228560   3.376   6.569   1.444
 9221SOL     OW28561   2.575   5.648   3.975
 9221SOL    HW128562   2.569   5.631   4.073
 9221SOL    HW228563   2.652   5.597   3.937
 9222SOL     OW28564   2.903   1.481   6.146
 9222SOL    HW128565   2.850   1.413   6.095
 9222SOL    HW228566   2.935   1.552   6.083
 9223SOL     OW28567   2.610   2.893   5.405
 9223SOL    HW128568   2.546   2.915   5.478
 9223SOL    HW228569   2.569   2.919   5.317
 9224SOL     OW28570   1.752   5.214   4.332
 9224SOL    HW128571   1.701   5.254   4.408
 9224SOL    HW228572   1.736   5.115   4.330
 9225SOL     OW28573   2.756   5.799   6.972
 9225SOL    HW128574   2.723   5.759   0.034
 9225SOL    HW228575   2.688   5.865   6.938
 9226SOL     OW28576   5.085   6.679   1.217
 9226SOL    HW128577   5.029   6.708   1.140
 9226SOL    HW228578   5.026   6.644   1.290
 9227SOL     OW28579   1.917   5.804   2.879
 9227SOL    HW128580   1.885   5.898   2.872
 9227SOL    HW228581   1.966   5.791   2.965
 9228SOL     OW28582   1.316   0.813   6.687
 9228SOL    HW128583   1.341   0.887   6.625
 9228SOL    HW228584   1.399   0.764   6.716
 9229SOL     OW28585   0.581   5.359   4.580
 9229SOL    HW128586   0.591   5.293   4.655
 9229SOL    HW228587   0.595   5.312   4.493
 9230SOL     OW28588   5.708   0.798   3.921
 9230SOL    HW128589   5.687   0.702   3.942
 9230SOL    HW228590   5.627   0.854   3.937
 9231SOL     OW28591   1.335   2.710   4.222
 9231SOL    HW128592   1.348   2.757   4.309
 9231SOL    HW228593   1.405   2.639   4.210
 9232SOL     OW28594   3.421   4.774   0.826
 9232SOL    HW128595   3.370   4.787   0.742
 9232SOL    HW228596   3.397   4.846   0.891
 9233SOL     OW28597   5.658   4.911   0.975
 9233SOL    HW128598   5.617   4.992   1.018
 9233SOL    HW228599   5.741   4.886   1.025
 9234SOL     OW28600   2.356   5.797   3.339
 9234SOL    HW128601   2.412   5.871   3.376
 9234SOL    HW228602   2.414   5.720   3.312
 9235SOL     OW28603   0.455   2.282   3.149
 9235SOL    HW128604   0.411   2.327   3.071
 9235SOL    HW228605   0.554   2.292   3.142
 9236SOL     OW28606   3.011   3.603   5.093
 9236SOL    HW128607   2.960   3.521   5.120
 9236SOL    HW228608   3.044   3.592   4.999
 9237SOL     OW28609   2.014   4.162   3.837
 9237SOL    HW128610   2.098   4.108   3.832
 9237SOL    HW228611   1.939   4.110   3.794
 9238SOL     OW28612   4.194   2.954   6.466
 9238SOL    HW128613   4.180   3.022   6.394
 9238SOL    HW228614   4.278   2.902   6.446
 9239SOL     OW28615   0.968   3.845   0.772
 9239SOL    HW128616   1.047   3.826   0.714
 9239SOL    HW228617   0.974   3.939   0.806
 9240SOL     OW28618   4.358   1.275   1.995
 9240SOL    HW128619   4.348   1.317   1.905
 9240SOL    HW228620   4.430   1.206   1.992
 9241SOL     OW28621   0.584   5.676   6.871
 9241SOL    HW128622   0.507   5.683   6.934
 9241SOL    HW228623   0.641   5.597   6.895
 9242SOL     OW28624   5.974   5.893   1.987
 9242SOL    HW128625   5.949   5.852   1.899
 9242SOL    HW228626   6.073   5.912   1.987
 9243SOL     OW28627   6.564   5.829   5.294
 9243SOL    HW128628   6.643   5.773   5.272
 9243SOL    HW228629   6.481   5.782   5.263
 9244SOL     OW28630   3.727   5.298   6.409
 9244SOL    HW128631   3.796   5.324   6.475
 9244SOL    HW228632   3.769   5.241   6.337
 9245SOL     OW28633   0.811   5.868   1.804
 9245SOL    HW128634   0.756   5.787   1.783
 9245SOL    HW228635   0.784   5.943   1.744
 9246SOL     OW28636   6.641   5.271   3.605
 9246SOL    HW128637   6.566   5.249   3.668
 9246SOL    HW228638   6.646   5.369   3.591
 9247SOL     OW28639   0.910   6.657   2.765
 9247SOL    HW128640   0.957   6.688   2.848
 9247SOL    HW228641   0.977   6.642   2.692
 9248SOL     OW28642   2.687   2.427   6.282
 9248SOL    HW128643   2.646   2.514   6.309
 9248SOL    HW228644   2.675   2.414   6.183
 9249SOL     OW28645   5.205   0.355   3.984
 9249SOL    HW128646   5.108   0.334   3.994
 9249SOL    HW228647   5.254   0.327   4.067
 9250SOL     OW28648   5.188   3.448   3.730
 9250SOL    HW128649   5.245   3.381   3.683
 9250SOL    HW228650   5.093   3.415   3.733
 9251SOL     OW28651   3.606   2.000   2.506
 9251SOL    HW128652   3.566   1.916   2.543
 9251SOL    HW228653   3.541   2.041   2.442
 9252SOL     OW28654   0.420   0.272   4.981
 9252SOL    HW128655   0.454   0.186   5.020
 9252SOL    HW228656   0.354   0.313   5.044
 9253SOL     OW28657   1.770   0.109   5.760
 9253SOL    HW128658   1.712   0.186   5.732
 9253SOL    HW228659   1.712   0.035   5.793
 9254SOL     OW28660   6.011   3.931   1.494
 9254SOL    HW128661   6.065   3.927   1.410
 9254SOL    HW228662   5.968   3.842   1.512
 9255SOL     OW28663   5.483   4.169   1.150
 9255SOL    HW128664   5.519   4.261   1.161
 9255SOL    HW228665   5.551   4.102   1.179
 9256SOL     OW28666   4.260   4.759   1.812
 9256SOL    HW128667   4.291   4.664   1.804
 9256SOL    HW228668   4.334   4.815   1.851
 9257SOL     OW28669   1.011   4.047   1.229
 9257SOL    HW128670   1.015   4.142   1.199
 9257SOL    HW228671   0.944   3.997   1.175
 9258SOL     OW28672   3.885   3.237   3.455
 9258SOL    HW128673   3.936   3.302   3.399
 9258SOL    HW228674   3.797   3.217   3.411
 9259SOL     OW28675   1.298   2.610   1.200
 9259SOL    HW128676   1.250   2.570   1.279
 9259SOL    HW228677   1.345   2.694   1.229
 9260SOL     OW28678   4.795   3.525   6.184
 9260SOL    HW128679   4.832   3.581   6.258
 9260SOL    HW228680   4.813   3.429   6.203
 9261SOL     OW28681   4.817   0.173   6.442
 9261SOL    HW128682   4.725   0.212   6.444
 9261SOL    HW228683   4.875   0.230   6.383
 9262SOL     OW28684   4.898   1.188   5.498
 9262SOL    HW128685   4.928   1.133   5.575
 9262SOL    HW228686   4.819   1.144   5.454
 9263SOL     OW28687   4.936   3.646   1.733
 9263SOL    HW128688   5.022   3.693   1.713
 9263SOL    HW228689   4.866   3.714   1.758
 9264SOL     OW28690   6.374   3.834   0.087
 9264SOL    HW128691   6.448   3.899   0.102
 9264SOL    HW228692   6.353   3.786   0.172
 9265SOL     OW28693   2.705   1.227   0.398
 9265SOL    HW128694   2.729   1.177   0.314
 9265SOL    HW228695   2.785   1.278   0.430
 9266SOL     OW28696   2.132   6.737   2.873
 9266SOL    HW128697   2.213   6.730   2.815
 9266SOL    HW228698   2.160   6.745   2.969
 9267SOL     OW28699   0.828   4.794   4.453
 9267SOL    HW128700   0.837   4.770   4.356
 9267SOL    HW228701   0.768   4.874   4.462
 9268SOL     OW28702   0.464   6.633   2.921
 9268SOL    HW128703   0.543   6.693   2.911
 9268SOL    HW228704   0.493   6.537   2.920
 9269SOL     OW28705   3.247   1.643   6.468
 9269SOL    HW128706   3.288   1.570   6.413
 9269SOL    HW228707   3.189   1.602   6.538
 9270SOL     OW28708   6.810   6.497   6.625
 9270SOL    HW128709   6.866   6.579   6.634
 9270SOL    HW228710   6.868   6.419   6.602
 9271SOL     OW28711   1.936   5.639   0.667
 9271SOL    HW128712   1.926   5.685   0.579
 9271SOL    HW228713   2.031   5.610   0.678
 9272SOL     OW28714   2.390   4.707   6.029
 9272SOL    HW128715   2.343   4.752   6.104
 9272SOL    HW228716   2.476   4.754   6.009
 9273SOL     OW28717   4.289   5.300   4.355
 9273SOL    HW128718   4.352   5.355   4.301
 9273SOL    HW228719   4.219   5.261   4.295
 9274SOL     OW28720   6.130   2.194   6.589
 9274SOL    HW128721   6.038   2.231   6.606
 9274SOL    HW228722   6.192   2.223   6.662
 9275SOL     OW28723   1.855   0.466   6.072
 9275SOL    HW128724   1.787   0.500   6.007
 9275SOL    HW228725   1.901   0.543   6.116
 9276SOL     OW28726   3.717   5.845   4.453
 9276SOL    HW128727   3.661   5.828   4.534
 9276SOL    HW228728   3.671   5.912   4.394
 9277SOL     OW28729   3.919   3.118   0.139
 9277SOL    HW128730   3.925   3.120   0.039
 9277SOL    HW228731   3.823   3.111   0.166
 9278SOL     OW28732   1.294   2.066   2.938
 9278SOL    HW128733   1.260   2.130   2.869
 9278SOL    HW228734   1.218   2.034   2.994
 9279SOL     OW28735   2.890   0.403   2.115
 9279SOL    HW128736   2.972   0.347   2.107
 9279SOL    HW228737   2.888   0.470   2.041
 9280SOL     OW28738   2.066   6.774   3.941
 9280SOL    HW128739   2.037   6.741   4.031
 9280SOL    HW228740   2.142   6.838   3.952
 9281SOL     OW28741   1.863   2.222   0.132
 9281SOL    HW128742   1.906   2.311   0.149
 9281SOL    HW228743   1.906   2.180   0.052
 9282SOL     OW28744   4.439   1.818   5.401
 9282SOL    HW128745   4.467   1.726   5.428
 9282SOL    HW228746   4.444   1.827   5.301
 9283SOL     OW28747   5.936   2.635   2.066
 9283SOL    HW128748   5.965   2.640   2.162
 9283SOL    HW228749   5.878   2.714   2.046
 9284SOL     OW28750   3.042   3.419   1.126
 9284SOL    HW128751   3.007   3.487   1.191
 9284SOL    HW228752   3.142   3.423   1.126
 9285SOL     OW28753   6.980   2.480   6.764
 9285SOL    HW128754   6.982   2.560   6.703
 9285SOL    HW228755   6.888   2.442   6.766
 9286SOL     OW28756   5.351   0.109   5.148
 9286SOL    HW128757   5.304   0.157   5.222
 9286SOL    HW228758   5.449   0.106   5.168
 9287SOL     OW28759   2.832   6.510   0.947
 9287SOL    HW128760   2.822   6.572   1.025
 9287SOL    HW228761   2.825   6.415   0.978
 9288SOL     OW28762   4.993   2.431   6.008
 9288SOL    HW128763   5.017   2.447   6.104
 9288SOL    HW228764   4.894   2.438   5.997
 9289SOL     OW28765   5.239   2.590   2.146
 9289SOL    HW128766   5.178   2.566   2.070
 9289SOL    HW228767   5.215   2.680   2.182
 9290SOL     OW28768   4.910   2.069   4.259
 9290SOL    HW128769   4.869   2.033   4.343
 9290SOL    HW228770   4.840   2.117   4.206
 9291SOL     OW28771   1.162   0.981   4.466
 9291SOL    HW128772   1.140   1.009   4.560
 9291SOL    HW228773   1.257   1.007   4.445
 9292SOL     OW28774   0.321   3.359   6.173
 9292SOL    HW128775   0.275   3.380   6.259
 9292SOL    HW228776   0.354   3.264   6.176
 9293SOL     OW28777   5.233   4.516   0.314
 9293SOL    HW128778   5.181   4.595   0.282
 9293SOL    HW228779   5.178   4.433   0.301
 9294SOL     OW28780   5.435   6.634   6.912
 9294SOL    HW128781   5.440   6.646   7.011
 9294SOL    HW228782   5.381   6.553   6.890
 9295SOL     OW28783   4.753   1.564   3.006
 9295SOL    HW128784   4.751   1.639   3.072
 9295SOL    HW228785   4.799   1.593   2.923
 9296SOL     OW28786   5.942   6.536   5.846
 9296SOL    HW128787   5.934   6.448   5.892
 9296SOL    HW228788   5.889   6.535   5.762
 9297SOL     OW28789   0.471   0.626   0.958
 9297SOL    HW128790   0.387   0.647   0.908
 9297SOL    HW228791   0.455   0.549   1.019
 9298SOL     OW28792   1.602   5.950   5.112
 9298SOL    HW128793   1.630   5.863   5.152
 9298SOL    HW228794   1.518   5.982   5.156
 9299SOL     OW28795   1.700   3.760   4.417
 9299SOL    HW128796   1.723   3.664   4.429
 9299SOL    HW228797   1.784   3.815   4.419
 9300SOL     OW28798   5.586   4.473   4.647
 9300SOL    HW128799   5.532   4.502   4.726
 9300SOL    HW228800   5.525   4.437   4.576
 9301SOL     OW28801   5.250   4.818   2.332
 9301SOL    HW128802   5.330   4.804   2.391
 9301SOL    HW228803   5.265   4.770   2.245
 9302SOL     OW28804   2.363   2.263   3.016
 9302SOL    HW128805   2.373   2.280   3.114
 9302SOL    HW228806   2.383   2.347   2.965
 9303SOL     OW28807   3.731   5.823   6.885
 9303SOL    HW128808   3.704   5.742   6.832
 9303SOL    HW228809   3.822   5.852   6.857
 9304SOL     OW28810   3.362   3.293   0.855
 9304SOL    HW128811   3.375   3.304   0.757
 9304SOL    HW228812   3.410   3.211   0.886
 9305SOL     OW28813   5.863   3.034   1.696
 9305SOL    HW128814   5.869   3.031   1.596
 9305SOL    HW228815   5.780   3.084   1.722
 9306SOL     OW28816   0.102   4.412   4.382
 9306SOL    HW128817   0.076   4.466   4.301
 9306SOL    HW228818   0.174   4.347   4.356
 9307SOL     OW28819   1.525   1.948   0.195
 9307SOL    HW128820   1.484   2.023   0.141
 9307SOL    HW228821   1.604   1.982   0.244
 9308SOL     OW28822   0.389   3.579   0.942
 9308SOL    HW128823   0.371   3.660   0.886
 9308SOL    HW228824   0.486   3.576   0.966
 9309SOL     OW28825   4.408   3.770   5.997
 9309SOL    HW128826   4.308   3.779   5.999
 9309SOL    HW228827   4.446   3.803   6.084
 9310SOL     OW28828   4.348   5.888   6.697
 9310SOL    HW128829   4.427   5.861   6.753
 9310SOL    HW228830   4.376   5.894   6.601
 9311SOL     OW28831   5.573   3.783   0.861
 9311SOL    HW128832   5.668   3.763   0.834
 9311SOL    HW228833   5.558   3.750   0.954
 9312SOL     OW28834   0.765   4.174   6.195
 9312SOL    HW128835   0.709   4.238   6.248
 9312SOL    HW228836   0.845   4.147   6.248
 9313SOL     OW28837   6.976   6.963   2.940
 9313SOL    HW128838   6.919   6.952   2.858
 9313SOL    HW228839   6.924   6.934   3.020
 9314SOL     OW28840   4.933   5.112   6.708
 9314SOL    HW128841   5.011   5.126   6.769
 9314SOL    HW228842   4.848   5.122   6.758
 9315SOL     OW28843   0.109   6.909   5.762
 9315SOL    HW128844   0.050   6.840   5.804
 9315SOL    HW228845   0.054   6.979   5.718
 9316SOL     OW28846   4.092   5.968   3.613
 9316SOL    HW128847   4.066   5.936   3.705
 9316SOL    HW228848   4.157   6.044   3.622
 9317SOL     OW28849   6.845   5.286   3.804
 9317SOL    HW128850   6.780   5.264   3.731
 9317SOL    HW228851   6.913   5.351   3.769
 9318SOL     OW28852   0.500   0.717   6.562
 9318SOL    HW128853   0.571   0.741   6.496
 9318SOL    HW228854   0.540   0.709   6.653
 9319SOL     OW28855   0.714   3.176   6.244
 9319SOL    HW128856   0.755   3.189   6.334
 9319SOL    HW228857   0.734   3.255   6.186
 9320SOL     OW28858   4.190   2.541   5.934
 9320SOL    HW128859   4.271   2.518   5.880
 9320SOL    HW228860   4.183   2.480   6.013
 9321SOL     OW28861   6.395   6.131   2.757
 9321SOL    HW128862   6.340   6.210   2.728
 9321SOL    HW228863   6.348   6.083   2.831
 9322SOL     OW28864   1.027   6.510   5.917
 9322SOL    HW128865   1.043   6.601   5.954
 9322SOL    HW228866   1.075   6.442   5.972
 9323SOL     OW28867   1.172   1.215   6.693
 9323SOL    HW128868   1.103   1.161   6.741
 9323SOL    HW228869   1.240   1.248   6.758
 9324SOL     OW28870   1.438   5.662   0.360
 9324SOL    HW128871   1.470   5.682   0.453
 9324SOL    HW228872   1.349   5.705   0.345
 9325SOL     OW28873   5.961   2.129   1.354
 9325SOL    HW128874   5.863   2.117   1.338
 9325SOL    HW228875   5.995   2.204   1.298
 9326SOL     OW28876   1.879   0.032   1.160
 9326SOL    HW128877   1.961   0.080   1.131
 9326SOL    HW228878   1.902   6.988   1.230
 9327SOL     OW28879   4.185   0.785   2.780
 9327SOL    HW128880   4.214   0.762   2.872
 9327SOL    HW228881   4.140   0.874   2.780
 9328SOL     OW28882   3.598   1.208   1.030
 9328SOL    HW128883   3.597   1.301   1.066
 9328SOL    HW228884   3.671   1.156   1.075
 9329SOL     OW28885   1.020   3.506   2.287
 9329SOL    HW128886   1.049   3.410   2.293
 9329SOL    HW228887   1.001   3.541   2.378
 9330SOL     OW28888   6.059   0.906   0.259
 9330SOL    HW128889   6.083   0.828   0.317
 9330SOL    HW228890   6.105   0.988   0.292
 9331SOL     OW28891   0.516   0.968   6.994
 9331SOL    HW128892   0.433   0.998   0.018
 9331SOL    HW228893   0.524   1.017   6.907
 9332SOL     OW28894   3.181   3.229   4.276
 9332SOL    HW128895   3.160   3.315   4.230
 9332SOL    HW228896   3.171   3.153   4.212
 9333SOL     OW28897   6.290   4.660   1.112
 9333SOL    HW128898   6.239   4.696   1.190
 9333SOL    HW228899   6.325   4.736   1.057
 9334SOL     OW28900   2.928   0.207   4.631
 9334SOL    HW128901   2.910   0.128   4.573
 9334SOL    HW228902   2.863   0.280   4.610
 9335SOL     OW28903   1.596   0.618   0.014
 9335SOL    HW128904   1.663   0.545   0.029
 9335SOL    HW228905   1.506   0.587   0.046
 9336SOL     OW28906   2.928   6.535   5.865
 9336SOL    HW128907   2.961   6.520   5.959
 9336SOL    HW228908   2.828   6.529   5.864
 9337SOL     OW28909   5.086   0.293   2.077
 9337SOL    HW128910   5.067   0.269   2.172
 9337SOL    HW228911   5.166   0.352   2.073
 9338SOL     OW28912   3.461   0.205   2.513
 9338SOL    HW128913   3.532   0.159   2.460
 9338SOL    HW228914   3.447   0.297   2.477
 9339SOL     OW28915   4.160   6.260   1.373
 9339SOL    HW128916   4.232   6.313   1.418
 9339SOL    HW228917   4.120   6.314   1.299
 9340SOL     OW28918   6.042   3.725   0.095
 9340SOL    HW128919   6.123   3.710   0.152
 9340SOL    HW228920   6.028   3.646   0.036
 9341SOL     OW28921   0.244   5.598   6.763
 9341SOL    HW128922   0.147   5.582   6.776
 9341SOL    HW228923   0.275   5.669   6.826
 9342SOL     OW28924   1.553   6.499   6.298
 9342SOL    HW128925   1.589   6.580   6.345
 9342SOL    HW228926   1.484   6.456   6.356
 9343SOL     OW28927   5.782   4.863   5.231
 9343SOL    HW128928   5.837   4.857   5.148
 9343SOL    HW228929   5.695   4.815   5.217
 9344SOL     OW28930   5.207   6.571   1.489
 9344SOL    HW128931   5.138   6.579   1.561
 9344SOL    HW228932   5.298   6.585   1.528
 9345SOL     OW28933   0.060   3.440   0.711
 9345SOL    HW128934   0.123   3.377   0.755
 9345SOL    HW228935   0.017   3.499   0.779
 9346SOL     OW28936   5.519   6.852   0.661
 9346SOL    HW128937   5.548   6.794   0.585
 9346SOL    HW228938   5.597   6.907   0.692
 9347SOL     OW28939   1.949   6.703   1.612
 9347SOL    HW128940   1.920   6.711   1.516
 9347SOL    HW228941   2.020   6.771   1.630
 9348SOL     OW28942   3.122   4.920   6.890
 9348SOL    HW128943   3.130   4.955   6.796
 9348SOL    HW228944   3.144   4.822   6.890
 9349SOL     OW28945   1.618   6.911   2.908
 9349SOL    HW128946   1.706   6.923   2.953
 9349SOL    HW228947   1.619   6.825   2.857
 9350SOL     OW28948   1.042   2.291   6.247
 9350SOL    HW128949   1.082   2.238   6.321
 9350SOL    HW228950   1.052   2.241   6.161
 9351SOL     OW28951   3.694   2.033   6.511
 9351SOL    HW128952   3.597   2.056   6.521
 9351SOL    HW228953   3.709   1.988   6.423
 9352SOL     OW28954   2.247   4.960   6.145
 9352SOL    HW128955   2.209   4.905   6.070
 9352SOL    HW228956   2.174   4.990   6.206
 9353SOL     OW28957   6.160   0.209   0.749
 9353SOL    HW128958   6.105   0.241   0.672
 9353SOL    HW228959   6.213   0.286   0.787
 9354SOL     OW28960   6.690   2.241   6.809
 9354SOL    HW128961   6.709   2.144   6.791
 9354SOL    HW228962   6.648   2.251   6.899
 9355SOL     OW28963   0.331   1.342   5.046
 9355SOL    HW128964   0.399   1.294   4.991
 9355SOL    HW228965   0.363   1.435   5.066
 9356SOL     OW28966   4.507   6.696   2.220
 9356SOL    HW128967   4.417   6.656   2.203
 9356SOL    HW228968   4.545   6.731   2.134
 9357SOL     OW28969   1.014   1.641   6.978
 9357SOL    HW128970   1.109   1.667   6.994
 9357SOL    HW228971   0.993   1.647   6.881
 9358SOL     OW28972   1.077   3.663   2.048
 9358SOL    HW128973   1.049   3.622   2.135
 9358SOL    HW228974   1.077   3.594   1.977
 9359SOL     OW28975   1.433   6.926   5.602
 9359SOL    HW128976   1.439   7.002   5.538
 9359SOL    HW228977   1.522   6.882   5.610
 9360SOL     OW28978   0.887   0.361   6.509
 9360SOL    HW128979   0.842   0.419   6.441
 9360SOL    HW228980   0.984   0.385   6.513
 9361SOL     OW28981   2.007   5.900   4.203
 9361SOL    HW128982   2.032   5.860   4.291
 9361SOL    HW228983   1.976   5.828   4.141
 9362SOL     OW28984   1.822   0.109   2.369
 9362SOL    HW128985   1.866   0.019   2.365
 9362SOL    HW228986   1.782   0.130   2.280
 9363SOL     OW28987   2.603   4.839   2.272
 9363SOL    HW128988   2.631   4.818   2.178
 9363SOL    HW228989   2.571   4.933   2.277
 9364SOL     OW28990   1.194   1.956   1.114
 9364SOL    HW128991   1.147   1.869   1.097
 9364SOL    HW228992   1.283   1.938   1.155
 9365SOL     OW28993   3.114   2.066   4.274
 9365SOL    HW128994   3.165   2.063   4.360
 9365SOL    HW228995   3.051   2.144   4.275
 9366SOL     OW28996   3.843   5.309   0.714
 9366SOL    HW128997   3.840   5.400   0.754
 9366SOL    HW228998   3.750   5.276   0.699
 9367SOL     OW28999   6.681   0.775   1.598
 9367SOL    HW129000   6.700   0.678   1.584
 9367SOL    HW229001   6.602   0.801   1.543
 9368SOL     OW29002   3.328   0.504   2.779
 9368SOL    HW129003   3.281   0.482   2.694
 9368SOL    HW229004   3.342   0.603   2.785
 9369SOL     OW29005   2.249   5.314   0.073
 9369SOL    HW129006   2.279   5.228   0.032
 9369SOL    HW229007   2.152   5.329   0.052
 9370SOL     OW29008   4.399   1.412   4.461
 9370SOL    HW129009   4.327   1.472   4.426
 9370SOL    HW229010   4.362   1.321   4.476
 9371SOL     OW29011   4.578   5.704   1.348
 9371SOL    HW129012   4.656   5.717   1.286
 9371SOL    HW229013   4.542   5.611   1.336
 9372SOL     OW29014   4.536   6.305   1.578
 9372SOL    HW129015   4.626   6.278   1.611
 9372SOL    HW229016   4.500   6.378   1.637
 9373SOL     OW29017   6.806   1.787   0.940
 9373SOL    HW129018   6.831   1.761   1.033
 9373SOL    HW229019   6.706   1.799   0.935
 9374SOL     OW29020   0.242   5.409   6.252
 9374SOL    HW129021   0.304   5.359   6.312
 9374SOL    HW229022   0.175   5.346   6.213
 9375SOL     OW29023   0.278   0.692   0.241
 9375SOL    HW129024   0.183   0.717   0.225
 9375SOL    HW229025   0.310   0.632   0.167
 9376SOL     OW29026   2.116   3.859   1.775
 9376SOL    HW129027   2.119   3.829   1.870
 9376SOL    HW229028   2.043   3.925   1.763
 9377SOL     OW29029   2.049   0.530   3.762
 9377SOL    HW129030   2.006   0.441   3.779
 9377SOL    HW229031   2.073   0.573   3.850
 9378SOL     OW29032   3.116   0.767   4.334
 9378SOL    HW129033   3.074   0.857   4.321
 9378SOL    HW229034   3.071   0.719   4.410
 9379SOL     OW29035   4.027   6.093   4.464
 9379SOL    HW129036   4.100   6.150   4.500
 9379SOL    HW229037   4.032   6.002   4.505
 9380SOL     OW29038   5.108   5.504   0.290
 9380SOL    HW129039   5.174   5.448   0.339
 9380SOL    HW229040   5.108   5.597   0.328
 9381SOL     OW29041   5.966   1.319   5.015
 9381SOL    HW129042   6.056   1.350   4.984
 9381SOL    HW229043   5.973   1.282   5.107
 9382SOL     OW29044   2.961   5.939   4.789
 9382SOL    HW129045   2.933   6.034   4.775
 9382SOL    HW229046   3.005   5.905   4.706
 9383SOL     OW29047   5.715   4.491   2.842
 9383SOL    HW129048   5.699   4.439   2.927
 9383SOL    HW229049   5.788   4.557   2.857
 9384SOL     OW29050   2.600   1.038   2.213
 9384SOL    HW129051   2.591   0.950   2.261
 9384SOL    HW229052   2.518   1.093   2.229
 9385SOL     OW29053   4.616   1.858   3.538
 9385SOL    HW129054   4.524   1.875   3.572
 9385SOL    HW229055   4.651   1.941   3.493
 9386SOL     OW29056   4.862   6.472   6.906
 9386SOL    HW129057   4.925   6.438   6.836
 9386SOL    HW229058   4.804   6.397   6.937
 9387SOL     OW29059   2.908   2.206   0.557
 9387SOL    HW129060   2.859   2.279   0.510
 9387SOL    HW229061   2.844   2.156   0.617
 9388SOL     OW29062   2.246   5.870   4.839
 9388SOL    HW129063   2.316   5.801   4.819
 9388SOL    HW229064   2.290   5.957   4.861
 9389SOL     OW29065   2.490   4.853   1.586
 9389SOL    HW129066   2.488   4.754   1.590
 9389SOL    HW229067   2.398   4.888   1.570
 9390SOL     OW29068   5.057   5.115   4.754
 9390SOL    HW129069   5.142   5.070   4.728
 9390SOL    HW229070   4.984   5.047   4.760
 9391SOL     OW29071   1.079   5.026   4.415
 9391SOL    HW129072   1.167   5.071   4.426
 9391SOL    HW229073   1.079   4.940   4.466
 9392SOL     OW29074   5.500   4.161   2.787
 9392SOL    HW129075   5.515   4.209   2.874
 9392SOL    HW229076   5.526   4.065   2.797
 9393SOL     OW29077   2.681   6.677   6.520
 9393SOL    HW129078   2.659   6.670   6.617
 9393SOL    HW229079   2.780   6.688   6.509
 9394SOL     OW29080   3.481   0.947   0.129
 9394SOL    HW129081   3.428   0.959   0.045
 9394SOL    HW229082   3.491   1.035   0.175
 9395SOL     OW29083   2.079   1.528   0.523
 9395SOL    HW129084   2.043   1.544   0.431
 9395SOL    HW229085   2.063   1.609   0.580
 9396SOL     OW29086   0.580   6.632   6.846
 9396SOL    HW129087   0.609   6.537   6.862
 9396SOL    HW229088   0.596   6.655   6.750
 9397SOL     OW29089   3.286   0.713   5.051
 9397SOL    HW129090   3.336   0.789   5.008
 9397SOL    HW229091   3.243   0.657   4.980
 9398SOL     OW29092   0.600   1.889   0.154
 9398SOL    HW129093   0.546   1.825   0.099
 9398SOL    HW229094   0.684   1.844   0.184
 9399SOL     OW29095   1.247   2.882   4.478
 9399SOL    HW129096   1.205   2.924   4.398
 9399SOL    HW229097   1.219   2.931   4.561
 9400SOL     OW29098   5.557   1.151   0.404
 9400SOL    HW129099   5.492   1.093   0.355
 9400SOL    HW229100   5.649   1.112   0.396
 9401SOL     OW29101   0.475   2.448   3.822
 9401SOL    HW129102   0.574   2.433   3.827
 9401SOL    HW229103   0.429   2.391   3.890
 9402SOL     OW29104   2.149   6.499   3.918
 9402SOL    HW129105   2.225   6.473   3.976
 9402SOL    HW229106   2.133   6.597   3.925
 9403SOL     OW29107   6.147   2.468   2.331
 9403SOL    HW129108   6.056   2.494   2.363
 9403SOL    HW229109   6.138   2.404   2.254
 9404SOL     OW29110   1.974   2.862   0.856
 9404SOL    HW129111   1.880   2.893   0.840
 9404SOL    HW229112   2.024   2.862   0.770
 9405SOL     OW29113   0.061   5.721   5.402
 9405SOL    HW129114   0.160   5.730   5.405
 9405SOL    HW229115   0.035   5.627   5.424
 9406SOL     OW29116   0.844   2.730   6.804
 9406SOL    HW129117   0.758   2.726   6.854
 9406SOL    HW229118   0.827   2.755   6.709
 9407SOL     OW29119   1.273   5.290   5.589
 9407SOL    HW129120   1.177   5.302   5.567
 9407SOL    HW229121   1.287   5.306   5.687
 9408SOL     OW29122   0.530   3.694   4.369
 9408SOL    HW129123   0.624   3.689   4.402
 9408SOL    HW229124   0.528   3.739   4.280
 9409SOL     OW29125   6.264   4.493   2.974
 9409SOL    HW129126   6.362   4.475   2.965
 9409SOL    HW229127   6.235   4.473   3.068
 9410SOL     OW29128   3.599   0.985   0.773
 9410SOL    HW129129   3.641   1.073   0.751
 9410SOL    HW229130   3.542   0.956   0.697
 9411SOL     OW29131   3.065   3.868   3.336
 9411SOL    HW129132   3.151   3.916   3.316
 9411SOL    HW229133   3.019   3.911   3.413
 9412SOL     OW29134   5.754   6.064   1.099
 9412SOL    HW129135   5.817   6.128   1.053
 9412SOL    HW229136   5.800   6.024   1.178
 9413SOL     OW29137   4.794   4.090   2.911
 9413SOL    HW129138   4.798   4.059   3.006
 9413SOL    HW229139   4.751   4.180   2.907
 9414SOL     OW29140   1.891   1.902   3.222
 9414SOL    HW129141   1.975   1.849   3.216
 9414SOL    HW229142   1.864   1.931   3.130
 9415SOL     OW29143   4.692   1.454   1.783
 9415SOL    HW129144   4.593   1.460   1.768
 9415SOL    HW229145   4.716   1.501   1.868
 9416SOL     OW29146   5.749   5.206   5.488
 9416SOL    HW129147   5.725   5.268   5.563
 9416SOL    HW229148   5.769   5.115   5.526
 9417SOL     OW29149   3.140   5.279   2.463
 9417SOL    HW129150   3.160   5.276   2.561
 9417SOL    HW229151   3.155   5.371   2.429
 9418SOL     OW29152   3.703   1.545   5.199
 9418SOL    HW129153   3.746   1.548   5.289
 9418SOL    HW229154   3.770   1.520   5.129
 9419SOL     OW29155   1.756   2.954   6.291
 9419SOL    HW129156   1.792   3.023   6.229
 9419SOL    HW229157   1.700   2.889   6.240
 9420SOL     OW29158   6.183   4.144   6.363
 9420SOL    HW129159   6.093   4.177   6.336
 9420SOL    HW229160   6.179   4.110   6.457
 9421SOL     OW29161   4.262   6.168   6.412
 9421SOL    HW129162   4.253   6.200   6.318
 9421SOL    HW229163   4.205   6.225   6.472
 9422SOL     OW29164   2.198   6.085   5.749
 9422SOL    HW129165   2.154   6.060   5.662
 9422SOL    HW229166   2.129   6.123   5.811
 9423SOL     OW29167   4.345   4.671   2.568
 9423SOL    HW129168   4.353   4.670   2.668
 9423SOL    HW229169   4.424   4.624   2.528
 9424SOL     OW29170   5.839   6.951   4.037
 9424SOL    HW129171   5.782   6.873   4.064
 9424SOL    HW229172   5.933   6.921   4.025
 9425SOL     OW29173   6.907   4.640   1.311
 9425SOL    HW129174   6.819   4.607   1.345
 9425SOL    HW229175   6.981   4.589   1.356
 9426SOL     OW29176   0.380   2.122   6.334
 9426SOL    HW129177   0.333   2.193   6.282
 9426SOL    HW229178   0.431   2.164   6.409
 9427SOL     OW29179   4.517   4.522   2.430
 9427SOL    HW129180   4.558   4.557   2.346
 9427SOL    HW229181   4.509   4.422   2.424
 9428SOL     OW29182   0.712   6.174   5.775
 9428SOL    HW129183   0.639   6.169   5.844
 9428SOL    HW229184   0.671   6.186   5.685
 9429SOL     OW29185   2.568   2.396   4.557
 9429SOL    HW129186   2.526   2.372   4.645
 9429SOL    HW229187   2.665   2.373   4.560
 9430SOL     OW29188   1.568   1.838   4.829
 9430SOL    HW129189   1.473   1.848   4.801
 9430SOL    HW229190   1.603   1.750   4.798
 9431SOL     OW29191   0.780   4.569   5.152
 9431SOL    HW129192   0.760   4.659   5.113
 9431SOL    HW229193   0.806   4.580   5.248
 9432SOL     OW29194   6.914   1.084   3.454
 9432SOL    HW129195   6.829   1.108   3.409
 9432SOL    HW229196   6.915   1.122   3.546
 9433SOL     OW29197   4.301   5.756   1.682
 9433SOL    HW129198   4.265   5.736   1.591
 9433SOL    HW229199   4.389   5.802   1.674
 9434SOL     OW29200   4.925   5.316   4.044
 9434SOL    HW129201   4.924   5.231   4.096
 9434SOL    HW229202   4.899   5.298   3.949
 9435SOL     OW29203   0.034   3.941   1.392
 9435SOL    HW129204   6.992   3.912   1.323
 9435SOL    HW229205   0.040   3.871   1.463
 9436SOL     OW29206   2.232   1.129   3.036
 9436SOL    HW129207   2.170   1.074   2.980
 9436SOL    HW229208   2.264   1.207   2.983
 9437SOL     OW29209   5.446   0.046   4.919
 9437SOL    HW129210   5.512   7.003   4.955
 9437SOL    HW229211   5.397   0.088   4.995
 9438SOL     OW29212   3.972   6.412   2.583
 9438SOL    HW129213   4.008   6.423   2.490
 9438SOL    HW229214   3.891   6.470   2.594
 9439SOL     OW29215   1.598   3.419   0.899
 9439SOL    HW129216   1.675   3.474   0.866
 9439SOL    HW229217   1.513   3.454   0.860
 9440SOL     OW29218   2.184   5.338   3.436
 9440SOL    HW129219   2.184   5.272   3.511
 9440SOL    HW229220   2.164   5.290   3.350
 9441SOL     OW29221   0.254   6.815   4.369
 9441SOL    HW129222   0.270   6.724   4.407
 9441SOL    HW229223   0.269   6.884   4.439
 9442SOL     OW29224   5.856   3.254   0.777
 9442SOL    HW129225   5.769   3.236   0.731
 9442SOL    HW229226   5.871   3.353   0.783
 9443SOL     OW29227   2.311   4.362   2.409
 9443SOL    HW129228   2.242   4.433   2.425
 9443SOL    HW229229   2.282   4.276   2.451
 9444SOL     OW29230   1.152   4.499   6.235
 9444SOL    HW129231   1.092   4.565   6.190
 9444SOL    HW229232   1.214   4.548   6.297
 9445SOL     OW29233   0.193   1.618   4.438
 9445SOL    HW129234   0.215   1.521   4.441
 9445SOL    HW229235   0.236   1.659   4.357
 9446SOL     OW29236   6.519   3.730   4.082
 9446SOL    HW129237   6.535   3.730   4.181
 9446SOL    HW229238   6.428   3.694   4.063
 9447SOL     OW29239   4.911   4.039   2.016
 9447SOL    HW129240   4.853   4.064   2.094
 9447SOL    HW229241   4.866   3.967   1.963
 9448SOL     OW29242   5.933   1.049   5.769
 9448SOL    HW129243   5.953   1.118   5.699
 9448SOL    HW229244   5.906   1.094   5.854
 9449SOL     OW29245   5.367   0.127   2.054
 9449SOL    HW129246   5.369   0.218   2.012
 9449SOL    HW229247   5.325   0.062   1.991
 9450SOL     OW29248   1.090   6.256   2.750
 9450SOL    HW129249   0.998   6.242   2.714
 9450SOL    HW229250   1.158   6.219   2.687
 9451SOL     OW29251   3.764   4.868   6.678
 9451SOL    HW129252   3.759   4.826   6.769
 9451SOL    HW229253   3.719   4.808   6.612
 9452SOL     OW29254   6.133   4.298   6.787
 9452SOL    HW129255   6.151   4.388   6.826
 9452SOL    HW229256   6.035   4.287   6.772
 9453SOL     OW29257   5.017   5.194   1.559
 9453SOL    HW129258   5.110   5.228   1.556
 9453SOL    HW229259   4.963   5.248   1.624
 9454SOL     OW29260   5.801   4.600   0.748
 9454SOL    HW129261   5.842   4.689   0.769
 9454SOL    HW229262   5.808   4.583   0.650
 9455SOL     OW29263   3.462   1.345   1.834
 9455SOL    HW129264   3.467   1.370   1.737
 9455SOL    HW229265   3.375   1.301   1.853
 9456SOL     OW29266   0.039   2.724   3.167
 9456SOL    HW129267   7.008   2.653   3.211
 9456SOL    HW229268   0.030   2.809   3.219
 9457SOL     OW29269   6.313   6.425   4.998
 9457SOL    HW129270   6.306   6.392   4.903
 9457SOL    HW229271   6.322   6.347   5.060
 9458SOL     OW29272   6.497   3.790   6.761
 9458SOL    HW129273   6.547   3.750   6.838
 9458SOL    HW229274   6.402   3.805   6.788
 9459SOL     OW29275   4.893   4.572   5.689
 9459SOL    HW129276   4.980   4.603   5.729
 9459SOL    HW229277   4.833   4.540   5.762
 9460SOL     OW29278   0.923   2.933   2.887
 9460SOL    HW129279   0.885   2.893   2.970
 9460SOL    HW229280   0.872   2.901   2.807
 9461SOL     OW29281   1.375   1.752   1.910
 9461SOL    HW129282   1.354   1.838   1.957
 9461SOL    HW229283   1.306   1.735   1.840
 9462SOL     OW29284   0.195   1.193   4.275
 9462SOL    HW129285   0.116   1.135   4.260
 9462SOL    HW229286   0.273   1.137   4.302
 9463SOL     OW29287   5.807   4.290   1.657
 9463SOL    HW129288   5.799   4.363   1.725
 9463SOL    HW229289   5.789   4.202   1.700
 9464SOL     OW29290   1.469   0.943   2.132
 9464SOL    HW129291   1.506   0.856   2.166
 9464SOL    HW229292   1.459   0.938   2.033
 9465SOL     OW29293   6.721   4.953   1.051
 9465SOL    HW129294   6.727   5.051   1.032
 9465SOL    HW229295   6.790   4.928   1.119
 9466SOL     OW29296   3.947   4.212   5.602
 9466SOL    HW129297   4.025   4.178   5.655
 9466SOL    HW229298   3.881   4.255   5.663
 9467SOL     OW29299   1.812   3.186   0.283
 9467SOL    HW129300   1.893   3.194   0.342
 9467SOL    HW229301   1.819   3.253   0.208
 9468SOL     OW29302   6.083   1.819   0.820
 9468SOL    HW129303   6.152   1.891   0.823
 9468SOL    HW229304   6.099   1.755   0.895
 9469SOL     OW29305   0.215   6.414   1.229
 9469SOL    HW129306   0.183   6.508   1.225
 9469SOL    HW229307   0.153   6.355   1.178
 9470SOL     OW29308   3.521   3.494   0.287
 9470SOL    HW129309   3.611   3.538   0.284
 9470SOL    HW229310   3.462   3.543   0.351
 9471SOL     OW29311   6.260   2.719   4.924
 9471SOL    HW129312   6.189   2.784   4.897
 9471SOL    HW229313   6.275   2.725   5.023
 9472SOL     OW29314   1.700   3.193   6.135
 9472SOL    HW129315   1.631   3.262   6.156
 9472SOL    HW229316   1.780   3.237   6.095
 9473SOL     OW29317   2.614   3.939   1.262
 9473SOL    HW129318   2.610   3.926   1.361
 9473SOL    HW229319   2.594   4.034   1.239
 9474SOL     OW29320   5.826   4.008   1.242
 9474SOL    HW129321   5.811   4.000   1.143
 9474SOL    HW229322   5.921   4.035   1.258
 9475SOL     OW29323   5.134   4.375   6.306
 9475SOL    HW129324   5.055   4.314   6.303
 9475SOL    HW229325   5.116   4.455   6.249
 9476SOL     OW29326   4.309   3.914   0.419
 9476SOL    HW129327   4.263   3.938   0.505
 9476SOL    HW229328   4.293   3.818   0.398
 9477SOL     OW29329   1.952   4.115   0.464
 9477SOL    HW129330   1.904   4.152   0.543
 9477SOL    HW229331   2.047   4.147   0.465
 9478SOL     OW29332   5.552   3.538   5.873
 9478SOL    HW129333   5.589   3.504   5.786
 9478SOL    HW229334   5.565   3.637   5.877
 9479SOL     OW29335   4.114   0.338   2.186
 9479SOL    HW129336   4.101   0.350   2.284
 9479SOL    HW229337   4.209   0.312   2.168
 9480SOL     OW29338   6.000   1.033   0.790
 9480SOL    HW129339   6.099   1.042   0.794
 9480SOL    HW229340   5.958   1.123   0.802
 9481SOL     OW29341   4.235   0.164   3.050
 9481SOL    HW129342   4.278   0.196   2.966
 9481SOL    HW229343   4.247   0.232   3.122
 9482SOL     OW29344   6.448   6.301   6.829
 9482SOL    HW129345   6.406   6.277   6.741
 9482SOL    HW229346   6.377   6.308   6.899
 9483SOL     OW29347   6.592   6.885   0.184
 9483SOL    HW129348   6.640   6.799   0.168
 9483SOL    HW229349   6.512   6.890   0.124
 9484SOL     OW29350   3.678   5.884   3.937
 9484SOL    HW129351   3.635   5.973   3.952
 9484SOL    HW229352   3.700   5.873   3.840
 9485SOL     OW29353   0.346   1.470   6.671
 9485SOL    HW129354   0.301   1.411   6.604
 9485SOL    HW229355   0.276   1.519   6.723
 9486SOL     OW29356   5.475   5.946   0.141
 9486SOL    HW129357   5.458   5.904   0.230
 9486SOL    HW229358   5.405   5.917   0.076
 9487SOL     OW29359   3.404   3.755   2.946
 9487SOL    HW129360   3.376   3.790   3.035
 9487SOL    HW229361   3.342   3.682   2.918
 9488SOL     OW29362   1.634   0.953   1.425
 9488SOL    HW129363   1.639   1.051   1.444
 9488SOL    HW229364   1.574   0.938   1.346
 9489SOL     OW29365   5.516   2.890   7.017
 9489SOL    HW129366   5.521   2.971   0.052
 9489SOL    HW229367   5.608   2.862   6.992
 9490SOL     OW29368   5.222   3.664   4.970
 9490SOL    HW129369   5.225   3.568   4.998
 9490SOL    HW229370   5.290   3.716   5.022
 9491SOL     OW29371   5.228   6.521   2.603
 9491SOL    HW129372   5.152   6.538   2.540
 9491SOL    HW229373   5.311   6.563   2.567
 9492SOL     OW29374   5.075   2.923   3.422
 9492SOL    HW129375   5.062   2.843   3.480
 9492SOL    HW229376   5.172   2.934   3.402
 9493SOL     OW29377   4.004   5.730   1.255
 9493SOL    HW129378   3.931   5.671   1.220
 9493SOL    HW229379   3.968   5.787   1.329
 9494SOL     OW29380   5.952   1.985   2.071
 9494SOL    HW129381   5.876   2.023   2.123
 9494SOL    HW229382   5.994   1.910   2.122
 9495SOL     OW29383   0.057   2.554   1.409
 9495SOL    HW129384   0.021   2.468   1.444
 9495SOL    HW229385   0.155   2.560   1.428
 9496SOL     OW29386   5.976   1.903   1.541
 9496SOL    HW129387   5.892   1.891   1.594
 9496SOL    HW229388   5.982   1.997   1.509
 9497SOL     OW29389   4.516   4.472   4.539
 9497SOL    HW129390   4.581   4.396   4.541
 9497SOL    HW229391   4.471   4.480   4.628
 9498SOL     OW29392   0.283   5.607   4.167
 9498SOL    HW129393   0.199   5.654   4.193
 9498SOL    HW229394   0.321   5.649   4.084
 9499SOL     OW29395   6.163   5.923   5.123
 9499SOL    HW129396   6.182   6.006   5.071
 9499SOL    HW229397   6.136   5.850   5.060
 9500SOL     OW29398   3.346   1.966   1.068
 9500SOL    HW129399   3.311   1.997   0.979
 9500SOL    HW229400   3.430   1.913   1.054
 9501SOL     OW29401   1.619   3.442   4.964
 9501SOL    HW129402   1.719   3.430   4.967
 9501SOL    HW229403   1.587   3.426   4.871
 9502SOL     OW29404   5.197   5.014   4.440
 9502SOL    HW129405   5.234   5.043   4.528
 9502SOL    HW229406   5.272   4.989   4.379
 9503SOL     OW29407   6.262   1.205   0.549
 9503SOL    HW129408   6.228   1.196   0.643
 9503SOL    HW229409   6.226   1.289   0.508
 9504SOL     OW29410   6.047   5.529   1.951
 9504SOL    HW129411   5.995   5.580   2.019
 9504SOL    HW229412   5.985   5.494   1.881
 9505SOL     OW29413   4.276   4.533   5.964
 9505SOL    HW129414   4.202   4.498   6.022
 9505SOL    HW229415   4.322   4.608   6.010
 9506SOL     OW29416   2.844   0.883   1.607
 9506SOL    HW129417   2.846   0.827   1.524
 9506SOL    HW229418   2.918   0.856   1.668
 9507SOL     OW29419   4.966   0.004   2.208
 9507SOL    HW129420   5.028   6.990   2.139
 9507SOL    HW229421   4.996   0.095   2.234
 9508SOL     OW29422   4.438   1.938   2.674
 9508SOL    HW129423   4.427   1.849   2.631
 9508SOL    HW229424   4.528   1.975   2.652
 9509SOL     OW29425   5.396   0.601   3.035
 9509SOL    HW129426   5.415   0.596   3.133
 9509SOL    HW229427   5.304   0.565   3.017
 9510SOL     OW29428   1.248   2.822   3.695
 9510SOL    HW129429   1.159   2.789   3.726
 9510SOL    HW229430   1.267   2.786   3.603
 9511SOL     OW29431   0.614   1.538   1.150
 9511SOL    HW129432   0.538   1.560   1.089
 9511SOL    HW229433   0.666   1.621   1.170
 9512SOL     OW29434   6.597   2.325   1.156
 9512SOL    HW129435   6.634   2.236   1.128
 9512SOL    HW229436   6.585   2.383   1.075
 9513SOL     OW29437   4.671   4.282   5.771
 9513SOL    HW129438   4.665   4.220   5.848
 9513SOL    HW229439   4.591   4.341   5.769
 9514SOL     OW29440   3.691   2.851   6.876
 9514SOL    HW129441   3.698   2.798   6.960
 9514SOL    HW229442   3.758   2.818   6.809
 9515SOL     OW29443   0.718   5.912   3.159
 9515SOL    HW129444   0.659   5.833   3.171
 9515SOL    HW229445   0.700   5.955   3.071
 9516SOL     OW29446   6.996   4.791   6.944
 9516SOL    HW129447   7.021   4.695   6.937
 9516SOL    HW229448   7.001   4.833   6.853
 9517SOL     OW29449   0.660   6.084   1.324
 9517SOL    HW129450   0.580   6.062   1.268
 9517SOL    HW229451   0.674   6.011   1.392
 9518SOL     OW29452   1.389   0.709   1.065
 9518SOL    HW129453   1.335   0.716   0.981
 9518SOL    HW229454   1.348   0.639   1.125
 9519SOL     OW29455   1.275   3.535   5.473
 9519SOL    HW129456   1.357   3.502   5.519
 9519SOL    HW229457   1.223   3.594   5.535
 9520SOL     OW29458   4.395   0.195   1.739
 9520SOL    HW129459   4.466   0.264   1.743
 9520SOL    HW229460   4.426   0.117   1.685
 9521SOL     OW29461   5.218   5.035   3.557
 9521SOL    HW129462   5.229   5.070   3.650
 9521SOL    HW229463   5.131   4.988   3.549
 9522SOL     OW29464   3.711   6.520   0.618
 9522SOL    HW129465   3.656   6.439   0.638
 9522SOL    HW229466   3.806   6.504   0.645
 9523SOL     OW29467   2.445   5.816   5.583
 9523SOL    HW129468   2.529   5.868   5.569
 9523SOL    HW229469   2.469   5.723   5.611
 9524SOL     OW29470   4.356   2.488   0.687
 9524SOL    HW129471   4.291   2.425   0.728
 9524SOL    HW229472   4.333   2.504   0.591
 9525SOL     OW29473   3.543   0.054   5.613
 9525SOL    HW129474   3.486   0.079   5.691
 9525SOL    HW229475   3.555   6.978   5.610
 9526SOL     OW29476   4.721   6.092   2.186
 9526SOL    HW129477   4.802   6.034   2.178
 9526SOL    HW229478   4.721   6.160   2.113
 9527SOL     OW29479   6.381   2.314   1.325
 9527SOL    HW129480   6.446   2.318   1.249
 9527SOL    HW229481   6.381   2.221   1.364
 9528SOL     OW29482   6.491   0.522   1.868
 9528SOL    HW129483   6.462   0.545   1.961
 9528SOL    HW229484   6.431   0.567   1.802
 9529SOL     OW29485   1.298   3.641   4.516
 9529SOL    HW129486   1.311   3.572   4.445
 9529SOL    HW229487   1.222   3.700   4.492
 9530SOL     OW29488   1.639   2.551   4.141
 9530SOL    HW129489   1.614   2.530   4.047
 9530SOL    HW229490   1.597   2.484   4.203
 9531SOL     OW29491   2.604   6.128   3.387
 9531SOL    HW129492   2.599   6.069   3.467
 9531SOL    HW229493   2.534   6.101   3.321
 9532SOL     OW29494   2.716   0.981   1.122
 9532SOL    HW129495   2.727   0.883   1.136
 9532SOL    HW229496   2.784   1.031   1.178
 9533SOL     OW29497   1.280   0.183   4.876
 9533SOL    HW129498   1.302   0.260   4.817
 9533SOL    HW229499   1.185   0.156   4.862
 9534SOL     OW29500   4.531   2.081   4.394
 9534SOL    HW129501   4.564   2.111   4.304
 9534SOL    HW229502   4.573   1.993   4.417
 9535SOL     OW29503   2.392   2.218   4.710
 9535SOL    HW129504   2.466   2.202   4.776
 9535SOL    HW229505   2.407   2.162   4.629
 9536SOL     OW29506   3.187   6.919   6.530
 9536SOL    HW129507   3.206   7.004   6.481
 9536SOL    HW229508   3.254   6.850   6.503
 9537SOL     OW29509   2.622   6.895   0.370
 9537SOL    HW129510   2.704   6.858   0.326
 9537SOL    HW229511   2.646   6.971   0.429
 9538SOL     OW29512   5.651   3.521   4.235
 9538SOL    HW129513   5.620   3.593   4.174
 9538SOL    HW229514   5.700   3.561   4.312
 9539SOL     OW29515   0.304   4.433   0.707
 9539SOL    HW129516   0.272   4.524   0.735
 9539SOL    HW229517   0.384   4.442   0.648
 9540SOL     OW29518   5.489   3.374   5.433
 9540SOL    HW129519   5.446   3.352   5.520
 9540SOL    HW229520   5.446   3.454   5.393
 9541SOL     OW29521   0.192   1.484   3.341
 9541SOL    HW129522   0.132   1.537   3.282
 9541SOL    HW229523   0.208   1.394   3.300
 9542SOL     OW29524   5.013   3.846   4.503
 9542SOL    HW129525   4.958   3.893   4.572
 9542SOL    HW229526   5.107   3.881   4.506
 9543SOL     OW29527   5.713   2.134   1.685
 9543SOL    HW129528   5.632   2.190   1.668
 9543SOL    HW229529   5.710   2.053   1.626
 9544SOL     OW29530   3.541   1.770   1.949
 9544SOL    HW129531   3.497   1.857   1.925
 9544SOL    HW229532   3.623   1.787   2.003
 9545SOL     OW29533   0.883   0.302   4.699
 9545SOL    HW129534   0.802   0.358   4.721
 9545SOL    HW229535   0.860   0.236   4.628
 9546SOL     OW29536   2.145   4.244   1.486
 9546SOL    HW129537   2.104   4.292   1.564
 9546SOL    HW229538   2.073   4.203   1.430
 9547SOL     OW29539   6.538   5.538   3.536
 9547SOL    HW129540   6.442   5.558   3.557
 9547SOL    HW229541   6.555   5.560   3.440
 9548SOL     OW29542   4.677   6.642   2.619
 9548SOL    HW129543   4.701   6.546   2.607
 9548SOL    HW229544   4.683   6.666   2.716
 9549SOL     OW29545   2.748   5.559   0.580
 9549SOL    HW129546   2.682   5.495   0.541
 9549SOL    HW229547   2.705   5.650   0.588
 9550SOL     OW29548   1.688   1.259   6.853
 9550SOL    HW129549   1.690   1.182   6.788
 9550SOL    HW229550   1.732   1.338   6.812
 9551SOL     OW29551   1.604   6.152   5.918
 9551SOL    HW129552   1.630   6.247   5.930
 9551SOL    HW229553   1.653   6.114   5.839
 9552SOL     OW29554   0.227   5.532   3.493
 9552SOL    HW129555   0.324   5.531   3.515
 9552SOL    HW229556   0.206   5.613   3.438
 9553SOL     OW29557   5.383   4.571   5.605
 9553SOL    HW129558   5.302   4.586   5.662
 9553SOL    HW229559   5.463   4.562   5.664
 9554SOL     OW29560   2.125   1.457   1.458
 9554SOL    HW129561   2.156   1.472   1.552
 9554SOL    HW229562   2.203   1.460   1.396
 9555SOL     OW29563   6.750   2.386   6.572
 9555SOL    HW129564   6.729   2.313   6.637
 9555SOL    HW229565   6.843   2.375   6.539
 9556SOL     OW29566   6.910   1.742   1.178
 9556SOL    HW129567   6.898   1.645   1.198
 9556SOL    HW229568   6.993   1.775   1.223
 9557SOL     OW29569   5.578   2.455   1.663
 9557SOL    HW129570   5.613   2.544   1.632
 9557SOL    HW229571   5.610   2.438   1.756
 9558SOL     OW29572   5.645   4.588   1.640
 9558SOL    HW129573   5.719   4.554   1.697
 9558SOL    HW229574   5.647   4.542   1.552
 9559SOL     OW29575   6.192   2.651   2.743
 9559SOL    HW129576   6.274   2.594   2.741
 9559SOL    HW229577   6.185   2.703   2.658
 9560SOL     OW29578   3.786   1.851   5.052
 9560SOL    HW129579   3.690   1.828   5.068
 9560SOL    HW229580   3.830   1.869   5.140
 9561SOL     OW29581   3.415   6.346   6.732
 9561SOL    HW129582   3.365   6.260   6.726
 9561SOL    HW229583   3.512   6.328   6.749
 9562SOL     OW29584   5.872   4.764   3.602
 9562SOL    HW129585   5.897   4.747   3.698
 9562SOL    HW229586   5.953   4.790   3.550
 9563SOL     OW29587   0.361   6.338   6.845
 9563SOL    HW129588   0.363   6.355   6.944
 9563SOL    HW229589   0.269   6.356   6.811
 9564SOL     OW29590   1.937   0.286   6.342
 9564SOL    HW129591   1.958   0.362   6.404
 9564SOL    HW229592   1.923   0.321   6.250
 9565SOL     OW29593   3.996   5.796   4.140
 9565SOL    HW129594   4.077   5.803   4.198
 9565SOL    HW229595   3.974   5.700   4.125
 9566SOL     OW29596   3.253   4.840   5.982
 9566SOL    HW129597   3.314   4.885   6.047
 9566SOL    HW229598   3.189   4.781   6.031
 9567SOL     OW29599   6.368   5.364   5.185
 9567SOL    HW129600   6.305   5.420   5.131
 9567SOL    HW229601   6.355   5.268   5.160
 9568SOL     OW29602   5.505   4.035   6.396
 9568SOL    HW129603   5.416   4.071   6.424
 9568SOL    HW229604   5.492   3.950   6.345
 9569SOL     OW29605   5.319   6.554   2.038
 9569SOL    HW129606   5.344   6.615   2.113
 9569SOL    HW229607   5.295   6.607   1.957
 9570SOL     OW29608   0.912   0.814   6.669
 9570SOL    HW129609   0.876   0.881   6.605
 9570SOL    HW229610   0.855   0.814   6.752
 9571SOL     OW29611   2.532   3.042   0.058
 9571SOL    HW129612   2.628   3.066   0.041
 9571SOL    HW229613   2.483   3.122   0.092
 9572SOL     OW29614   0.226   3.938   0.510
 9572SOL    HW129615   0.258   3.875   0.581
 9572SOL    HW229616   0.303   3.994   0.478
 9573SOL     OW29617   5.793   1.418   2.045
 9573SOL    HW129618   5.754   1.487   1.983
 9573SOL    HW229619   5.890   1.406   2.023
 9574SOL     OW29620   2.476   1.812   3.702
 9574SOL    HW129621   2.403   1.814   3.770
 9574SOL    HW229622   2.464   1.887   3.637
 9575SOL     OW29623   4.564   1.000   2.571
 9575SOL    HW129624   4.478   0.968   2.532
 9575SOL    HW229625   4.602   0.928   2.630
 9576SOL     OW29626   4.144   2.641   5.630
 9576SOL    HW129627   4.105   2.680   5.546
 9576SOL    HW229628   4.140   2.709   5.703
 9577SOL     OW29629   0.544   6.176   3.437
 9577SOL    HW129630   0.642   6.162   3.453
 9577SOL    HW229631   0.531   6.252   3.374
 9578SOL     OW29632   6.297   4.138   2.289
 9578SOL    HW129633   6.347   4.067   2.239
 9578SOL    HW229634   6.311   4.125   2.387
 9579SOL     OW29635   1.765   6.528   2.911
 9579SOL    HW129636   1.743   6.530   2.813
 9579SOL    HW229637   1.843   6.468   2.926
 9580SOL     OW29638   4.661   3.435   5.604
 9580SOL    HW129639   4.625   3.529   5.613
 9580SOL    HW229640   4.645   3.403   5.511
 9581SOL     OW29641   1.268   5.378   5.862
 9581SOL    HW129642   1.209   5.422   5.930
 9581SOL    HW229643   1.362   5.377   5.896
 9582SOL     OW29644   4.283   4.635   3.897
 9582SOL    HW129645   4.354   4.565   3.909
 9582SOL    HW229646   4.270   4.684   3.983
 9583SOL     OW29647   2.055   4.827   1.779
 9583SOL    HW129648   2.050   4.762   1.855
 9583SOL    HW229649   2.108   4.787   1.704
 9584SOL     OW29650   5.769   4.972   6.773
 9584SOL    HW129651   5.750   4.875   6.758
 9584SOL    HW229652   5.777   5.019   6.685
 9585SOL     OW29653   0.734   0.249   3.320
 9585SOL    HW129654   0.815   0.289   3.362
 9585SOL    HW229655   0.730   0.151   3.342
 9586SOL     OW29656   5.295   2.824   2.625
 9586SOL    HW129657   5.216   2.762   2.627
 9586SOL    HW229658   5.266   2.915   2.654
 9587SOL     OW29659   4.873   6.431   2.514
 9587SOL    HW129660   4.906   6.399   2.603
 9587SOL    HW229661   4.942   6.491   2.473
 9588SOL     OW29662   0.104   0.407   3.576
 9588SOL    HW129663   0.029   0.438   3.519
 9588SOL    HW229664   0.189   0.406   3.522
 9589SOL     OW29665   2.985   1.957   4.934
 9589SOL    HW129666   2.958   1.984   5.026
 9589SOL    HW229667   3.006   2.039   4.880
 9590SOL     OW29668   0.545   4.840   4.414
 9590SOL    HW129669   0.505   4.755   4.379
 9590SOL    HW229670   0.481   4.884   4.477
 9591SOL     OW29671   1.344   4.422   2.781
 9591SOL    HW129672   1.253   4.415   2.739
 9591SOL    HW229673   1.396   4.493   2.735
 9592SOL     OW29674   4.745   6.115   1.836
 9592SOL    HW129675   4.772   6.174   1.760
 9592SOL    HW229676   4.750   6.167   1.922
 9593SOL     OW29677   2.212   2.640   3.499
 9593SOL    HW129678   2.125   2.670   3.539
 9593SOL    HW229679   2.284   2.648   3.568
 9594SOL     OW29680   6.000   6.964   1.318
 9594SOL    HW129681   5.991   6.912   1.402
 9594SOL    HW229682   5.972   0.035   1.334
 9595SOL     OW29683   1.259   4.686   4.201
 9595SOL    HW129684   1.262   4.634   4.286
 9595SOL    HW229685   1.297   4.777   4.216
 9596SOL     OW29686   5.174   5.527   2.473
 9596SOL    HW129687   5.124   5.469   2.410
 9596SOL    HW229688   5.272   5.508   2.466
 9597SOL     OW29689   1.514   4.617   0.777
 9597SOL    HW129690   1.566   4.614   0.862
 9597SOL    HW229691   1.449   4.694   0.781
 9598SOL     OW29692   0.954   5.740   5.961
 9598SOL    HW129693   1.033   5.692   5.922
 9598SOL    HW229694   0.981   5.832   5.989
 9599SOL     OW29695   4.202   1.580   4.548
 9599SOL    HW129696   4.234   1.597   4.642
 9599SOL    HW229697   4.130   1.511   4.550
 9600SOL     OW29698   1.823   5.789   0.054
 9600SOL    HW129699   1.748   5.854   0.043
 9600SOL    HW229700   1.859   5.764   6.987
 9601SOL     OW29701   0.693   6.931   6.527
 9601SOL    HW129702   0.718   6.869   6.602
 9601SOL    HW229703   0.702   0.002   6.558
 9602SOL     OW29704   0.434   5.368   6.876
 9602SOL    HW129705   0.358   5.405   6.930
 9602SOL    HW229706   0.518   5.418   6.898
 9603SOL     OW29707   1.076   4.886   3.134
 9603SOL    HW129708   1.103   4.818   3.066
 9603SOL    HW229709   1.060   4.840   3.222
 9604SOL     OW29710   6.762   0.082   0.104
 9604SOL    HW129711   6.758   7.013   0.142
 9604SOL    HW229712   6.851   0.097   0.061
 9605SOL     OW29713   2.503   5.593   6.975
 9605SOL    HW129714   2.568   5.541   0.007
 9605SOL    HW229715   2.439   5.641   0.012
 9606SOL     OW29716   6.499   0.307   5.624
 9606SOL    HW129717   6.589   0.280   5.589
 9606SOL    HW229718   6.437   0.228   5.620
 9607SOL     OW29719   6.803   1.628   2.541
 9607SOL    HW129720   6.859   1.607   2.460
 9607SOL    HW229721   6.751   1.712   2.524
 9608SOL     OW29722   6.491   7.015   2.396
 9608SOL    HW129723   6.465   0.081   2.359
 9608SOL    HW229724   6.428   6.945   2.362
 9609SOL     OW29725   1.660   2.057   3.666
 9609SOL    HW129726   1.660   1.975   3.722
 9609SOL    HW229727   1.720   2.043   3.587
 9610SOL     OW29728   3.919   1.000   5.897
 9610SOL    HW129729   3.965   0.919   5.862
 9610SOL    HW229730   3.979   1.049   5.961
 9611SOL     OW29731   5.989   5.704   1.082
 9611SOL    HW129732   5.968   5.717   0.986
 9611SOL    HW229733   5.908   5.668   1.129
 9612SOL     OW29734   5.308   3.607   2.932
 9612SOL    HW129735   5.237   3.608   3.002
 9612SOL    HW229736   5.265   3.606   2.841
 9613SOL     OW29737   6.132   6.614   5.079
 9613SOL    HW129738   6.208   6.551   5.065
 9613SOL    HW229739   6.141   6.656   5.169
 9614SOL     OW29740   3.001   2.867   1.763
 9614SOL    HW129741   3.016   2.769   1.759
 9614SOL    HW229742   2.913   2.886   1.807
 9615SOL     OW29743   0.338   5.722   3.898
 9615SOL    HW129744   0.437   5.718   3.891
 9615SOL    HW229745   0.297   5.706   3.808
 9616SOL     OW29746   1.777   2.861   1.525
 9616SOL    HW129747   1.853   2.894   1.469
 9616SOL    HW229748   1.750   2.770   1.494
 9617SOL     OW29749   0.137   3.068   2.626
 9617SOL    HW129750   0.082   3.149   2.608
 9617SOL    HW229751   0.223   3.073   2.575
 9618SOL     OW29752   4.471   4.218   0.668
 9618SOL    HW129753   4.380   4.227   0.627
 9618SOL    HW229754   4.470   4.143   0.734
 9619SOL     OW29755   1.274   6.842   1.548
 9619SOL    HW129756   1.216   6.787   1.608
 9619SOL    HW229757   1.296   6.929   1.593
 9620SOL     OW29758   3.616   2.098   0.012
 9620SOL    HW129759   3.687   2.123   6.970
 9620SOL    HW229760   3.594   2.177   0.070
 9621SOL     OW29761   0.435   0.920   1.814
 9621SOL    HW129762   0.513   0.970   1.777
 9621SOL    HW229763   0.468   0.845   1.871
 9622SOL     OW29764   7.002   5.656   6.210
 9622SOL    HW129765   0.047   5.620   6.273
 9622SOL    HW229766   0.018   5.731   6.157
 9623SOL     OW29767   3.566   6.317   5.579
 9623SOL    HW129768   3.571   6.408   5.619
 9623SOL    HW229769   3.507   6.319   5.498
 9624SOL     OW29770   4.174   5.433   4.807
 9624SOL    HW129771   4.180   5.495   4.885
 9624SOL    HW229772   4.227   5.350   4.826
 9625SOL     OW29773   5.179   3.898   6.289
 9625SOL    HW129774   5.181   3.979   6.347
 9625SOL    HW229775   5.229   3.824   6.333
 9626SOL     OW29776   2.518   2.467   6.784
 9626SOL    HW129777   2.577   2.528   6.731
 9626SOL    HW229778   2.562   2.443   6.870
 9627SOL     OW29779   0.434   5.153   0.391
 9627SOL    HW129780   0.524   5.114   0.414
 9627SOL    HW229781   0.383   5.089   0.334
 9628SOL     OW29782   6.769   1.674   6.259
 9628SOL    HW129783   6.770   1.679   6.359
 9628SOL    HW229784   6.678   1.646   6.228
 9629SOL     OW29785   0.219   6.176   3.950
 9629SOL    HW129786   0.213   6.193   3.852
 9629SOL    HW229787   0.127   6.180   3.991
 9630SOL     OW29788   5.886   1.464   5.812
 9630SOL    HW129789   5.951   1.478   5.737
 9630SOL    HW229790   5.797   1.437   5.775
 9631SOL     OW29791   4.397   6.346   0.972
 9631SOL    HW129792   4.382   6.320   0.876
 9631SOL    HW229793   4.464   6.285   1.013
 9632SOL     OW29794   2.437   4.976   2.608
 9632SOL    HW129795   2.448   5.015   2.700
 9632SOL    HW229796   2.505   4.904   2.594
 9633SOL     OW29797   2.998   3.182   3.563
 9633SOL    HW129798   3.026   3.105   3.506
 9633SOL    HW229799   3.072   3.249   3.568
 9634SOL     OW29800   4.976   4.696   3.283
 9634SOL    HW129801   5.073   4.682   3.259
 9634SOL    HW229802   4.928   4.735   3.205
 9635SOL     OW29803   0.680   5.190   3.799
 9635SOL    HW129804   0.758   5.210   3.858
 9635SOL    HW229805   0.654   5.094   3.809
 9636SOL     OW29806   5.356   3.886   4.246
 9636SOL    HW129807   5.343   3.963   4.184
 9636SOL    HW229808   5.344   3.917   4.340
 9637SOL     OW29809   1.289   3.479   0.085
 9637SOL    HW129810   1.346   3.542   0.033
 9637SOL    HW229811   1.201   3.523   0.106
 9638SOL     OW29812   6.021   5.576   6.263
 9638SOL    HW129813   6.024   5.617   6.354
 9638SOL    HW229814   6.052   5.481   6.268
 9639SOL     OW29815   4.495   1.859   0.975
 9639SOL    HW129816   4.438   1.914   0.915
 9639SOL    HW229817   4.459   1.862   1.068
 9640SOL     OW29818   4.265   0.674   3.732
 9640SOL    HW129819   4.180   0.654   3.780
 9640SOL    HW229820   4.259   0.641   3.638
 9641SOL     OW29821   6.758   2.988   3.829
 9641SOL    HW129822   6.678   3.035   3.866
 9641SOL    HW229823   6.763   2.895   3.867
 9642SOL     OW29824   0.792   1.422   4.523
 9642SOL    HW129825   0.816   1.352   4.456
 9642SOL    HW229826   0.872   1.478   4.543
 9643SOL     OW29827   5.289   5.174   3.830
 9643SOL    HW129828   5.230   5.244   3.871
 9643SOL    HW229829   5.382   5.210   3.821
 9644SOL     OW29830   0.517   5.381   3.967
 9644SOL    HW129831   0.550   5.312   3.903
 9644SOL    HW229832   0.561   5.469   3.945
 9645SOL     OW29833   0.953   5.269   6.240
 9645SOL    HW129834   0.991   5.324   6.315
 9645SOL    HW229835   0.945   5.174   6.270
 9646SOL     OW29836   4.059   5.769   0.433
 9646SOL    HW129837   4.047   5.863   0.400
 9646SOL    HW229838   4.097   5.713   0.360
 9647SOL     OW29839   6.013   6.381   3.018
 9647SOL    HW129840   5.946   6.422   3.080
 9647SOL    HW229841   6.068   6.453   2.975
 9648SOL     OW29842   3.495   1.669   0.858
 9648SOL    HW129843   3.556   1.682   0.780
 9648SOL    HW229844   3.506   1.745   0.922
 9649SOL     OW29845   0.451   5.471   0.561
 9649SOL    HW129846   0.500   5.544   0.609
 9649SOL    HW229847   0.517   5.408   0.520
 9650SOL     OW29848   0.583   4.948   3.796
 9650SOL    HW129849   0.565   4.911   3.705
 9650SOL    HW229850   0.584   4.874   3.863
 9651SOL     OW29851   3.868   2.059   6.854
 9651SOL    HW129852   3.826   1.970   6.873
 9651SOL    HW229853   3.890   2.065   6.757
 9652SOL     OW29854   0.443   4.248   0.303
 9652SOL    HW129855   0.491   4.170   0.263
 9652SOL    HW229856   0.442   4.324   0.238
 9653SOL     OW29857   4.888   4.307   5.956
 9653SOL    HW129858   4.977   4.286   5.914
 9653SOL    HW229859   4.825   4.340   5.886
 9654SOL     OW29860   3.558   3.500   3.317
 9654SOL    HW129861   3.530   3.547   3.234
 9654SOL    HW229862   3.549   3.561   3.395
 9655SOL     OW29863   4.247   1.694   0.783
 9655SOL    HW129864   4.283   1.784   0.758
 9655SOL    HW229865   4.177   1.704   0.854
 9656SOL     OW29866   5.714   4.119   6.527
 9656SOL    HW129867   5.635   4.092   6.471
 9656SOL    HW229868   5.687   4.195   6.587
 9657SOL     OW29869   5.570   4.465   4.117
 9657SOL    HW129870   5.471   4.459   4.113
 9657SOL    HW229871   5.599   4.560   4.106
 9658SOL     OW29872   4.849   1.585   2.010
 9658SOL    HW129873   4.882   1.541   2.093
 9658SOL    HW229874   4.881   1.679   2.006
 9659SOL     OW29875   2.806   3.101   6.372
 9659SOL    HW129876   2.824   3.199   6.378
 9659SOL    HW229877   2.708   3.085   6.362
 9660SOL     OW29878   1.731   6.460   1.665
 9660SOL    HW129879   1.755   6.365   1.688
 9660SOL    HW229880   1.815   6.512   1.650
 9661SOL     OW29881   4.021   4.063   1.244
 9661SOL    HW129882   4.032   4.149   1.195
 9661SOL    HW229883   4.051   4.075   1.339
 9662SOL     OW29884   5.782   6.550   6.388
 9662SOL    HW129885   5.726   6.627   6.356
 9662SOL    HW229886   5.799   6.560   6.486
 9663SOL     OW29887   0.975   5.301   2.404
 9663SOL    HW129888   1.009   5.208   2.393
 9663SOL    HW229889   1.019   5.343   2.483
 9664SOL     OW29890   3.676   4.938   2.144
 9664SOL    HW129891   3.639   4.906   2.057
 9664SOL    HW229892   3.628   5.022   2.172
 9665SOL     OW29893   6.854   5.165   6.112
 9665SOL    HW129894   6.826   5.255   6.143
 9665SOL    HW229895   6.774   5.108   6.095
 9666SOL     OW29896   5.371   4.184   0.269
 9666SOL    HW129897   5.372   4.221   0.361
 9666SOL    HW229898   5.367   4.258   0.203
 9667SOL     OW29899   5.787   6.265   0.160
 9667SOL    HW129900   5.766   6.167   0.161
 9667SOL    HW229901   5.707   6.316   0.130
 9668SOL     OW29902   1.464   1.035   5.894
 9668SOL    HW129903   1.444   1.023   5.991
 9668SOL    HW229904   1.448   0.948   5.846
 9669SOL     OW29905   3.055   0.354   0.178
 9669SOL    HW129906   2.967   0.401   0.186
 9669SOL    HW229907   3.125   0.405   0.228
 9670SOL     OW29908   0.460   0.416   0.474
 9670SOL    HW129909   0.557   0.441   0.478
 9670SOL    HW229910   0.435   0.394   0.380
 9671SOL     OW29911   0.704   5.211   6.494
 9671SOL    HW129912   0.684   5.298   6.448
 9671SOL    HW229913   0.774   5.225   6.563
 9672SOL     OW29914   1.196   3.929   4.294
 9672SOL    HW129915   1.254   3.910   4.215
 9672SOL    HW229916   1.251   3.967   4.368
 9673SOL     OW29917   2.107   3.665   6.883
 9673SOL    HW129918   2.060   3.577   6.874
 9673SOL    HW229919   2.164   3.664   6.965
 9674SOL     OW29920   1.835   6.438   4.207
 9674SOL    HW129921   1.768   6.492   4.156
 9674SOL    HW229922   1.881   6.375   4.144
 9675SOL     OW29923   5.921   3.518   5.858
 9675SOL    HW129924   6.014   3.553   5.849
 9675SOL    HW229925   5.857   3.595   5.865
 9676SOL     OW29926   0.635   2.887   6.492
 9676SOL    HW129927   0.565   2.892   6.563
 9676SOL    HW229928   0.720   2.926   6.526
 9677SOL     OW29929   6.232   5.227   2.204
 9677SOL    HW129930   6.248   5.143   2.255
 9677SOL    HW229931   6.146   5.269   2.235
 9678SOL     OW29932   3.294   3.991   5.157
 9678SOL    HW129933   3.334   3.956   5.072
 9678SOL    HW229934   3.272   3.915   5.218
 9679SOL     OW29935   1.861   0.974   4.257
 9679SOL    HW129936   1.824   0.895   4.306
 9679SOL    HW229937   1.932   1.017   4.313
 9680SOL     OW29938   4.593   6.983   1.791
 9680SOL    HW129939   4.654   7.010   1.865
 9680SOL    HW229940   4.510   6.942   1.829
 9681SOL     OW29941   1.125   2.409   2.102
 9681SOL    HW129942   1.150   2.485   2.042
 9681SOL    HW229943   1.030   2.383   2.087
 9682SOL     OW29944   5.188   6.405   6.155
 9682SOL    HW129945   5.241   6.366   6.080
 9682SOL    HW229946   5.185   6.505   6.146
 9683SOL     OW29947   3.053   6.244   3.275
 9683SOL    HW129948   3.080   6.223   3.181
 9683SOL    HW229949   3.128   6.292   3.321
 9684SOL     OW29950   0.004   3.491   5.191
 9684SOL    HW129951   6.951   3.433   5.163
 9684SOL    HW229952   0.021   3.559   5.119
 9685SOL     OW29953   3.439   4.507   1.418
 9685SOL    HW129954   3.370   4.458   1.471
 9685SOL    HW229955   3.514   4.536   1.477
 9686SOL     OW29956   6.480   0.991   5.602
 9686SOL    HW129957   6.566   0.969   5.556
 9686SOL    HW229958   6.405   0.945   5.555
 9687SOL     OW29959   4.577   1.108   3.215
 9687SOL    HW129960   4.634   1.147   3.288
 9687SOL    HW229961   4.510   1.176   3.185
 9688SOL     OW29962   0.991   5.246   1.723
 9688SOL    HW129963   1.043   5.240   1.808
 9688SOL    HW229964   0.944   5.159   1.706
 9689SOL     OW29965   2.240   6.122   1.183
 9689SOL    HW129966   2.258   6.189   1.111
 9689SOL    HW229967   2.259   6.164   1.272
 9690SOL     OW29968   6.852   4.331   4.808
 9690SOL    HW129969   6.787   4.386   4.755
 9690SOL    HW229970   6.925   4.298   4.748
 9691SOL     OW29971   2.869   3.640   1.822
 9691SOL    HW129972   2.864   3.580   1.902
 9691SOL    HW229973   2.963   3.670   1.809
 9692SOL     OW29974   5.249   4.683   0.676
 9692SOL    HW129975   5.306   4.722   0.748
 9692SOL    HW229976   5.229   4.587   0.697
 9693SOL     OW29977   4.313   3.019   5.395
 9693SOL    HW129978   4.406   2.998   5.364
 9693SOL    HW229979   4.252   2.944   5.370
 9694SOL     OW29980   3.088   0.183   2.056
 9694SOL    HW129981   3.065   0.169   1.960
 9694SOL    HW229982   3.055   0.105   2.110
 9695SOL     OW29983   0.989   2.616   3.770
 9695SOL    HW129984   0.938   2.691   3.813
 9695SOL    HW229985   1.039   2.565   3.839
 9696SOL     OW29986   5.438   2.408   4.010
 9696SOL    HW129987   5.491   2.492   4.026
 9696SOL    HW229988   5.472   2.362   3.928
 9697SOL     OW29989   0.194   6.701   1.251
 9697SOL    HW129990   0.148   6.773   1.304
 9697SOL    HW229991   0.244   6.742   1.175
 9698SOL     OW29992   6.985   3.196   2.159
 9698SOL    HW129993   0.019   3.254   2.216
 9698SOL    HW229994   6.931   3.135   2.218
 9699SOL     OW29995   2.289   5.777   1.249
 9699SOL    HW129996   2.191   5.795   1.233
 9699SOL    HW229997   2.309   5.682   1.223
 9700SOL     OW29998   5.202   0.195   5.825
 9700SOL    HW129999   5.121   0.238   5.865
 9700SOL    HW230000   5.280   0.256   5.836
 9701SOL     OW30001   4.927   4.028   6.880
 9701SOL    HW130002   5.022   4.038   6.912
 9701SOL    HW230003   4.892   4.118   6.852
 9702SOL     OW30004   3.927   3.867   2.144
 9702SOL    HW130005   3.936   3.908   2.235
 9702SOL    HW230006   4.010   3.816   2.122
 9703SOL     OW30007   6.119   4.714   4.016
 9703SOL    HW130008   6.106   4.696   4.113
 9703SOL    HW230009   6.078   4.641   3.962
 9704SOL     OW30010   1.492   4.442   3.053
 9704SOL    HW130011   1.435   4.473   2.976
 9704SOL    HW230012   1.573   4.500   3.060
 9705SOL     OW30013   0.674   2.827   5.773
 9705SOL    HW130014   0.698   2.785   5.861
 9705SOL    HW230015   0.736   2.793   5.702
 9706SOL     OW30016   0.563   1.492   2.700
 9706SOL    HW130017   0.501   1.570   2.697
 9706SOL    HW230018   0.524   1.416   2.647
 9707SOL     OW30019   0.615   4.770   2.480
 9707SOL    HW130020   0.695   4.826   2.500
 9707SOL    HW230021   0.550   4.823   2.426
 9708SOL     OW30022   2.550   0.662   2.185
 9708SOL    HW130023   2.562   0.565   2.163
 9708SOL    HW230024   2.602   0.684   2.267
 9709SOL     OW30025   5.493   2.245   1.474
 9709SOL    HW130026   5.411   2.209   1.518
 9709SOL    HW230027   5.515   2.335   1.513
 9710SOL     OW30028   5.950   5.481   4.376
 9710SOL    HW130029   5.910   5.434   4.455
 9710SOL    HW230030   5.981   5.413   4.309
 9711SOL     OW30031   3.442   1.396   0.079
 9711SOL    HW130032   3.437   1.331   0.155
 9711SOL    HW230033   3.393   1.359   0.000
 9712SOL     OW30034   5.777   1.093   6.600
 9712SOL    HW130035   5.777   1.015   6.662
 9712SOL    HW230036   5.786   1.061   6.506
 9713SOL     OW30037   2.287   0.163   2.415
 9713SOL    HW130038   2.279   0.132   2.509
 9713SOL    HW230039   2.224   0.110   2.357
 9714SOL     OW30040   2.356   4.253   4.423
 9714SOL    HW130041   2.277   4.222   4.369
 9714SOL    HW230042   2.376   4.185   4.494
 9715SOL     OW30043   6.425   3.541   6.452
 9715SOL    HW130044   6.370   3.461   6.475
 9715SOL    HW230045   6.366   3.611   6.411
 9716SOL     OW30046   2.402   5.093   0.380
 9716SOL    HW130047   2.336   5.101   0.455
 9716SOL    HW230048   2.373   5.021   0.317
 9717SOL     OW30049   3.619   1.966   5.367
 9717SOL    HW130050   3.576   1.983   5.278
 9717SOL    HW230051   3.693   1.900   5.357
 9718SOL     OW30052   4.421   2.418   5.840
 9718SOL    HW130053   4.515   2.410   5.873
 9718SOL    HW230054   4.390   2.329   5.808
 9719SOL     OW30055   5.159   6.672   6.116
 9719SOL    HW130056   5.231   6.734   6.085
 9719SOL    HW230057   5.110   6.714   6.192
 9720SOL     OW30058   2.091   3.359   2.759
 9720SOL    HW130059   2.005   3.308   2.752
 9720SOL    HW230060   2.166   3.302   2.724
 9721SOL     OW30061   1.266   1.056   1.125
 9721SOL    HW130062   1.254   1.155   1.131
 9721SOL    HW230063   1.216   1.012   1.199
 9722SOL     OW30064   3.923   2.290   5.285
 9722SOL    HW130065   3.895   2.221   5.352
 9722SOL    HW230066   3.842   2.329   5.241
 9723SOL     OW30067   6.733   0.211   5.535
 9723SOL    HW130068   6.798   0.269   5.485
 9723SOL    HW230069   6.770   0.188   5.624
 9724SOL     OW30070   1.467   4.709   0.406
 9724SOL    HW130071   1.496   4.769   0.480
 9724SOL    HW230072   1.518   4.623   0.410
 9725SOL     OW30073   4.227   4.792   4.637
 9725SOL    HW130074   4.174   4.708   4.623
 9725SOL    HW230075   4.176   4.870   4.599
 9726SOL     OW30076   0.476   0.594   3.633
 9726SOL    HW130077   0.446   0.499   3.637
 9726SOL    HW230078   0.506   0.623   3.724
 9727SOL     OW30079   6.655   2.156   1.885
 9727SOL    HW130080   6.686   2.196   1.971
 9727SOL    HW230081   6.558   2.130   1.894
 9728SOL     OW30082   5.134   2.139   4.103
 9728SOL    HW130083   5.078   2.107   4.180
 9728SOL    HW230084   5.108   2.233   4.080
 9729SOL     OW30085   6.931   4.784   3.091
 9729SOL    HW130086   6.884   4.859   3.045
 9729SOL    HW230087   6.981   4.820   3.170
 9730SOL     OW30088   0.991   4.343   2.923
 9730SOL    HW130089   1.066   4.402   2.952
 9730SOL    HW230090   0.928   4.395   2.865
 9731SOL     OW30091   5.467   2.909   1.900
 9731SOL    HW130092   5.539   2.959   1.853
 9731SOL    HW230093   5.434   2.835   1.841
 9732SOL     OW30094   1.306   3.762   2.616
 9732SOL    HW130095   1.340   3.749   2.709
 9732SOL    HW230096   1.333   3.684   2.559
 9733SOL     OW30097   5.897   4.713   1.973
 9733SOL    HW130098   5.959   4.713   2.051
 9733SOL    HW230099   5.881   4.807   1.943
 9734SOL     OW30100   5.674   5.171   6.253
 9734SOL    HW130101   5.667   5.165   6.154
 9734SOL    HW230102   5.596   5.126   6.295
 9735SOL     OW30103   0.246   2.574   1.073
 9735SOL    HW130104   0.302   2.650   1.103
 9735SOL    HW230105   0.290   2.488   1.099
 9736SOL     OW30106   4.818   2.076   4.979
 9736SOL    HW130107   4.719   2.085   4.988
 9736SOL    HW230108   4.850   2.130   4.902
 9737SOL     OW30109   6.060   3.250   3.838
 9737SOL    HW130110   5.996   3.286   3.906
 9737SOL    HW230111   6.019   3.172   3.792
 9738SOL     OW30112   2.178   6.588   1.948
 9738SOL    HW130113   2.191   6.517   2.016
 9738SOL    HW230114   2.188   6.550   1.856
 9739SOL     OW30115   5.623   6.659   0.392
 9739SOL    HW130116   5.559   6.582   0.397
 9739SOL    HW230117   5.713   6.629   0.424
 9740SOL     OW30118   6.063   1.164   2.602
 9740SOL    HW130119   5.990   1.096   2.594
 9740SOL    HW230120   6.133   1.146   2.533
 9741SOL     OW30121   2.185   2.184   4.360
 9741SOL    HW130122   2.265   2.137   4.397
 9741SOL    HW230123   2.214   2.273   4.322
 9742SOL     OW30124   3.441   2.248   6.170
 9742SOL    HW130125   3.346   2.234   6.142
 9742SOL    HW230126   3.444   2.304   6.253
 9743SOL     OW30127   5.542   3.897   3.905
 9743SOL    HW130128   5.493   3.858   3.828
 9743SOL    HW230129   5.536   3.835   3.983
 9744SOL     OW30130   1.808   1.610   2.506
 9744SOL    HW130131   1.873   1.640   2.576
 9744SOL    HW230132   1.819   1.666   2.425
 9745SOL     OW30133   0.234   0.754   6.378
 9745SOL    HW130134   0.225   0.821   6.451
 9745SOL    HW230135   0.256   0.801   6.292
 9746SOL     OW30136   3.772   5.891   6.059
 9746SOL    HW130137   3.740   5.813   6.005
 9746SOL    HW230138   3.809   5.961   5.998
 9747SOL     OW30139   2.815   1.356   2.982
 9747SOL    HW130140   2.778   1.380   2.892
 9747SOL    HW230141   2.914   1.360   2.979
 9748SOL     OW30142   1.192   1.285   3.090
 9748SOL    HW130143   1.129   1.357   3.119
 9748SOL    HW230144   1.253   1.260   3.165
 9749SOL     OW30145   6.818   0.250   1.661
 9749SOL    HW130146   6.758   0.268   1.582
 9749SOL    HW230147   6.900   0.202   1.630
 9750SOL     OW30148   5.631   3.035   4.762
 9750SOL    HW130149   5.629   2.949   4.712
 9750SOL    HW230150   5.648   3.018   4.858
 9751SOL     OW30151   3.622   6.816   1.519
 9751SOL    HW130152   3.683   6.780   1.589
 9751SOL    HW230153   3.622   6.754   1.440
 9752SOL     OW30154   2.840   2.675   0.352
 9752SOL    HW130155   2.801   2.766   0.352
 9752SOL    HW230156   2.843   2.639   0.259
 9753SOL     OW30157   6.460   6.124   5.001
 9753SOL    HW130158   6.540   6.122   4.940
 9753SOL    HW230159   6.377   6.140   4.947
 9754SOL     OW30160   3.034   1.331   2.117
 9754SOL    HW130161   3.041   1.392   2.195
 9754SOL    HW230162   2.956   1.358   2.060
 9755SOL     OW30163   3.157   3.911   0.335
 9755SOL    HW130164   3.140   3.836   0.272
 9755SOL    HW230165   3.253   3.939   0.330
 9756SOL     OW30166   5.974   6.957   5.602
 9756SOL    HW130167   6.030   6.951   5.519
 9756SOL    HW230168   5.934   0.025   5.608
 9757SOL     OW30169   5.274   3.946   4.505
 9757SOL    HW130170   5.283   4.036   4.548
 9757SOL    HW230171   5.330   3.880   4.555
 9758SOL     OW30172   2.301   1.200   2.590
 9758SOL    HW130173   2.226   1.137   2.610
 9758SOL    HW230174   2.334   1.240   2.676
 9759SOL     OW30175   0.098   1.755   1.631
 9759SOL    HW130176   0.054   1.843   1.622
 9759SOL    HW230177   0.147   1.751   1.719
 9760SOL     OW30178   4.765   0.116   0.299
 9760SOL    HW130179   4.696   0.163   0.243
 9760SOL    HW230180   4.835   0.181   0.326
 9761SOL     OW30181   1.229   2.861   1.461
 9761SOL    HW130182   1.317   2.823   1.432
 9761SOL    HW230183   1.185   2.799   1.525
 9762SOL     OW30184   2.756   1.686   5.389
 9762SOL    HW130185   2.696   1.631   5.447
 9762SOL    HW230186   2.788   1.631   5.312
 9763SOL     OW30187   6.669   2.205   1.611
 9763SOL    HW130188   6.576   2.188   1.580
 9763SOL    HW230189   6.679   2.175   1.706
 9764SOL     OW30190   6.993   1.983   2.875
 9764SOL    HW130191   6.933   2.009   2.951
 9764SOL    HW230192   6.956   2.019   2.790
 9765SOL     OW30193   6.700   0.335   1.883
 9765SOL    HW130194   6.743   0.333   1.793
 9765SOL    HW230195   6.617   0.390   1.878
 9766SOL     OW30196   1.537   2.209   3.296
 9766SOL    HW130197   1.528   2.116   3.330
 9766SOL    HW230198   1.615   2.215   3.234
 9767SOL     OW30199   2.561   1.419   5.260
 9767SOL    HW130200   2.553   1.361   5.178
 9767SOL    HW230201   2.494   1.492   5.255
 9768SOL     OW30202   6.000   2.994   0.756
 9768SOL    HW130203   6.012   2.993   0.656
 9768SOL    HW230204   5.966   3.083   0.785
 9769SOL     OW30205   3.380   1.628   5.333
 9769SOL    HW130206   3.430   1.714   5.321
 9769SOL    HW230207   3.437   1.552   5.305
 9770SOL     OW30208   2.065   2.939   5.555
 9770SOL    HW130209   2.011   2.869   5.600
 9770SOL    HW230210   2.037   2.946   5.459
 9771SOL     OW30211   3.430   0.166   1.749
 9771SOL    HW130212   3.372   0.245   1.728
 9771SOL    HW230213   3.497   0.190   1.819
 9772SOL     OW30214   0.778   0.367   1.558
 9772SOL    HW130215   0.760   0.278   1.600
 9772SOL    HW230216   0.865   0.404   1.592
 9773SOL     OW30217   5.406   5.363   2.184
 9773SOL    HW130218   5.443   5.426   2.252
 9773SOL    HW230219   5.370   5.281   2.229
 9774SOL     OW30220   1.463   4.518   4.892
 9774SOL    HW130221   1.374   4.558   4.916
 9774SOL    HW230222   1.533   4.555   4.952
 9775SOL     OW30223   2.277   1.399   3.199
 9775SOL    HW130224   2.371   1.428   3.182
 9775SOL    HW230225   2.270   1.300   3.186
 9776SOL     OW30226   2.731   4.905   0.633
 9776SOL    HW130227   2.700   4.946   0.547
 9776SOL    HW230228   2.724   4.805   0.626
 9777SOL     OW30229   4.143   1.014   5.368
 9777SOL    HW130230   4.084   1.060   5.434
 9777SOL    HW230231   4.187   1.083   5.309
 9778SOL     OW30232   0.979   4.355   3.626
 9778SOL    HW130233   1.059   4.388   3.576
 9778SOL    HW230234   0.926   4.294   3.567
 9779SOL     OW30235   2.649   1.304   3.420
 9779SOL    HW130236   2.634   1.293   3.321
 9779SOL    HW230237   2.691   1.222   3.457
 9780SOL     OW30238   0.875   2.742   2.106
 9780SOL    HW130239   0.910   2.739   2.199
 9780SOL    HW230240   0.830   2.830   2.089
 9781SOL     OW30241   1.673   1.919   2.580
 9781SOL    HW130242   1.701   1.848   2.516
 9781SOL    HW230243   1.623   1.878   2.656
 9782SOL     OW30244   0.121   2.146   0.860
 9782SOL    HW130245   0.141   2.216   0.791
 9782SOL    HW230246   0.198   2.140   0.924
 9783SOL     OW30247   4.080   1.297   2.920
 9783SOL    HW130248   4.064   1.203   2.892
 9783SOL    HW230249   4.164   1.331   2.879
 9784SOL     OW30250   2.250   1.107   6.150
 9784SOL    HW130251   2.347   1.090   6.132
 9784SOL    HW230252   2.202   1.123   6.064
 9785SOL     OW30253   0.550   3.828   4.119
 9785SOL    HW130254   0.505   3.893   4.058
 9785SOL    HW230255   0.606   3.764   4.065
 9786SOL     OW30256   2.249   4.138   6.753
 9786SOL    HW130257   2.157   4.174   6.769
 9786SOL    HW230258   2.266   4.062   6.815
 9787SOL     OW30259   2.888   3.644   2.768
 9787SOL    HW130260   2.921   3.594   2.848
 9787SOL    HW230261   2.946   3.624   2.689
 9788SOL     OW30262   4.096   0.075   2.061
 9788SOL    HW130263   4.136   0.166   2.065
 9788SOL    HW230264   4.127   0.028   1.979
 9789SOL     OW30265   3.763   1.786   6.853
 9789SOL    HW130266   3.732   1.775   6.758
 9789SOL    HW230267   3.737   1.706   6.906
 9790SOL     OW30268   5.759   5.664   4.349
 9790SOL    HW130269   5.811   5.749   4.357
 9790SOL    HW230270   5.820   5.586   4.360
 9791SOL     OW30271   0.625   0.376   1.920
 9791SOL    HW130272   0.540   0.381   1.867
 9791SOL    HW230273   0.682   0.302   1.886
 9792SOL     OW30274   3.959   4.910   0.653
 9792SOL    HW130275   4.021   4.845   0.610
 9792SOL    HW230276   4.008   4.995   0.671
 9793SOL     OW30277   5.888   1.039   3.345
 9793SOL    HW130278   5.900   1.089   3.431
 9793SOL    HW230279   5.830   1.091   3.283
 9794SOL     OW30280   4.436   4.824   4.450
 9794SOL    HW130281   4.369   4.854   4.518
 9794SOL    HW230282   4.495   4.901   4.426
 9795SOL     OW30283   1.487   3.394   3.071
 9795SOL    HW130284   1.519   3.433   2.985
 9795SOL    HW230285   1.439   3.308   3.053
 9796SOL     OW30286   3.244   4.054   4.248
 9796SOL    HW130287   3.246   4.108   4.333
 9796SOL    HW230288   3.323   3.992   4.245
 9797SOL     OW30289   2.582   5.147   0.182
 9797SOL    HW130290   2.515   5.136   0.255
 9797SOL    HW230291   2.595   5.245   0.164
 9798SOL     OW30292   0.066   4.303   6.772
 9798SOL    HW130293   0.110   4.217   6.800
 9798SOL    HW230294   0.108   4.336   6.688
 9799SOL     OW30295   3.055   0.218   6.624
 9799SOL    HW130296   3.117   0.170   6.686
 9799SOL    HW230297   3.058   0.175   6.534
 9800SOL     OW30298   6.926   2.933   4.352
 9800SOL    HW130299   6.852   3.000   4.354
 9800SOL    HW230300   6.990   2.955   4.278
 9801SOL     OW30301   5.889   6.422   0.372
 9801SOL    HW130302   5.848   6.366   0.299
 9801SOL    HW230303   5.953   6.487   0.331
 9802SOL     OW30304   4.223   4.143   0.218
 9802SOL    HW130305   4.208   4.108   0.310
 9802SOL    HW230306   4.320   4.165   0.206
 9803SOL     OW30307   0.869   2.962   6.595
 9803SOL    HW130308   0.961   2.924   6.589
 9803SOL    HW230309   0.871   3.059   6.572
 9804SOL     OW30310   0.703   5.359   2.291
 9804SOL    HW130311   0.788   5.329   2.334
 9804SOL    HW230312   0.626   5.310   2.333
 9805SOL     OW30313   0.639   5.634   3.980
 9805SOL    HW130314   0.655   5.604   4.074
 9805SOL    HW230315   0.726   5.634   3.930
 9806SOL     OW30316   3.961   1.861   0.177
 9806SOL    HW130317   3.876   1.914   0.174
 9806SOL    HW230318   4.038   1.921   0.155
 9807SOL     OW30319   3.664   3.243   2.731
 9807SOL    HW130320   3.736   3.174   2.725
 9807SOL    HW230321   3.582   3.203   2.770
 9808SOL     OW30322   4.004   5.667   2.538
 9808SOL    HW130323   3.956   5.650   2.624
 9808SOL    HW230324   4.045   5.582   2.506
 9809SOL     OW30325   6.451   3.564   0.436
 9809SOL    HW130326   6.521   3.554   0.365
 9809SOL    HW230327   6.468   3.497   0.509
 9810SOL     OW30328   3.108   1.896   6.999
 9810SOL    HW130329   3.173   1.914   0.050
 9810SOL    HW230330   3.022   1.943   7.018
 9811SOL     OW30331   5.796   3.676   4.457
 9811SOL    HW130332   5.886   3.718   4.463
 9811SOL    HW230333   5.735   3.736   4.404
 9812SOL     OW30334   3.522   6.137   5.795
 9812SOL    HW130335   3.559   6.173   5.709
 9812SOL    HW230336   3.584   6.068   5.831
 9813SOL     OW30337   5.061   0.619   2.035
 9813SOL    HW130338   5.007   0.553   1.984
 9813SOL    HW230339   5.157   0.591   2.034
 9814SOL     OW30340   5.643   1.225   0.111
 9814SOL    HW130341   5.728   1.253   0.157
 9814SOL    HW230342   5.571   1.214   0.180
 9815SOL     OW30343   4.686   2.653   4.375
 9815SOL    HW130344   4.770   2.605   4.400
 9815SOL    HW230345   4.616   2.636   4.444
 9816SOL     OW30346   2.280   0.670   1.213
 9816SOL    HW130347   2.294   0.646   1.309
 9816SOL    HW230348   2.231   0.756   1.206
 9817SOL     OW30349   6.593   6.787   2.585
 9817SOL    HW130350   6.599   6.852   2.509
 9817SOL    HW230351   6.519   6.814   2.646
 9818SOL     OW30352   5.720   2.972   5.036
 9818SOL    HW130353   5.806   2.983   5.084
 9818SOL    HW230354   5.662   2.906   5.085
 9819SOL     OW30355   4.048   0.614   2.595
 9819SOL    HW130356   3.950   0.625   2.613
 9819SOL    HW230357   4.100   0.671   2.658
 9820SOL     OW30358   4.528   3.043   5.632
 9820SOL    HW130359   4.544   3.054   5.534
 9820SOL    HW230360   4.564   2.955   5.662
 9821SOL     OW30361   6.407   5.231   0.242
 9821SOL    HW130362   6.433   5.327   0.242
 9821SOL    HW230363   6.480   5.176   0.283
 9822SOL     OW30364   0.678   0.004   2.054
 9822SOL    HW130365   0.711   0.095   2.080
 9822SOL    HW230366   0.674   6.969   2.134
 9823SOL     OW30367   3.699   0.728   1.632
 9823SOL    HW130368   3.659   0.820   1.640
 9823SOL    HW230369   3.643   0.674   1.569
 9824SOL     OW30370   1.216   3.778   5.782
 9824SOL    HW130371   1.194   3.876   5.775
 9824SOL    HW230372   1.160   3.727   5.717
 9825SOL     OW30373   3.940   5.222   4.860
 9825SOL    HW130374   4.035   5.193   4.863
 9825SOL    HW230375   3.935   5.318   4.832
 9826SOL     OW30376   4.949   0.449   5.815
 9826SOL    HW130377   4.891   0.521   5.852
 9826SOL    HW230378   5.031   0.440   5.872
 9827SOL     OW30379   1.600   3.976   4.290
 9827SOL    HW130380   1.579   3.885   4.326
 9827SOL    HW230381   1.654   4.027   4.356
 9828SOL     OW30382   3.462   3.018   6.980
 9828SOL    HW130383   3.448   3.088   0.027
 9828SOL    HW230384   3.536   2.957   7.007
 9829SOL     OW30385   2.917   4.515   0.227
 9829SOL    HW130386   2.852   4.591   0.230
 9829SOL    HW230387   2.898   4.458   0.147
 9830SOL     OW30388   5.932   0.473   0.896
 9830SOL    HW130389   5.931   0.398   0.829
 9830SOL    HW230390   5.886   0.553   0.856
 9831SOL     OW30391   6.247   6.807   0.974
 9831SOL    HW130392   6.163   6.828   1.023
 9831SOL    HW230393   6.277   6.887   0.922
 9832SOL     OW30394   4.341   4.573   1.187
 9832SOL    HW130395   4.329   4.630   1.268
 9832SOL    HW230396   4.405   4.618   1.124
 9833SOL     OW30397   3.456   3.598   5.217
 9833SOL    HW130398   3.477   3.509   5.259
 9833SOL    HW230399   3.360   3.621   5.235
 9834SOL     OW30400   0.729   3.298   4.211
 9834SOL    HW130401   0.766   3.384   4.175
 9834SOL    HW230402   0.731   3.229   4.139
 9835SOL     OW30403   5.344   1.927   4.144
 9835SOL    HW130404   5.264   1.943   4.086
 9835SOL    HW230405   5.388   2.014   4.164
 9836SOL     OW30406   4.991   5.214   3.118
 9836SOL    HW130407   5.059   5.287   3.106
 9836SOL    HW230408   4.928   5.214   3.040
 9837SOL     OW30409   2.163   6.188   4.195
 9837SOL    HW130410   2.112   6.103   4.185
 9837SOL    HW230411   2.197   6.196   4.289
 9838SOL     OW30412   0.630   5.725   6.277
 9838SOL    HW130413   0.669   5.815   6.259
 9838SOL    HW230414   0.563   5.702   6.206
 9839SOL     OW30415   6.911   1.664   2.197
 9839SOL    HW130416   6.841   1.593   2.202
 9839SOL    HW230417   6.923   1.692   2.102
 9840SOL     OW30418   6.721   0.666   1.244
 9840SOL    HW130419   6.715   0.604   1.322
 9840SOL    HW230420   6.786   0.740   1.264
 9841SOL     OW30421   1.816   3.642   4.048
 9841SOL    HW130422   1.723   3.630   4.080
 9841SOL    HW230423   1.868   3.557   4.060
 9842SOL     OW30424   3.217   3.009   2.191
 9842SOL    HW130425   3.204   3.018   2.092
 9842SOL    HW230426   3.280   2.934   2.209
 9843SOL     OW30427   6.277   2.761   2.078
 9843SOL    HW130428   6.314   2.778   1.987
 9843SOL    HW230429   6.209   2.688   2.074
 9844SOL     OW30430   4.994   6.816   2.634
 9844SOL    HW130431   5.089   6.843   2.618
 9844SOL    HW230432   4.980   6.802   2.732
 9845SOL     OW30433   1.073   2.250   3.443
 9845SOL    HW130434   1.013   2.276   3.518
 9845SOL    HW230435   1.164   2.288   3.458
 9846SOL     OW30436   2.993   3.521   2.999
 9846SOL    HW130437   2.988   3.586   3.075
 9846SOL    HW230438   2.966   3.431   3.030
 9847SOL     OW30439   1.858   4.194   5.955
 9847SOL    HW130440   1.891   4.235   6.040
 9847SOL    HW230441   1.825   4.265   5.894
 9848SOL     OW30442   4.806   3.313   0.049
 9848SOL    HW130443   4.799   3.411   0.031
 9848SOL    HW230444   4.869   3.297   0.125
 9849SOL     OW30445   0.335   0.069   6.223
 9849SOL    HW130446   0.307   0.162   6.200
 9849SOL    HW230447   0.382   0.068   6.311
 9850SOL     OW30448   3.709   6.176   2.311
 9850SOL    HW130449   3.749   6.172   2.403
 9850SOL    HW230450   3.651   6.095   2.296
 9851SOL     OW30451   5.809   1.858   5.365
 9851SOL    HW130452   5.761   1.829   5.447
 9851SOL    HW230453   5.878   1.927   5.389
 9852SOL     OW30454   5.258   1.686   3.711
 9852SOL    HW130455   5.306   1.774   3.707
 9852SOL    HW230456   5.252   1.648   3.619
 9853SOL     OW30457   6.416   3.996   2.066
 9853SOL    HW130458   6.506   4.012   2.107
 9853SOL    HW230459   6.387   4.078   2.017
 9854SOL     OW30460   4.916   5.656   4.005
 9854SOL    HW130461   4.975   5.575   4.007
 9854SOL    HW230462   4.944   5.719   4.077
 9855SOL     OW30463   1.311   3.695   1.450
 9855SOL    HW130464   1.263   3.626   1.505
 9855SOL    HW230465   1.404   3.664   1.432
 9856SOL     OW30466   3.773   2.882   1.067
 9856SOL    HW130467   3.844   2.876   1.137
 9856SOL    HW230468   3.683   2.877   1.110
 9857SOL     OW30469   5.501   3.842   3.500
 9857SOL    HW130470   5.585   3.897   3.506
 9857SOL    HW230471   5.502   3.789   3.415
 9858SOL     OW30472   5.056   0.839   1.817
 9858SOL    HW130473   5.061   0.767   1.886
 9858SOL    HW230474   5.143   0.888   1.813
 9859SOL     OW30475   6.444   0.324   2.417
 9859SOL    HW130476   6.372   0.292   2.478
 9859SOL    HW230477   6.422   0.296   2.323
 9860SOL     OW30478   0.407   1.194   2.203
 9860SOL    HW130479   0.402   1.238   2.114
 9860SOL    HW230480   0.456   1.108   2.195
 9861SOL     OW30481   3.938   6.496   4.163
 9861SOL    HW130482   3.918   6.410   4.115
 9861SOL    HW230483   3.998   6.477   4.241
 9862SOL     OW30484   0.867   2.547   0.922
 9862SOL    HW130485   0.965   2.564   0.919
 9862SOL    HW230486   0.825   2.604   0.992
 9863SOL     OW30487   3.383   6.971   1.934
 9863SOL    HW130488   3.387   0.016   1.861
 9863SOL    HW230489   3.300   6.917   1.925
 9864SOL     OW30490   5.081   6.288   2.225
 9864SOL    HW130491   5.079   6.289   2.125
 9864SOL    HW230492   4.989   6.304   2.260
 9865SOL     OW30493   0.535   1.326   4.500
 9865SOL    HW130494   0.619   1.381   4.511
 9865SOL    HW230495   0.509   1.286   4.588
 9866SOL     OW30496   4.900   4.036   4.201
 9866SOL    HW130497   4.897   4.109   4.269
 9866SOL    HW230498   4.979   4.049   4.141
 9867SOL     OW30499   4.498   0.994   6.838
 9867SOL    HW130500   4.408   1.036   6.828
 9867SOL    HW230501   4.536   1.016   6.927
 9868SOL     OW30502   0.266   5.025   0.222
 9868SOL    HW130503   0.264   4.930   0.192
 9868SOL    HW230504   0.174   5.055   0.243
 9869SOL     OW30505   1.764   4.429   3.275
 9869SOL    HW130506   1.720   4.340   3.284
 9869SOL    HW230507   1.790   4.464   3.365
 9870SOL     OW30508   5.015   4.817   2.463
 9870SOL    HW130509   5.010   4.878   2.542
 9870SOL    HW230510   5.110   4.811   2.432
 9871SOL     OW30511   2.328   0.754   5.145
 9871SOL    HW130512   2.232   0.763   5.118
 9871SOL    HW230513   2.384   0.819   5.094
 9872SOL     OW30514   2.210   4.891   3.543
 9872SOL    HW130515   2.309   4.893   3.554
 9872SOL    HW230516   2.173   4.808   3.584
 9873SOL     OW30517   1.255   2.680   0.145
 9873SOL    HW130518   1.287   2.735   0.069
 9873SOL    HW230519   1.177   2.624   0.115
 9874SOL     OW30520   0.875   2.948   3.765
 9874SOL    HW130521   0.819   2.948   3.682
 9874SOL    HW230522   0.830   2.893   3.836
 9875SOL     OW30523   0.800   0.474   3.510
 9875SOL    HW130524   0.706   0.475   3.477
 9875SOL    HW230525   0.856   0.533   3.452
 9876SOL     OW30526   6.715   6.527   2.215
 9876SOL    HW130527   6.768   6.529   2.300
 9876SOL    HW230528   6.717   6.618   2.173
 9877SOL     OW30529   3.191   6.888   2.595
 9877SOL    HW130530   3.219   6.983   2.603
 9877SOL    HW230531   3.112   6.882   2.534
 9878SOL     OW30532   0.583   6.329   5.258
 9878SOL    HW130533   0.575   6.251   5.196
 9878SOL    HW230534   0.638   6.401   5.215
 9879SOL     OW30535   4.401   5.669   5.727
 9879SOL    HW130536   4.441   5.587   5.769
 9879SOL    HW230537   4.448   5.689   5.641
 9880SOL     OW30538   1.634   1.582   5.371
 9880SOL    HW130539   1.598   1.597   5.279
 9880SOL    HW230540   1.692   1.660   5.397
 9881SOL     OW30541   1.004   1.928   6.215
 9881SOL    HW130542   1.097   1.895   6.198
 9881SOL    HW230543   0.947   1.909   6.135
 9882SOL     OW30544   1.419   2.126   3.704
 9882SOL    HW130545   1.360   2.057   3.664
 9882SOL    HW230546   1.515   2.103   3.685
 9883SOL     OW30547   1.553   0.741   2.313
 9883SOL    HW130548   1.588   0.793   2.391
 9883SOL    HW230549   1.468   0.695   2.339
 9884SOL     OW30550   4.039   0.237   4.284
 9884SOL    HW130551   4.010   0.311   4.344
 9884SOL    HW230552   4.096   0.173   4.335
 9885SOL     OW30553   6.389   4.733   4.191
 9885SOL    HW130554   6.435   4.719   4.103
 9885SOL    HW230555   6.443   4.796   4.247
 9886SOL     OW30556   0.950   4.069   2.313
 9886SOL    HW130557   0.988   4.161   2.324
 9886SOL    HW230558   0.850   4.073   2.320
 9887SOL     OW30559   3.738   1.334   6.844
 9887SOL    HW130560   3.749   1.271   6.921
 9887SOL    HW230561   3.718   1.283   6.761
 9888SOL     OW30562   0.177   4.317   0.397
 9888SOL    HW130563   0.238   4.260   0.342
 9888SOL    HW230564   0.156   4.401   0.348
 9889SOL     OW30565   6.302   4.941   0.581
 9889SOL    HW130566   6.315   4.947   0.482
 9889SOL    HW230567   6.266   5.029   0.614
 9890SOL     OW30568   1.462   2.751   1.357
 9890SOL    HW130569   1.486   2.673   1.415
 9890SOL    HW230570   1.544   2.788   1.314
 9891SOL     OW30571   5.552   2.587   0.657
 9891SOL    HW130572   5.602   2.664   0.695
 9891SOL    HW230573   5.551   2.594   0.557
 9892SOL     OW30574   6.638   5.233   6.913
 9892SOL    HW130575   6.692   5.267   6.990
 9892SOL    HW230576   6.602   5.310   6.861
 9893SOL     OW30577   2.617   1.463   0.666
 9893SOL    HW130578   2.617   1.500   0.573
 9893SOL    HW230579   2.618   1.363   0.662
 9894SOL     OW30580   1.081   1.797   0.761
 9894SOL    HW130581   1.109   1.740   0.684
 9894SOL    HW230582   1.105   1.751   0.847
 9895SOL     OW30583   5.386   3.371   5.702
 9895SOL    HW130584   5.398   3.314   5.783
 9895SOL    HW230585   5.319   3.443   5.720
 9896SOL     OW30586   6.744   0.294   0.398
 9896SOL    HW130587   6.734   0.232   0.320
 9896SOL    HW230588   6.814   0.258   0.460
 9897SOL     OW30589   5.501   5.550   3.196
 9897SOL    HW130590   5.507   5.634   3.142
 9897SOL    HW230591   5.501   5.471   3.134
 9898SOL     OW30592   3.291   6.046   5.465
 9898SOL    HW130593   3.279   6.145   5.479
 9898SOL    HW230594   3.325   6.005   5.550
 9899SOL     OW30595   0.066   5.359   0.409
 9899SOL    HW130596   7.011   5.406   0.371
 9899SOL    HW230597   0.038   5.307   0.490
 9900SOL     OW30598   2.249   4.069   3.568
 9900SOL    HW130599   2.310   4.100   3.495
 9900SOL    HW230600   2.155   4.089   3.543
 9901SOL     OW30601   2.403   2.108   5.257
 9901SOL    HW130602   2.447   2.052   5.327
 9901SOL    HW230603   2.330   2.055   5.213
 9902SOL     OW30604   2.173   4.867   6.826
 9902SOL    HW130605   2.224   4.953   6.820
 9902SOL    HW230606   2.231   4.796   6.866
 9903SOL     OW30607   4.901   0.789   2.843
 9903SOL    HW130608   4.918   0.833   2.932
 9903SOL    HW230609   4.946   0.843   2.771
 9904SOL     OW30610   6.982   3.313   6.684
 9904SOL    HW130611   6.995   3.334   6.587
 9904SOL    HW230612   6.891   3.343   6.713
 9905SOL     OW30613   4.165   1.367   0.461
 9905SOL    HW130614   4.207   1.395   0.374
 9905SOL    HW230615   4.148   1.269   0.461
 9906SOL     OW30616   3.881   2.999   3.047
 9906SOL    HW130617   3.790   2.959   3.040
 9906SOL    HW230618   3.918   3.015   2.955
 9907SOL     OW30619   0.130   0.355   1.929
 9907SOL    HW130620   0.229   0.363   1.940
 9907SOL    HW230621   0.108   0.270   1.882
 9908SOL     OW30622   5.049   2.974   3.071
 9908SOL    HW130623   4.977   2.985   3.140
 9908SOL    HW230624   5.009   2.932   2.989
 9909SOL     OW30625   2.036   6.351   4.872
 9909SOL    HW130626   2.120   6.339   4.924
 9909SOL    HW230627   1.966   6.393   4.930
 9910SOL     OW30628   0.809   4.480   2.783
 9910SOL    HW130629   0.740   4.472   2.855
 9910SOL    HW230630   0.775   4.436   2.700
 9911SOL     OW30631   3.658   6.852   1.976
 9911SOL    HW130632   3.581   6.916   1.969
 9911SOL    HW230633   3.627   6.760   1.950
 9912SOL     OW30634   4.901   1.507   0.586
 9912SOL    HW130635   4.828   1.446   0.617
 9912SOL    HW230636   4.966   1.456   0.530
 9913SOL     OW30637   6.023   3.043   0.496
 9913SOL    HW130638   6.082   3.111   0.453
 9913SOL    HW230639   6.009   2.966   0.434
 9914SOL     OW30640   0.481   2.513   4.800
 9914SOL    HW130641   0.391   2.479   4.827
 9914SOL    HW230642   0.471   2.601   4.753
 9915SOL     OW30643   5.216   1.371   2.999
 9915SOL    HW130644   5.122   1.393   3.022
 9915SOL    HW230645   5.274   1.451   3.014
 9916SOL     OW30646   2.261   2.829   2.379
 9916SOL    HW130647   2.207   2.747   2.358
 9916SOL    HW230648   2.314   2.856   2.298
 9917SOL     OW30649   6.580   4.465   5.700
 9917SOL    HW130650   6.553   4.403   5.626
 9917SOL    HW230651   6.667   4.508   5.677
 9918SOL     OW30652   3.852   1.964   2.893
 9918SOL    HW130653   3.863   1.989   2.989
 9918SOL    HW230654   3.860   1.865   2.883
 9919SOL     OW30655   6.235   6.232   1.480
 9919SOL    HW130656   6.163   6.245   1.411
 9919SOL    HW230657   6.240   6.313   1.539
 9920SOL     OW30658   4.356   1.642   2.745
 9920SOL    HW130659   4.298   1.573   2.703
 9920SOL    HW230660   4.366   1.622   2.843
 9921SOL     OW30661   3.720   5.624   5.934
 9921SOL    HW130662   3.684   5.534   5.958
 9921SOL    HW230663   3.746   5.625   5.837
 9922SOL     OW30664   0.536   5.732   0.690
 9922SOL    HW130665   0.603   5.772   0.627
 9922SOL    HW230666   0.584   5.685   0.763
 9923SOL     OW30667   4.827   5.325   7.021
 9923SOL    HW130668   4.798   5.240   0.040
 9923SOL    HW230669   4.926   5.323   7.006
 9924SOL     OW30670   0.703   3.234   4.942
 9924SOL    HW130671   0.619   3.202   4.986
 9924SOL    HW230672   0.723   3.327   4.972
 9925SOL     OW30673   5.119   2.586   4.781
 9925SOL    HW130674   5.145   2.678   4.752
 9925SOL    HW230675   5.021   2.584   4.803
 9926SOL     OW30676   1.888   4.601   6.953
 9926SOL    HW130677   1.948   4.669   6.997
 9926SOL    HW230678   1.937   4.558   6.877
 9927SOL     OW30679   6.036   0.144   2.873
 9927SOL    HW130680   6.120   0.187   2.906
 9927SOL    HW230681   6.015   0.064   2.930
 9928SOL     OW30682   4.856   4.517   1.390
 9928SOL    HW130683   4.884   4.592   1.330
 9928SOL    HW230684   4.895   4.431   1.357
 9929SOL     OW30685   2.748   5.071   4.652
 9929SOL    HW130686   2.823   5.068   4.586
 9929SOL    HW230687   2.780   5.037   4.740
 9930SOL     OW30688   6.882   0.361   4.530
 9930SOL    HW130689   6.820   0.334   4.604
 9930SOL    HW230690   6.881   0.291   4.458
 9931SOL     OW30691   1.014   4.294   4.707
 9931SOL    HW130692   0.921   4.258   4.703
 9931SOL    HW230693   1.071   4.249   4.638
 9932SOL     OW30694   0.727   6.364   6.516
 9932SOL    HW130695   0.755   6.277   6.556
 9932SOL    HW230696   0.654   6.348   6.449
 9933SOL     OW30697   1.170   5.538   2.002
 9933SOL    HW130698   1.198   5.619   2.053
 9933SOL    HW230699   1.071   5.527   2.009
 9934SOL     OW30700   6.355   2.090   5.563
 9934SOL    HW130701   6.271   2.071   5.614
 9934SOL    HW230702   6.334   2.146   5.483
 9935SOL     OW30703   2.968   0.980   6.322
 9935SOL    HW130704   2.869   0.983   6.327
 9935SOL    HW230705   3.002   1.062   6.276
 9936SOL     OW30706   0.687   4.477   4.373
 9936SOL    HW130707   0.720   4.536   4.299
 9936SOL    HW230708   0.595   4.506   4.400
 9937SOL     OW30709   6.736   2.182   6.064
 9937SOL    HW130710   6.668   2.237   6.112
 9937SOL    HW230711   6.767   2.108   6.123
 9938SOL     OW30712   6.554   6.021   2.545
 9938SOL    HW130713   6.563   5.922   2.533
 9938SOL    HW230714   6.489   6.040   2.618
 9939SOL     OW30715   3.096   3.125   1.676
 9939SOL    HW130716   3.083   3.027   1.693
 9939SOL    HW230717   3.007   3.171   1.677
 9940SOL     OW30718   6.910   0.863   0.903
 9940SOL    HW130719   6.924   0.887   0.807
 9940SOL    HW230720   6.995   0.879   0.954
 9941SOL     OW30721   3.001   4.413   5.667
 9941SOL    HW130722   3.057   4.377   5.593
 9941SOL    HW230723   2.907   4.383   5.656
 9942SOL     OW30724   2.659   5.940   2.843
 9942SOL    HW130725   2.577   5.908   2.794
 9942SOL    HW230726   2.732   5.959   2.777
 9943SOL     OW30727   0.535   6.140   5.988
 9943SOL    HW130728   0.554   6.049   6.025
 9943SOL    HW230729   0.468   6.187   6.046
 9944SOL     OW30730   1.179   3.912   6.643
 9944SOL    HW130731   1.256   3.951   6.695
 9944SOL    HW230732   1.184   3.945   6.549
 9945SOL     OW30733   6.569   5.293   0.545
 9945SOL    HW130734   6.562   5.253   0.636
 9945SOL    HW230735   6.579   5.220   0.477
 9946SOL     OW30736   4.788   0.653   5.124
 9946SOL    HW130737   4.733   0.730   5.093
 9946SOL    HW230738   4.860   0.635   5.057
 9947SOL     OW30739   6.532   4.759   4.613
 9947SOL    HW130740   6.489   4.746   4.702
 9947SOL    HW230741   6.631   4.747   4.621
 9948SOL     OW30742   4.652   4.265   4.925
 9948SOL    HW130743   4.569   4.214   4.948
 9948SOL    HW230744   4.629   4.339   4.861
 9949SOL     OW30745   5.436   5.321   3.042
 9949SOL    HW130746   5.336   5.323   3.041
 9949SOL    HW230747   5.467   5.226   3.032
 9950SOL     OW30748   4.039   6.234   5.410
 9950SOL    HW130749   3.983   6.281   5.342
 9950SOL    HW230750   4.032   6.281   5.498
 9951SOL     OW30751   5.728   2.569   3.252
 9951SOL    HW130752   5.640   2.617   3.252
 9951SOL    HW230753   5.802   2.636   3.249
 9952SOL     OW30754   6.885   4.494   0.450
 9952SOL    HW130755   6.838   4.575   0.415
 9952SOL    HW230756   6.869   4.486   0.549
 9953SOL     OW30757   6.570   1.349   3.512
 9953SOL    HW130758   6.625   1.395   3.582
 9953SOL    HW230759   6.477   1.336   3.546
 9954SOL     OW30760   5.701   6.802   5.352
 9954SOL    HW130761   5.684   6.828   5.447
 9954SOL    HW230762   5.616   6.809   5.300
 9955SOL     OW30763   6.997   3.789   4.169
 9955SOL    HW130764   0.049   3.850   4.192
 9955SOL    HW230765   6.950   3.825   4.088
 9956SOL     OW30766   2.031   6.241   1.826
 9956SOL    HW130767   2.033   6.149   1.787
 9956SOL    HW230768   2.029   6.308   1.752
 9957SOL     OW30769   6.740   4.447   3.700
 9957SOL    HW130770   6.641   4.447   3.715
 9957SOL    HW230771   6.767   4.531   3.655
 9958SOL     OW30772   2.802   3.993   1.045
 9958SOL    HW130773   2.794   4.075   0.987
 9958SOL    HW230774   2.736   3.998   1.119
 9959SOL     OW30775   3.990   3.450   0.076
 9959SOL    HW130776   3.971   3.542   0.042
 9959SOL    HW230777   4.063   3.409   0.021
 9960SOL     OW30778   6.709   1.374   2.629
 9960SOL    HW130779   6.724   1.469   2.601
 9960SOL    HW230780   6.708   1.314   2.549
 9961SOL     OW30781   1.777   5.664   4.490
 9961SOL    HW130782   1.871   5.632   4.499
 9961SOL    HW230783   1.715   5.595   4.525
 9962SOL     OW30784   4.754   6.429   5.072
 9962SOL    HW130785   4.811   6.493   5.021
 9962SOL    HW230786   4.728   6.469   5.160
 9963SOL     OW30787   3.258   1.165   1.011
 9963SOL    HW130788   3.219   1.163   0.919
 9963SOL    HW230789   3.273   1.260   1.039
 9964SOL     OW30790   4.147   6.055   5.033
 9964SOL    HW130791   4.153   6.149   4.998
 9964SOL    HW230792   4.125   5.993   4.958
 9965SOL     OW30793   4.197   0.353   0.197
 9965SOL    HW130794   4.260   0.276   0.187
 9965SOL    HW230795   4.109   0.329   0.157
 9966SOL     OW30796   0.553   6.556   2.270
 9966SOL    HW130797   0.599   6.484   2.218
 9966SOL    HW230798   0.479   6.596   2.215
 9967SOL     OW30799   1.587   5.707   1.246
 9967SOL    HW130800   1.670   5.685   1.195
 9967SOL    HW230801   1.607   5.779   1.312
 9968SOL     OW30802   4.093   3.717   2.372
 9968SOL    HW130803   3.998   3.746   2.366
 9968SOL    HW230804   4.098   3.626   2.412
 9969SOL     OW30805   1.467   3.478   2.091
 9969SOL    HW130806   1.399   3.519   2.151
 9969SOL    HW230807   1.546   3.539   2.085
 9970SOL     OW30808   5.793   4.001   1.729
 9970SOL    HW130809   5.725   3.981   1.658
 9970SOL    HW230810   5.864   3.931   1.727
 9971SOL     OW30811   2.188   4.675   0.771
 9971SOL    HW130812   2.261   4.633   0.716
 9971SOL    HW230813   2.167   4.615   0.848
 9972SOL     OW30814   6.969   4.326   2.397
 9972SOL    HW130815   6.923   4.382   2.329
 9972SOL    HW230816   0.045   4.332   2.385
 9973SOL     OW30817   6.250   1.021   4.294
 9973SOL    HW130818   6.257   1.120   4.287
 9973SOL    HW230819   6.155   0.993   4.281
 9974SOL     OW30820   2.046   1.435   4.273
 9974SOL    HW130821   2.109   1.506   4.305
 9974SOL    HW230822   2.097   1.366   4.221
 9975SOL     OW30823   0.590   2.903   0.145
 9975SOL    HW130824   0.679   2.947   0.151
 9975SOL    HW230825   0.523   2.954   0.199
 9976SOL     OW30826   1.847   6.893   4.824
 9976SOL    HW130827   1.831   6.961   4.752
 9976SOL    HW230828   1.779   6.906   4.897
 9977SOL     OW30829   6.285   4.231   4.536
 9977SOL    HW130830   6.214   4.222   4.467
 9977SOL    HW230831   6.306   4.328   4.549
 9978SOL     OW30832   6.702   1.600   4.282
 9978SOL    HW130833   6.648   1.659   4.222
 9978SOL    HW230834   6.796   1.635   4.288
 9979SOL     OW30835   6.735   3.659   5.196
 9979SOL    HW130836   6.653   3.684   5.145
 9979SOL    HW230837   6.720   3.572   5.243
 9980SOL     OW30838   3.810   0.291   6.172
 9980SOL    HW130839   3.733   0.266   6.113
 9980SOL    HW230840   3.795   0.383   6.209
 9981SOL     OW30841   3.235   2.029   3.980
 9981SOL    HW130842   3.184   2.023   4.066
 9981SOL    HW230843   3.172   2.050   3.906
 9982SOL     OW30844   0.018   6.465   4.159
 9982SOL    HW130845   6.991   6.515   4.230
 9982SOL    HW230846   0.099   6.422   4.200
 9983SOL     OW30847   6.936   1.649   1.927
 9983SOL    HW130848   6.920   1.700   1.842
 9983SOL    HW230849   6.891   1.560   1.922
 9984SOL     OW30850   3.135   2.107   6.618
 9984SOL    HW130851   3.101   2.014   6.630
 9984SOL    HW230852   3.157   2.146   6.707
 9985SOL     OW30853   1.412   0.513   2.156
 9985SOL    HW130854   1.473   0.470   2.090
 9985SOL    HW230855   1.333   0.552   2.109
 9986SOL     OW30856   5.397   3.854   5.039
 9986SOL    HW130857   5.483   3.886   5.079
 9986SOL    HW230858   5.355   3.928   4.986
 9987SOL     OW30859   6.733   3.838   5.833
 9987SOL    HW130860   6.712   3.790   5.748
 9987SOL    HW230861   6.831   3.861   5.834
 9988SOL     OW30862   0.072   6.934   5.301
 9988SOL    HW130863   0.093   7.013   5.244
 9988SOL    HW230864   7.007   6.895   5.274
 9989SOL     OW30865   0.833   3.153   5.258
 9989SOL    HW130866   0.892   3.133   5.180
 9989SOL    HW230867   0.819   3.069   5.311
 9990SOL     OW30868   1.071   5.194   2.698
 9990SOL    HW130869   1.011   5.205   2.777
 9990SOL    HW230870   1.114   5.282   2.677
 9991SOL     OW30871   3.710   2.124   3.661
 9991SOL    HW130872   3.621   2.137   3.617
 9991SOL    HW230873   3.700   2.134   3.760
 9992SOL     OW30874   6.628   5.487   6.036
 9992SOL    HW130875   6.688   5.452   6.108
 9992SOL    HW230876   6.682   5.543   5.973
 9993SOL     OW30877   0.800   1.515   1.883
 9993SOL    HW130878   0.771   1.512   1.978
 9993SOL    HW230879   0.726   1.553   1.827
 9994SOL     OW30880   5.992   4.690   3.179
 9994SOL    HW130881   6.053   4.637   3.238
 9994SOL    HW230882   5.920   4.731   3.235
 9995SOL     OW30883   4.945   1.055   4.554
 9995SOL    HW130884   4.870   0.989   4.564
 9995SOL    HW230885   4.908   1.148   4.556
 9996SOL     OW30886   2.824   3.920   0.067
 9996SOL    HW130887   2.812   3.997   0.004
 9996SOL    HW230888   2.893   3.944   0.136
 9997SOL     OW30889   2.742   0.100   5.273
 9997SOL    HW130890   2.692   0.034   5.329
 9997SOL    HW230891   2.786   0.052   5.197
 9998SOL     OW30892   5.881   5.688   5.644
 9998SOL    HW130893   5.790   5.681   5.683
 9998SOL    HW230894   5.912   5.597   5.616
 9999SOL     OW30895   6.742   1.978   5.000
 9999SOL    HW130896   6.673   1.908   5.016
 9999SOL    HW230897   6.826   1.953   5.049
10000SOL     OW30898   0.238   2.768   6.515
10000SOL    HW130899   0.229   2.867   6.500
10000SOL    HW230900   0.248   2.750   6.613
10001SOL     OW30901   4.225   0.043   2.611
10001SOL    HW130902   4.250   6.998   2.680
10001SOL    HW230903   4.305   0.097   2.588
10002SOL     OW30904   0.567   0.969   2.183
10002SOL    HW130905   0.606   0.905   2.249
10002SOL    HW230906   0.579   0.932   2.090
10003SOL     OW30907   4.296   2.173   3.596
10003SOL    HW130908   4.333   2.086   3.563
10003SOL    HW230909   4.205   2.188   3.557
10004SOL     OW30910   0.012   1.577   3.142
10004SOL    HW130911   0.088   1.592   3.079
10004SOL    HW230912   6.959   1.636   3.115
10005SOL     OW30913   5.233   6.226   4.453
10005SOL    HW130914   5.141   6.189   4.446
10005SOL    HW230915   5.296   6.154   4.483
10006SOL     OW30916   3.501   0.321   4.265
10006SOL    HW130917   3.564   0.360   4.198
10006SOL    HW230918   3.414   0.371   4.261
10007SOL     OW30919   6.555   3.318   3.818
10007SOL    HW130920   6.571   3.226   3.854
10007SOL    HW230921   6.464   3.322   3.775
10008SOL     OW30922   3.212   6.831   3.903
10008SOL    HW130923   3.176   6.775   3.978
10008SOL    HW230924   3.304   6.862   3.926
10009SOL     OW30925   1.096   4.527   1.908
10009SOL    HW130926   1.178   4.546   1.853
10009SOL    HW230927   1.106   4.437   1.952
10010SOL     OW30928   0.847   1.064   6.081
10010SOL    HW130929   0.767   1.008   6.058
10010SOL    HW230930   0.817   1.142   6.137
10011SOL     OW30931   0.262   6.665   4.999
10011SOL    HW130932   0.185   6.620   5.044
10011SOL    HW230933   0.274   6.757   5.037
10012SOL     OW30934   5.680   1.507   3.990
10012SOL    HW130935   5.603   1.454   4.027
10012SOL    HW230936   5.652   1.602   3.977
10013SOL     OW30937   0.509   0.774   3.181
10013SOL    HW130938   0.434   0.755   3.118
10013SOL    HW230939   0.541   0.688   3.222
10014SOL     OW30940   0.987   4.682   6.117
10014SOL    HW130941   0.893   4.686   6.081
10014SOL    HW230942   1.033   4.769   6.098
10015SOL     OW30943   1.651   4.521   0.392
10015SOL    HW130944   1.728   4.556   0.446
10015SOL    HW230945   1.683   4.494   0.301
10016SOL     OW30946   2.597   0.544   5.666
10016SOL    HW130947   2.650   0.466   5.700
10016SOL    HW230948   2.619   0.559   5.570
10017SOL     OW30949   1.145   2.373   4.714
10017SOL    HW130950   1.133   2.417   4.625
10017SOL    HW230951   1.227   2.316   4.712
10018SOL     OW30952   5.167   6.942   6.453
10018SOL    HW130953   5.140   7.010   6.385
10018SOL    HW230954   5.258   6.908   6.431
10019SOL     OW30955   0.880   1.199   2.643
10019SOL    HW130956   0.934   1.193   2.559
10019SOL    HW230957   0.867   1.295   2.667
10020SOL     OW30958   0.493   3.183   1.312
10020SOL    HW130959   0.587   3.151   1.316
10020SOL    HW230960   0.431   3.106   1.331
10021SOL     OW30961   6.937   3.761   0.432
10021SOL    HW130962   6.868   3.738   0.364
10021SOL    HW230963   0.003   3.730   0.401
10022SOL     OW30964   1.850   1.412   6.402
10022SOL    HW130965   1.905   1.330   6.392
10022SOL    HW230966   1.761   1.388   6.441
10023SOL     OW30967   0.184   3.436   0.471
10023SOL    HW130968   0.187   3.521   0.417
10023SOL    HW230969   0.138   3.453   0.558
10024SOL     OW30970   1.489   4.752   3.936
10024SOL    HW130971   1.581   4.789   3.950
10024SOL    HW230972   1.490   4.653   3.951
10025SOL     OW30973   1.423   1.420   0.568
10025SOL    HW130974   1.515   1.458   0.562
10025SOL    HW230975   1.412   1.373   0.656
10026SOL     OW30976   0.064   0.413   3.838
10026SOL    HW130977   0.108   0.344   3.896
10026SOL    HW230978   0.097   0.403   3.744
10027SOL     OW30979   4.632   2.455   5.541
10027SOL    HW130980   4.657   2.483   5.634
10027SOL    HW230981   4.645   2.533   5.479
10028SOL     OW30982   1.972   0.846   1.084
10028SOL    HW130983   1.961   0.809   1.175
10028SOL    HW230984   2.062   0.888   1.076
10029SOL     OW30985   5.626   2.024   3.611
10029SOL    HW130986   5.708   2.035   3.667
10029SOL    HW230987   5.651   1.986   3.522
10030SOL     OW30988   2.088   0.602   3.362
10030SOL    HW130989   2.070   0.504   3.360
10030SOL    HW230990   2.135   0.626   3.447
10031SOL     OW30991   6.798   4.232   5.088
10031SOL    HW130992   6.748   4.146   5.075
10031SOL    HW230993   6.835   4.263   5.000
10032SOL     OW30994   3.051   1.340   4.889
10032SOL    HW130995   3.070   1.334   4.791
10032SOL    HW230996   2.964   1.296   4.909
10033SOL     OW30997   5.646   2.628   4.953
10033SOL    HW130998   5.696   2.630   5.039
10033SOL    HW230999   5.582   2.551   4.953
10034SOL     OW31000   5.451   0.696   6.039
10034SOL    HW131001   5.422   0.759   6.111
10034SOL    HW231002   5.504   0.621   6.080
10035SOL     OW31003   0.146   6.562   1.946
10035SOL    HW131004   0.048   6.551   1.964
10035SOL    HW231005   0.184   6.474   1.918
10036SOL     OW31006   6.955   0.995   0.664
10036SOL    HW131007   6.889   1.003   0.589
10036SOL    HW231008   0.020   0.966   0.628
10037SOL     OW31009   0.730   6.888   0.950
10037SOL    HW131010   0.749   6.982   0.923
10037SOL    HW231011   0.781   6.866   1.034
10038SOL     OW31012   6.344   0.609   1.179
10038SOL    HW131013   6.279   0.675   1.140
10038SOL    HW231014   6.416   0.591   1.112
10039SOL     OW31015   3.144   0.514   3.463
10039SOL    HW131016   3.126   0.491   3.367
10039SOL    HW231017   3.176   0.432   3.511
10040SOL     OW31018   0.736   3.092   1.361
10040SOL    HW131019   0.799   3.151   1.310
10040SOL    HW231020   0.780   3.060   1.445
10041SOL     OW31021   2.081   6.090   0.159
10041SOL    HW131022   2.011   6.085   0.087
10041SOL    HW231023   2.101   5.998   0.193
10042SOL     OW31024   5.704   3.280   2.485
10042SOL    HW131025   5.665   3.224   2.558
10042SOL    HW231026   5.638   3.290   2.410
10043SOL     OW31027   0.475   2.170   4.741
10043SOL    HW131028   0.473   2.269   4.756
10043SOL    HW231029   0.384   2.139   4.714
10044SOL     OW31030   3.464   1.248   5.661
10044SOL    HW131031   3.364   1.248   5.661
10044SOL    HW231032   3.497   1.154   5.652
10045SOL     OW31033   3.130   1.273   0.789
10045SOL    HW131034   3.048   1.321   0.821
10045SOL    HW231035   3.137   1.282   0.690
10046SOL     OW31036   0.833   5.426   0.857
10046SOL    HW131037   0.850   5.367   0.778
10046SOL    HW231038   0.762   5.385   0.914
10047SOL     OW31039   1.111   3.545   1.045
10047SOL    HW131040   1.177   3.475   1.072
10047SOL    HW231041   1.095   3.606   1.122
10048SOL     OW31042   6.026   5.420   3.429
10048SOL    HW131043   6.100   5.413   3.496
10048SOL    HW231044   6.035   5.348   3.360
10049SOL     OW31045   6.586   0.705   5.481
10049SOL    HW131046   6.566   0.626   5.538
10049SOL    HW231047   6.502   0.758   5.467
10050SOL     OW31048   0.267   2.745   6.794
10050SOL    HW131049   0.230   2.803   6.867
10050SOL    HW231050   0.315   2.667   6.834
10051SOL     OW31051   2.394   2.370   3.919
10051SOL    HW131052   2.481   2.376   3.967
10051SOL    HW231053   2.352   2.461   3.916
10052SOL     OW31054   1.157   6.827   3.357
10052SOL    HW131055   1.202   6.832   3.268
10052SOL    HW231056   1.085   6.758   3.354
10053SOL     OW31057   5.882   5.210   3.915
10053SOL    HW131058   5.942   5.137   3.948
10053SOL    HW231059   5.843   5.259   3.993
10054SOL     OW31060   6.985   3.648   4.956
10054SOL    HW131061   0.003   3.601   4.878
10054SOL    HW231062   6.886   3.640   4.952
10055SOL     OW31063   1.563   2.647   6.394
10055SOL    HW131064   1.655   2.649   6.434
10055SOL    HW231065   1.563   2.699   6.309
10056SOL     OW31066   5.891   2.007   3.690
10056SOL    HW131067   5.898   1.935   3.621
10056SOL    HW231068   5.966   1.998   3.755
10057SOL     OW31069   5.695   5.125   5.219
10057SOL    HW131070   5.698   5.147   5.317
10057SOL    HW231071   5.711   5.027   5.207
10058SOL     OW31072   0.116   3.214   4.961
10058SOL    HW131073   0.145   3.131   5.008
10058SOL    HW231074   0.196   3.263   4.926
10059SOL     OW31075   5.900   6.985   0.131
10059SOL    HW131076   5.969   0.010   0.077
10059SOL    HW231077   5.809   7.004   0.092
10060SOL     OW31078   2.639   1.961   1.712
10060SOL    HW131079   2.697   2.026   1.665
10060SOL    HW231080   2.678   1.869   1.704
10061SOL     OW31081   3.532   6.916   2.234
10061SOL    HW131082   3.568   6.958   2.318
10061SOL    HW231083   3.596   6.932   2.159
10062SOL     OW31084   0.807   6.627   4.872
10062SOL    HW131085   0.714   6.648   4.841
10062SOL    HW231086   0.862   6.711   4.872
10063SOL     OW31087   2.030   2.343   5.102
10063SOL    HW131088   2.066   2.339   5.008
10063SOL    HW231089   1.958   2.412   5.107
10064SOL     OW31090   2.680   0.121   0.464
10064SOL    HW131091   2.674   0.115   0.564
10064SOL    HW231092   2.631   0.203   0.432
10065SOL     OW31093   0.451   2.390   1.609
10065SOL    HW131094   0.458   2.453   1.686
10065SOL    HW231095   0.491   2.302   1.634
10066SOL     OW31096   6.142   4.683   4.369
10066SOL    HW131097   6.209   4.631   4.422
10066SOL    HW231098   6.189   4.745   4.306
10067SOL     OW31099   6.855   2.590   5.175
10067SOL    HW131100   6.876   2.509   5.229
10067SOL    HW231101   6.759   2.614   5.186
10068SOL     OW31102   1.687   3.679   2.696
10068SOL    HW131103   1.781   3.710   2.716
10068SOL    HW231104   1.687   3.624   2.613
10069SOL     OW31105   2.767   4.736   0.295
10069SOL    HW131106   2.832   4.785   0.352
10069SOL    HW231107   2.731   4.797   0.224
10070SOL     OW31108   4.837   6.831   6.739
10070SOL    HW131109   4.881   6.918   6.715
10070SOL    HW231110   4.907   6.764   6.764
10071SOL     OW31111   6.196   0.577   5.009
10071SOL    HW131112   6.226   0.513   4.939
10071SOL    HW231113   6.229   0.669   4.987
10072SOL     OW31114   6.234   3.310   1.268
10072SOL    HW131115   6.178   3.280   1.345
10072SOL    HW231116   6.201   3.267   1.184
10073SOL     OW31117   5.663   4.575   5.094
10073SOL    HW131118   5.686   4.513   5.169
10073SOL    HW231119   5.609   4.526   5.025
10074SOL     OW31120   2.059   4.922   0.667
10074SOL    HW131121   2.109   5.000   0.703
10074SOL    HW231122   2.100   4.837   0.701
10075SOL     OW31123   1.211   3.506   1.871
10075SOL    HW131124   1.227   3.515   1.773
10075SOL    HW231125   1.298   3.491   1.918
10076SOL     OW31126   5.530   5.329   4.284
10076SOL    HW131127   5.516   5.411   4.228
10076SOL    HW231128   5.464   5.258   4.257
10077SOL     OW31129   4.847   3.926   6.503
10077SOL    HW131130   4.902   3.852   6.541
10077SOL    HW231131   4.766   3.940   6.559
10078SOL     OW31132   6.319   5.249   4.860
10078SOL    HW131133   6.419   5.251   4.864
10078SOL    HW231134   6.287   5.319   4.796
10079SOL     OW31135   4.871   3.521   4.017
10079SOL    HW131136   4.909   3.591   4.078
10079SOL    HW231137   4.815   3.565   3.947
10080SOL     OW31138   5.112   1.426   5.783
10080SOL    HW131139   5.116   1.384   5.693
10080SOL    HW231140   5.028   1.479   5.792
10081SOL     OW31141   1.167   4.493   0.752
10081SOL    HW131142   1.224   4.574   0.771
10081SOL    HW231143   1.214   4.435   0.686
10082SOL     OW31144   1.390   4.577   1.823
10082SOL    HW131145   1.436   4.666   1.823
10082SOL    HW231146   1.453   4.508   1.858
10083SOL     OW31147   2.947   5.882   2.268
10083SOL    HW131148   2.929   5.800   2.322
10083SOL    HW231149   2.862   5.935   2.259
10084SOL     OW31150   0.697   1.853   4.503
10084SOL    HW131151   0.721   1.876   4.409
10084SOL    HW231152   0.680   1.937   4.554
10085SOL     OW31153   5.349   6.948   0.995
10085SOL    HW131154   5.327   6.894   1.077
10085SOL    HW231155   5.266   6.992   0.961
10086SOL     OW31156   4.689   6.690   3.329
10086SOL    HW131157   4.635   6.701   3.246
10086SOL    HW231158   4.785   6.676   3.304
10087SOL     OW31159   1.324   5.443   5.303
10087SOL    HW131160   1.224   5.445   5.314
10087SOL    HW231161   1.359   5.355   5.335
10088SOL     OW31162   6.676   3.134   1.999
10088SOL    HW131163   6.691   3.114   2.096
10088SOL    HW231164   6.596   3.193   1.989
10089SOL     OW31165   3.682   0.542   1.421
10089SOL    HW131166   3.722   0.450   1.429
10089SOL    HW231167   3.591   0.542   1.461
10090SOL     OW31168   1.859   6.513   3.580
10090SOL    HW131169   1.814   6.435   3.624
10090SOL    HW231170   1.832   6.517   3.484
10091SOL     OW31171   5.800   4.654   4.625
10091SOL    HW131172   5.727   4.719   4.602
10091SOL    HW231173   5.812   4.652   4.724
10092SOL     OW31174   1.172   2.449   3.947
10092SOL    HW131175   1.270   2.470   3.944
10092SOL    HW231176   1.149   2.414   4.038
10093SOL     OW31177   4.547   4.115   5.983
10093SOL    HW131178   4.584   4.076   6.067
10093SOL    HW231179   4.449   4.133   5.994
10094SOL     OW31180   3.585   1.832   1.070
10094SOL    HW131181   3.572   1.800   1.164
10094SOL    HW231182   3.664   1.892   1.065
10095SOL     OW31183   4.292   3.277   5.304
10095SOL    HW131184   4.284   3.202   5.370
10095SOL    HW231185   4.243   3.253   5.220
10096SOL     OW31186   6.803   3.401   2.065
10096SOL    HW131187   6.748   3.386   1.982
10096SOL    HW231188   6.833   3.313   2.101
10097SOL     OW31189   0.419   1.588   0.994
10097SOL    HW131190   0.435   1.575   0.896
10097SOL    HW231191   0.323   1.613   1.009
10098SOL     OW31192   3.322   5.296   4.613
10098SOL    HW131193   3.373   5.356   4.673
10098SOL    HW231194   3.362   5.299   4.521
10099SOL     OW31195   0.327   5.354   2.968
10099SOL    HW131196   0.229   5.375   2.964
10099SOL    HW231197   0.340   5.263   3.006
10100SOL     OW31198   5.411   4.609   3.838
10100SOL    HW131199   5.491   4.615   3.778
10100SOL    HW231200   5.372   4.700   3.851
10101SOL     OW31201   6.415   3.329   0.274
10101SOL    HW131202   6.489   3.321   0.341
10101SOL    HW231203   6.429   3.411   0.219
10102SOL     OW31204   6.712   4.937   3.576
10102SOL    HW131205   6.717   4.999   3.498
10102SOL    HW231206   6.801   4.934   3.621
10103SOL     OW31207   0.520   6.264   6.661
10103SOL    HW131208   0.610   6.299   6.688
10103SOL    HW231209   0.452   6.297   6.726
10104SOL     OW31210   2.576   0.982   4.596
10104SOL    HW131211   2.562   1.026   4.685
10104SOL    HW231212   2.662   1.016   4.556
10105SOL     OW31213   2.420   1.195   4.274
10105SOL    HW131214   2.470   1.273   4.313
10105SOL    HW231215   2.466   1.110   4.298
10106SOL     OW31216   5.409   4.285   1.575
10106SOL    HW131217   5.332   4.346   1.591
10106SOL    HW231218   5.479   4.300   1.645
10107SOL     OW31219   5.408   5.503   0.041
10107SOL    HW131220   5.498   5.507   7.020
10107SOL    HW231221   5.365   5.415   0.021
10108SOL     OW31222   2.073   2.740   4.897
10108SOL    HW131223   2.014   2.666   4.867
10108SOL    HW231224   2.101   2.724   4.992
10109SOL     OW31225   1.036   2.348   1.184
10109SOL    HW131226   1.072   2.441   1.180
10109SOL    HW231227   1.108   2.286   1.214
10110SOL     OW31228   5.787   5.782   2.902
10110SOL    HW131229   5.705   5.746   2.856
10110SOL    HW231230   5.779   5.768   3.001
10111SOL     OW31231   6.744   2.709   2.040
10111SOL    HW131232   6.829   2.669   2.074
10111SOL    HW231233   6.671   2.696   2.108
10112SOL     OW31234   6.442   2.587   3.917
10112SOL    HW131235   6.409   2.653   3.985
10112SOL    HW231236   6.408   2.613   3.826
10113SOL     OW31237   6.193   0.214   6.387
10113SOL    HW131238   6.279   0.165   6.372
10113SOL    HW231239   6.204   0.310   6.360
10114SOL     OW31240   6.033   3.171   1.944
10114SOL    HW131241   6.014   3.133   1.853
10114SOL    HW231242   6.123   3.141   1.974
10115SOL     OW31243   3.287   2.432   5.842
10115SOL    HW131244   3.318   2.526   5.859
10115SOL    HW231245   3.359   2.381   5.795
10116SOL     OW31246   0.261   0.351   6.155
10116SOL    HW131247   0.325   0.405   6.209
10116SOL    HW231248   0.169   0.357   6.196
10117SOL     OW31249   6.588   4.198   2.967
10117SOL    HW131250   6.662   4.143   2.929
10117SOL    HW231251   6.521   4.138   3.011
10118SOL     OW31252   3.793   4.874   3.400
10118SOL    HW131253   3.715   4.868   3.462
10118SOL    HW231254   3.794   4.963   3.355
10119SOL     OW31255   6.125   6.252   6.769
10119SOL    HW131256   6.174   6.297   6.694
10119SOL    HW231257   6.115   6.317   6.845
10120SOL     OW31258   2.629   2.046   3.322
10120SOL    HW131259   2.596   1.994   3.243
10120SOL    HW231260   2.697   1.992   3.371
10121SOL     OW31261   6.921   5.218   1.339
10121SOL    HW131262   6.981   5.143   1.368
10121SOL    HW231263   6.952   5.303   1.382
10122SOL     OW31264   1.998   0.328   3.344
10122SOL    HW131265   2.024   0.265   3.418
10122SOL    HW231266   2.059   0.316   3.266
10123SOL     OW31267   0.074   5.838   6.579
10123SOL    HW131268   0.076   5.937   6.573
10123SOL    HW231269   0.155   5.800   6.533
10124SOL     OW31270   2.112   5.379   2.460
10124SOL    HW131271   2.058   5.295   2.465
10124SOL    HW231272   2.068   5.451   2.513
10125SOL     OW31273   0.861   0.614   4.561
10125SOL    HW131274   0.916   0.537   4.592
10125SOL    HW231275   0.777   0.581   4.519
10126SOL     OW31276   6.739   6.181   5.699
10126SOL    HW131277   6.693   6.178   5.788
10126SOL    HW231278   6.820   6.240   5.706
10127SOL     OW31279   2.338   6.648   6.120
10127SOL    HW131280   2.415   6.705   6.091
10127SOL    HW231281   2.303   6.597   6.042
10128SOL     OW31282   2.324   2.934   6.960
10128SOL    HW131283   2.398   2.989   6.998
10128SOL    HW231284   2.253   2.994   6.924
10129SOL     OW31285   5.989   1.740   5.167
10129SOL    HW131286   6.044   1.724   5.085
10129SOL    HW231287   5.917   1.806   5.146
10130SOL     OW31288   0.272   1.951   3.823
10130SOL    HW131289   0.368   1.967   3.846
10130SOL    HW231290   0.237   2.028   3.771
10131SOL     OW31291   1.920   6.384   5.343
10131SOL    HW131292   1.889   6.362   5.251
10131SOL    HW231293   2.019   6.398   5.342
10132SOL     OW31294   5.316   6.767   2.254
10132SOL    HW131295   5.254   6.814   2.190
10132SOL    HW231296   5.281   6.778   2.347
10133SOL     OW31297   5.485   6.104   1.037
10133SOL    HW131298   5.408   6.090   1.099
10133SOL    HW231299   5.571   6.084   1.085
10134SOL     OW31300   0.097   6.625   3.532
10134SOL    HW131301   0.055   6.558   3.593
10134SOL    HW231302   0.179   6.663   3.575
10135SOL     OW31303   6.219   6.714   3.012
10135SOL    HW131304   6.318   6.703   3.007
10135SOL    HW231305   6.176   6.661   2.939
10136SOL     OW31306   4.761   1.285   3.408
10136SOL    HW131307   4.686   1.336   3.366
10136SOL    HW231308   4.838   1.347   3.425
10137SOL     OW31309   6.500   5.602   4.587
10137SOL    HW131310   6.594   5.570   4.595
10137SOL    HW231311   6.494   5.696   4.620
10138SOL     OW31312   6.970   2.594   2.103
10138SOL    HW131313   7.017   2.637   2.025
10138SOL    HW231314   6.984   2.495   2.100
10139SOL     OW31315   3.207   3.122   6.437
10139SOL    HW131316   3.124   3.149   6.486
10139SOL    HW231317   3.185   3.103   6.341
10140SOL     OW31318   0.560   5.994   5.267
10140SOL    HW131319   0.555   6.061   5.192
10140SOL    HW231320   0.616   5.917   5.238
10141SOL     OW31321   1.935   2.510   3.895
10141SOL    HW131322   1.991   2.462   3.963
10141SOL    HW231323   1.857   2.454   3.870
10142SOL     OW31324   4.854   5.646   3.229
10142SOL    HW131325   4.805   5.662   3.144
10142SOL    HW231326   4.795   5.599   3.294
10143SOL     OW31327   5.827   2.909   5.983
10143SOL    HW131328   5.869   2.994   5.951
10143SOL    HW231329   5.822   2.843   5.908
10144SOL     OW31330   3.235   0.036   0.705
10144SOL    HW131331   3.172   6.983   0.694
10144SOL    HW231332   3.324   0.011   0.666
10145SOL     OW31333   6.651   6.463   6.399
10145SOL    HW131334   6.696   6.498   6.317
10145SOL    HW231335   6.701   6.494   6.480
10146SOL     OW31336   1.453   3.111   5.509
10146SOL    HW131337   1.429   3.176   5.582
10146SOL    HW231338   1.552   3.106   5.500
10147SOL     OW31339   3.967   6.137   6.288
10147SOL    HW131340   4.010   6.190   6.215
10147SOL    HW231341   3.868   6.133   6.272
10148SOL     OW31342   0.619   4.546   6.532
10148SOL    HW131343   0.676   4.507   6.605
10148SOL    HW231344   0.545   4.599   6.572
10149SOL     OW31345   3.777   3.721   1.626
10149SOL    HW131346   3.742   3.797   1.572
10149SOL    HW231347   3.863   3.747   1.670
10150SOL     OW31348   4.738   4.058   1.325
10150SOL    HW131349   4.707   3.964   1.340
10150SOL    HW231350   4.772   4.067   1.232
10151SOL     OW31351   0.075   0.616   6.158
10151SOL    HW131352   0.160   0.625   6.107
10151SOL    HW231353   0.087   0.651   6.251
10152SOL     OW31354   4.005   0.003   3.089
10152SOL    HW131355   4.011   6.927   3.083
10152SOL    HW231356   4.094   0.044   3.069
10153SOL     OW31357   4.588   4.067   1.700
10153SOL    HW131358   4.661   4.108   1.645
10153SOL    HW231359   4.546   4.137   1.757
10154SOL     OW31360   3.814   5.117   5.520
10154SOL    HW131361   3.874   5.037   5.527
10154SOL    HW231362   3.719   5.087   5.512
10155SOL     OW31363   4.243   1.631   3.787
10155SOL    HW131364   4.182   1.554   3.769
10155SOL    HW231365   4.203   1.689   3.858
10156SOL     OW31366   3.996   1.528   5.853
10156SOL    HW131367   3.911   1.540   5.905
10156SOL    HW231368   4.009   1.606   5.792
10157SOL     OW31369   0.425   4.312   1.350
10157SOL    HW131370   0.377   4.225   1.345
10157SOL    HW231371   0.495   4.316   1.280
10158SOL     OW31372   5.735   5.343   6.886
10158SOL    HW131373   5.734   5.375   6.981
10158SOL    HW231374   5.795   5.264   6.878
10159SOL     OW31375   3.320   2.861   1.789
10159SOL    HW131376   3.226   2.864   1.822
10159SOL    HW231377   3.383   2.870   1.866
10160SOL     OW31378   0.127   4.089   2.564
10160SOL    HW131379   0.191   4.166   2.559
10160SOL    HW231380   0.053   4.112   2.628
10161SOL     OW31381   5.409   3.158   5.882
10161SOL    HW131382   5.466   3.169   5.963
10161SOL    HW231383   5.389   3.061   5.868
10162SOL     OW31384   1.680   3.051   2.136
10162SOL    HW131385   1.631   3.123   2.086
10162SOL    HW231386   1.652   2.961   2.101
10163SOL     OW31387   2.925   5.238   4.975
10163SOL    HW131388   2.924   5.270   4.880
10163SOL    HW231389   2.882   5.147   4.980
10164SOL     OW31390   6.918   1.211   3.704
10164SOL    HW131391   6.874   1.234   3.791
10164SOL    HW231392   7.001   1.158   3.722
10165SOL     OW31393   1.258   3.539   3.967
10165SOL    HW131394   1.201   3.619   3.982
10165SOL    HW231395   1.349   3.567   3.938
10166SOL     OW31396   2.514   6.384   2.671
10166SOL    HW131397   2.586   6.340   2.725
10166SOL    HW231398   2.478   6.318   2.605
10167SOL     OW31399   2.350   2.447   6.178
10167SOL    HW131400   2.251   2.455   6.171
10167SOL    HW231401   2.373   2.359   6.221
10168SOL     OW31402   0.315   0.370   0.225
10168SOL    HW131403   0.308   0.397   0.129
10168SOL    HW231404   0.319   0.270   0.231
10169SOL     OW31405   4.626   5.135   3.797
10169SOL    HW131406   4.674   5.048   3.785
10169SOL    HW231407   4.541   5.134   3.744
10170SOL     OW31408   5.057   6.406   0.728
10170SOL    HW131409   5.081   6.440   0.819
10170SOL    HW231410   5.013   6.479   0.676
10171SOL     OW31411   2.463   4.551   4.877
10171SOL    HW131412   2.385   4.604   4.910
10171SOL    HW231413   2.439   4.504   4.792
10172SOL     OW31414   6.841   0.835   2.761
10172SOL    HW131415   6.790   0.785   2.831
10172SOL    HW231416   6.892   0.769   2.704
10173SOL     OW31417   3.803   3.442   5.059
10173SOL    HW131418   3.709   3.473   5.041
10173SOL    HW231419   3.807   3.342   5.050
10174SOL     OW31420   4.628   5.084   1.124
10174SOL    HW131421   4.543   5.136   1.131
10174SOL    HW231422   4.705   5.142   1.152
10175SOL     OW31423   6.332   6.674   4.588
10175SOL    HW131424   6.268   6.750   4.582
10175SOL    HW231425   6.348   6.636   4.497
10176SOL     OW31426   0.443   0.597   4.837
10176SOL    HW131427   0.358   0.559   4.874
10176SOL    HW231428   0.490   0.648   4.910
10177SOL     OW31429   2.494   0.659   4.180
10177SOL    HW131430   2.478   0.720   4.102
10177SOL    HW231431   2.411   0.605   4.198
10178SOL     OW31432   0.490   1.834   1.258
10178SOL    HW131433   0.420   1.876   1.199
10178SOL    HW231434   0.565   1.899   1.272
10179SOL     OW31435   0.263   5.773   0.653
10179SOL    HW131436   0.360   5.760   0.672
10179SOL    HW231437   0.230   5.695   0.599
10180SOL     OW31438   3.688   6.735   6.562
10180SOL    HW131439   3.612   6.775   6.613
10180SOL    HW231440   3.659   6.649   6.520
10181SOL     OW31441   6.652   3.525   3.550
10181SOL    HW131442   6.668   3.532   3.649
10181SOL    HW231443   6.740   3.533   3.502
10182SOL     OW31444   4.106   0.623   1.006
10182SOL    HW131445   4.130   0.565   1.084
10182SOL    HW231446   4.151   0.588   0.924
10183SOL     OW31447   4.478   6.403   5.707
10183SOL    HW131448   4.495   6.461   5.628
10183SOL    HW231449   4.519   6.444   5.788
10184SOL     OW31450   5.114   1.999   5.365
10184SOL    HW131451   5.127   2.090   5.404
10184SOL    HW231452   5.046   1.949   5.418
10185SOL     OW31453   3.337   5.277   1.724
10185SOL    HW131454   3.385   5.268   1.811
10185SOL    HW231455   3.270   5.204   1.714
10186SOL     OW31456   3.800   3.342   6.770
10186SOL    HW131457   3.761   3.380   6.854
10186SOL    HW231458   3.738   3.273   6.733
10187SOL     OW31459   2.084   4.208   5.470
10187SOL    HW131460   2.110   4.263   5.550
10187SOL    HW231461   2.149   4.225   5.395
10188SOL     OW31462   2.653   7.005   6.251
10188SOL    HW131463   2.617   6.930   6.306
10188SOL    HW231464   2.747   0.002   6.280
10189SOL     OW31465   1.656   1.589   4.754
10189SOL    HW131466   1.601   1.580   4.671
10189SOL    HW231467   1.749   1.618   4.729
10190SOL     OW31468   4.441   4.018   0.887
10190SOL    HW131469   4.454   4.023   0.986
10190SOL    HW231470   4.408   3.927   0.862
10191SOL     OW31471   5.107   0.354   0.108
10191SOL    HW131472   5.036   0.344   0.177
10191SOL    HW231473   5.150   0.265   0.090
10192SOL     OW31474   1.899   0.952   4.711
10192SOL    HW131475   1.974   1.010   4.679
10192SOL    HW231476   1.854   0.996   4.789
10193SOL     OW31477   3.932   3.480   3.758
10193SOL    HW131478   3.997   3.556   3.755
10193SOL    HW231479   3.967   3.404   3.704
10194SOL     OW31480   3.041   0.472   3.191
10194SOL    HW131481   3.088   0.446   3.107
10194SOL    HW231482   2.943   0.456   3.180
10195SOL     OW31483   5.358   0.243   2.325
10195SOL    HW131484   5.379   0.211   2.232
10195SOL    HW231485   5.408   0.328   2.342
10196SOL     OW31486   5.222   3.811   4.760
10196SOL    HW131487   5.209   3.746   4.835
10196SOL    HW231488   5.226   3.762   4.674
10197SOL     OW31489   5.168   1.663   2.796
10197SOL    HW131490   5.262   1.634   2.780
10197SOL    HW231491   5.106   1.606   2.742
10198SOL     OW31492   2.757   1.122   1.709
10198SOL    HW131493   2.715   1.110   1.799
10198SOL    HW231494   2.780   1.032   1.671
10199SOL     OW31495   0.999   2.286   0.767
10199SOL    HW131496   1.009   2.238   0.680
10199SOL    HW231497   0.959   2.376   0.751
10200SOL     OW31498   5.941   5.470   5.520
10200SOL    HW131499   5.888   5.385   5.530
10200SOL    HW231500   5.983   5.472   5.429
10201SOL     OW31501   1.936   4.904   3.068
10201SOL    HW131502   1.960   4.927   3.163
10201SOL    HW231503   1.919   4.988   3.017
10202SOL     OW31504   0.700   2.381   3.189
10202SOL    HW131505   0.764   2.448   3.152
10202SOL    HW231506   0.650   2.421   3.265
10203SOL     OW31507   1.094   3.231   1.699
10203SOL    HW131508   1.129   3.234   1.793
10203SOL    HW231509   1.039   3.313   1.681
10204SOL     OW31510   2.860   4.821   3.926
10204SOL    HW131511   2.910   4.826   4.012
10204SOL    HW231512   2.763   4.837   3.943
10205SOL     OW31513   4.558   0.605   1.229
10205SOL    HW131514   4.589   0.536   1.295
10205SOL    HW231515   4.545   0.692   1.276
10206SOL     OW31516   5.254   0.180   6.184
10206SOL    HW131517   5.196   0.099   6.179
10206SOL    HW231518   5.281   0.195   6.279
10207SOL     OW31519   3.930   1.476   3.178
10207SOL    HW131520   3.854   1.455   3.117
10207SOL    HW231521   3.998   1.403   3.175
10208SOL     OW31522   6.579   3.950   5.492
10208SOL    HW131523   6.611   3.861   5.526
10208SOL    HW231524   6.573   4.015   5.568
10209SOL     OW31525   5.056   6.686   6.827
10209SOL    HW131526   5.091   6.603   6.869
10209SOL    HW231527   5.130   6.732   6.777
10210SOL     OW31528   5.500   6.003   0.781
10210SOL    HW131529   5.497   6.057   0.865
10210SOL    HW231530   5.594   5.976   0.761
10211SOL     OW31531   3.455   5.644   4.986
10211SOL    HW131532   3.527   5.714   4.989
10211SOL    HW231533   3.377   5.674   5.041
10212SOL     OW31534   5.902   5.949   5.710
10212SOL    HW131535   5.898   5.855   5.676
10212SOL    HW231536   5.850   5.957   5.795
10213SOL     OW31537   4.795   0.725   4.523
10213SOL    HW131538   4.855   0.737   4.444
10213SOL    HW231539   4.718   0.665   4.498
10214SOL     OW31540   0.370   1.168   1.263
10214SOL    HW131541   0.421   1.251   1.280
10214SOL    HW231542   0.348   1.124   1.350
10215SOL     OW31543   3.827   2.736   6.643
10215SOL    HW131544   3.920   2.764   6.668
10215SOL    HW231545   3.831   2.653   6.588
10216SOL     OW31546   4.683   6.855   2.446
10216SOL    HW131547   4.720   6.840   2.354
10216SOL    HW231548   4.687   6.770   2.498
10217SOL     OW31549   3.028   2.120   5.866
10217SOL    HW131550   3.055   2.211   5.835
10217SOL    HW231551   3.090   2.051   5.828
10218SOL     OW31552   2.663   2.368   6.989
10218SOL    HW131553   2.624   2.313   0.039
10218SOL    HW231554   2.761   2.350   6.982
10219SOL     OW31555   0.708   4.488   6.776
10219SOL    HW131556   0.729   4.412   6.838
10219SOL    HW231557   0.771   4.564   6.793
10220SOL     OW31558   4.282   2.883   0.346
10220SOL    HW131559   4.266   2.937   0.429
10220SOL    HW231560   4.219   2.912   0.275
10221SOL     OW31561   3.287   1.331   4.383
10221SOL    HW131562   3.272   1.411   4.441
10221SOL    HW231563   3.203   1.310   4.333
10222SOL     OW31564   1.802   5.095   5.593
10222SOL    HW131565   1.824   5.049   5.507
10222SOL    HW231566   1.771   5.028   5.660
10223SOL     OW31567   6.883   4.380   0.900
10223SOL    HW131568   6.935   4.310   0.852
10223SOL    HW231569   6.809   4.337   0.952
10224SOL     OW31570   2.210   0.385   4.888
10224SOL    HW131571   2.125   0.358   4.933
10224SOL    HW231572   2.270   0.431   4.954
10225SOL     OW31573   4.921   6.057   3.924
10225SOL    HW131574   5.005   6.109   3.908
10225SOL    HW231575   4.892   6.069   4.019
10226SOL     OW31576   0.188   2.934   7.022
10226SOL    HW131577   0.223   2.861   0.056
10226SOL    HW231578   0.090   2.947   0.018
10227SOL     OW31579   6.187   5.611   6.043
10227SOL    HW131580   6.163   5.526   6.092
10227SOL    HW231581   6.127   5.685   6.074
10228SOL     OW31582   1.279   4.060   2.583
10228SOL    HW131583   1.182   4.037   2.587
10228SOL    HW231584   1.333   3.976   2.589
10229SOL     OW31585   1.757   1.534   1.792
10229SOL    HW131586   1.689   1.464   1.811
10229SOL    HW231587   1.734   1.618   1.842
10230SOL     OW31588   6.009   6.713   4.601
10230SOL    HW131589   5.982   6.734   4.695
10230SOL    HW231590   6.056   6.792   4.562
10231SOL     OW31591   4.881   0.255   4.614
10231SOL    HW131592   4.951   0.304   4.666
10231SOL    HW231593   4.917   0.232   4.524
10232SOL     OW31594   4.345   1.899   3.676
10232SOL    HW131595   4.362   1.947   3.762
10232SOL    HW231596   4.274   1.829   3.690
10233SOL     OW31597   5.088   0.928   5.327
10233SOL    HW131598   5.002   0.941   5.377
10233SOL    HW231599   5.083   0.975   5.239
10234SOL     OW31600   4.571   5.914   1.823
10234SOL    HW131601   4.642   5.982   1.839
10234SOL    HW231602   4.607   5.841   1.765
10235SOL     OW31603   4.908   1.574   6.707
10235SOL    HW131604   4.818   1.530   6.713
10235SOL    HW231605   4.909   1.655   6.766
10236SOL     OW31606   2.310   5.982   1.902
10236SOL    HW131607   2.377   5.999   1.974
10236SOL    HW231608   2.346   5.914   1.838
10237SOL     OW31609   5.838   2.885   3.510
10237SOL    HW131610   5.920   2.828   3.513
10237SOL    HW231611   5.768   2.847   3.570
10238SOL     OW31612   4.498   5.923   4.776
10238SOL    HW131613   4.534   5.969   4.858
10238SOL    HW231614   4.410   5.880   4.798
10239SOL     OW31615   6.570   3.727   4.392
10239SOL    HW131616   6.655   3.720   4.338
10239SOL    HW231617   6.542   3.636   4.421
10240SOL     OW31618   5.772   4.043   3.860
10240SOL    HW131619   5.743   4.139   3.859
10240SOL    HW231620   5.696   3.985   3.887
10241SOL     OW31621   1.577   1.467   3.229
10241SOL    HW131622   1.628   1.506   3.152
10241SOL    HW231623   1.640   1.452   3.306
10242SOL     OW31624   0.966   6.108   6.557
10242SOL    HW131625   0.927   6.119   6.649
10242SOL    HW231626   1.026   6.029   6.555
10243SOL     OW31627   0.693   6.446   2.796
10243SOL    HW131628   0.773   6.504   2.815
10243SOL    HW231629   0.722   6.351   2.785
10244SOL     OW31630   1.585   5.969   7.001
10244SOL    HW131631   1.626   5.946   6.912
10244SOL    HW231632   1.503   5.913   7.015
10245SOL     OW31633   1.964   2.525   7.017
10245SOL    HW131634   2.009   2.592   6.958
10245SOL    HW231635   2.011   2.520   0.082
10246SOL     OW31636   3.508   3.678   3.890
10246SOL    HW131637   3.529   3.583   3.865
10246SOL    HW231638   3.504   3.686   3.989
10247SOL     OW31639   0.831   5.755   5.682
10247SOL    HW131640   0.848   5.840   5.631
10247SOL    HW231641   0.913   5.731   5.734
10248SOL     OW31642   4.638   0.793   2.812
10248SOL    HW131643   4.733   0.801   2.842
10248SOL    HW231644   4.586   0.873   2.844
10249SOL     OW31645   5.144   0.896   6.768
10249SOL    HW131646   5.124   0.836   6.691
10249SOL    HW231647   5.095   0.863   6.849
10250SOL     OW31648   4.956   0.240   0.535
10250SOL    HW131649   4.873   0.213   0.583
10250SOL    HW231650   5.019   0.162   0.531
10251SOL     OW31651   4.013   4.596   6.777
10251SOL    HW131652   3.954   4.652   6.835
10251SOL    HW231653   4.017   4.635   6.685
10252SOL     OW31654   6.319   5.100   1.767
10252SOL    HW131655   6.289   5.159   1.842
10252SOL    HW231656   6.284   5.007   1.782
10253SOL     OW31657   4.124   5.102   6.960
10253SOL    HW131658   4.092   5.130   0.027
10253SOL    HW231659   4.060   5.038   6.920
10254SOL     OW31660   2.246   1.626   4.346
10254SOL    HW131661   2.308   1.619   4.424
10254SOL    HW231662   2.238   1.721   4.318
10255SOL     OW31663   2.882   5.534   2.746
10255SOL    HW131664   2.821   5.525   2.825
10255SOL    HW231665   2.843   5.598   2.680
10256SOL     OW31666   6.052   6.232   0.121
10256SOL    HW131667   5.955   6.247   0.137
10256SOL    HW231668   6.094   6.194   0.203
10257SOL     OW31669   2.197   6.560   6.315
10257SOL    HW131670   2.251   6.597   6.240
10257SOL    HW231671   2.158   6.634   6.369
10258SOL     OW31672   4.639   0.326   3.358
10258SOL    HW131673   4.603   0.412   3.395
10258SOL    HW231674   4.680   0.273   3.432
10259SOL     OW31675   1.070   3.336   4.051
10259SOL    HW131676   1.078   3.255   3.993
10259SOL    HW231677   1.142   3.401   4.028
10260SOL     OW31678   7.000   6.223   1.564
10260SOL    HW131679   6.934   6.290   1.530
10260SOL    HW231680   0.046   6.270   1.619
10261SOL     OW31681   1.880   7.012   1.437
10261SOL    HW131682   1.783   7.004   1.458
10261SOL    HW231683   1.911   0.082   1.457
10262SOL     OW31684   0.993   5.651   4.705
10262SOL    HW131685   0.929   5.637   4.781
10262SOL    HW231686   1.041   5.566   4.686
10263SOL     OW31687   6.723   2.278   5.808
10263SOL    HW131688   6.746   2.265   5.904
10263SOL    HW231689   6.783   2.347   5.768
10264SOL     OW31690   0.352   0.111   0.201
10264SOL    HW131691   0.451   0.099   0.187
10264SOL    HW231692   0.303   0.090   0.117
10265SOL     OW31693   4.171   2.273   2.307
10265SOL    HW131694   4.093   2.237   2.255
10265SOL    HW231695   4.145   2.357   2.353
10266SOL     OW31696   4.142   3.851   6.494
10266SOL    HW131697   4.236   3.856   6.528
10266SOL    HW231698   4.084   3.911   6.549
10267SOL     OW31699   0.101   1.635   6.414
10267SOL    HW131700   0.048   1.588   6.485
10267SOL    HW231701   0.111   1.731   6.438
10268SOL     OW31702   6.462   4.534   1.588
10268SOL    HW131703   6.414   4.610   1.542
10268SOL    HW231704   6.470   4.554   1.685
10269SOL     OW31705   3.168   2.480   6.085
10269SOL    HW131706   3.210   2.417   6.019
10269SOL    HW231707   3.232   2.552   6.107
10270SOL     OW31708   3.131   6.756   1.007
10270SOL    HW131709   3.200   6.827   1.019
10270SOL    HW231710   3.047   6.797   0.970
10271SOL     OW31711   3.267   4.864   0.627
10271SOL    HW131712   3.214   4.924   0.686
10271SOL    HW231713   3.270   4.903   0.534
10272SOL     OW31714   1.133   1.411   5.118
10272SOL    HW131715   1.189   1.452   5.046
10272SOL    HW231716   1.188   1.347   5.171
10273SOL     OW31717   4.224   6.474   3.887
10273SOL    HW131718   4.208   6.515   3.797
10273SOL    HW231719   4.213   6.544   3.958
10274SOL     OW31720   2.109   5.644   6.202
10274SOL    HW131721   2.137   5.739   6.185
10274SOL    HW231722   2.190   5.588   6.221
10275SOL     OW31723   0.880   6.707   2.229
10275SOL    HW131724   0.929   6.704   2.315
10275SOL    HW231725   0.818   6.785   2.228
10276SOL     OW31726   0.002   6.524   0.170
10276SOL    HW131727   6.928   6.504   0.177
10276SOL    HW231728   0.047   6.499   0.255
10277SOL     OW31729   1.065   6.161   2.278
10277SOL    HW131730   0.970   6.171   2.251
10277SOL    HW231731   1.082   6.066   2.305
10278SOL     OW31732   6.759   0.087   6.401
10278SOL    HW131733   6.752   0.073   6.302
10278SOL    HW231734   6.690   0.153   6.430
10279SOL     OW31735   3.875   6.098   3.494
10279SOL    HW131736   3.835   6.015   3.457
10279SOL    HW231737   3.947   6.075   3.560
10280SOL     OW31738   3.173   2.531   6.522
10280SOL    HW131739   3.098   2.504   6.461
10280SOL    HW231740   3.189   2.629   6.512
10281SOL     OW31741   4.079   7.009   4.098
10281SOL    HW131742   4.065   0.083   4.114
10281SOL    HW231743   4.177   6.989   4.095
10282SOL     OW31744   0.869   2.692   4.933
10282SOL    HW131745   0.952   2.638   4.950
10282SOL    HW231746   0.889   2.761   4.863
10283SOL     OW31747   1.500   3.803   5.760
10283SOL    HW131748   1.500   3.876   5.692
10283SOL    HW231749   1.405   3.784   5.788
10284SOL     OW31750   5.351   2.848   6.728
10284SOL    HW131751   5.409   2.769   6.708
10284SOL    HW231752   5.283   2.822   6.796
10285SOL     OW31753   5.650   0.382   0.526
10285SOL    HW131754   5.659   0.308   0.459
10285SOL    HW231755   5.563   0.430   0.511
10286SOL     OW31756   4.275   0.647   4.199
10286SOL    HW131757   4.233   0.715   4.139
10286SOL    HW231758   4.235   0.654   4.290
10287SOL     OW31759   1.388   4.833   1.489
10287SOL    HW131760   1.378   4.733   1.495
10287SOL    HW231761   1.479   4.855   1.454
10288SOL     OW31762   4.833   6.268   4.130
10288SOL    HW131763   4.917   6.306   4.092
10288SOL    HW231764   4.757   6.331   4.113
10289SOL     OW31765   2.641   1.522   1.404
10289SOL    HW131766   2.558   1.521   1.349
10289SOL    HW231767   2.633   1.456   1.478
10290SOL     OW31768   2.838   3.449   2.009
10290SOL    HW131769   2.757   3.458   2.067
10290SOL    HW231770   2.878   3.358   2.020
10291SOL     OW31771   4.591   0.386   5.657
10291SOL    HW131772   4.671   0.328   5.652
10291SOL    HW231773   4.596   0.456   5.585
10292SOL     OW31774   0.006   0.644   5.128
10292SOL    HW131775   0.060   0.625   5.210
10292SOL    HW231776   6.933   0.625   5.147
10293SOL     OW31777   2.851   5.747   3.345
10293SOL    HW131778   2.821   5.803   3.423
10293SOL    HW231779   2.814   5.786   3.261
10294SOL     OW31780   6.360   1.741   3.291
10294SOL    HW131781   6.423   1.814   3.263
10294SOL    HW231782   6.412   1.657   3.306
10295SOL     OW31783   1.722   4.602   4.545
10295SOL    HW131784   1.817   4.630   4.559
10295SOL    HW231785   1.717   4.502   4.542
10296SOL     OW31786   6.634   2.703   1.058
10296SOL    HW131787   6.536   2.720   1.044
10296SOL    HW231788   6.648   2.656   1.145
10297SOL     OW31789   2.746   5.526   4.759
10297SOL    HW131790   2.705   5.435   4.761
10297SOL    HW231791   2.703   5.584   4.829
10298SOL     OW31792   5.965   3.556   2.905
10298SOL    HW131793   5.892   3.531   2.968
10298SOL    HW231794   5.931   3.553   2.811
10299SOL     OW31795   4.867   3.689   2.145
10299SOL    HW131796   4.855   3.591   2.129
10299SOL    HW231797   4.826   3.714   2.232
10300SOL     OW31798   2.025   5.919   2.122
10300SOL    HW131799   1.992   5.835   2.078
10300SOL    HW231800   2.076   5.973   2.056
10301SOL     OW31801   5.154   1.237   1.305
10301SOL    HW131802   5.114   1.175   1.237
10301SOL    HW231803   5.084   1.263   1.372
10302SOL     OW31804   1.492   5.205   3.723
10302SOL    HW131805   1.537   5.193   3.811
10302SOL    HW231806   1.397   5.232   3.738
10303SOL     OW31807   3.825   3.208   1.320
10303SOL    HW131808   3.788   3.119   1.347
10303SOL    HW231809   3.759   3.254   1.260
10304SOL     OW31810   6.198   6.684   4.019
10304SOL    HW131811   6.284   6.708   3.974
10304SOL    HW231812   6.121   6.714   3.962
10305SOL     OW31813   2.003   5.265   1.024
10305SOL    HW131814   1.962   5.355   1.037
10305SOL    HW231815   1.965   5.222   0.942
10306SOL     OW31816   3.965   4.810   0.049
10306SOL    HW131817   4.050   4.809   7.019
10306SOL    HW231818   3.983   4.779   0.142
10307SOL     OW31819   3.023   0.819   5.291
10307SOL    HW131820   3.030   0.884   5.215
10307SOL    HW231821   2.953   0.850   5.356
10308SOL     OW31822   3.021   5.332   3.787
10308SOL    HW131823   3.121   5.338   3.787
10308SOL    HW231824   2.983   5.422   3.807
10309SOL     OW31825   0.265   6.176   3.448
10309SOL    HW131826   0.216   6.138   3.370
10309SOL    HW231827   0.361   6.191   3.423
10310SOL     OW31828   3.083   3.471   4.149
10310SOL    HW131829   3.042   3.490   4.239
10310SOL    HW231830   3.087   3.555   4.096
10311SOL     OW31831   0.510   6.508   1.065
10311SOL    HW131832   0.602   6.537   1.089
10311SOL    HW231833   0.450   6.519   1.144
10312SOL     OW31834   2.192   4.378   0.630
10312SOL    HW131835   2.154   4.338   0.714
10312SOL    HW231836   2.271   4.435   0.653
10313SOL     OW31837   6.279   6.316   4.101
10313SOL    HW131838   6.359   6.314   4.160
10313SOL    HW231839   6.291   6.250   4.027
10314SOL     OW31840   6.449   4.983   5.605
10314SOL    HW131841   6.368   4.973   5.548
10314SOL    HW231842   6.441   4.924   5.685
10315SOL     OW31843   5.059   6.217   5.500
10315SOL    HW131844   5.133   6.160   5.467
10315SOL    HW231845   4.971   6.171   5.483
10316SOL     OW31846   0.252   3.439   2.707
10316SOL    HW131847   0.208   3.496   2.637
10316SOL    HW231848   0.182   3.384   2.753
10317SOL     OW31849   4.418   4.605   0.572
10317SOL    HW131850   4.474   4.526   0.547
10317SOL    HW231851   4.439   4.632   0.666
10318SOL     OW31852   6.279   5.674   2.058
10318SOL    HW131853   6.283   5.754   1.999
10318SOL    HW231854   6.208   5.612   2.025
10319SOL     OW31855   5.188   6.048   4.711
10319SOL    HW131856   5.181   5.955   4.677
10319SOL    HW231857   5.116   6.065   4.779
10320SOL     OW31858   4.415   6.096   1.947
10320SOL    HW131859   4.482   6.033   1.907
10320SOL    HW231860   4.400   6.071   2.043
10321SOL     OW31861   3.567   0.132   3.807
10321SOL    HW131862   3.604   0.212   3.855
10321SOL    HW231863   3.598   0.133   3.712
10322SOL     OW31864   0.538   2.324   0.155
10322SOL    HW131865   0.440   2.313   0.141
10322SOL    HW231866   0.559   2.420   0.173
10323SOL     OW31867   6.925   2.148   5.174
10323SOL    HW131868   6.936   2.049   5.184
10323SOL    HW231869   6.971   2.194   5.250
10324SOL     OW31870   3.255   2.940   3.738
10324SOL    HW131871   3.340   2.903   3.775
10324SOL    HW231872   3.275   2.990   3.653
10325SOL     OW31873   0.408   3.565   3.058
10325SOL    HW131874   0.475   3.583   3.130
10325SOL    HW231875   0.316   3.563   3.097
10326SOL     OW31876   5.011   1.540   0.846
10326SOL    HW131877   5.021   1.445   0.878
10326SOL    HW231878   4.961   1.541   0.760
10327SOL     OW31879   6.855   0.677   3.220
10327SOL    HW131880   6.816   0.589   3.193
10327SOL    HW231881   6.786   0.728   3.272
10328SOL     OW31882   6.283   3.558   2.458
10328SOL    HW131883   6.247   3.524   2.372
10328SOL    HW231884   6.283   3.484   2.526
10329SOL     OW31885   3.696   6.650   3.159
10329SOL    HW131886   3.672   6.723   3.094
10329SOL    HW231887   3.620   6.586   3.166
10330SOL     OW31888   3.440   4.316   1.032
10330SOL    HW131889   3.486   4.307   1.121
10330SOL    HW231890   3.417   4.225   0.998
10331SOL     OW31891   4.953   0.365   4.163
10331SOL    HW131892   4.854   0.361   4.152
10331SOL    HW231893   4.984   0.284   4.213
10332SOL     OW31894   0.352   1.667   0.282
10332SOL    HW131895   0.285   1.594   0.295
10332SOL    HW231896   0.366   1.715   0.369
10333SOL     OW31897   5.047   4.456   5.243
10333SOL    HW131898   4.986   4.391   5.198
10333SOL    HW231899   5.112   4.406   5.300
10334SOL     OW31900   0.967   5.150   4.882
10334SOL    HW131901   1.003   5.202   4.960
10334SOL    HW231902   0.989   5.054   4.894
10335SOL     OW31903   2.670   5.284   1.719
10335SOL    HW131904   2.766   5.312   1.720
10335SOL    HW231905   2.659   5.200   1.772
10336SOL     OW31906   4.755   6.157   3.017
10336SOL    HW131907   4.719   6.165   2.924
10336SOL    HW231908   4.750   6.247   3.062
10337SOL     OW31909   1.003   4.858   5.077
10337SOL    HW131910   0.903   4.849   5.078
10337SOL    HW231911   1.036   4.856   4.983
10338SOL     OW31912   3.137   4.876   3.051
10338SOL    HW131913   3.212   4.928   3.092
10338SOL    HW231914   3.145   4.879   2.952
10339SOL     OW31915   3.100   5.446   0.211
10339SOL    HW131916   3.116   5.480   0.118
10339SOL    HW231917   3.015   5.484   0.247
10340SOL     OW31918   1.670   6.628   0.156
10340SOL    HW131919   1.745   6.643   0.220
10340SOL    HW231920   1.605   6.562   0.196
10341SOL     OW31921   0.902   2.364   2.362
10341SOL    HW131922   0.934   2.340   2.270
10341SOL    HW231923   0.829   2.432   2.355
10342SOL     OW31924   3.186   6.290   3.559
10342SOL    HW131925   3.196   6.370   3.617
10342SOL    HW231926   3.273   6.240   3.556
10343SOL     OW31927   2.379   2.646   3.880
10343SOL    HW131928   2.461   2.611   3.834
10343SOL    HW231929   2.318   2.685   3.811
10344SOL     OW31930   4.187   3.917   0.670
10344SOL    HW131931   4.251   3.860   0.722
10344SOL    HW231932   4.121   3.959   0.733
10345SOL     OW31933   2.112   1.683   5.157
10345SOL    HW131934   2.115   1.696   5.058
10345SOL    HW231935   2.021   1.654   5.185
10346SOL     OW31936   5.859   4.880   0.739
10346SOL    HW131937   5.777   4.882   0.796
10346SOL    HW231938   5.859   4.959   0.678
10347SOL     OW31939   4.880   0.423   1.913
10347SOL    HW131940   4.922   0.441   1.824
10347SOL    HW231941   4.943   0.370   1.970
10348SOL     OW31942   6.640   4.789   5.826
10348SOL    HW131943   6.594   4.710   5.865
10348SOL    HW231944   6.710   4.821   5.889
10349SOL     OW31945   6.750   2.159   0.987
10349SOL    HW131946   6.829   2.207   0.949
10349SOL    HW231947   6.704   2.109   0.914
10350SOL     OW31948   2.073   4.737   4.822
10350SOL    HW131949   2.111   4.809   4.763
10350SOL    HW231950   2.136   4.719   4.898
10351SOL     OW31951   3.968   4.833   4.307
10351SOL    HW131952   4.048   4.814   4.250
10351SOL    HW231953   3.887   4.842   4.249
10352SOL     OW31954   6.433   0.933   0.198
10352SOL    HW131955   6.340   0.967   0.210
10352SOL    HW231956   6.498   1.008   0.211
10353SOL     OW31957   6.182   2.172   3.646
10353SOL    HW131958   6.281   2.190   3.644
10353SOL    HW231959   6.160   2.117   3.726
10354SOL     OW31960   6.293   2.950   1.338
10354SOL    HW131961   6.274   2.853   1.325
10354SOL    HW231962   6.214   3.004   1.309
10355SOL     OW31963   0.824   1.433   0.977
10355SOL    HW131964   0.910   1.440   1.027
10355SOL    HW231965   0.747   1.436   1.041
10356SOL     OW31966   5.865   2.862   5.678
10356SOL    HW131967   5.770   2.842   5.700
10356SOL    HW231968   5.871   2.950   5.630
10357SOL     OW31969   1.605   0.321   6.037
10357SOL    HW131970   1.527   0.368   6.078
10357SOL    HW231971   1.607   0.226   6.067
10358SOL     OW31972   0.159   3.233   3.094
10358SOL    HW131973   0.105   3.288   3.157
10358SOL    HW231974   0.248   3.212   3.135
10359SOL     OW31975   6.446   1.880   2.366
10359SOL    HW131976   6.443   1.977   2.386
10359SOL    HW231977   6.536   1.843   2.391
10360SOL     OW31978   5.460   3.912   1.680
10360SOL    HW131979   5.410   3.953   1.756
10360SOL    HW231980   5.508   3.984   1.630
10361SOL     OW31981   5.916   2.156   2.447
10361SOL    HW131982   5.863   2.167   2.363
10361SOL    HW231983   5.903   2.063   2.483
10362SOL     OW31984   1.578   6.136   1.453
10362SOL    HW131985   1.531   6.130   1.365
10362SOL    HW231986   1.572   6.229   1.488
10363SOL     OW31987   5.225   4.086   6.461
10363SOL    HW131988   5.174   4.171   6.445
10363SOL    HW231989   5.209   4.056   6.555
10364SOL     OW31990   5.563   4.915   2.708
10364SOL    HW131991   5.534   5.010   2.724
10364SOL    HW231992   5.562   4.866   2.795
10365SOL     OW31993   5.969   5.087   1.002
10365SOL    HW131994   6.062   5.109   1.032
10365SOL    HW231995   5.949   4.991   1.022
10366SOL     OW31996   3.287   6.071   3.830
10366SOL    HW131997   3.222   6.145   3.849
10366SOL    HW231998   3.296   6.013   3.911
10367SOL     OW31999   5.128   6.223   1.733
10367SOL    HW132000   5.208   6.277   1.706
10367SOL    HW232001   5.047   6.256   1.686
10368SOL     OW32002   1.783   6.329   1.317
10368SOL    HW132003   1.812   6.245   1.363
10368SOL    HW232004   1.789   6.316   1.218
10369SOL     OW32005   2.622   0.137   6.009
10369SOL    HW132006   2.527   0.167   6.019
10369SOL    HW232007   2.655   0.101   6.096
10370SOL     OW32008   1.650   1.169   5.285
10370SOL    HW132009   1.693   1.187   5.374
10370SOL    HW232010   1.719   1.166   5.214
10371SOL     OW32011   4.561   5.396   3.064
10371SOL    HW132012   4.580   5.358   3.155
10371SOL    HW232013   4.475   5.360   3.030
10372SOL     OW32014   2.400   6.928   0.925
10372SOL    HW132015   2.375   6.913   1.021
10372SOL    HW232016   2.464   7.005   0.919
10373SOL     OW32017   6.502   1.420   6.364
10373SOL    HW132018   6.552   1.339   6.333
10373SOL    HW232019   6.510   1.492   6.295
10374SOL     OW32020   3.368   4.968   3.409
10374SOL    HW132021   3.348   4.920   3.494
10374SOL    HW232022   3.421   5.051   3.430
10375SOL     OW32023   2.733   5.109   0.403
10375SOL    HW132024   2.681   5.117   0.318
10375SOL    HW232025   2.720   5.192   0.458
10376SOL     OW32026   2.510   5.109   4.510
10376SOL    HW132027   2.583   5.096   4.577
10376SOL    HW232028   2.548   5.106   4.418
10377SOL     OW32029   2.010   1.060   2.652
10377SOL    HW132030   2.006   0.996   2.575
10377SOL    HW232031   1.993   1.153   2.619
10378SOL     OW32032   0.002   5.846   3.943
10378SOL    HW132033   0.069   5.810   3.878
10378SOL    HW232034   6.999   5.938   3.916
10379SOL     OW32035   1.962   0.141   4.131
10379SOL    HW132036   1.911   0.135   4.217
10379SOL    HW232037   1.908   0.100   4.058
10380SOL     OW32038   2.953   2.285   4.226
10380SOL    HW132039   2.993   2.374   4.248
10380SOL    HW232040   2.900   2.292   4.141
10381SOL     OW32041   3.712   6.424   2.201
10381SOL    HW132042   3.749   6.498   2.257
10381SOL    HW232043   3.706   6.341   2.256
10382SOL     OW32044   4.028   5.405   1.129
10382SOL    HW132045   3.995   5.313   1.152
10382SOL    HW232046   4.080   5.401   1.044
10383SOL     OW32047   0.995   4.957   0.094
10383SOL    HW132048   0.902   4.981   0.123
10383SOL    HW232049   1.014   4.997   0.005
10384SOL     OW32050   5.013   5.783   1.029
10384SOL    HW132051   5.104   5.825   1.033
10384SOL    HW232052   4.961   5.821   0.953
10385SOL     OW32053   4.239   4.433   0.433
10385SOL    HW132054   4.248   4.439   0.333
10385SOL    HW232055   4.308   4.491   0.476
10386SOL     OW32056   0.104   0.941   1.054
10386SOL    HW132057   0.122   1.037   1.030
10386SOL    HW232058   0.190   0.891   1.058
10387SOL     OW32059   5.147   3.221   1.879
10387SOL    HW132060   5.099   3.241   1.794
10387SOL    HW232061   5.168   3.306   1.926
10388SOL     OW32062   2.025   6.205   5.917
10388SOL    HW132063   1.979   6.143   5.981
10388SOL    HW232064   1.988   6.297   5.926
10389SOL     OW32065   0.510   4.087   6.849
10389SOL    HW132066   0.514   4.130   6.939
10389SOL    HW232067   0.488   4.156   6.779
10390SOL     OW32068   2.431   2.541   2.091
10390SOL    HW132069   2.504   2.514   2.028
10390SOL    HW232070   2.461   2.528   2.185
10391SOL     OW32071   5.726   6.684   3.834
10391SOL    HW132072   5.652   6.638   3.784
10391SOL    HW232073   5.708   6.680   3.932
10392SOL     OW32074   6.540   3.493   4.557
10392SOL    HW132075   6.543   3.444   4.643
10392SOL    HW232076   6.530   3.428   4.481
10393SOL     OW32077   1.806   3.395   3.793
10393SOL    HW132078   1.877   3.340   3.837
10393SOL    HW232079   1.763   3.342   3.721
10394SOL     OW32080   3.123   0.626   4.096
10394SOL    HW132081   3.120   0.675   4.183
10394SOL    HW232082   3.123   0.691   4.020
10395SOL     OW32083   1.228   0.256   1.274
10395SOL    HW132084   1.148   0.204   1.304
10395SOL    HW232085   1.308   0.196   1.275
10396SOL     OW32086   3.262   2.105   4.519
10396SOL    HW132087   3.262   2.153   4.607
10396SOL    HW232088   3.347   2.124   4.470
10397SOL     OW32089   4.393   2.017   3.914
10397SOL    HW132090   4.382   1.985   4.008
10397SOL    HW232091   4.343   2.102   3.901
10398SOL     OW32092   6.048   3.209   1.462
10398SOL    HW132093   6.034   3.122   1.415
10398SOL    HW232094   5.960   3.256   1.473
10399SOL     OW32095   0.994   3.897   1.721
10399SOL    HW132096   0.903   3.856   1.717
10399SOL    HW232097   1.017   3.936   1.631
10400SOL     OW32098   3.236   6.101   0.773
10400SOL    HW132099   3.241   6.185   0.718
10400SOL    HW232100   3.143   6.088   0.806
10401SOL     OW32101   0.281   1.267   5.823
10401SOL    HW132102   0.232   1.301   5.743
10401SOL    HW232103   0.290   1.340   5.891
10402SOL     OW32104   0.208   2.670   5.205
10402SOL    HW132105   0.304   2.687   5.186
10402SOL    HW232106   0.187   2.698   5.299
10403SOL     OW32107   3.624   0.757   1.264
10403SOL    HW132108   3.668   0.776   1.176
10403SOL    HW232109   3.677   0.688   1.313
10404SOL     OW32110   0.301   6.509   6.436
10404SOL    HW132111   0.207   6.476   6.445
10404SOL    HW232112   0.302   6.609   6.439
10405SOL     OW32113   0.619   2.459   6.591
10405SOL    HW132114   0.682   2.531   6.562
10405SOL    HW232115   0.573   2.422   6.511
10406SOL     OW32116   2.712   4.984   1.504
10406SOL    HW132117   2.621   4.983   1.545
10406SOL    HW232118   2.704   4.967   1.406
10407SOL     OW32119   2.674   6.971   6.775
10407SOL    HW132120   2.601   6.962   6.708
10407SOL    HW232121   2.646   6.928   6.861
10408SOL     OW32122   4.030   1.687   6.893
10408SOL    HW132123   3.948   1.744   6.900
10408SOL    HW232124   4.006   1.598   6.852
10409SOL     OW32125   6.076   4.796   1.323
10409SOL    HW132126   6.063   4.868   1.392
10409SOL    HW232127   6.061   4.706   1.365
10410SOL     OW32128   5.622   0.450   0.801
10410SOL    HW132129   5.680   0.457   0.720
10410SOL    HW232130   5.548   0.385   0.784
10411SOL     OW32131   2.470   5.360   3.335
10411SOL    HW132132   2.498   5.454   3.317
10411SOL    HW232133   2.370   5.354   3.336
10412SOL     OW32134   6.430   0.864   0.726
10412SOL    HW132135   6.457   0.881   0.632
10412SOL    HW232136   6.410   0.766   0.738
10413SOL     OW32137   0.211   2.986   1.806
10413SOL    HW132138   0.150   2.991   1.885
10413SOL    HW232139   0.227   3.079   1.772
10414SOL     OW32140   4.839   2.757   4.021
10414SOL    HW132141   4.917   2.723   3.969
10414SOL    HW232142   4.832   2.856   4.010
10415SOL     OW32143   0.234   6.864   6.102
10415SOL    HW132144   0.271   6.937   6.160
10415SOL    HW232145   0.301   6.840   6.032
10416SOL     OW32146   5.479   2.635   4.564
10416SOL    HW132147   5.440   2.546   4.586
10416SOL    HW232148   5.406   2.697   4.536
10417SOL     OW32149   2.447   4.416   3.902
10417SOL    HW132150   2.405   4.358   3.973
10417SOL    HW232151   2.451   4.366   3.816
10418SOL     OW32152   0.724   4.362   5.524
10418SOL    HW132153   0.667   4.354   5.442
10418SOL    HW232154   0.760   4.455   5.531
10419SOL     OW32155   1.333   0.962   0.585
10419SOL    HW132156   1.326   1.052   0.543
10419SOL    HW232157   1.259   0.951   0.652
10420SOL     OW32158   0.073   3.347   3.863
10420SOL    HW132159   0.135   3.321   3.937
10420SOL    HW232160   0.102   3.434   3.823
10421SOL     OW32161   0.279   0.789   3.008
10421SOL    HW132162   0.200   0.774   3.068
10421SOL    HW232163   0.263   0.870   2.952
10422SOL     OW32164   5.968   3.284   6.093
10422SOL    HW132165   5.972   3.213   6.022
10422SOL    HW232166   5.874   3.315   6.103
10423SOL     OW32167   5.560   4.532   3.172
10423SOL    HW132168   5.518   4.576   3.252
10423SOL    HW232169   5.611   4.451   3.202
10424SOL     OW32170   5.129   1.821   6.511
10424SOL    HW132171   5.162   1.893   6.451
10424SOL    HW232172   5.101   1.860   6.599
10425SOL     OW32173   1.961   6.790   1.929
10425SOL    HW132174   1.902   6.739   1.991
10425SOL    HW232175   2.050   6.744   1.922
10426SOL     OW32176   6.818   4.309   6.726
10426SOL    HW132177   6.766   4.270   6.801
10426SOL    HW232178   6.913   4.320   6.753
10427SOL     OW32179   4.897   1.462   0.217
10427SOL    HW132180   4.972   1.455   0.152
10427SOL    HW232181   4.933   1.453   0.310
10428SOL     OW32182   4.673   0.799   4.070
10428SOL    HW132183   4.638   0.801   3.976
10428SOL    HW232184   4.708   0.890   4.094
10429SOL     OW32185   6.266   5.901   1.925
10429SOL    HW132186   6.260   5.970   1.853
10429SOL    HW232187   6.335   5.928   1.992
10430SOL     OW32188   3.542   6.255   2.837
10430SOL    HW132189   3.607   6.182   2.819
10430SOL    HW232190   3.592   6.336   2.869
10431SOL     OW32191   2.981   0.971   5.074
10431SOL    HW132192   3.049   1.044   5.080
10431SOL    HW232193   2.964   0.950   4.977
10432SOL     OW32194   6.251   0.497   5.493
10432SOL    HW132195   6.193   0.428   5.537
10432SOL    HW232196   6.277   0.466   5.402
10433SOL     OW32197   2.593   6.728   0.848
10433SOL    HW132198   2.534   6.794   0.893
10433SOL    HW232199   2.615   6.654   0.911
10434SOL     OW32200   2.062   1.419   3.683
10434SOL    HW132201   1.963   1.413   3.694
10434SOL    HW232202   2.083   1.444   3.588
10435SOL     OW32203   5.230   6.348   0.285
10435SOL    HW132204   5.142   6.320   0.325
10435SOL    HW232205   5.251   6.287   0.208
10436SOL     OW32206   1.137   6.088   2.994
10436SOL    HW132207   1.087   6.132   2.920
10436SOL    HW232208   1.232   6.120   2.994
10437SOL     OW32209   6.697   4.941   6.105
10437SOL    HW132210   6.687   4.947   6.204
10437SOL    HW232211   6.765   4.871   6.082
10438SOL     OW32212   2.991   5.741   6.851
10438SOL    HW132213   2.897   5.765   6.875
10438SOL    HW232214   3.034   5.816   6.802
10439SOL     OW32215   4.228   6.679   5.731
10439SOL    HW132216   4.161   6.606   5.746
10439SOL    HW232217   4.187   6.767   5.754
10440SOL     OW32218   2.209   5.615   0.700
10440SOL    HW132219   2.220   5.710   0.670
10440SOL    HW232220   2.299   5.574   0.712
10441SOL     OW32221   5.262   1.553   6.588
10441SOL    HW132222   5.213   1.466   6.581
10441SOL    HW232223   5.200   1.627   6.562
10442SOL     OW32224   4.267   5.221   5.832
10442SOL    HW132225   4.228   5.208   5.741
10442SOL    HW232226   4.367   5.218   5.826
10443SOL     OW32227   6.033   2.900   5.098
10443SOL    HW132228   6.087   2.982   5.078
10443SOL    HW232229   6.093   2.829   5.135
10444SOL     OW32230   3.945   5.526   4.093
10444SOL    HW132231   4.011   5.497   4.024
10444SOL    HW232232   3.895   5.446   4.127
10445SOL     OW32233   6.395   5.804   4.914
10445SOL    HW132234   6.427   5.886   4.866
10445SOL    HW232235   6.469   5.770   4.973
10446SOL     OW32236   0.969   5.480   6.444
10446SOL    HW132237   1.021   5.447   6.523
10446SOL    HW232238   0.872   5.483   6.466
10447SOL     OW32239   6.026   2.554   1.602
10447SOL    HW132240   5.995   2.460   1.593
10447SOL    HW232241   6.050   2.590   1.511
10448SOL     OW32242   3.671   4.095   2.328
10448SOL    HW132243   3.574   4.111   2.343
10448SOL    HW232244   3.692   4.102   2.230
10449SOL     OW32245   2.012   4.953   4.233
10449SOL    HW132246   2.017   5.049   4.205
10449SOL    HW232247   1.926   4.937   4.282
10450SOL     OW32248   0.347   2.946   1.370
10450SOL    HW132249   0.264   2.995   1.397
10450SOL    HW232250   0.384   2.896   1.449
10451SOL     OW32251   2.494   4.442   3.066
10451SOL    HW132252   2.467   4.366   3.007
10451SOL    HW232253   2.591   4.434   3.090
10452SOL     OW32254   1.156   3.337   4.933
10452SOL    HW132255   1.254   3.354   4.924
10452SOL    HW232256   1.110   3.354   4.845
10453SOL     OW32257   4.894   0.050   1.648
10453SOL    HW132258   4.944   6.990   1.622
10453SOL    HW232259   4.912   0.071   1.744
10454SOL     OW32260   4.880   3.565   2.531
10454SOL    HW132261   4.832   3.496   2.476
10454SOL    HW232262   4.937   3.519   2.599
10455SOL     OW32263   6.911   4.623   3.536
10455SOL    HW132264   6.993   4.674   3.562
10455SOL    HW232265   6.902   4.622   3.436
10456SOL     OW32266   4.159   5.855   0.681
10456SOL    HW132267   4.153   5.788   0.755
10456SOL    HW232268   4.134   5.812   0.594
10457SOL     OW32269   3.667   4.152   4.226
10457SOL    HW132270   3.633   4.077   4.282
10457SOL    HW232271   3.633   4.239   4.263
10458SOL     OW32272   0.052   6.876   1.398
10458SOL    HW132273   7.019   6.797   1.424
10458SOL    HW232274   0.005   6.929   1.328
10459SOL     OW32275   6.550   5.135   2.409
10459SOL    HW132276   6.609   5.056   2.390
10459SOL    HW232277   6.488   5.150   2.332
10460SOL     OW32278   1.618   5.798   2.426
10460SOL    HW132279   1.670   5.740   2.364
10460SOL    HW232280   1.657   5.890   2.427
10461SOL     OW32281   2.953   1.866   6.620
10461SOL    HW132282   2.894   1.902   6.692
10461SOL    HW232283   2.905   1.871   6.532
10462SOL     OW32284   6.555   0.246   1.145
10462SOL    HW132285   6.600   0.198   1.070
10462SOL    HW232286   6.591   0.339   1.152
10463SOL     OW32287   2.785   3.725   0.977
10463SOL    HW132288   2.819   3.817   0.998
10463SOL    HW232289   2.700   3.708   1.027
10464SOL     OW32290   5.410   0.308   1.865
10464SOL    HW132291   5.351   0.375   1.821
10464SOL    HW232292   5.478   0.275   1.800
10465SOL     OW32293   6.024   4.905   5.716
10465SOL    HW132294   5.975   4.992   5.720
10465SOL    HW232295   5.972   4.835   5.765
10466SOL     OW32296   4.934   5.769   5.909
10466SOL    HW132297   4.915   5.679   5.870
10466SOL    HW232298   4.848   5.813   5.935
10467SOL     OW32299   3.827   0.641   4.386
10467SOL    HW132300   3.728   0.641   4.403
10467SOL    HW232301   3.851   0.721   4.330
10468SOL     OW32302   3.706   5.978   2.873
10468SOL    HW132303   3.804   5.991   2.855
10468SOL    HW232304   3.661   5.945   2.790
10469SOL     OW32305   1.346   4.666   0.154
10469SOL    HW132306   1.341   4.567   0.136
10469SOL    HW232307   1.391   4.681   0.242
10470SOL     OW32308   2.910   1.898   4.282
10470SOL    HW132309   2.991   1.956   4.275
10470SOL    HW232310   2.934   1.804   4.259
10471SOL     OW32311   3.967   3.825   0.517
10471SOL    HW132312   3.958   3.910   0.465
10471SOL    HW232313   4.004   3.844   0.607
10472SOL     OW32314   4.461   1.262   2.640
10472SOL    HW132315   4.515   1.178   2.636
10472SOL    HW232316   4.415   1.277   2.553
10473SOL     OW32317   4.882   5.913   0.789
10473SOL    HW132318   4.800   5.901   0.733
10473SOL    HW232319   4.925   6.001   0.767
10474SOL     OW32320   4.262   6.820   4.388
10474SOL    HW132321   4.260   6.761   4.308
10474SOL    HW232322   4.357   6.836   4.416
10475SOL     OW32323   4.163   6.035   1.535
10475SOL    HW132324   4.133   6.109   1.475
10475SOL    HW232325   4.256   6.008   1.510
10476SOL     OW32326   0.271   4.718   0.787
10476SOL    HW132327   0.305   4.794   0.731
10476SOL    HW232328   0.210   4.754   0.858
10477SOL     OW32329   5.487   4.414   4.947
10477SOL    HW132330   5.528   4.337   4.898
10477SOL    HW232331   5.441   4.381   5.029
10478SOL     OW32332   0.646   6.386   1.730
10478SOL    HW132333   0.639   6.359   1.826
10478SOL    HW232334   0.742   6.400   1.705
10479SOL     OW32335   1.770   4.874   3.523
10479SOL    HW132336   1.698   4.939   3.546
10479SOL    HW232337   1.803   4.830   3.606
10480SOL     OW32338   6.087   0.023   2.398
10480SOL    HW132339   6.122   0.109   2.361
10480SOL    HW232340   5.988   0.022   2.391
10481SOL     OW32341   2.415   0.531   5.019
10481SOL    HW132342   2.481   0.557   4.948
10481SOL    HW232343   2.399   0.610   5.079
10482SOL     OW32344   0.692   5.205   6.083
10482SOL    HW132345   0.748   5.276   6.127
10482SOL    HW232346   0.741   5.118   6.085
10483SOL     OW32347   6.933   5.273   0.885
10483SOL    HW132348   6.890   5.222   0.959
10483SOL    HW232349   6.878   5.354   0.863
10484SOL     OW32350   6.440   2.083   1.496
10484SOL    HW132351   6.380   2.064   1.575
10484SOL    HW232352   6.477   1.997   1.462
10485SOL     OW32353   3.503   4.037   3.956
10485SOL    HW132354   3.450   4.006   3.877
10485SOL    HW232355   3.596   4.062   3.926
10486SOL     OW32356   5.938   5.840   5.273
10486SOL    HW132357   5.947   5.777   5.350
10486SOL    HW232358   6.019   5.898   5.267
10487SOL     OW32359   4.656   2.020   1.898
10487SOL    HW132360   4.709   1.955   1.952
10487SOL    HW232361   4.575   2.049   1.950
10488SOL     OW32362   6.725   2.140   5.532
10488SOL    HW132363   6.706   2.163   5.437
10488SOL    HW232364   6.791   2.205   5.569
10489SOL     OW32365   5.924   4.043   4.370
10489SOL    HW132366   5.974   4.128   4.357
10489SOL    HW232367   5.939   3.983   4.292
10490SOL     OW32368   5.927   6.462   6.861
10490SOL    HW132369   5.843   6.412   6.880
10490SOL    HW232370   5.920   6.555   6.895
10491SOL     OW32371   1.924   2.335   5.445
10491SOL    HW132372   1.989   2.327   5.521
10491SOL    HW232373   1.885   2.427   5.444
10492SOL     OW32374   3.902   6.706   6.878
10492SOL    HW132375   3.995   6.733   6.854
10492SOL    HW232376   3.841   6.784   6.868
10493SOL     OW32377   3.537   5.359   1.579
10493SOL    HW132378   3.462   5.340   1.641
10493SOL    HW232379   3.622   5.370   1.631
10494SOL     OW32380   1.278   4.287   4.487
10494SOL    HW132381   1.303   4.196   4.453
10494SOL    HW232382   1.330   4.307   4.570
10495SOL     OW32383   6.641   6.261   0.905
10495SOL    HW132384   6.559   6.223   0.949
10495SOL    HW232385   6.722   6.224   0.949
10496SOL     OW32386   0.758   3.397   6.070
10496SOL    HW132387   0.749   3.493   6.044
10496SOL    HW232388   0.712   3.340   6.001
10497SOL     OW32389   2.323   0.422   1.772
10497SOL    HW132390   2.355   0.345   1.828
10497SOL    HW232391   2.291   0.495   1.832
10498SOL     OW32392   4.563   4.300   6.911
10498SOL    HW132393   4.538   4.372   6.846
10498SOL    HW232394   4.498   4.224   6.902
10499SOL     OW32395   6.019   3.994   2.478
10499SOL    HW132396   5.955   3.980   2.553
10499SOL    HW232397   6.098   4.046   2.510
10500SOL     OW32398   0.684   3.573   5.381
10500SOL    HW132399   0.643   3.661   5.404
10500SOL    HW232400   0.726   3.578   5.291
10501SOL     OW32401   3.378   4.926   3.153
10501SOL    HW132402   3.463   4.872   3.155
10501SOL    HW232403   3.359   4.960   3.245
10502SOL     OW32404   3.507   3.592   2.366
10502SOL    HW132405   3.502   3.519   2.297
10502SOL    HW232406   3.572   3.662   2.335
10503SOL     OW32407   6.997   1.993   6.287
10503SOL    HW132408   0.027   1.962   6.365
10503SOL    HW232409   6.906   2.020   6.317
10504SOL     OW32410   0.937   3.029   5.764
10504SOL    HW132411   0.861   3.071   5.716
10504SOL    HW232412   0.927   3.043   5.863
10505SOL     OW32413   5.788   6.958   0.726
10505SOL    HW132414   5.838   0.011   0.766
10505SOL    HW232415   5.825   6.872   0.761
10506SOL     OW32416   1.109   3.147   6.310
10506SOL    HW132417   1.098   3.232   6.259
10506SOL    HW232418   1.131   3.072   6.248
10507SOL     OW32419   1.135   5.163   5.827
10507SOL    HW132420   1.181   5.248   5.851
10507SOL    HW232421   1.194   5.110   5.766
10508SOL     OW32422   1.684   5.156   5.230
10508SOL    HW132423   1.611   5.121   5.290
10508SOL    HW232424   1.653   5.239   5.186
10509SOL     OW32425   4.583   2.331   2.141
10509SOL    HW132426   4.672   2.376   2.141
10509SOL    HW232427   4.544   2.334   2.233
10510SOL     OW32428   5.744   6.010   3.802
10510SOL    HW132429   5.742   6.109   3.819
10510SOL    HW232430   5.724   5.962   3.888
10511SOL     OW32431   4.637   1.331   1.259
10511SOL    HW132432   4.588   1.262   1.207
10511SOL    HW232433   4.595   1.420   1.246
10512SOL     OW32434   4.820   0.964   4.945
10512SOL    HW132435   4.756   0.909   4.999
10512SOL    HW232436   4.774   0.998   4.863
10513SOL     OW32437   4.069   2.774   0.956
10513SOL    HW132438   3.999   2.703   0.954
10513SOL    HW232439   4.026   2.863   0.943
10514SOL     OW32440   1.513   3.231   1.994
10514SOL    HW132441   1.488   3.317   2.038
10514SOL    HW232442   1.543   3.249   1.900
10515SOL     OW32443   2.297   2.857   4.795
10515SOL    HW132444   2.226   2.821   4.856
10515SOL    HW232445   2.375   2.888   4.848
10516SOL     OW32446   4.682   2.417   1.428
10516SOL    HW132447   4.658   2.375   1.515
10516SOL    HW232448   4.776   2.394   1.404
10517SOL     OW32449   0.954   2.829   2.343
10517SOL    HW132450   1.009   2.896   2.392
10517SOL    HW232451   0.943   2.747   2.399
10518SOL     OW32452   0.687   5.250   2.777
10518SOL    HW132453   0.722   5.263   2.869
10518SOL    HW232454   0.763   5.250   2.712
10519SOL     OW32455   3.958   0.147   0.802
10519SOL    HW132456   4.037   0.156   0.741
10519SOL    HW232457   3.985   0.174   0.895
10520SOL     OW32458   0.973   2.760   5.801
10520SOL    HW132459   0.991   2.853   5.831
10520SOL    HW232460   0.957   2.759   5.702
10521SOL     OW32461   6.286   2.822   2.966
10521SOL    HW132462   6.303   2.769   3.049
10521SOL    HW232463   6.253   2.760   2.894
10522SOL     OW32464   5.786   2.222   3.921
10522SOL    HW132465   5.690   2.228   3.894
10522SOL    HW232466   5.844   2.246   3.844
10523SOL     OW32467   1.482   4.177   3.168
10523SOL    HW132468   1.406   4.123   3.133
10523SOL    HW232469   1.493   4.260   3.112
10524SOL     OW32470   6.685   6.423   5.189
10524SOL    HW132471   6.638   6.360   5.250
10524SOL    HW232472   6.754   6.373   5.136
10525SOL     OW32473   5.065   1.381   3.779
10525SOL    HW132474   5.158   1.365   3.811
10525SOL    HW232475   5.026   1.460   3.827
10526SOL     OW32476   0.804   4.774   6.818
10526SOL    HW132477   0.878   4.764   6.884
10526SOL    HW232478   0.741   4.844   6.849
10527SOL     OW32479   0.753   0.142   5.747
10527SOL    HW132480   0.842   0.116   5.786
10527SOL    HW232481   0.740   0.096   5.659
10528SOL     OW32482   1.238   3.886   5.350
10528SOL    HW132483   1.230   3.788   5.371
10528SOL    HW232484   1.207   3.902   5.257
10529SOL     OW32485   0.185   5.502   0.636
10529SOL    HW132486   0.285   5.498   0.642
10529SOL    HW232487   0.155   5.454   0.554
10530SOL     OW32488   7.007   6.039   1.350
10530SOL    HW132489   7.011   6.067   1.446
10530SOL    HW232490   7.002   6.120   1.292
10531SOL     OW32491   2.919   3.259   4.945
10531SOL    HW132492   2.912   3.316   5.028
10531SOL    HW232493   2.847   3.191   4.946
10532SOL     OW32494   5.308   6.102   6.826
10532SOL    HW132495   5.292   6.177   6.761
10532SOL    HW232496   5.304   6.015   6.777
10533SOL     OW32497   3.979   0.266   2.925
10533SOL    HW132498   4.063   0.218   2.950
10533SOL    HW232499   3.923   0.208   2.866
10534SOL     OW32500   1.261   5.781   4.335
10534SOL    HW132501   1.270   5.696   4.387
10534SOL    HW232502   1.341   5.839   4.352
10535SOL     OW32503   3.662   2.118   2.774
10535SOL    HW132504   3.657   2.098   2.676
10535SOL    HW232505   3.725   2.053   2.818
10536SOL     OW32506   4.969   3.195   4.776
10536SOL    HW132507   5.046   3.235   4.725
10536SOL    HW232508   5.003   3.121   4.834
10537SOL     OW32509   3.492   6.917   3.929
10537SOL    HW132510   3.485   6.962   4.018
10537SOL    HW232511   3.538   6.977   3.865
10538SOL     OW32512   6.753   3.249   3.047
10538SOL    HW132513   6.805   3.233   3.131
10538SOL    HW232514   6.657   3.264   3.070
10539SOL     OW32515   0.085   0.102   3.591
10539SOL    HW132516   0.125   0.046   3.663
10539SOL    HW232517   0.107   0.199   3.607
10540SOL     OW32518   1.455   4.434   6.517
10540SOL    HW132519   1.416   4.459   6.606
10540SOL    HW232520   1.466   4.335   6.512
10541SOL     OW32521   3.269   3.359   5.371
10541SOL    HW132522   3.246   3.452   5.342
10541SOL    HW232523   3.265   3.297   5.292
10542SOL     OW32524   5.446   7.003   3.630
10542SOL    HW132525   5.469   6.994   3.727
10542SOL    HW232526   5.355   6.964   3.613
10543SOL     OW32527   1.561   3.360   3.888
10543SOL    HW132528   1.521   3.452   3.880
10543SOL    HW232529   1.659   3.368   3.907
10544SOL     OW32530   2.378   1.649   3.014
10544SOL    HW132531   2.441   1.713   3.058
10544SOL    HW232532   2.420   1.558   3.010
10545SOL     OW32533   2.331   2.744   2.646
10545SOL    HW132534   2.293   2.780   2.561
10545SOL    HW232535   2.295   2.795   2.724
10546SOL     OW32536   2.921   6.976   6.302
10546SOL    HW132537   2.967   0.036   6.333
10546SOL    HW232538   2.975   6.896   6.330
10547SOL     OW32539   4.572   6.763   5.454
10547SOL    HW132540   4.477   6.731   5.451
10547SOL    HW232541   4.588   6.826   5.378
10548SOL     OW32542   6.678   6.086   2.849
10548SOL    HW132543   6.582   6.092   2.824
10548SOL    HW232544   6.689   6.106   2.946
10549SOL     OW32545   6.385   0.130   1.619
10549SOL    HW132546   6.419   0.090   1.534
10549SOL    HW232547   6.411   0.226   1.623
10550SOL     OW32548   4.787   5.922   3.276
10550SOL    HW132549   4.821   5.828   3.266
10550SOL    HW232550   4.863   5.982   3.302
10551SOL     OW32551   3.313   0.279   5.117
10551SOL    HW132552   3.264   0.232   5.045
10551SOL    HW232553   3.250   0.337   5.169
10552SOL     OW32554   2.727   0.281   3.926
10552SOL    HW132555   2.664   0.359   3.921
10552SOL    HW232556   2.821   0.315   3.929
10553SOL     OW32557   6.500   5.662   1.232
10553SOL    HW132558   6.442   5.624   1.304
10553SOL    HW232559   6.596   5.651   1.258
10554SOL     OW32560   5.927   6.032   2.593
10554SOL    HW132561   5.891   6.125   2.587
10554SOL    HW232562   5.851   5.967   2.600
10555SOL     OW32563   3.586   3.325   1.185
10555SOL    HW132564   3.629   3.403   1.139
10555SOL    HW232565   3.493   3.351   1.213
10556SOL     OW32566   2.146   1.651   2.186
10556SOL    HW132567   2.196   1.737   2.177
10556SOL    HW232568   2.050   1.666   2.164
10557SOL     OW32569   2.460   4.910   3.153
10557SOL    HW132570   2.536   4.868   3.103
10557SOL    HW232571   2.458   5.008   3.134
10558SOL     OW32572   3.328   5.105   5.626
10558SOL    HW132573   3.332   5.143   5.534
10558SOL    HW232574   3.346   5.178   5.693
10559SOL     OW32575   4.058   6.402   1.162
10559SOL    HW132576   3.968   6.414   1.203
10559SOL    HW232577   4.089   6.488   1.122
10560SOL     OW32578   5.683   6.909   3.000
10560SOL    HW132579   5.783   6.901   3.008
10560SOL    HW232580   5.646   6.947   3.085
10561SOL     OW32581   6.607   4.846   0.177
10561SOL    HW132582   6.623   4.796   0.262
10561SOL    HW232583   6.585   4.781   0.104
10562SOL     OW32584   4.428   6.019   2.230
10562SOL    HW132585   4.524   6.045   2.243
10562SOL    HW232586   4.370   6.099   2.244
10563SOL     OW32587   0.237   6.844   2.325
10563SOL    HW132588   0.322   6.858   2.375
10563SOL    HW232589   0.197   6.756   2.352
10564SOL     OW32590   5.125   4.082   3.705
10564SOL    HW132591   5.044   4.090   3.646
10564SOL    HW232592   5.095   4.062   3.798
10565SOL     OW32593   1.070   0.870   6.113
10565SOL    HW132594   1.040   0.789   6.062
10565SOL    HW232595   1.007   0.946   6.093
10566SOL     OW32596   3.598   2.319   0.139
10566SOL    HW132597   3.533   2.361   0.202
10566SOL    HW232598   3.691   2.344   0.165
10567SOL     OW32599   2.005   2.265   6.057
10567SOL    HW132600   2.072   2.216   6.001
10567SOL    HW232601   1.935   2.202   6.089
10568SOL     OW32602   4.338   2.383   6.125
10568SOL    HW132603   4.430   2.393   6.089
10568SOL    HW232604   4.329   2.436   6.209
10569SOL     OW32605   5.901   0.276   0.244
10569SOL    HW132606   5.930   0.243   0.154
10569SOL    HW232607   5.837   0.209   0.284
10570SOL     OW32608   1.271   4.009   3.159
10570SOL    HW132609   1.201   3.954   3.112
10570SOL    HW232610   1.346   3.949   3.187
10571SOL     OW32611   6.393   4.132   5.693
10571SOL    HW132612   6.444   4.107   5.775
10571SOL    HW232613   6.451   4.186   5.632
10572SOL     OW32614   6.087   4.173   0.958
10572SOL    HW132615   6.072   4.270   0.937
10572SOL    HW232616   6.151   4.165   1.034
10573SOL     OW32617   6.421   2.009   2.951
10573SOL    HW132618   6.456   2.077   2.888
10573SOL    HW232619   6.338   1.968   2.914
10574SOL     OW32620   5.933   3.141   2.388
10574SOL    HW132621   5.985   3.070   2.435
10574SOL    HW232622   5.856   3.169   2.445
10575SOL     OW32623   5.868   6.520   2.198
10575SOL    HW132624   5.925   6.593   2.162
10575SOL    HW232625   5.888   6.435   2.150
10576SOL     OW32626   1.820   4.338   4.481
10576SOL    HW132627   1.794   4.242   4.480
10576SOL    HW232628   1.801   4.379   4.392
10577SOL     OW32629   3.663   4.055   0.266
10577SOL    HW132630   3.580   4.000   0.273
10577SOL    HW232631   3.662   4.108   0.181
10578SOL     OW32632   0.411   3.716   3.860
10578SOL    HW132633   0.429   3.795   3.801
10578SOL    HW232634   0.497   3.670   3.881
10579SOL     OW32635   0.485   3.466   6.465
10579SOL    HW132636   0.567   3.469   6.408
10579SOL    HW232637   0.503   3.412   6.547
10580SOL     OW32638   6.184   0.163   0.226
10580SOL    HW132639   6.213   0.258   0.241
10580SOL    HW232640   6.187   0.113   0.312
10581SOL     OW32641   4.261   0.287   2.810
10581SOL    HW132642   4.184   0.292   2.747
10581SOL    HW232643   4.302   0.378   2.820
10582SOL     OW32644   6.263   3.725   6.368
10582SOL    HW132645   6.202   3.750   6.443
10582SOL    HW232646   6.331   3.797   6.355
10583SOL     OW32647   3.148   1.765   4.811
10583SOL    HW132648   3.218   1.720   4.866
10583SOL    HW232649   3.094   1.826   4.870
10584SOL     OW32650   1.141   6.757   3.657
10584SOL    HW132651   1.150   6.774   3.559
10584SOL    HW232652   1.230   6.767   3.701
10585SOL     OW32653   1.424   0.815   5.146
10585SOL    HW132654   1.417   0.888   5.214
10585SOL    HW232655   1.414   0.727   5.191
10586SOL     OW32656   4.001   4.227   5.283
10586SOL    HW132657   4.012   4.223   5.382
10586SOL    HW232658   4.073   4.284   5.243
10587SOL     OW32659   2.034   4.858   5.643
10587SOL    HW132660   1.954   4.881   5.588
10587SOL    HW232661   2.029   4.763   5.672
10588SOL     OW32662   1.559   3.939   3.517
10588SOL    HW132663   1.541   3.841   3.501
10588SOL    HW232664   1.486   3.978   3.572
10589SOL     OW32665   5.559   6.462   4.310
10589SOL    HW132666   5.656   6.483   4.303
10589SOL    HW232667   5.508   6.520   4.246
10590SOL     OW32668   0.750   4.996   2.294
10590SOL    HW132669   0.652   5.008   2.309
10590SOL    HW232670   0.767   4.980   2.197
10591SOL     OW32671   6.828   3.367   1.662
10591SOL    HW132672   6.738   3.410   1.665
10591SOL    HW232673   6.827   3.289   1.600
10592SOL     OW32674   0.071   0.899   5.093
10592SOL    HW132675   0.036   0.941   5.009
10592SOL    HW232676   0.053   0.801   5.092
10593SOL     OW32677   3.085   5.211   3.258
10593SOL    HW132678   3.054   5.154   3.334
10593SOL    HW232679   3.010   5.226   3.195
10594SOL     OW32680   3.448   5.260   3.829
10594SOL    HW132681   3.470   5.355   3.848
10594SOL    HW232682   3.385   5.255   3.751
10595SOL     OW32683   4.637   6.836   0.705
10595SOL    HW132684   4.661   6.827   0.608
10595SOL    HW232685   4.618   6.746   0.743
10596SOL     OW32686   5.221   3.290   0.105
10596SOL    HW132687   5.313   3.284   0.142
10596SOL    HW232688   5.211   3.223   0.031
10597SOL     OW32689   2.119   6.736   4.574
10597SOL    HW132690   2.055   6.668   4.609
10597SOL    HW232691   2.203   6.734   4.627
10598SOL     OW32692   3.101   1.192   6.216
10598SOL    HW132693   3.173   1.207   6.148
10598SOL    HW232694   3.058   1.280   6.239
10599SOL     OW32695   0.434   2.041   0.333
10599SOL    HW132696   0.495   2.034   0.413
10599SOL    HW232697   0.474   1.991   0.256
10600SOL     OW32698   3.465   1.956   1.562
10600SOL    HW132699   3.466   2.049   1.599
10600SOL    HW232700   3.514   1.895   1.623
10601SOL     OW32701   2.199   0.535   5.205
10601SOL    HW132702   2.218   0.444   5.242
10601SOL    HW232703   2.285   0.583   5.190
10602SOL     OW32704   6.709   6.895   1.400
10602SOL    HW132705   6.683   6.799   1.408
10602SOL    HW232706   6.633   6.953   1.428
10603SOL     OW32707   5.537   0.508   2.658
10603SOL    HW132708   5.589   0.560   2.726
10603SOL    HW232709   5.498   0.427   2.701
10604SOL     OW32710   4.895   0.659   4.773
10604SOL    HW132711   4.934   0.575   4.735
10604SOL    HW232712   4.871   0.721   4.698
10605SOL     OW32713   2.820   2.075   1.543
10605SOL    HW132714   2.907   2.124   1.546
10605SOL    HW232715   2.814   2.022   1.458
10606SOL     OW32716   6.810   0.791   0.291
10606SOL    HW132717   6.780   0.839   0.209
10606SOL    HW232718   6.788   0.694   0.283
10607SOL     OW32719   3.283   4.315   6.954
10607SOL    HW132720   3.248   4.391   7.010
10607SOL    HW232721   3.213   4.289   6.887
10608SOL     OW32722   5.619   4.080   4.137
10608SOL    HW132723   5.639   4.099   4.233
10608SOL    HW232724   5.686   4.015   4.101
10609SOL     OW32725   5.609   0.573   6.255
10609SOL    HW132726   5.687   0.628   6.285
10609SOL    HW232727   5.615   0.482   6.296
10610SOL     OW32728   0.348   1.096   3.657
10610SOL    HW132729   0.296   1.167   3.705
10610SOL    HW232730   0.393   1.136   3.577
10611SOL     OW32731   3.899   5.880   4.868
10611SOL    HW132732   3.970   5.828   4.916
10611SOL    HW232733   3.926   5.893   4.773
10612SOL     OW32734   6.395   2.364   3.375
10612SOL    HW132735   6.368   2.272   3.404
10612SOL    HW232736   6.449   2.359   3.291
10613SOL     OW32737   4.233   6.235   4.523
10613SOL    HW132738   4.256   6.326   4.557
10613SOL    HW232739   4.284   6.217   4.439
10614SOL     OW32740   3.944   1.807   6.030
10614SOL    HW132741   3.973   1.795   5.935
10614SOL    HW232742   3.905   1.898   6.042
10615SOL     OW32743   2.356   1.564   5.103
10615SOL    HW132744   2.263   1.561   5.139
10615SOL    HW232745   2.380   1.658   5.079
10616SOL     OW32746   1.855   6.131   6.942
10616SOL    HW132747   1.789   6.072   6.898
10616SOL    HW232748   1.932   6.147   6.881
10617SOL     OW32749   2.045   2.867   1.381
10617SOL    HW132750   2.067   2.964   1.388
10617SOL    HW232751   2.030   2.843   1.285
10618SOL     OW32752   0.915   5.191   3.916
10618SOL    HW132753   1.002   5.142   3.925
10618SOL    HW232754   0.913   5.268   3.979
10619SOL     OW32755   1.081   2.644   2.611
10619SOL    HW132756   1.145   2.608   2.542
10619SOL    HW232757   1.133   2.694   2.680
10620SOL     OW32758   3.515   0.687   5.730
10620SOL    HW132759   3.578   0.765   5.735
10620SOL    HW232760   3.421   0.719   5.747
10621SOL     OW32761   0.781   3.779   3.044
10621SOL    HW132762   0.761   3.698   2.989
10621SOL    HW232763   0.880   3.792   3.050
10622SOL     OW32764   4.275   1.789   6.980
10622SOL    HW132765   4.193   1.767   6.927
10622SOL    HW232766   4.282   1.888   6.991
10623SOL     OW32767   4.865   6.719   5.860
10623SOL    HW132768   4.807   6.677   5.790
10623SOL    HW232769   4.916   6.648   5.908
10624SOL     OW32770   1.069   2.146   0.513
10624SOL    HW132771   1.001   2.204   0.470
10624SOL    HW232772   1.026   2.060   0.542
10625SOL     OW32773   5.981   5.116   0.166
10625SOL    HW132774   6.008   5.159   0.253
10625SOL    HW232775   6.009   5.021   0.166
10626SOL     OW32776   5.626   3.209   1.071
10626SOL    HW132777   5.564   3.149   1.122
10626SOL    HW232778   5.581   3.298   1.057
10627SOL     OW32779   5.574   5.562   5.443
10627SOL    HW132780   5.608   5.656   5.447
10627SOL    HW232781   5.629   5.505   5.503
10628SOL     OW32782   3.498   6.770   0.080
10628SOL    HW132783   3.560   6.808   0.149
10628SOL    HW232784   3.542   6.693   0.035
10629SOL     OW32785   3.753   5.481   4.666
10629SOL    HW132786   3.703   5.399   4.691
10629SOL    HW232787   3.703   5.562   4.697
10630SOL     OW32788   3.776   1.324   1.508
10630SOL    HW132789   3.695   1.345   1.563
10630SOL    HW232790   3.769   1.229   1.475
10631SOL     OW32791   3.643   5.923   0.872
10631SOL    HW132792   3.647   5.830   0.909
10631SOL    HW232793   3.728   5.971   0.893
10632SOL     OW32794   5.088   6.023   3.680
10632SOL    HW132795   5.132   6.026   3.770
10632SOL    HW232796   5.006   6.080   3.680
10633SOL     OW32797   1.875   3.229   0.940
10633SOL    HW132798   1.938   3.289   0.891
10633SOL    HW232799   1.805   3.195   0.877
10634SOL     OW32800   0.127   4.287   0.083
10634SOL    HW132801   0.137   4.190   0.106
10634SOL    HW232802   0.211   4.318   0.037
10635SOL     OW32803   2.216   5.193   6.440
10635SOL    HW132804   2.146   5.227   6.378
10635SOL    HW232805   2.174   5.144   6.516
10636SOL     OW32806   6.642   2.059   0.204
10636SOL    HW132807   6.613   1.964   0.220
10636SOL    HW232808   6.654   2.105   0.291
10637SOL     OW32809   2.673   0.283   0.011
10637SOL    HW132810   2.749   0.251   6.978
10637SOL    HW232811   2.630   0.362   6.990
10638SOL     OW32812   5.724   4.896   1.301
10638SOL    HW132813   5.638   4.849   1.281
10638SOL    HW232814   5.748   4.880   1.397
10639SOL     OW32815   0.531   5.419   1.741
10639SOL    HW132816   0.480   5.395   1.823
10639SOL    HW232817   0.555   5.335   1.691
10640SOL     OW32818   4.502   6.810   3.483
10640SOL    HW132819   4.578   6.783   3.424
10640SOL    HW232820   4.495   6.746   3.559
10641SOL     OW32821   1.164   1.339   3.393
10641SOL    HW132822   1.247   1.315   3.342
10641SOL    HW232823   1.098   1.381   3.331
10642SOL     OW32824   7.005   3.133   6.154
10642SOL    HW132825   6.962   3.045   6.175
10642SOL    HW232826   6.936   3.205   6.158
10643SOL     OW32827   2.638   5.059   5.900
10643SOL    HW132828   2.635   5.102   5.809
10643SOL    HW232829   2.697   5.113   5.960
10644SOL     OW32830   6.444   3.018   2.865
10644SOL    HW132831   6.403   2.943   2.915
10644SOL    HW232832   6.394   3.103   2.884
10645SOL     OW32833   2.001   2.247   3.184
10645SOL    HW132834   2.044   2.181   3.121
10645SOL    HW232835   1.904   2.256   3.162
10646SOL     OW32836   5.293   0.792   3.403
10646SOL    HW132837   5.390   0.814   3.393
10646SOL    HW232838   5.279   0.737   3.485
10647SOL     OW32839   3.539   5.525   5.392
10647SOL    HW132840   3.570   5.620   5.396
10647SOL    HW232841   3.616   5.465   5.370
10648SOL     OW32842   4.708   4.576   5.897
10648SOL    HW132843   4.699   4.624   5.984
10648SOL    HW232844   4.618   4.547   5.865
10649SOL     OW32845   6.018   3.422   2.612
10649SOL    HW132846   6.012   3.522   2.610
10649SOL    HW232847   5.926   3.383   2.607
10650SOL     OW32848   1.156   0.111   3.670
10650SOL    HW132849   1.222   0.090   3.598
10650SOL    HW232850   1.122   0.204   3.658
10651SOL     OW32851   3.382   6.200   6.034
10651SOL    HW132852   3.453   6.158   5.977
10651SOL    HW232853   3.354   6.287   5.994
10652SOL     OW32854   2.154   0.496   0.381
10652SOL    HW132855   2.138   0.587   0.419
10652SOL    HW232856   2.188   0.504   0.288
10653SOL     OW32857   4.266   5.987   4.637
10653SOL    HW132858   4.360   5.954   4.648
10653SOL    HW232859   4.268   6.080   4.602
10654SOL     OW32860   5.949   1.378   4.345
10654SOL    HW132861   6.046   1.361   4.330
10654SOL    HW232862   5.902   1.381   4.256
10655SOL     OW32863   0.150   4.262   1.958
10655SOL    HW132864   0.099   4.179   1.982
10655SOL    HW232865   0.242   4.237   1.930
10656SOL     OW32866   6.227   2.681   4.097
10656SOL    HW132867   6.178   2.595   4.110
10656SOL    HW232868   6.171   2.743   4.042
10657SOL     OW32869   4.702   6.736   4.414
10657SOL    HW132870   4.711   6.659   4.477
10657SOL    HW232871   4.683   6.701   4.322
10658SOL     OW32872   0.635   2.553   5.257
10658SOL    HW132873   0.607   2.489   5.329
10658SOL    HW232874   0.569   2.628   5.251
10659SOL     OW32875   0.705   5.881   0.546
10659SOL    HW132876   0.787   5.920   0.589
10659SOL    HW232877   0.724   5.864   0.449
10660SOL     OW32878   5.484   2.997   5.398
10660SOL    HW132879   5.386   3.014   5.387
10660SOL    HW232880   5.519   3.050   5.476
10661SOL     OW32881   2.995   4.989   5.816
10661SOL    HW132882   2.934   5.052   5.768
10661SOL    HW232883   2.978   4.895   5.785
10662SOL     OW32884   2.388   1.250   1.245
10662SOL    HW132885   2.423   1.202   1.326
10662SOL    HW232886   2.366   1.344   1.270
10663SOL     OW32887   0.867   1.786   3.447
10663SOL    HW132888   0.833   1.766   3.355
10663SOL    HW232889   0.902   1.702   3.488
10664SOL     OW32890   0.606   5.616   4.890
10664SOL    HW132891   0.538   5.584   4.956
10664SOL    HW232892   0.686   5.556   4.893
10665SOL     OW32893   3.020   3.069   6.946
10665SOL    HW132894   3.114   3.094   6.922
10665SOL    HW232895   2.983   3.007   6.877
10666SOL     OW32896   3.937   4.078   1.856
10666SOL    HW132897   3.928   4.102   1.952
10666SOL    HW232898   3.950   3.979   1.847
10667SOL     OW32899   5.031   2.699   3.566
10667SOL    HW132900   5.095   2.624   3.579
10667SOL    HW232901   4.959   2.694   3.635
10668SOL     OW32902   3.429   2.888   5.487
10668SOL    HW132903   3.408   2.968   5.543
10668SOL    HW232904   3.471   2.917   5.401
10669SOL     OW32905   5.638   1.352   1.671
10669SOL    HW132906   5.712   1.407   1.633
10669SOL    HW232907   5.638   1.261   1.628
10670SOL     OW32908   4.999   3.578   4.536
10670SOL    HW132909   4.951   3.564   4.623
10670SOL    HW232910   5.009   3.677   4.520
10671SOL     OW32911   1.814   3.043   4.999
10671SOL    HW132912   1.759   3.126   4.992
10671SOL    HW232913   1.755   2.963   4.996
10672SOL     OW32914   5.716   3.457   1.689
10672SOL    HW132915   5.788   3.451   1.758
10672SOL    HW232916   5.660   3.539   1.706
10673SOL     OW32917   1.904   1.273   1.074
10673SOL    HW132918   1.804   1.278   1.079
10673SOL    HW232919   1.931   1.195   1.017
10674SOL     OW32920   3.932   3.695   3.299
10674SOL    HW132921   3.861   3.755   3.262
10674SOL    HW232922   3.900   3.655   3.385
10675SOL     OW32923   3.689   6.715   5.337
10675SOL    HW132924   3.767   6.692   5.279
10675SOL    HW232925   3.612   6.654   5.315
10676SOL     OW32926   1.604   0.618   5.338
10676SOL    HW132927   1.664   0.623   5.258
10676SOL    HW232928   1.548   0.536   5.333
10677SOL     OW32929   0.138   1.353   0.797
10677SOL    HW132930   0.192   1.338   0.715
10677SOL    HW232931   0.121   1.451   0.809
10678SOL     OW32932   4.098   5.720   3.422
10678SOL    HW132933   4.156   5.687   3.348
10678SOL    HW232934   4.139   5.800   3.464
10679SOL     OW32935   4.374   3.478   6.562
10679SOL    HW132936   4.330   3.520   6.482
10679SOL    HW232937   4.402   3.385   6.540
10680SOL     OW32938   4.031   1.373   4.400
10680SOL    HW132939   4.029   1.314   4.481
10680SOL    HW232940   4.121   1.367   4.357
10681SOL     OW32941   1.468   2.757   5.378
10681SOL    HW132942   1.496   2.711   5.463
10681SOL    HW232943   1.369   2.768   5.377
10682SOL     OW32944   5.197   3.365   6.112
10682SOL    HW132945   5.256   3.444   6.122
10682SOL    HW232946   5.241   3.297   6.054
10683SOL     OW32947   2.713   0.627   3.697
10683SOL    HW132948   2.643   0.573   3.744
10683SOL    HW232949   2.776   0.565   3.649
10684SOL     OW32950   4.357   4.742   2.182
10684SOL    HW132951   4.404   4.668   2.134
10684SOL    HW232952   4.424   4.812   2.208
10685SOL     OW32953   0.844   6.152   1.141
10685SOL    HW132954   0.810   6.133   1.049
10685SOL    HW232955   0.776   6.122   1.209
10686SOL     OW32956   3.036   1.424   6.443
10686SOL    HW132957   2.972   1.455   6.373
10686SOL    HW232958   3.020   1.474   6.528
10687SOL     OW32959   0.363   3.946   3.273
10687SOL    HW132960   0.384   3.870   3.334
10687SOL    HW232961   0.431   3.950   3.199
10688SOL     OW32962   4.996   2.125   2.162
10688SOL    HW132963   5.012   2.081   2.074
10688SOL    HW232964   5.062   2.198   2.176
10689SOL     OW32965   0.123   0.272   3.210
10689SOL    HW132966   0.077   0.260   3.122
10689SOL    HW232967   0.170   0.188   3.236
10690SOL     OW32968   0.100   7.017   4.116
10690SOL    HW132969   0.080   0.012   4.212
10690SOL    HW232970   0.146   6.929   4.108
10691SOL     OW32971   3.164   0.418   2.973
10691SOL    HW132972   3.219   0.471   2.908
10691SOL    HW232973   3.077   0.394   2.929
10692SOL     OW32974   2.183   0.610   3.980
10692SOL    HW132975   2.197   0.518   4.019
10692SOL    HW232976   2.160   0.674   4.054
10693SOL     OW32977   1.804   5.385   0.700
10693SOL    HW132978   1.809   5.473   0.653
10693SOL    HW232979   1.731   5.388   0.769
10694SOL     OW32980   4.191   6.755   5.238
10694SOL    HW132981   4.186   6.851   5.267
10694SOL    HW232982   4.243   6.703   5.305
10695SOL     OW32983   6.227   4.110   1.735
10695SOL    HW132984   6.213   4.107   1.636
10695SOL    HW232985   6.189   4.196   1.771
10696SOL     OW32986   6.538   4.895   4.362
10696SOL    HW132987   6.535   4.854   4.453
10696SOL    HW232988   6.616   4.959   4.357
10697SOL     OW32989   1.298   5.153   5.374
10697SOL    HW132990   1.382   5.098   5.364
10697SOL    HW232991   1.308   5.214   5.452
10698SOL     OW32992   4.616   2.893   0.076
10698SOL    HW132993   4.681   2.954   0.030
10698SOL    HW232994   4.625   2.905   0.175
10699SOL     OW32995   3.476   3.226   0.149
10699SOL    HW132996   3.480   3.312   0.199
10699SOL    HW232997   3.537   3.159   0.192
10700SOL     OW32998   5.025   1.088   1.113
10700SOL    HW132999   4.981   1.067   1.200
10700SOL    HW233000   5.021   1.008   1.053
10701SOL     OW33001   2.825   0.789   5.989
10701SOL    HW133002   2.911   0.744   6.013
10701SOL    HW233003   2.767   0.797   6.070
10702SOL     OW33004   5.840   2.415   1.848
10702SOL    HW133005   5.866   2.487   1.912
10702SOL    HW233006   5.910   2.406   1.777
10703SOL     OW33007   1.313   2.716   6.469
10703SOL    HW133008   1.406   2.685   6.446
10703SOL    HW233009   1.272   2.759   6.389
10704SOL     OW33010   5.981   6.837   1.614
10704SOL    HW133011   6.057   6.856   1.676
10704SOL    HW233012   5.950   6.743   1.627
10705SOL     OW33013   5.725   4.443   1.415
10705SOL    HW133014   5.667   4.407   1.342
10705SOL    HW233015   5.746   4.371   1.480
10706SOL     OW33016   4.718   0.309   1.645
10706SOL    HW133017   4.761   0.231   1.690
10706SOL    HW233018   4.662   0.358   1.711
10707SOL     OW33019   5.752   0.535   4.263
10707SOL    HW133020   5.786   0.629   4.258
10707SOL    HW233021   5.803   0.484   4.332
10708SOL     OW33022   4.364   1.892   2.166
10708SOL    HW133023   4.279   1.916   2.214
10708SOL    HW233024   4.406   1.976   2.130
10709SOL     OW33025   6.090   5.028   4.080
10709SOL    HW133026   6.181   5.031   4.119
10709SOL    HW233027   6.095   4.988   3.988
10710SOL     OW33028   5.374   1.226   3.272
10710SOL    HW133029   5.461   1.179   3.258
10710SOL    HW233030   5.369   1.306   3.211
10711SOL     OW33031   3.876   6.911   1.793
10711SOL    HW133032   3.884   6.984   1.724
10711SOL    HW233033   3.801   6.932   1.855
10712SOL     OW33034   4.709   6.456   3.096
10712SOL    HW133035   4.674   6.540   3.055
10712SOL    HW233036   4.804   6.470   3.126
10713SOL     OW33037   1.519   4.112   1.205
10713SOL    HW133038   1.593   4.173   1.232
10713SOL    HW233039   1.556   4.038   1.148
10714SOL     OW33040   3.764   3.801   4.303
10714SOL    HW133041   3.740   3.771   4.211
10714SOL    HW233042   3.690   3.779   4.366
10715SOL     OW33043   6.033   0.861   2.398
10715SOL    HW133044   6.123   0.857   2.442
10715SOL    HW233045   5.975   0.926   2.448
10716SOL     OW33046   6.075   2.481   3.670
10716SOL    HW133047   6.058   2.395   3.623
10716SOL    HW233048   6.174   2.500   3.670
10717SOL     OW33049   1.572   2.510   6.855
10717SOL    HW133050   1.493   2.488   6.798
10717SOL    HW233051   1.541   2.533   6.947
10718SOL     OW33052   1.253   4.985   5.640
10718SOL    HW133053   1.196   4.993   5.559
10718SOL    HW233054   1.339   4.940   5.616
10719SOL     OW33055   6.285   5.484   4.740
10719SOL    HW133056   6.230   5.524   4.666
10719SOL    HW233057   6.379   5.515   4.732
10720SOL     OW33058   5.906   5.808   4.088
10720SOL    HW133059   5.886   5.710   4.089
10720SOL    HW233060   6.002   5.823   4.110
10721SOL     OW33061   5.058   3.570   5.242
10721SOL    HW133062   5.093   3.491   5.190
10721SOL    HW233063   5.110   3.579   5.327
10722SOL     OW33064   0.139   4.160   6.085
10722SOL    HW133065   0.202   4.201   6.019
10722SOL    HW233066   0.180   4.076   6.122
10723SOL     OW33067   6.941   0.194   0.558
10723SOL    HW133068   6.907   0.249   0.635
10723SOL    HW233069   6.964   0.102   0.591
10724SOL     OW33070   6.549   6.495   0.437
10724SOL    HW133071   6.608   6.428   0.391
10724SOL    HW233072   6.454   6.465   0.431
10725SOL     OW33073   2.530   5.563   5.649
10725SOL    HW133074   2.485   5.508   5.580
10725SOL    HW233075   2.513   5.524   5.740
10726SOL     OW33076   4.562   0.413   3.754
10726SOL    HW133077   4.483   0.426   3.814
10726SOL    HW233078   4.546   0.460   3.667
10727SOL     OW33079   1.196   5.969   5.799
10727SOL    HW133080   1.202   5.962   5.899
10727SOL    HW233081   1.288   5.970   5.761
10728SOL     OW33082   6.445   5.365   0.846
10728SOL    HW133083   6.458   5.388   0.943
10728SOL    HW233084   6.398   5.441   0.800
10729SOL     OW33085   6.832   2.668   1.434
10729SOL    HW133086   6.928   2.674   1.408
10729SOL    HW233087   6.803   2.572   1.431
10730SOL     OW33088   4.231   0.143   1.505
10730SOL    HW133089   4.298   0.146   1.431
10730SOL    HW233090   4.258   0.205   1.578
10731SOL     OW33091   4.104   1.302   0.732
10731SOL    HW133092   4.184   1.320   0.790
10731SOL    HW233093   4.123   1.332   0.639
10732SOL     OW33094   0.467   5.451   5.075
10732SOL    HW133095   0.525   5.407   5.143
10732SOL    HW233096   0.398   5.386   5.042
10733SOL     OW33097   5.913   2.363   6.637
10733SOL    HW133098   5.930   2.408   6.725
10733SOL    HW233099   5.834   2.405   6.592
10734SOL     OW33100   0.977   1.906   1.551
10734SOL    HW133101   0.980   1.952   1.462
10734SOL    HW233102   0.894   1.850   1.556
10735SOL     OW33103   0.304   3.707   2.167
10735SOL    HW133104   0.217   3.676   2.207
10735SOL    HW233105   0.379   3.651   2.203
10736SOL     OW33106   3.155   6.569   3.757
10736SOL    HW133107   3.201   6.657   3.742
10736SOL    HW233108   3.063   6.572   3.717
10737SOL     OW33109   0.086   2.689   1.664
10737SOL    HW133110   0.019   2.719   1.732
10737SOL    HW233111   0.040   2.670   1.578
10738SOL     OW33112   4.282   0.701   3.029
10738SOL    HW133113   4.190   0.679   3.061
10738SOL    HW233114   4.320   0.775   3.084
10739SOL     OW33115   2.193   2.459   1.981
10739SOL    HW133116   2.141   2.380   2.011
10739SOL    HW233117   2.268   2.476   2.045
10740SOL     OW33118   5.023   4.821   4.425
10740SOL    HW133119   5.031   4.774   4.513
10740SOL    HW233120   5.091   4.894   4.420
10741SOL     OW33121   3.682   0.707   2.291
10741SOL    HW133122   3.721   0.782   2.237
10741SOL    HW233123   3.729   0.622   2.270
10742SOL     OW33124   5.748   5.270   1.004
10742SOL    HW133125   5.662   5.221   1.022
10742SOL    HW233126   5.823   5.204   0.998
10743SOL     OW33127   2.427   2.242   3.654
10743SOL    HW133128   2.387   2.254   3.745
10743SOL    HW233129   2.378   2.300   3.589
10744SOL     OW33130   3.731   2.529   1.058
10744SOL    HW133131   3.721   2.503   1.154
10744SOL    HW233132   3.643   2.563   1.024
10745SOL     OW33133   6.920   5.932   5.851
10745SOL    HW133134   6.902   6.020   5.896
10745SOL    HW233135   6.959   5.949   5.760
10746SOL     OW33136   0.562   4.063   5.163
10746SOL    HW133137   0.556   4.038   5.260
10746SOL    HW233138   0.480   4.112   5.136
10747SOL     OW33139   2.980   0.934   4.805
10747SOL    HW133140   3.069   0.926   4.760
10747SOL    HW233141   2.907   0.912   4.740
10748SOL     OW33142   5.275   1.115   2.310
10748SOL    HW133143   5.210   1.185   2.280
10748SOL    HW233144   5.226   1.044   2.360
10749SOL     OW33145   1.955   6.501   4.667
10749SOL    HW133146   1.936   6.422   4.610
10749SOL    HW233147   2.018   6.476   4.741
10750SOL     OW33148   3.897   0.746   5.108
10750SOL    HW133149   3.810   0.773   5.068
10750SOL    HW233150   3.945   0.684   5.046
10751SOL     OW33151   2.396   4.838   4.555
10751SOL    HW133152   2.417   4.934   4.533
10751SOL    HW233153   2.426   4.817   4.648
10752SOL     OW33154   5.385   4.663   5.014
10752SOL    HW133155   5.461   4.670   5.078
10752SOL    HW233156   5.400   4.585   4.953
10753SOL     OW33157   0.259   2.970   3.812
10753SOL    HW133158   0.161   2.979   3.827
10753SOL    HW233159   0.297   2.903   3.876
10754SOL     OW33160   1.147   0.505   3.034
10754SOL    HW133161   1.186   0.446   3.105
10754SOL    HW233162   1.049   0.515   3.049
10755SOL     OW33163   6.188   6.394   1.711
10755SOL    HW133164   6.274   6.423   1.754
10755SOL    HW233165   6.115   6.457   1.738
10756SOL     OW33166   6.559   6.599   5.030
10756SOL    HW133167   6.478   6.547   5.004
10756SOL    HW233168   6.606   6.552   5.105
10757SOL     OW33169   2.101   2.900   0.605
10757SOL    HW133170   2.197   2.901   0.630
10757SOL    HW233171   2.082   2.821   0.547
10758SOL     OW33172   0.933   6.035   3.745
10758SOL    HW133173   1.018   6.080   3.772
10758SOL    HW233174   0.858   6.070   3.802
10759SOL     OW33175   0.841   2.730   0.301
10759SOL    HW133176   0.880   2.818   0.329
10759SOL    HW233177   0.856   2.716   0.203
10760SOL     OW33178   6.091   1.421   3.418
10760SOL    HW133179   6.159   1.348   3.407
10760SOL    HW233180   6.032   1.400   3.497
10761SOL     OW33181   2.513   4.974   5.624
10761SOL    HW133182   2.424   4.943   5.591
10761SOL    HW233183   2.567   4.895   5.654
10762SOL     OW33184   2.980   0.601   4.573
10762SOL    HW133185   2.895   0.552   4.589
10762SOL    HW233186   3.054   0.536   4.555
10763SOL     OW33187   3.885   0.919   3.349
10763SOL    HW133188   3.792   0.884   3.367
10763SOL    HW233189   3.879   1.011   3.312
10764SOL     OW33190   4.984   1.087   4.158
10764SOL    HW133191   4.937   1.103   4.071
10764SOL    HW233192   5.074   1.048   4.140
10765SOL     OW33193   5.039   3.363   1.433
10765SOL    HW133194   4.943   3.365   1.407
10765SOL    HW233195   5.086   3.442   1.393
10766SOL     OW33196   2.978   3.163   1.049
10766SOL    HW133197   3.000   3.257   1.073
10766SOL    HW233198   3.054   3.103   1.074
10767SOL     OW33199   1.992   0.639   1.788
10767SOL    HW133200   1.945   0.552   1.797
10767SOL    HW233201   2.021   0.671   1.878
10768SOL     OW33202   6.605   5.133   0.783
10768SOL    HW133203   6.544   5.205   0.816
10768SOL    HW233204   6.599   5.054   0.843
10769SOL     OW33205   2.273   3.637   6.373
10769SOL    HW133206   2.205   3.643   6.446
10769SOL    HW233207   2.365   3.639   6.412
10770SOL     OW33208   4.415   5.699   3.496
10770SOL    HW133209   4.493   5.710   3.558
10770SOL    HW233210   4.385   5.789   3.465
10771SOL     OW33211   2.984   0.058   3.820
10771SOL    HW133212   3.032   7.001   3.853
10771SOL    HW233213   3.018   0.139   3.868
10772SOL     OW33214   5.959   5.858   3.713
10772SOL    HW133215   5.894   5.927   3.744
10772SOL    HW233216   5.958   5.780   3.777
10773SOL     OW33217   5.459   4.967   4.209
10773SOL    HW133218   5.424   5.050   4.165
10773SOL    HW233219   5.556   4.956   4.187
10774SOL     OW33220   1.672   1.062   3.862
10774SOL    HW133221   1.590   1.016   3.827
10774SOL    HW233222   1.753   1.019   3.823
10775SOL     OW33223   0.424   4.334   1.996
10775SOL    HW133224   0.457   4.404   1.932
10775SOL    HW233225   0.412   4.248   1.947
10776SOL     OW33226   2.111   0.289   6.876
10776SOL    HW133227   2.059   0.212   6.839
10776SOL    HW233228   2.062   0.375   6.857
10777SOL     OW33229   3.265   5.927   1.400
10777SOL    HW133230   3.294   5.965   1.312
10777SOL    HW233231   3.287   5.829   1.402
10778SOL     OW33232   5.778   6.474   3.520
10778SOL    HW133233   5.807   6.440   3.610
10778SOL    HW233234   5.682   6.448   3.505
10779SOL     OW33235   5.604   2.730   3.627
10779SOL    HW133236   5.533   2.799   3.633
10779SOL    HW233237   5.563   2.639   3.626
10780SOL     OW33238   0.804   1.383   3.215
10780SOL    HW133239   0.868   1.460   3.207
10780SOL    HW233240   0.772   1.357   3.124
10781SOL     OW33241   3.175   6.978   4.186
10781SOL    HW133242   3.147   6.885   4.163
10781SOL    HW233243   3.220   6.977   4.275
10782SOL     OW33244   6.131   6.018   4.496
10782SOL    HW133245   6.205   5.952   4.487
10782SOL    HW233246   6.145   6.093   4.430
10783SOL     OW33247   6.575   2.188   2.789
10783SOL    HW133248   6.615   2.279   2.788
10783SOL    HW233249   6.540   2.166   2.697
10784SOL     OW33250   2.743   1.368   3.794
10784SOL    HW133251   2.648   1.397   3.799
10784SOL    HW233252   2.751   1.291   3.731
10785SOL     OW33253   0.380   3.944   6.675
10785SOL    HW133254   0.406   4.017   6.737
10785SOL    HW233255   0.351   3.983   6.587
10786SOL     OW33256   6.589   5.649   2.875
10786SOL    HW133257   6.653   5.621   2.803
10786SOL    HW233258   6.496   5.625   2.847
10787SOL     OW33259   1.153   1.626   5.370
10787SOL    HW133260   1.235   1.611   5.314
10787SOL    HW233261   1.133   1.724   5.374
10788SOL     OW33262   6.765   4.286   6.458
10788SOL    HW133263   6.764   4.315   6.553
10788SOL    HW233264   6.819   4.202   6.449
10789SOL     OW33265   0.084   2.503   0.038
10789SOL    HW133266   0.008   2.555   7.021
10789SOL    HW233267   0.077   2.407   0.010
10790SOL     OW33268   0.134   0.048   2.247
10790SOL    HW133269   0.123   0.100   2.332
10790SOL    HW233270   0.163   6.979   2.268
10791SOL     OW33271   6.027   6.157   2.297
10791SOL    HW133272   6.072   6.158   2.207
10791SOL    HW233273   6.085   6.107   2.362
10792SOL     OW33274   3.920   3.778   5.157
10792SOL    HW133275   4.006   3.816   5.191
10792SOL    HW233276   3.867   3.850   5.113
10793SOL     OW33277   5.710   3.263   5.080
10793SOL    HW133278   5.736   3.331   5.012
10793SOL    HW233279   5.770   3.183   5.071
10794SOL     OW33280   3.462   3.298   3.637
10794SOL    HW133281   3.420   3.366   3.697
10794SOL    HW233282   3.492   3.220   3.692
10795SOL     OW33283   1.065   4.061   2.873
10795SOL    HW133284   1.100   4.037   2.783
10795SOL    HW233285   1.066   4.160   2.885
10796SOL     OW33286   1.135   6.139   5.101
10796SOL    HW133287   1.219   6.139   5.154
10796SOL    HW233288   1.156   6.147   5.004
10797SOL     OW33289   3.894   3.264   0.590
10797SOL    HW133290   3.799   3.237   0.570
10797SOL    HW233291   3.950   3.249   0.508
10798SOL     OW33292   1.268   1.334   1.174
10798SOL    HW133293   1.298   1.388   1.095
10798SOL    HW233294   1.193   1.381   1.220
10799SOL     OW33295   3.948   1.321   2.249
10799SOL    HW133296   3.875   1.389   2.240
10799SOL    HW233297   3.987   1.325   2.341
10800SOL     OW33298   1.061   6.533   0.061
10800SOL    HW133299   1.050   6.619   0.011
10800SOL    HW233300   1.144   6.537   0.117
10801SOL     OW33301   1.739   0.979   0.975
10801SOL    HW133302   1.697   0.993   1.065
10801SOL    HW233303   1.820   0.921   0.984
10802SOL     OW33304   6.300   0.025   3.274
10802SOL    HW133305   6.354   0.057   3.196
10802SOL    HW233306   6.277   6.952   3.263
10803SOL     OW33307   1.861   5.504   6.606
10803SOL    HW133308   1.959   5.499   6.622
10803SOL    HW233309   1.814   5.434   6.660
10804SOL     OW33310   0.367   3.266   3.802
10804SOL    HW133311   0.379   3.167   3.810
10804SOL    HW233312   0.362   3.307   3.893
10805SOL     OW33313   6.066   0.732   5.885
10805SOL    HW133314   5.982   0.738   5.831
10805SOL    HW233315   6.112   0.645   5.865
10806SOL     OW33316   1.667   4.773   6.919
10806SOL    HW133317   1.741   4.706   6.927
10806SOL    HW233318   1.619   4.780   7.007
10807SOL     OW33319   2.392   6.035   4.106
10807SOL    HW133320   2.356   6.125   4.128
10807SOL    HW233321   2.325   5.985   4.051
10808SOL     OW33322   0.222   1.891   6.202
10808SOL    HW133323   0.138   1.932   6.236
10808SOL    HW233324   0.296   1.906   6.267
10809SOL     OW33325   2.387   5.416   4.638
10809SOL    HW133326   2.456   5.361   4.685
10809SOL    HW233327   2.321   5.355   4.593
10810SOL     OW33328   0.308   7.022   4.546
10810SOL    HW133329   0.274   0.089   4.522
10810SOL    HW233330   0.322   7.017   4.645
10811SOL     OW33331   4.795   5.148   5.060
10811SOL    HW133332   4.799   5.209   5.140
10811SOL    HW233333   4.717   5.173   5.003
10812SOL     OW33334   7.020   2.682   6.603
10812SOL    HW133335   0.079   2.682   6.545
10812SOL    HW233336   6.989   2.776   6.617
10813SOL     OW33337   0.284   3.937   6.155
10813SOL    HW133338   0.322   3.847   6.138
10813SOL    HW233339   0.358   4.000   6.182
10814SOL     OW33340   2.387   0.615   0.975
10814SOL    HW133341   2.346   0.671   0.902
10814SOL    HW233342   2.341   0.634   1.061
10815SOL     OW33343   4.530   0.911   4.421
10815SOL    HW133344   4.527   0.824   4.372
10815SOL    HW233345   4.584   0.977   4.369
10816SOL     OW33346   3.505   3.128   3.156
10816SOL    HW133347   3.578   3.197   3.155
10816SOL    HW233348   3.418   3.172   3.134
10817SOL     OW33349   2.243   6.989   3.458
10817SOL    HW133350   2.309   6.981   3.384
10817SOL    HW233351   2.238   6.903   3.508
10818SOL     OW33352   4.526   5.096   5.842
10818SOL    HW133353   4.563   5.006   5.819
10818SOL    HW233354   4.589   5.142   5.905
10819SOL     OW33355   6.779   5.808   6.151
10819SOL    HW133356   6.857   5.746   6.157
10819SOL    HW233357   6.803   5.887   6.094
10820SOL     OW33358   2.081   4.570   5.773
10820SOL    HW133359   2.167   4.520   5.780
10820SOL    HW233360   2.043   4.558   5.681
10821SOL     OW33361   4.804   4.859   3.134
10821SOL    HW133362   4.823   4.953   3.163
10821SOL    HW233363   4.707   4.840   3.144
10822SOL     OW33364   5.820   2.982   1.131
10822SOL    HW133365   5.768   3.066   1.118
10822SOL    HW233366   5.758   2.907   1.153
10823SOL     OW33367   6.494   6.381   2.864
10823SOL    HW133368   6.556   6.338   2.799
10823SOL    HW233369   6.445   6.310   2.916
10824SOL     OW33370   1.093   1.879   4.176
10824SOL    HW133371   1.059   1.852   4.086
10824SOL    HW233372   1.069   1.974   4.194
10825SOL     OW33373   1.695   1.807   0.527
10825SOL    HW133374   1.668   1.858   0.445
10825SOL    HW233375   1.720   1.872   0.599
10826SOL     OW33376   1.318   2.468   2.908
10826SOL    HW133377   1.408   2.483   2.866
10826SOL    HW233378   1.293   2.549   2.962
10827SOL     OW33379   6.852   3.182   4.858
10827SOL    HW133380   6.866   3.087   4.886
10827SOL    HW233381   6.928   3.211   4.800
10828SOL     OW33382   6.235   4.376   5.832
10828SOL    HW133383   6.179   4.393   5.912
10828SOL    HW233384   6.302   4.304   5.853
10829SOL     OW33385   3.987   3.418   5.584
10829SOL    HW133386   4.083   3.443   5.596
10829SOL    HW233387   3.976   3.320   5.600
10830SOL     OW33388   4.618   0.951   3.762
10830SOL    HW133389   4.557   0.893   3.815
10830SOL    HW233390   4.673   1.007   3.825
10831SOL     OW33391   3.911   0.805   2.863
10831SOL    HW133392   3.880   0.844   2.776
10831SOL    HW233393   3.877   0.711   2.872
10832SOL     OW33394   6.871   3.433   0.060
10832SOL    HW133395   6.866   3.333   0.068
10832SOL    HW233396   6.962   3.459   0.027
10833SOL     OW33397   1.084   1.192   0.781
10833SOL    HW133398   1.012   1.223   0.844
10833SOL    HW233399   1.124   1.107   0.815
10834SOL     OW33400   6.660   6.711   0.561
10834SOL    HW133401   6.750   6.673   0.580
10834SOL    HW233402   6.607   6.646   0.506
10835SOL     OW33403   6.999   2.562   5.862
10835SOL    HW133404   0.041   2.505   5.811
10835SOL    HW233405   0.008   2.573   5.956
10836SOL     OW33406   0.117   1.730   3.711
10836SOL    HW133407   0.175   1.809   3.729
10836SOL    HW233408   0.171   1.658   3.668
10837SOL     OW33409   6.950   4.129   2.775
10837SOL    HW133410   6.998   4.143   2.862
10837SOL    HW233411   6.872   4.068   2.790
10838SOL     OW33412   6.367   5.794   3.750
10838SOL    HW133413   6.342   5.731   3.676
10838SOL    HW233414   6.355   5.888   3.719
10839SOL     OW33415   4.595   3.300   0.646
10839SOL    HW133416   4.631   3.340   0.561
10839SOL    HW233417   4.501   3.268   0.630
10840SOL     OW33418   2.943   0.583   1.120
10840SOL    HW133419   2.856   0.626   1.099
10840SOL    HW233420   3.006   0.652   1.156
10841SOL     OW33421   1.086   5.384   4.732
10841SOL    HW133422   1.093   5.404   4.634
10841SOL    HW233423   1.049   5.292   4.745
10842SOL     OW33424   5.358   4.324   0.504
10842SOL    HW133425   5.310   4.392   0.447
10842SOL    HW233426   5.346   4.347   0.600
10843SOL     OW33427   2.290   2.205   1.572
10843SOL    HW133428   2.286   2.299   1.608
10843SOL    HW233429   2.322   2.207   1.477
10844SOL     OW33430   1.000   5.355   5.089
10844SOL    HW133431   1.032   5.292   5.160
10844SOL    HW233432   1.077   5.385   5.033
10845SOL     OW33433   4.239   6.568   5.031
10845SOL    HW133434   4.211   6.472   5.039
10845SOL    HW233435   4.213   6.617   5.115
10846SOL     OW33436   5.027   6.995   0.539
10846SOL    HW133437   5.029   6.965   0.444
10846SOL    HW233438   5.111   6.966   0.586
10847SOL     OW33439   1.850   1.433   6.732
10847SOL    HW133440   1.947   1.409   6.719
10847SOL    HW233441   1.843   1.516   6.786
10848SOL     OW33442   1.752   4.495   1.714
10848SOL    HW133443   1.684   4.468   1.782
10848SOL    HW233444   1.723   4.580   1.670
10849SOL     OW33445   2.205   6.093   3.693
10849SOL    HW133446   2.182   6.190   3.693
10849SOL    HW233447   2.132   6.041   3.736
10850SOL     OW33448   3.383   6.431   0.120
10850SOL    HW133449   3.476   6.416   0.155
10850SOL    HW233450   3.388   6.483   0.035
10851SOL     OW33451   2.054   4.869   1.299
10851SOL    HW133452   2.036   4.964   1.325
10851SOL    HW233453   1.975   4.833   1.248
10852SOL     OW33454   1.828   1.559   1.116
10852SOL    HW133455   1.860   1.471   1.080
10852SOL    HW233456   1.894   1.593   1.182
10853SOL     OW33457   2.895   1.861   6.333
10853SOL    HW133458   2.992   1.886   6.340
10853SOL    HW233459   2.877   1.820   6.244
10854SOL     OW33460   4.457   5.996   5.692
10854SOL    HW133461   4.509   6.069   5.736
10854SOL    HW233462   4.394   5.955   5.758
10855SOL     OW33463   3.485   1.199   0.287
10855SOL    HW133464   3.571   1.250   0.284
10855SOL    HW233465   3.458   1.185   0.382
10856SOL     OW33466   0.312   0.991   0.154
10856SOL    HW133467   0.242   1.062   0.147
10856SOL    HW233468   0.269   0.901   0.153
10857SOL     OW33469   6.107   2.168   2.629
10857SOL    HW133470   6.035   2.166   2.559
10857SOL    HW233471   6.115   2.078   2.672
10858SOL     OW33472   2.833   6.007   1.547
10858SOL    HW133473   2.770   5.952   1.603
10858SOL    HW233474   2.917   6.025   1.598
10859SOL     OW33475   1.290   5.524   3.365
10859SOL    HW133476   1.344   5.489   3.442
10859SOL    HW233477   1.194   5.526   3.391
10860SOL     OW33478   6.713   2.402   3.262
10860SOL    HW133479   6.697   2.470   3.333
10860SOL    HW233480   6.677   2.313   3.292
10861SOL     OW33481   3.796   3.197   4.205
10861SOL    HW133482   3.791   3.116   4.147
10861SOL    HW233483   3.800   3.169   4.301
10862SOL     OW33484   1.511   0.613   4.475
10862SOL    HW133485   1.429   0.670   4.465
10862SOL    HW233486   1.523   0.557   4.393
10863SOL     OW33487   2.763   5.649   4.529
10863SOL    HW133488   2.725   5.730   4.574
10863SOL    HW233489   2.759   5.571   4.590
10864SOL     OW33490   3.131   6.197   2.619
10864SOL    HW133491   3.112   6.160   2.528
10864SOL    HW233492   3.221   6.166   2.650
10865SOL     OW33493   6.287   2.068   6.380
10865SOL    HW133494   6.219   2.106   6.443
10865SOL    HW233495   6.379   2.082   6.418
10866SOL     OW33496   5.711   4.893   0.422
10866SOL    HW133497   5.655   4.862   0.499
10866SOL    HW233498   5.772   4.966   0.453
10867SOL     OW33499   3.627   2.749   0.368
10867SOL    HW133500   3.710   2.802   0.384
10867SOL    HW233501   3.547   2.807   0.381
10868SOL     OW33502   3.193   1.773   2.991
10868SOL    HW133503   3.205   1.801   3.086
10868SOL    HW233504   3.153   1.849   2.939
10869NA      NA33505   6.541   2.150   5.722
10870NA      NA33506   4.270   4.568   5.308
10871NA      NA33507   2.214   3.593   1.398
10872NA      NA33508   4.886   3.728   5.182
10873NA      NA33509   4.170   2.392   5.339
10874NA      NA33510   3.747   4.651   1.639
10875NA      NA33511   6.730   5.790   5.690
10876NA      NA33512   3.978   3.547   5.201
10877NA      NA33513   4.513   6.875   0.017
10878NA      NA33514   3.613   6.938   5.173
10879NA      NA33515   6.448   4.771   2.552
10880NA      NA33516   2.306   0.951   3.189
10881NA      NA33517   3.418   4.539   0.910
10882NA      NA33518   3.616   3.659   2.846
   7.02351   7.02351   7.02351
