Generated by trjconv : CNT in water t=  71.00000
33518
    1C        C    1   2.843   2.771   4.745
    1C        C    2   2.896   2.719   4.865
    1C        C    3   2.844   2.775   4.983
    1C        C    4   2.849   2.770   4.259
    1C        C    5   2.901   2.725   4.382
    1C        C    6   2.844   2.768   4.505
    1C        C    7   3.013   2.637   4.627
    1C        C    8   2.895   2.715   4.625
    1C        C    9   3.077   2.598   4.746
    1C        C   10   3.007   2.631   4.864
    1C        C   11   3.181   2.494   4.978
    1C        C   12   3.064   2.572   4.978
    1C        C   13   2.853   2.774   3.771
    1C        C   14   2.903   2.721   3.893
    1C        C   15   2.849   2.771   4.013
    1C        C   16   3.014   2.640   4.139
    1C        C   17   2.900   2.724   4.136
    1C        C   18   3.075   2.604   4.261
    1C        C   19   3.013   2.639   4.383
    1C        C   20   3.207   2.552   4.504
    1C        C   21   3.074   2.602   4.504
    1C        C   22   3.276   2.530   4.625
    1C        C   23   3.207   2.542   4.748
    1C        C   24   3.413   2.482   4.866
    1C        C   25   3.271   2.501   4.868
    1C        C   26   3.486   2.474   4.985
    1C        C   27   2.853   2.769   3.281
    1C        C   28   2.908   2.727   3.405
    1C        C   29   2.854   2.772   3.527
    1C        C   30   3.020   2.640   3.650
    1C        C   31   2.909   2.727   3.650
    1C        C   32   3.076   2.600   3.773
    1C        C   33   3.015   2.636   3.896
    1C        C   34   3.208   2.550   4.018
    1C        C   35   3.076   2.600   4.018
    1C        C   36   3.276   2.533   4.141
    1C        C   37   3.207   2.554   4.263
    1C        C   38   3.417   2.508   4.383
    1C        C   39   3.278   2.535   4.383
    1C        C   40   3.488   2.501   4.504
    1C        C   41   3.414   2.498   4.624
    1C        C   42   3.629   2.484   4.748
    1C        C   43   3.486   2.480   4.744
    1C        C   44   3.705   2.490   4.867
    1C        C   45   3.625   2.482   4.981
    1C        C   46   2.836   2.754   2.795
    1C        C   47   2.890   2.705   2.916
    1C        C   48   2.839   2.754   3.038
    1C        C   49   3.014   2.632   3.162
    1C        C   50   2.901   2.716   3.159
    1C        C   51   3.076   2.596   3.284
    1C        C   52   3.017   2.637   3.406
    1C        C   53   3.204   2.538   3.527
    1C        C   54   3.074   2.594   3.527
    1C        C   55   3.273   2.521   3.649
    1C        C   56   3.205   2.543   3.771
    1C        C   57   3.414   2.510   3.892
    1C        C   58   3.274   2.529   3.894
    1C        C   59   3.484   2.502   4.015
    1C        C   60   3.414   2.506   4.138
    1C        C   61   3.627   2.499   4.261
    1C        C   62   3.486   2.501   4.260
    1C        C   63   3.699   2.510   4.381
    1C        C   64   3.630   2.504   4.504
    1C        C   65   3.834   2.545   4.623
    1C        C   66   3.699   2.503   4.627
    1C        C   67   3.909   2.556   4.742
    1C        C   68   3.843   2.520   4.861
    1C        C   69   4.045   2.590   4.975
    1C        C   70   3.921   2.525   4.977
    1C        C   71   2.822   2.733   2.308
    1C        C   72   2.880   2.691   2.430
    1C        C   73   2.829   2.743   2.551
    1C        C   74   3.006   2.628   2.672
    1C        C   75   2.887   2.703   2.674
    1C        C   76   3.068   2.590   2.793
    1C        C   77   3.008   2.627   2.915
    1C        C   78   3.203   2.545   3.037
    1C        C   79   3.072   2.599   3.038
    1C        C   80   3.273   2.523   3.158
    1C        C   81   3.207   2.542   3.281
    1C        C   82   3.411   2.494   3.403
    1C        C   83   3.273   2.522   3.405
    1C        C   84   3.483   2.497   3.525
    1C        C   85   3.413   2.503   3.647
    1C        C   86   3.625   2.501   3.768
    1C        C   87   3.484   2.505   3.770
    1C        C   88   3.693   2.510   3.892
    1C        C   89   3.625   2.508   4.016
    1C        C   90   3.832   2.549   4.135
    1C        C   91   3.696   2.509   4.138
    1C        C   92   3.900   2.575   4.255
    1C        C   93   3.835   2.548   4.378
    1C        C   94   4.023   2.640   4.498
    1C        C   95   3.901   2.569   4.501
    1C        C   96   4.089   2.673   4.619
    1C        C   97   4.030   2.630   4.740
    1C        C   98   4.193   2.766   4.858
    1C        C   99   4.099   2.658   4.861
    1C        C  100   4.210   2.844   4.973
    1C        C  101   2.815   2.729   2.069
    1C        C  102   2.984   2.591   2.192
    1C        C  103   2.870   2.677   2.187
    1C        C  104   3.060   2.570   2.311
    1C        C  105   2.998   2.614   2.430
    1C        C  106   3.197   2.535   2.549
    1C        C  107   3.065   2.585   2.551
    1C        C  108   3.267   2.518   2.670
    1C        C  109   3.199   2.536   2.792
    1C        C  110   3.408   2.499   2.914
    1C        C  111   3.269   2.523   2.914
    1C        C  112   3.479   2.488   3.035
    1C        C  113   3.413   2.503   3.159
    1C        C  114   3.623   2.491   3.278
    1C        C  115   3.482   2.484   3.281
    1C        C  116   3.694   2.503   3.400
    1C        C  117   3.624   2.499   3.523
    1C        C  118   3.828   2.552   3.648
    1C        C  119   3.694   2.507   3.645
    1C        C  120   3.895   2.577   3.770
    1C        C  121   3.828   2.550   3.891
    1C        C  122   4.022   2.643   4.012
    1C        C  123   3.897   2.576   4.012
    1C        C  124   4.085   2.678   4.133
    1C        C  125   4.024   2.644   4.255
    1C        C  126   4.195   2.768   4.373
    1C        C  127   4.084   2.681   4.378
    1C        C  128   4.242   2.821   4.496
    1C        C  129   4.194   2.768   4.617
    1C        C  130   4.332   2.933   4.737
    1C        C  131   4.247   2.819   4.737
    1C        C  132   4.359   3.001   4.857
    1C        C  133   4.290   2.958   4.971
    1C        C  134   3.171   2.475   2.077
    1C        C  135   3.036   2.513   2.084
    1C        C  136   3.256   2.483   2.188
    1C        C  137   3.193   2.520   2.309
    1C        C  138   3.405   2.481   2.427
    1C        C  139   3.266   2.503   2.429
    1C        C  140   3.477   2.478   2.549
    1C        C  141   3.406   2.493   2.670
    1C        C  142   3.619   2.502   2.789
    1C        C  143   3.479   2.490   2.791
    1C        C  144   3.690   2.508   2.911
    1C        C  145   3.620   2.492   3.033
    1C        C  146   3.827   2.541   3.156
    1C        C  147   3.691   2.502   3.155
    1C        C  148   3.895   2.561   3.278
    1C        C  149   3.831   2.538   3.402
    1C        C  150   4.022   2.630   3.521
    1C        C  151   3.895   2.568   3.525
    1C        C  152   4.082   2.670   3.642
    1C        C  153   4.022   2.640   3.766
    1C        C  154   4.189   2.767   3.889
    1C        C  155   4.083   2.674   3.889
    1C        C  156   4.245   2.817   4.009
    1C        C  157   4.197   2.764   4.131
    1C        C  158   4.343   2.920   4.252
    1C        C  159   4.251   2.813   4.252
    1C        C  160   4.384   2.979   4.374
    1C        C  161   4.337   2.926   4.496
    1C        C  162   4.441   3.116   4.616
    1C        C  163   4.376   2.990   4.615
    1C        C  164   4.470   3.184   4.736
    1C        C  165   4.433   3.121   4.857
    1C        C  166   4.519   3.319   4.972
    1C        C  167   4.479   3.185   4.973
    1C        C  168   3.476   2.435   2.075
    1C        C  169   3.396   2.460   2.187
    1C        C  170   3.616   2.469   2.306
    1C        C  171   3.474   2.467   2.304
    1C        C  172   3.691   2.491   2.424
    1C        C  173   3.618   2.486   2.545
    1C        C  174   3.824   2.544   2.666
    1C        C  175   3.689   2.506   2.666
    1C        C  176   3.891   2.566   2.789
    1C        C  177   3.828   2.540   2.912
    1C        C  178   4.021   2.627   3.031
    1C        C  179   3.895   2.562   3.034
    1C        C  180   4.076   2.672   3.153
    1C        C  181   4.017   2.631   3.275
    1C        C  182   4.192   2.754   3.396
    1C        C  183   4.077   2.671   3.397
    1C        C  184   4.245   2.802   3.517
    1C        C  185   4.190   2.762   3.641
    1C        C  186   4.334   2.916   3.761
    1C        C  187   4.236   2.815   3.764
    1C        C  188   4.379   2.978   3.880
    1C        C  189   4.339   2.922   4.004
    1C        C  190   4.443   3.103   4.128
    1C        C  191   4.378   2.978   4.128
    1C        C  192   4.467   3.171   4.250
    1C        C  193   4.444   3.107   4.373
    1C        C  194   4.508   3.314   4.490
    1C        C  195   4.470   3.178   4.493
    1C        C  196   4.532   3.387   4.609
    1C        C  197   4.509   3.320   4.732
    1C        C  198   4.553   3.533   4.852
    1C        C  199   4.525   3.392   4.853
    1C        C  200   4.579   3.621   4.961
    1C        C  201   3.614   2.411   2.073
    1C        C  202   3.821   2.516   2.180
    1C        C  203   3.686   2.468   2.183
    1C        C  204   3.897   2.539   2.298
    1C        C  205   3.828   2.526   2.421
    1C        C  206   4.018   2.621   2.542
    1C        C  207   3.893   2.555   2.543
    1C        C  208   4.076   2.663   2.664
    1C        C  209   4.018   2.627   2.788
    1C        C  210   4.196   2.746   2.907
    1C        C  211   4.082   2.663   2.909
    1C        C  212   4.241   2.802   3.029
    1C        C  213   4.189   2.758   3.153
    1C        C  214   4.338   2.908   3.274
    1C        C  215   4.244   2.803   3.274
    1C        C  216   4.375   2.971   3.395
    1C        C  217   4.335   2.911   3.517
    1C        C  218   4.433   3.100   3.637
    1C        C  219   4.378   2.970   3.638
    1C        C  220   4.462   3.166   3.758
    1C        C  221   4.440   3.105   3.884
    1C        C  222   4.506   3.305   4.007
    1C        C  223   4.471   3.168   4.006
    1C        C  224   4.513   3.381   4.125
    1C        C  225   4.503   3.308   4.246
    1C        C  226   4.516   3.523   4.366
    1C        C  227   4.510   3.382   4.366
    1C        C  228   4.521   3.597   4.486
    1C        C  229   4.535   3.528   4.608
    1C        C  230   4.499   3.740   4.725
    1C        C  231   4.535   3.602   4.729
    1C        C  232   4.492   3.818   4.842
    1C        C  233   4.542   3.756   4.957
    1C        C  234   4.013   2.612   2.063
    1C        C  235   3.892   2.543   2.062
    1C        C  236   4.082   2.650   2.179
    1C        C  237   4.022   2.607   2.299
    1C        C  238   4.195   2.736   2.421
    1C        C  239   4.081   2.651   2.420
    1C        C  240   4.248   2.788   2.541
    1C        C  241   4.188   2.749   2.663
    1C        C  242   4.334   2.905   2.782
    1C        C  243   4.247   2.793   2.784
    1C        C  244   4.377   2.959   2.905
    1C        C  245   4.333   2.909   3.030
    1C        C  246   4.442   3.091   3.144
    1C        C  247   4.381   2.963   3.151
    1C        C  248   4.453   3.160   3.266
    1C        C  249   4.430   3.101   3.393
    1C        C  250   4.497   3.303   3.512
    1C        C  251   4.454   3.168   3.515
    1C        C  252   4.509   3.370   3.636
    1C        C  253   4.497   3.303   3.760
    1C        C  254   4.514   3.514   3.877
    1C        C  255   4.509   3.372   3.882
    1C        C  256   4.510   3.588   3.997
    1C        C  257   4.511   3.523   4.122
    1C        C  258   4.485   3.733   4.239
    1C        C  259   4.511   3.594   4.244
    1C        C  260   4.474   3.804   4.361
    1C        C  261   4.491   3.735   4.483
    1C        C  262   4.431   3.942   4.600
    1C        C  263   4.476   3.808   4.603
    1C        C  264   4.403   4.013   4.719
    1C        C  265   4.433   3.946   4.840
    1C        C  266   4.319   4.128   4.957
    1C        C  267   4.391   4.009   4.958
    1C        C  268   4.255   2.781   2.059
    1C        C  269   4.196   2.732   2.177
    1C        C  270   4.339   2.890   2.296
    1C        C  271   4.249   2.780   2.299
    1C        C  272   4.378   2.956   2.415
    1C        C  273   4.340   2.896   2.537
    1C        C  274   4.445   3.081   2.661
    1C        C  275   4.379   2.957   2.659
    1C        C  276   4.469   3.153   2.780
    1C        C  277   4.443   3.084   2.900
    1C        C  278   4.502   3.290   3.023
    1C        C  279   4.474   3.152   3.020
    1C        C  280   4.510   3.364   3.144
    1C        C  281   4.496   3.295   3.266
    1C        C  282   4.513   3.509   3.390
    1C        C  283   4.503   3.368   3.387
    1C        C  284   4.515   3.579   3.512
    1C        C  285   4.516   3.511   3.636
    1C        C  286   4.493   3.726   3.751
    1C        C  287   4.514   3.586   3.756
    1C        C  288   4.481   3.797   3.873
    1C        C  289   4.494   3.728   3.995
    1C        C  290   4.426   3.933   4.113
    1C        C  291   4.470   3.799   4.115
    1C        C  292   4.396   4.000   4.234
    1C        C  293   4.421   3.935   4.357
    1C        C  294   4.321   4.124   4.481
    1C        C  295   4.393   4.002   4.479
    1C        C  296   4.278   4.187   4.599
    1C        C  297   4.328   4.134   4.720
    1C        C  298   4.200   4.312   4.838
    1C        C  299   4.284   4.196   4.840
    1C        C  300   4.167   4.394   4.952
    1C        C  301   4.346   2.886   2.060
    1C        C  302   4.469   3.067   2.175
    1C        C  303   4.395   2.944   2.177
    1C        C  304   4.483   3.142   2.295
    1C        C  305   4.448   3.079   2.417
    1C        C  306   4.507   3.284   2.536
    1C        C  307   4.473   3.146   2.538
    1C        C  308   4.514   3.356   2.657
    1C        C  309   4.506   3.290   2.782
    1C        C  310   4.529   3.503   2.899
    1C        C  311   4.518   3.362   2.903
    1C        C  312   4.523   3.574   3.021
    1C        C  313   4.519   3.505   3.145
    1C        C  314   4.488   3.717   3.261
    1C        C  315   4.510   3.577   3.266
    1C        C  316   4.471   3.786   3.383
    1C        C  317   4.488   3.718   3.505
    1C        C  318   4.425   3.922   3.626
    1C        C  319   4.475   3.789   3.626
    1C        C  320   4.398   3.989   3.747
    1C        C  321   4.430   3.929   3.871
    1C        C  322   4.324   4.118   3.988
    1C        C  323   4.398   3.998   3.990
    1C        C  324   4.276   4.170   4.111
    1C        C  325   4.317   4.117   4.235
    1C        C  326   4.186   4.283   4.354
    1C        C  327   4.281   4.179   4.357
    1C        C  328   4.135   4.340   4.473
    1C        C  329   4.188   4.296   4.596
    1C        C  330   4.025   4.437   4.715
    1C        C  331   4.139   4.352   4.716
    1C        C  332   3.970   4.493   4.832
    1C        C  333   4.055   4.477   4.943
    1C        C  334   4.546   3.267   2.057
    1C        C  335   4.530   3.128   2.061
    1C        C  336   4.535   3.348   2.171
    1C        C  337   4.511   3.281   2.293
    1C        C  338   4.526   3.493   2.411
    1C        C  339   4.525   3.352   2.414
    1C        C  340   4.528   3.567   2.532
    1C        C  341   4.527   3.497   2.654
    1C        C  342   4.492   3.708   2.771
    1C        C  343   4.523   3.570   2.775
    1C        C  344   4.472   3.777   2.893
    1C        C  345   4.492   3.711   3.016
    1C        C  346   4.433   3.918   3.135
    1C        C  347   4.475   3.783   3.137
    1C        C  348   4.397   3.981   3.256
    1C        C  349   4.424   3.920   3.381
    1C        C  350   4.320   4.105   3.502
    1C        C  351   4.394   3.984   3.503
    1C        C  352   4.275   4.163   3.623
    1C        C  353   4.324   4.109   3.744
    1C        C  354   4.180   4.269   3.868
    1C        C  355   4.278   4.168   3.864
    1C        C  356   4.125   4.320   3.988
    1C        C  357   4.180   4.273   4.109
    1C        C  358   4.010   4.399   4.227
    1C        C  359   4.127   4.320   4.231
    1C        C  360   3.953   4.445   4.348
    1C        C  361   4.015   4.415   4.471
    1C        C  362   3.827   4.510   4.590
    1C        C  363   3.959   4.460   4.593
    1C        C  364   3.764   4.544   4.712
    1C        C  365   3.838   4.541   4.832
    1C        C  366   3.626   4.589   4.949
    1C        C  367   3.763   4.569   4.947
    1C        C  368   4.512   3.565   2.055
    1C        C  369   4.526   3.489   2.172
    1C        C  370   4.504   3.705   2.285
    1C        C  371   4.524   3.566   2.290
    1C        C  372   4.491   3.776   2.406
    1C        C  373   4.505   3.707   2.528
    1C        C  374   4.435   3.910   2.646
    1C        C  375   4.482   3.777   2.649
    1C        C  376   4.397   3.972   2.768
    1C        C  377   4.425   3.910   2.891
    1C        C  378   4.322   4.096   3.013
    1C        C  379   4.400   3.978   3.012
    1C        C  380   4.277   4.154   3.134
    1C        C  381   4.318   4.098   3.257
    1C        C  382   4.179   4.258   3.375
    1C        C  383   4.278   4.158   3.378
    1C        C  384   4.126   4.309   3.496
    1C        C  385   4.177   4.265   3.620
    1C        C  386   4.011   4.392   3.740
    1C        C  387   4.127   4.312   3.744
    1C        C  388   3.945   4.427   3.861
    1C        C  389   4.006   4.396   3.984
    1C        C  390   3.818   4.495   4.106
    1C        C  391   3.944   4.432   4.106
    1C        C  392   3.752   4.517   4.229
    1C        C  393   3.825   4.503   4.350
    1C        C  394   3.617   4.556   4.474
    1C        C  395   3.756   4.531   4.470
    1C        C  396   3.545   4.566   4.595
    1C        C  397   3.624   4.567   4.712
    1C        C  398   3.411   4.550   4.837
    1C        C  399   3.551   4.570   4.832
    1C        C  400   3.337   4.516   4.951
    1C        C  401   4.509   3.704   2.050
    1C        C  402   4.453   3.916   2.166
    1C        C  403   4.495   3.781   2.166
    1C        C  404   4.419   3.980   2.287
    1C        C  405   4.448   3.911   2.406
    1C        C  406   4.326   4.092   2.527
    1C        C  407   4.405   3.975   2.524
    1C        C  408   4.277   4.146   2.648
    1C        C  409   4.318   4.089   2.770
    1C        C  410   4.181   4.255   2.887
    1C        C  411   4.279   4.152   2.890
    1C        C  412   4.128   4.303   3.008
    1C        C  413   4.180   4.257   3.131
    1C        C  414   4.004   4.377   3.252
    1C        C  415   4.124   4.302   3.253
    1C        C  416   3.943   4.410   3.375
    1C        C  417   4.007   4.386   3.498
    1C        C  418   3.815   4.475   3.618
    1C        C  419   3.948   4.427   3.619
    1C        C  420   3.747   4.503   3.739
    1C        C  421   3.817   4.486   3.861
    1C        C  422   3.609   4.523   3.984
    1C        C  423   3.750   4.510   3.983
    1C        C  424   3.543   4.540   4.108
    1C        C  425   3.612   4.537   4.231
    1C        C  426   3.402   4.544   4.355
    1C        C  427   3.543   4.552   4.353
    1C        C  428   3.331   4.542   4.476
    1C        C  429   3.404   4.554   4.597
    1C        C  430   3.194   4.521   4.721
    1C        C  431   3.334   4.545   4.719
    1C        C  432   3.123   4.497   4.841
    1C        C  433   3.199   4.497   4.959
    1C        C  434   4.380   4.120   2.048
    1C        C  435   4.446   3.997   2.051
    1C        C  436   4.307   4.163   2.163
    1C        C  437   4.336   4.096   2.284
    1C        C  438   4.178   4.241   2.404
    1C        C  439   4.286   4.150   2.405
    1C        C  440   4.122   4.292   2.523
    1C        C  441   4.174   4.243   2.645
    1C        C  442   4.003   4.372   2.764
    1C        C  443   4.121   4.294   2.765
    1C        C  444   3.942   4.407   2.887
    1C        C  445   4.005   4.373   3.009
    1C        C  446   3.810   4.463   3.129
    1C        C  447   3.940   4.406   3.130
    1C        C  448   3.746   4.486   3.253
    1C        C  449   3.813   4.467   3.376
    1C        C  450   3.609   4.529   3.498
    1C        C  451   3.745   4.493   3.497
    1C        C  452   3.539   4.544   3.620
    1C        C  453   3.609   4.534   3.742
    1C        C  454   3.396   4.536   3.865
    1C        C  455   3.537   4.534   3.863
    1C        C  456   3.329   4.529   3.989
    1C        C  457   3.401   4.537   4.110
    1C        C  458   3.195   4.498   4.236
    1C        C  459   3.333   4.526   4.233
    1C        C  460   3.126   4.483   4.359
    1C        C  461   3.193   4.512   4.480
    1C        C  462   2.995   4.434   4.600
    1C        C  463   3.125   4.489   4.602
    1C        C  464   2.928   4.404   4.721
    1C        C  465   2.990   4.442   4.843
    1C        C  466   2.803   4.332   4.962
    1C        C  467   2.902   4.431   4.954
    1C        C  468   4.122   4.285   2.047
    1C        C  469   4.193   4.250   2.162
    1C        C  470   4.005   4.363   2.280
    1C        C  471   4.126   4.288   2.281
    1C        C  472   3.939   4.401   2.400
    1C        C  473   4.002   4.366   2.521
    1C        C  474   3.807   4.454   2.643
    1C        C  475   3.938   4.401   2.642
    1C        C  476   3.743   4.484   2.766
    1C        C  477   3.814   4.466   2.886
    1C        C  478   3.607   4.520   3.010
    1C        C  479   3.745   4.491   3.007
    1C        C  480   3.537   4.527   3.133
    1C        C  481   3.608   4.516   3.255
    1C        C  482   3.397   4.530   3.376
    1C        C  483   3.538   4.535   3.376
    1C        C  484   3.327   4.522   3.499
    1C        C  485   3.398   4.532   3.621
    1C        C  486   3.189   4.497   3.742
    1C        C  487   3.326   4.529   3.742
    1C        C  488   3.124   4.476   3.866
    1C        C  489   3.191   4.497   3.989
    1C        C  490   3.000   4.417   4.115
    1C        C  491   3.128   4.476   4.113
    1C        C  492   2.936   4.386   4.238
    1C        C  493   2.997   4.426   4.359
    1C        C  494   2.825   4.302   4.483
    1C        C  495   2.933   4.393   4.480
    1C        C  496   2.773   4.254   4.606
    1C        C  497   2.819   4.313   4.725
    1C        C  498   2.665   4.165   4.847
    1C        C  499   2.755   4.273   4.844
    1C        C  500   2.596   4.116   4.959
    1C        C  501   4.000   4.352   2.041
    1C        C  502   3.814   4.461   2.156
    1C        C  503   3.939   4.395   2.160
    1C        C  504   3.740   4.475   2.276
    1C        C  505   3.806   4.447   2.398
    1C        C  506   3.604   4.507   2.521
    1C        C  507   3.740   4.472   2.520
    1C        C  508   3.534   4.520   2.643
    1C        C  509   3.604   4.512   2.766
    1C        C  510   3.394   4.526   2.889
    1C        C  511   3.536   4.524   2.888
    1C        C  512   3.323   4.518   3.010
    1C        C  513   3.396   4.525   3.131
    1C        C  514   3.190   4.485   3.256
    1C        C  515   3.327   4.521   3.254
    1C        C  516   3.123   4.465   3.379
    1C        C  517   3.188   4.498   3.500
    1C        C  518   2.997   4.404   3.626
    1C        C  519   3.120   4.474   3.621
    1C        C  520   2.939   4.366   3.749
    1C        C  521   3.001   4.407   3.869
    1C        C  522   2.834   4.284   3.999
    1C        C  523   2.940   4.378   3.993
    1C        C  524   2.785   4.236   4.122
    1C        C  525   2.828   4.296   4.242
    1C        C  526   2.692   4.132   4.363
    1C        C  527   2.774   4.247   4.363
    1C        C  528   2.653   4.077   4.487
    1C        C  529   2.689   4.140   4.608
    1C        C  530   2.583   3.958   4.733
    1C        C  531   2.640   4.089   4.731
    1C        C  532   2.541   3.901   4.856
    1C        C  533   2.530   3.992   4.966
    1C        C  534   3.621   4.557   2.039
    1C        C  535   3.752   4.510   2.041
    1C        C  536   3.536   4.533   2.153
    1C        C  537   3.601   4.506   2.276
    1C        C  538   3.391   4.521   2.400
    1C        C  539   3.532   4.515   2.399
    1C        C  540   3.322   4.506   2.522
    1C        C  541   3.393   4.510   2.644
    1C        C  542   3.186   4.484   2.765
    1C        C  543   3.324   4.511   2.767
    1C        C  544   3.120   4.461   2.888
    1C        C  545   3.187   4.480   3.011
    1C        C  546   2.994   4.401   3.135
    1C        C  547   3.122   4.461   3.135
    1C        C  548   2.934   4.365   3.259
    1C        C  549   2.996   4.403   3.380
    1C        C  550   2.828   4.277   3.504
    1C        C  551   2.938   4.366   3.503
    1C        C  552   2.778   4.233   3.629
    1C        C  553   2.824   4.285   3.752
    1C        C  554   2.688   4.129   3.876
    1C        C  555   2.779   4.237   3.877
    1C        C  556   2.656   4.065   3.997
    1C        C  557   2.696   4.125   4.118
    1C        C  558   2.589   3.946   4.249
    1C        C  559   2.656   4.070   4.242
    1C        C  560   2.562   3.882   4.373
    1C        C  561   2.586   3.953   4.493
    1C        C  562   2.530   3.748   4.617
    1C        C  563   2.558   3.887   4.614
    1C        C  564   2.518   3.680   4.741
    1C        C  565   2.522   3.759   4.859
    1C        C  566   2.537   3.547   4.977
    1C        C  567   2.530   3.686   4.978
    1C        C  568   3.328   4.480   2.038
    1C        C  569   3.396   4.512   2.156
    1C        C  570   3.184   4.476   2.278
    1C        C  571   3.322   4.510   2.278
    1C        C  572   3.116   4.459   2.401
    1C        C  573   3.182   4.484   2.523
    1C        C  574   2.988   4.400   2.648
    1C        C  575   3.114   4.465   2.645
    1C        C  576   2.932   4.356   2.770
    1C        C  577   2.995   4.395   2.891
    1C        C  578   2.823   4.275   3.018
    1C        C  579   2.933   4.363   3.014
    1C        C  580   2.768   4.226   3.139
    1C        C  581   2.825   4.276   3.259
    1C        C  582   2.694   4.112   3.385
    1C        C  583   2.778   4.226   3.382
    1C        C  584   2.661   4.057   3.511
    1C        C  585   2.698   4.117   3.633
    1C        C  586   2.596   3.933   3.758
    1C        C  587   2.657   4.060   3.756
    1C        C  588   2.572   3.871   3.883
    1C        C  589   2.600   3.936   4.005
    1C        C  590   2.532   3.738   4.131
    1C        C  591   2.573   3.873   4.129
    1C        C  592   2.524   3.671   4.255
    1C        C  593   2.531   3.744   4.375
    1C        C  594   2.515   3.533   4.499
    1C        C  595   2.522   3.674   4.498
    1C        C  596   2.519   3.461   4.620
    1C        C  597   2.517   3.538   4.739
    1C        C  598   2.539   3.328   4.862
    1C        C  599   2.525   3.469   4.861
    1C        C  600   2.534   3.249   4.978
    1C        C  601   3.196   4.441   2.043
    1C        C  602   2.981   4.392   2.162
    1C        C  603   3.116   4.439   2.159
    1C        C  604   2.923   4.358   2.287
    1C        C  605   2.989   4.399   2.405
    1C        C  606   2.818   4.271   2.530
    1C        C  607   2.927   4.361   2.527
    1C        C  608   2.770   4.219   2.652
    1C        C  609   2.822   4.268   2.774
    1C        C  610   2.687   4.109   2.894
    1C        C  611   2.773   4.221   2.898
    1C        C  612   2.652   4.052   3.019
    1C        C  613   2.685   4.112   3.142
    1C        C  614   2.586   3.927   3.268
    1C        C  615   2.649   4.053   3.265
    1C        C  616   2.563   3.867   3.394
    1C        C  617   2.599   3.930   3.515
    1C        C  618   2.535   3.728   3.640
    1C        C  619   2.572   3.864   3.637
    1C        C  620   2.520   3.662   3.764
    1C        C  621   2.533   3.735   3.885
    1C        C  622   2.519   3.527   4.008
    1C        C  623   2.520   3.668   4.009
    1C        C  624   2.520   3.459   4.132
    1C        C  625   2.516   3.530   4.254
    1C        C  626   2.543   3.323   4.380
    1C        C  627   2.513   3.461   4.377
    1C        C  628   2.556   3.252   4.501
    1C        C  629   2.536   3.320   4.623
    1C        C  630   2.593   3.115   4.745
    1C        C  631   2.553   3.251   4.745
    1C        C  632   2.612   3.046   4.868
    1C        C  633   2.562   3.112   4.984
    1C        C  634   2.780   4.302   2.054
    1C        C  635   2.893   4.385   2.049
    1C        C  636   2.752   4.225   2.167
    1C        C  637   2.811   4.271   2.287
    1C        C  638   2.676   4.108   2.409
    1C        C  639   2.764   4.219   2.410
    1C        C  640   2.637   4.051   2.532
    1C        C  641   2.679   4.111   2.653
    1C        C  642   2.584   3.920   2.778
    1C        C  643   2.642   4.049   2.774
    1C        C  644   2.560   3.858   2.902
    1C        C  645   2.584   3.928   3.022
    1C        C  646   2.530   3.723   3.150
    1C        C  647   2.564   3.860   3.145
    1C        C  648   2.520   3.658   3.275
    1C        C  649   2.529   3.730   3.395
    1C        C  650   2.509   3.519   3.519
    1C        C  651   2.517   3.660   3.517
    1C        C  652   2.511   3.451   3.643
    1C        C  653   2.510   3.521   3.765
    1C        C  654   2.536   3.313   3.889
    1C        C  655   2.516   3.452   3.888
    1C        C  656   2.555   3.249   4.013
    1C        C  657   2.538   3.319   4.135
    1C        C  658   2.610   3.121   4.257
    1C        C  659   2.560   3.253   4.258
    1C        C  660   2.639   3.056   4.379
    1C        C  661   2.603   3.119   4.501
    1C        C  662   2.706   2.934   4.623
    1C        C  663   2.632   3.054   4.623
    1C        C  664   2.749   2.877   4.745
    1C        C  665   2.697   2.931   4.866
    1C        C  666   2.741   2.868   4.984
    1C        C  667   2.682   4.021   2.054
    1C        C  668   2.685   4.101   2.169
    1C        C  669   2.586   3.911   2.292
    1C        C  670   2.642   4.042   2.289
    1C        C  671   2.562   3.847   2.415
    1C        C  672   2.580   3.922   2.534
    1C        C  673   2.519   3.719   2.660
    1C        C  674   2.557   3.855   2.656
    1C        C  675   2.504   3.652   2.783
    1C        C  676   2.525   3.721   2.905
    1C        C  677   2.508   3.512   3.032
    1C        C  678   2.516   3.653   3.028
    1C        C  679   2.511   3.443   3.155
    1C        C  680   2.509   3.517   3.275
    1C        C  681   2.533   3.307   3.402
    1C        C  682   2.509   3.446   3.398
    1C        C  683   2.554   3.241   3.525
    1C        C  684   2.535   3.312   3.646
    1C        C  685   2.609   3.113   3.771
    1C        C  686   2.552   3.241   3.768
    1C        C  687   2.637   3.050   3.895
    1C        C  688   2.607   3.117   4.015
    1C        C  689   2.712   2.931   4.139
    1C        C  690   2.642   3.054   4.137
    1C        C  691   2.759   2.879   4.261
    1C        C  692   2.715   2.938   4.382
    1C        C  693   2.752   2.875   4.503
    1C        C  694   2.629   3.892   2.056
    1C        C  695   2.521   3.706   2.174
    1C        C  696   2.575   3.836   2.173
    1C        C  697   2.506   3.637   2.296
    1C        C  698   2.528   3.710   2.415
    1C        C  699   2.490   3.505   2.544
    1C        C  700   2.507   3.646   2.539
    1C        C  701   2.502   3.436   2.667
    1C        C  702   2.498   3.511   2.787
    1C        C  703   2.531   3.302   2.912
    1C        C  704   2.509   3.441   2.910
    1C        C  705   2.545   3.232   3.034
    1C        C  706   2.533   3.303   3.156
    1C        C  707   2.600   3.105   3.277
    1C        C  708   2.553   3.238   3.280
    1C        C  709   2.632   3.045   3.400
    1C        C  710   2.604   3.109   3.523
    1C        C  711   2.713   2.930   3.646
    1C        C  712   2.639   3.051   3.647
    1C        C  713   2.754   2.874   3.769
    1C        C  714   2.713   2.931   3.892
    1C        C  715   2.755   2.877   4.015
    1C        C  716   2.453   3.501   2.062
    1C        C  717   2.491   3.635   2.056
    1C        C  718   2.464   3.423   2.182
    1C        C  719   2.487   3.496   2.301
    1C        C  720   2.515   3.291   2.425
    1C        C  721   2.488   3.429   2.425
    1C        C  722   2.540   3.225   2.547
    1C        C  723   2.522   3.296   2.668
    1C        C  724   2.597   3.100   2.788
    1C        C  725   2.541   3.230   2.791
    1C        C  726   2.624   3.036   2.911
    1C        C  727   2.592   3.099   3.034
    1C        C  728   2.706   2.921   3.158
    1C        C  729   2.624   3.035   3.156
    1C        C  730   2.753   2.868   3.281
    1C        C  731   2.710   2.927   3.402
    1C        C  732   2.756   2.873   3.524
    1C        C  733   2.487   3.200   2.070
    1C        C  734   2.486   3.281   2.184
    1C        C  735   2.582   3.087   2.303
    1C        C  736   2.522   3.216   2.305
    1C        C  737   2.619   3.026   2.425
    1C        C  738   2.593   3.094   2.546
    1C        C  739   2.698   2.910   2.668
    1C        C  740   2.628   3.032   2.668
    1C        C  741   2.743   2.860   2.792
    1C        C  742   2.702   2.918   2.915
    1C        C  743   2.748   2.862   3.036
    1C        C  744   2.538   3.071   2.075
    1C        C  745   2.684   2.897   2.184
    1C        C  746   2.606   3.014   2.184
    1C        C  747   2.730   2.841   2.305
    1C        C  748   2.685   2.902   2.425
    1C        C  749   2.735   2.849   2.546
    1C        C  750   2.732   2.840   2.065
    1C        C  751   3.654   2.285   2.006
    1C        O  752   3.641   2.174   2.066
    1C        O  753   3.646   2.273   1.867
    1C        C  754   4.625   3.060   1.970
    1C        O  755   4.595   3.017   1.855
    1C        O  756   4.762   3.037   1.990
    1C        C  757   4.444   4.221   1.960
    1C        O  758   4.531   4.296   2.013
    1C        O  759   4.451   4.210   1.821
    1C        C  760   3.596   4.666   1.942
    1C        O  761   3.641   4.781   1.969
    1C        O  762   3.603   4.628   1.808
    1C        C  763   2.859   4.515   1.986
    1C        O  764   2.844   4.530   1.862
    1C        O  765   2.778   4.608   2.053
    1C        C  766   2.367   3.476   1.944
    1C        O  767   2.418   3.444   1.834
    1C        O  768   2.230   3.505   1.933
    1C        C  769   4.670   3.584   5.072
    1C        O  770   4.644   3.623   5.189
    1C        O  771   4.804   3.551   5.049
    1C        C  772   4.275   4.434   5.044
    1C        O  773   4.259   4.434   5.168
    1C        O  774   4.382   4.516   5.002
    1C        C  775   4.136   2.544   5.083
    1C        O  776   4.197   2.435   5.065
    1C        O  777   4.129   2.582   5.217
    1C        C  778   2.879   4.556   5.030
    1C        O  779   2.811   4.657   4.996
    1C        O  780   2.943   4.567   5.154
    1C        C  781   2.474   3.036   5.077
    1C        O  782   2.349   3.039   5.064
    1C        O  783   2.495   3.032   5.214
    1C        C  784   2.425   3.991   5.070
    1C        O  785   2.328   4.071   5.067
    1C        O  786   2.447   3.932   5.195
    1C        C  787   2.949   2.439   1.990
    1C        O  788   2.975   2.433   1.867
    1C        O  789   2.878   2.327   2.034
    1C        C  790   3.149   2.362   5.038
    1C        O  791   3.147   2.254   4.973
    1C        O  792   3.196   2.335   5.167
    1C        H  793   4.281   3.019   5.059
    1C        H  794   4.227   2.779   5.056
    1C        H  795   4.478   3.139   5.070
    1C        H  796   4.504   3.369   5.065
    1C        H  797   4.586   3.816   5.035
    1C        H  798   4.408   3.967   5.055
    1C        H  799   4.279   4.160   5.051
    1C        H  800   4.040   4.537   5.030
    1C        H  801   3.808   4.558   5.044
    1C        H  802   3.585   4.651   5.027
    1C        H  803   3.397   4.455   5.016
    1C        H  804   3.151   4.537   5.045
    1C        H  805   3.901   2.453   5.053
    1C        H  806   3.677   2.461   5.073
    1C        H  807   3.023   2.605   5.071
    1C        H  808   3.437   2.488   5.079
    1C        H  809   2.909   2.768   5.067
    1C        H  810   2.705   2.899   5.080
    1C        H  811   2.473   3.288   5.057
    1C        H  812   2.589   3.505   5.061
    1C        H  813   2.495   3.728   5.070
    1C        H  814   2.576   4.191   5.033
    1C        H  815   2.793   4.288   5.060
    1C        H  816   2.688   2.869   1.971
    1C        H  817   2.806   2.655   1.992
    1C        H  818   3.217   2.449   1.984
    1C        H  819   3.428   2.418   1.981
    1C        H  820   3.863   2.488   1.975
    1C        H  821   4.067   2.601   1.971
    1C        H  822   4.244   2.726   1.967
    1C        H  823   4.361   2.931   1.964
    1C        H  824   4.585   3.315   1.969
    1C        H  825   4.504   3.515   1.961
    1C        H  826   4.525   3.755   1.957
    1C        H  827   3.818   4.535   1.960
    1C        H  828   3.945   4.356   1.949
    1C        H  829   4.170   4.267   1.953
    1C        H  830   4.514   3.971   1.972
    1C        H  831   2.675   3.823   1.988
    1C        H  832   2.692   4.069   1.959
    1C        H  833   2.698   4.331   1.993
    1C        H  834   3.368   4.510   1.943
    1C        H  835   3.157   4.393   1.956
    1C        H  836   2.523   3.024   1.980
    1C        H  837   2.427   3.229   1.986
    1C        H  838   2.473   3.691   1.966
    2V3OU   H29  839   2.811   3.558   1.111
    2V3OU   C27  840   2.782   3.506   1.206
    2V3OU   H27  841   2.730   3.579   1.273
    2V3OU   H28  842   2.736   3.408   1.179
    2V3OU   O11  843   2.906   3.478   1.270
    2V3OU   C15  844   2.922   3.397   1.381
    2V3OU   C13  845   3.053   3.375   1.430
    2V3OU   C14  846   3.079   3.270   1.519
    2V3OU   C16  847   2.972   3.191   1.560
    2V3OU    H6  848   2.993   3.108   1.629
    2V3OU   C12  849   3.217   3.226   1.549
    2V3OU    O2  850   3.244   3.121   1.610
    2V3OU   C10  851   3.328   3.307   1.498
    2V3OU    C8  852   3.460   3.270   1.524
    2V3OU   O10  853   3.490   3.151   1.583
    2V3OU   H26  854   3.407   3.111   1.616
    2V3OU    C6  855   3.565   3.350   1.470
    2V3OU    C5  856   3.538   3.466   1.398
    2V3OU    C4  857   3.701   3.290   1.465
    2V3OU    H4  858   3.720   3.222   1.554
    2V3OU    H5  859   3.713   3.224   1.374
    2V3OU    C2  860   3.811   3.396   1.467
    2V3OU    O6  861   3.804   3.477   1.585
    2V3OU   H21  862   3.766   3.561   1.556
    2V3OU    C3  863   3.781   3.493   1.353
    2V3OU    H2  864   3.859   3.574   1.349
    2V3OU    H3  865   3.781   3.436   1.257
    2V3OU   C25  866   3.946   3.326   1.452
    2V3OU    O7  867   4.000   3.302   1.344
    2V3OU   C26  868   4.030   3.289   1.572
    2V3OU   H22  869   4.056   3.385   1.623
    2V3OU   H23  870   4.123   3.235   1.539
    2V3OU    O8  871   3.962   3.205   1.663
    2V3OU   H24  872   3.920   3.263   1.729
    2V3OU    C1  873   3.646   3.563   1.360
    2V3OU    H1  874   3.628   3.618   1.264
    2V3OU    O3  875   3.661   3.655   1.469
    2V3OU   C19  876   3.621   3.793   1.465
    2V3OU    H9  877   3.518   3.803   1.420
    2V3OU    O4  878   3.713   3.856   1.378
    2V3OU   C20  879   3.846   3.873   1.427
    2V3OU   H10  880   3.897   3.772   1.434
    2V3OU   C24  881   3.609   3.854   1.605
    2V3OU   H16  882   3.539   3.790   1.664
    2V3OU   H17  883   3.559   3.951   1.581
    2V3OU   C23  884   3.750   3.872   1.662
    2V3OU   H15  885   3.791   3.769   1.688
    2V3OU    N1  886   3.734   3.951   1.783
    2V3OU   H19  887   3.810   3.931   1.845
    2V3OU   H20  888   3.651   3.932   1.835
    2V3OU   C21  889   3.845   3.945   1.562
    2V3OU   H11  890   3.949   3.929   1.603
    2V3OU    O5  891   3.823   4.085   1.562
    2V3OU   H18  892   3.781   4.101   1.649
    2V3OU   C22  893   3.914   3.949   1.314
    2V3OU   H12  894   3.861   4.047   1.299
    2V3OU   H13  895   3.908   3.888   1.220
    2V3OU   H14  896   4.024   3.960   1.332
    2V3OU   C11  897   3.160   3.471   1.401
    2V3OU    O1  898   3.131   3.586   1.360
    2V3OU    C9  899   3.299   3.423   1.422
    2V3OU    C7  900   3.402   3.504   1.375
    2V3OU    O9  901   3.381   3.614   1.294
    2V3OU   H25  902   3.285   3.626   1.287
    2V3OU   C17  903   2.820   3.315   1.433
    2V3OU    H7  904   2.719   3.342   1.402
    2V3OU   C18  905   2.839   3.211   1.523
    2V3OU    H8  906   2.751   3.148   1.540
    3SOL     OW  907   1.176   2.940   0.728
    3SOL    HW1  908   1.232   2.938   0.811
    3SOL    HW2  909   1.139   3.033   0.715
    4SOL     OW  910   5.577   0.362   1.696
    4SOL    HW1  911   5.522   0.442   1.721
    4SOL    HW2  912   5.550   0.331   1.604
    5SOL     OW  913   3.613   2.456   1.441
    5SOL    HW1  914   3.604   2.364   1.479
    5SOL    HW2  915   3.537   2.513   1.474
    6SOL     OW  916   3.057   2.010   1.284
    6SOL    HW1  917   3.012   2.096   1.262
    6SOL    HW2  918   3.037   1.942   1.213
    7SOL     OW  919   6.062   1.463   1.864
    7SOL    HW1  920   5.967   1.444   1.841
    7SOL    HW2  921   6.112   1.377   1.874
    8SOL     OW  922   2.304   1.179   4.329
    8SOL    HW1  923   2.311   1.264   4.381
    8SOL    HW2  924   2.378   1.175   4.261
    9SOL     OW  925   1.232   3.650   5.830
    9SOL    HW1  926   1.212   3.642   5.733
    9SOL    HW2  927   1.166   3.711   5.874
   10SOL     OW  928   0.398   3.719   0.137
   10SOL    HW1  929   0.441   3.718   0.046
   10SOL    HW2  930   0.468   3.735   0.206
   11SOL     OW  931   3.878   6.680   0.067
   11SOL    HW1  932   3.866   6.617   7.013
   11SOL    HW2  933   3.800   6.673   0.129
   12SOL     OW  934   5.699   6.354   2.464
   12SOL    HW1  935   5.626   6.329   2.528
   12SOL    HW2  936   5.772   6.286   2.468
   13SOL     OW  937   2.360   6.481   3.730
   13SOL    HW1  938   2.281   6.420   3.728
   13SOL    HW2  939   2.342   6.561   3.673
   14SOL     OW  940   3.205   6.269   1.291
   14SOL    HW1  941   3.186   6.341   1.224
   14SOL    HW2  942   3.184   6.180   1.251
   15SOL     OW  943   1.547   6.114   6.545
   15SOL    HW1  944   1.457   6.158   6.545
   15SOL    HW2  945   1.614   6.173   6.501
   16SOL     OW  946   6.419   1.894   6.045
   16SOL    HW1  947   6.431   1.979   6.097
   16SOL    HW2  948   6.437   1.911   5.948
   17SOL     OW  949   5.127   6.691   4.424
   17SOL    HW1  950   5.183   6.609   4.407
   17SOL    HW2  951   5.114   6.741   4.338
   18SOL     OW  952   1.535   1.384   6.517
   18SOL    HW1  953   1.439   1.397   6.540
   18SOL    HW2  954   1.560   1.448   6.444
   19SOL     OW  955   0.632   0.059   1.993
   19SOL    HW1  956   0.680   7.003   2.033
   19SOL    HW2  957   0.565   0.026   1.926
   20SOL     OW  958   2.990   1.841   4.339
   20SOL    HW1  959   2.919   1.887   4.285
   20SOL    HW2  960   3.074   1.895   4.336
   21SOL     OW  961   3.121   2.770   0.951
   21SOL    HW1  962   3.094   2.855   0.996
   21SOL    HW2  963   3.067   2.756   0.868
   22SOL     OW  964   1.095   0.132   5.977
   22SOL    HW1  965   1.138   0.162   5.892
   22SOL    HW2  966   1.019   0.071   5.956
   23SOL     OW  967   3.715   6.495   4.652
   23SOL    HW1  968   3.811   6.473   4.634
   23SOL    HW2  969   3.678   6.430   4.719
   24SOL     OW  970   4.081   1.435   4.765
   24SOL    HW1  971   4.136   1.451   4.683
   24SOL    HW2  972   4.021   1.356   4.750
   25SOL     OW  973   3.509   5.612   0.810
   25SOL    HW1  974   3.536   5.573   0.897
   25SOL    HW2  975   3.581   5.674   0.777
   26SOL     OW  976   6.482   1.697   2.493
   26SOL    HW1  977   6.456   1.601   2.484
   26SOL    HW2  978   6.444   1.735   2.578
   27SOL     OW  979   6.103   6.374   2.455
   27SOL    HW1  980   6.175   6.359   2.387
   27SOL    HW2  981   6.067   6.466   2.445
   28SOL     OW  982   3.632   0.528   0.121
   28SOL    HW1  983   3.582   0.482   0.195
   28SOL    HW2  984   3.730   0.515   0.134
   29SOL     OW  985   4.380   2.267   1.737
   29SOL    HW1  986   4.330   2.333   1.680
   29SOL    HW2  987   4.446   2.218   1.680
   30SOL     OW  988   3.568   0.484   4.600
   30SOL    HW1  989   3.560   0.427   4.517
   30SOL    HW2  990   3.583   0.425   4.679
   31SOL     OW  991   0.048   0.717   5.558
   31SOL    HW1  992   0.061   0.717   5.459
   31SOL    HW2  993   0.137   0.720   5.604
   32SOL     OW  994   0.386   1.763   1.437
   32SOL    HW1  995   0.290   1.771   1.466
   32SOL    HW2  996   0.418   1.670   1.455
   33SOL     OW  997   1.915   2.097   5.597
   33SOL    HW1  998   1.939   2.051   5.682
   33SOL    HW2  999   1.820   2.129   5.601
   34SOL     OW 1000   1.226   0.533   4.820
   34SOL    HW1 1001   1.179   0.457   4.776
   34SOL    HW2 1002   1.226   0.520   4.919
   35SOL     OW 1003   4.167   1.546   6.448
   35SOL    HW1 1004   4.099   1.498   6.393
   35SOL    HW2 1005   4.184   1.494   6.532
   36SOL     OW 1006   1.525   2.059   5.898
   36SOL    HW1 1007   1.548   2.118   5.975
   36SOL    HW2 1008   1.492   1.971   5.933
   37SOL     OW 1009   2.890   6.694   1.882
   37SOL    HW1 1010   2.930   6.759   1.946
   37SOL    HW2 1011   2.811   6.735   1.836
   38SOL     OW 1012   7.009   6.301   3.012
   38SOL    HW1 1013   0.050   6.358   2.960
   38SOL    HW2 1014   6.915   6.327   2.989
   39SOL     OW 1015   6.887   3.273   5.135
   39SOL    HW1 1016   6.847   3.225   5.057
   39SOL    HW2 1017   6.852   3.233   5.220
   40SOL     OW 1018   6.797   0.517   1.763
   40SOL    HW1 1019   6.893   0.486   1.766
   40SOL    HW2 1020   6.763   0.509   1.669
   41SOL     OW 1021   1.067   6.772   5.661
   41SOL    HW1 1022   1.144   6.713   5.687
   41SOL    HW2 1023   1.101   6.866   5.649
   42SOL     OW 1024   3.407   0.716   0.144
   42SOL    HW1 1025   3.430   0.718   0.241
   42SOL    HW2 1026   3.470   0.655   0.096
   43SOL     OW 1027   5.412   5.705   5.121
   43SOL    HW1 1028   5.410   5.629   5.056
   43SOL    HW2 1029   5.369   5.676   5.207
   44SOL     OW 1030   0.835   3.186   6.489
   44SOL    HW1 1031   0.892   3.176   6.408
   44SOL    HW2 1032   0.870   3.260   6.546
   45SOL     OW 1033   2.758   0.390   2.039
   45SOL    HW1 1034   2.829   0.393   1.969
   45SOL    HW2 1035   2.775   0.313   2.101
   46SOL     OW 1036   1.728   4.037   4.115
   46SOL    HW1 1037   1.651   3.984   4.079
   46SOL    HW2 1038   1.701   4.133   4.126
   47SOL     OW 1039   6.348   4.848   3.413
   47SOL    HW1 1040   6.361   4.927   3.474
   47SOL    HW2 1041   6.298   4.877   3.332
   48SOL     OW 1042   0.643   2.641   5.586
   48SOL    HW1 1043   0.680   2.710   5.647
   48SOL    HW2 1044   0.579   2.582   5.635
   49SOL     OW 1045   4.867   2.172   0.758
   49SOL    HW1 1046   4.889   2.130   0.846
   49SOL    HW2 1047   4.785   2.129   0.721
   50SOL     OW 1048   6.858   3.858   4.414
   50SOL    HW1 1049   6.956   3.855   4.397
   50SOL    HW2 1050   6.826   3.952   4.411
   51SOL     OW 1051   3.807   5.170   2.668
   51SOL    HW1 1052   3.709   5.182   2.687
   51SOL    HW2 1053   3.820   5.089   2.611
   52SOL     OW 1054   1.664   2.057   1.810
   52SOL    HW1 1055   1.751   2.094   1.779
   52SOL    HW2 1056   1.654   2.072   1.909
   53SOL     OW 1057   5.055   0.306   4.017
   53SOL    HW1 1058   5.098   0.294   4.106
   53SOL    HW2 1059   5.083   0.394   3.978
   54SOL     OW 1060   3.807   5.560   5.451
   54SOL    HW1 1061   3.889   5.510   5.478
   54SOL    HW2 1062   3.730   5.533   5.509
   55SOL     OW 1063   4.245   1.865   0.470
   55SOL    HW1 1064   4.334   1.850   0.512
   55SOL    HW2 1065   4.226   1.963   0.467
   56SOL     OW 1066   1.150   0.326   1.779
   56SOL    HW1 1067   1.146   0.297   1.875
   56SOL    HW2 1068   1.061   0.361   1.751
   57SOL     OW 1069   5.767   0.592   0.262
   57SOL    HW1 1070   5.734   0.517   0.318
   57SOL    HW2 1071   5.862   0.575   0.235
   58SOL     OW 1072   0.003   6.281   0.121
   58SOL    HW1 1073   0.016   6.345   0.196
   58SOL    HW2 1074   6.939   6.300   0.075
   59SOL     OW 1075   0.972   6.815   5.315
   59SOL    HW1 1076   0.984   6.733   5.371
   59SOL    HW2 1077   1.035   6.813   5.238
   60SOL     OW 1078   4.579   6.903   4.525
   60SOL    HW1 1079   4.576   6.915   4.426
   60SOL    HW2 1080   4.503   6.845   4.554
   61SOL     OW 1081   4.355   0.454   4.388
   61SOL    HW1 1082   4.327   0.360   4.367
   61SOL    HW2 1083   4.442   0.474   4.343
   62SOL     OW 1084   1.697   0.678   4.420
   62SOL    HW1 1085   1.634   0.672   4.497
   62SOL    HW2 1086   1.645   0.697   4.336
   63SOL     OW 1087   6.975   3.384   3.051
   63SOL    HW1 1088   0.015   3.322   3.100
   63SOL    HW2 1089   6.881   3.355   3.067
   64SOL     OW 1090   6.891   3.703   5.672
   64SOL    HW1 1091   6.983   3.715   5.708
   64SOL    HW2 1092   6.895   3.698   5.572
   65SOL     OW 1093   6.551   4.663   5.796
   65SOL    HW1 1094   6.637   4.632   5.755
   65SOL    HW2 1095   6.477   4.651   5.731
   66SOL     OW 1096   2.735   1.125   0.490
   66SOL    HW1 1097   2.675   1.168   0.557
   66SOL    HW2 1098   2.769   1.194   0.426
   67SOL     OW 1099   5.284   5.949   4.502
   67SOL    HW1 1100   5.316   5.863   4.462
   67SOL    HW2 1101   5.186   5.958   4.486
   68SOL     OW 1102   5.610   2.028   5.691
   68SOL    HW1 1103   5.635   1.973   5.771
   68SOL    HW2 1104   5.656   2.117   5.696
   69SOL     OW 1105   2.928   3.387   6.328
   69SOL    HW1 1106   2.976   3.454   6.385
   69SOL    HW2 1107   2.977   3.374   6.242
   70SOL     OW 1108   0.100   5.077   1.917
   70SOL    HW1 1109   0.041   4.996   1.917
   70SOL    HW2 1110   0.195   5.048   1.904
   71SOL     OW 1111   1.268   2.259   3.210
   71SOL    HW1 1112   1.264   2.285   3.113
   71SOL    HW2 1113   1.175   2.255   3.247
   72SOL     OW 1114   3.162   5.707   3.976
   72SOL    HW1 1115   3.211   5.622   3.998
   72SOL    HW2 1116   3.082   5.715   4.035
   73SOL     OW 1117   4.495   2.488   0.296
   73SOL    HW1 1118   4.438   2.562   0.332
   73SOL    HW2 1119   4.544   2.521   0.214
   74SOL     OW 1120   5.191   5.659   6.049
   74SOL    HW1 1121   5.110   5.695   6.003
   74SOL    HW2 1122   5.163   5.611   6.132
   75SOL     OW 1123   3.802   5.522   5.910
   75SOL    HW1 1124   3.743   5.579   5.968
   75SOL    HW2 1125   3.856   5.461   5.969
   76SOL     OW 1126   2.599   2.957   1.412
   76SOL    HW1 1127   2.532   3.031   1.413
   76SOL    HW2 1128   2.611   2.921   1.505
   77SOL     OW 1129   5.737   5.308   6.409
   77SOL    HW1 1130   5.797   5.322   6.329
   77SOL    HW2 1131   5.647   5.347   6.390
   78SOL     OW 1132   6.456   6.316   6.129
   78SOL    HW1 1133   6.393   6.382   6.088
   78SOL    HW2 1134   6.548   6.329   6.090
   79SOL     OW 1135   2.826   0.007   0.034
   79SOL    HW1 1136   2.774   6.946   0.011
   79SOL    HW2 1137   2.913   0.006   7.008
   80SOL     OW 1138   0.295   1.500   3.990
   80SOL    HW1 1139   0.393   1.480   3.999
   80SOL    HW2 1140   0.242   1.427   4.033
   81SOL     OW 1141   1.231   0.605   3.593
   81SOL    HW1 1142   1.270   0.698   3.591
   81SOL    HW2 1143   1.289   0.544   3.540
   82SOL     OW 1144   6.970   4.878   5.227
   82SOL    HW1 1145   7.020   4.796   5.199
   82SOL    HW2 1146   0.006   4.958   5.214
   83SOL     OW 1147   0.131   6.866   0.617
   83SOL    HW1 1148   0.104   6.903   0.529
   83SOL    HW2 1149   0.138   6.940   0.684
   84SOL     OW 1150   6.004   4.040   1.490
   84SOL    HW1 1151   5.999   4.101   1.569
   84SOL    HW2 1152   6.036   4.092   1.410
   85SOL     OW 1153   0.547   2.962   5.334
   85SOL    HW1 1154   0.461   2.985   5.288
   85SOL    HW2 1155   0.568   3.032   5.402
   86SOL     OW 1156   0.789   0.885   5.707
   86SOL    HW1 1157   0.798   0.816   5.778
   86SOL    HW2 1158   0.850   0.863   5.631
   87SOL     OW 1159   3.912   0.978   1.077
   87SOL    HW1 1160   3.860   0.976   1.162
   87SOL    HW2 1161   3.963   1.064   1.071
   88SOL     OW 1162   5.528   0.819   0.403
   88SOL    HW1 1163   5.473   0.851   0.480
   88SOL    HW2 1164   5.468   0.777   0.334
   89SOL     OW 1165   1.562   2.853   6.196
   89SOL    HW1 1166   1.602   2.791   6.129
   89SOL    HW2 1167   1.478   2.893   6.159
   90SOL     OW 1168   5.675   6.672   3.856
   90SOL    HW1 1169   5.644   6.578   3.874
   90SOL    HW2 1170   5.680   6.687   3.757
   91SOL     OW 1171   4.616   4.785   4.762
   91SOL    HW1 1172   4.716   4.793   4.766
   91SOL    HW2 1173   4.590   4.689   4.766
   92SOL     OW 1174   3.299   5.148   1.738
   92SOL    HW1 1175   3.265   5.070   1.685
   92SOL    HW2 1176   3.287   5.232   1.685
   93SOL     OW 1177   3.348   5.032   5.712
   93SOL    HW1 1178   3.312   4.955   5.659
   93SOL    HW2 1179   3.448   5.033   5.705
   94SOL     OW 1180   2.678   5.644   0.631
   94SOL    HW1 1181   2.639   5.686   0.713
   94SOL    HW2 1182   2.650   5.695   0.550
   95SOL     OW 1183   6.915   0.857   4.998
   95SOL    HW1 1184   6.887   0.951   5.013
   95SOL    HW2 1185   6.841   0.807   4.953
   96SOL     OW 1186   1.873   0.084   5.722
   96SOL    HW1 1187   1.899   0.079   5.819
   96SOL    HW2 1188   1.848   0.178   5.699
   97SOL     OW 1189   6.204   3.005   4.967
   97SOL    HW1 1190   6.210   2.927   5.029
   97SOL    HW2 1191   6.139   3.072   5.004
   98SOL     OW 1192   5.948   2.450   5.919
   98SOL    HW1 1193   6.032   2.399   5.901
   98SOL    HW2 1194   5.965   2.548   5.908
   99SOL     OW 1195   4.714   1.912   1.162
   99SOL    HW1 1196   4.731   1.837   1.098
   99SOL    HW2 1197   4.623   1.902   1.202
  100SOL     OW 1198   6.856   5.213   6.097
  100SOL    HW1 1199   6.807   5.295   6.127
  100SOL    HW2 1200   6.833   5.136   6.157
  101SOL     OW 1201   1.602   6.274   3.933
  101SOL    HW1 1202   1.565   6.364   3.909
  101SOL    HW2 1203   1.603   6.265   4.033
  102SOL     OW 1204   4.602   0.168   3.860
  102SOL    HW1 1205   4.608   0.154   3.761
  102SOL    HW2 1206   4.525   0.229   3.880
  103SOL     OW 1207   4.034   1.592   1.362
  103SOL    HW1 1208   4.056   1.660   1.431
  103SOL    HW2 1209   3.992   1.636   1.283
  104SOL     OW 1210   0.250   5.974   2.558
  104SOL    HW1 1211   0.294   5.952   2.645
  104SOL    HW2 1212   0.176   5.910   2.541
  105SOL     OW 1213   4.904   0.799   6.059
  105SOL    HW1 1214   4.811   0.837   6.060
  105SOL    HW2 1215   4.968   0.867   6.094
  106SOL     OW 1216   2.569   6.734   6.220
  106SOL    HW1 1217   2.576   6.646   6.268
  106SOL    HW2 1218   2.527   6.720   6.130
  107SOL     OW 1219   2.564   3.237   1.028
  107SOL    HW1 1220   2.517   3.297   1.092
  107SOL    HW2 1221   2.558   3.275   0.935
  108SOL     OW 1222   5.121   4.315   5.671
  108SOL    HW1 1223   5.124   4.336   5.769
  108SOL    HW2 1224   5.105   4.399   5.619
  109SOL     OW 1225   5.913   0.926   1.134
  109SOL    HW1 1226   5.956   0.963   1.216
  109SOL    HW2 1227   5.972   0.856   1.094
  110SOL     OW 1228   4.008   5.711   4.980
  110SOL    HW1 1229   4.037   5.804   5.005
  110SOL    HW2 1230   4.005   5.654   5.062
  111SOL     OW 1231   3.426   0.980   3.417
  111SOL    HW1 1232   3.331   0.953   3.399
  111SOL    HW2 1233   3.427   1.058   3.480
  112SOL     OW 1234   0.144   0.128   6.419
  112SOL    HW1 1235   0.063   0.076   6.448
  112SOL    HW2 1236   0.226   0.074   6.438
  113SOL     OW 1237   0.008   5.320   3.254
  113SOL    HW1 1238   0.014   5.415   3.283
  113SOL    HW2 1239   6.944   5.280   3.285
  114SOL     OW 1240   0.666   6.927   6.990
  114SOL    HW1 1241   0.716   7.002   0.011
  114SOL    HW2 1242   0.571   6.954   6.976
  115SOL     OW 1243   4.998   1.420   4.671
  115SOL    HW1 1244   5.013   1.331   4.628
  115SOL    HW2 1245   4.999   1.410   4.770
  116SOL     OW 1246   6.475   4.626   2.189
  116SOL    HW1 1247   6.440   4.718   2.172
  116SOL    HW2 1248   6.574   4.625   2.177
  117SOL     OW 1249   1.450   6.965   6.572
  117SOL    HW1 1250   1.463   0.029   6.621
  117SOL    HW2 1251   1.357   6.960   6.536
  118SOL     OW 1252   0.989   0.450   2.477
  118SOL    HW1 1253   0.943   0.414   2.558
  118SOL    HW2 1254   0.976   0.549   2.472
  119SOL     OW 1255   6.827   3.178   6.287
  119SOL    HW1 1256   6.879   3.092   6.282
  119SOL    HW2 1257   6.804   3.198   6.382
  120SOL     OW 1258   5.963   6.736   0.947
  120SOL    HW1 1259   5.961   6.637   0.955
  120SOL    HW2 1260   6.025   6.764   0.873
  121SOL     OW 1261   2.605   3.421   5.681
  121SOL    HW1 1262   2.630   3.445   5.588
  121SOL    HW2 1263   2.542   3.489   5.717
  122SOL     OW 1264   1.069   2.951   4.341
  122SOL    HW1 1265   0.975   2.958   4.375
  122SOL    HW2 1266   1.128   3.014   4.392
  123SOL     OW 1267   0.785   1.918   1.373
  123SOL    HW1 1268   0.884   1.909   1.379
  123SOL    HW2 1269   0.747   1.935   1.464
  124SOL     OW 1270   4.873   3.072   1.219
  124SOL    HW1 1271   4.795   3.014   1.240
  124SOL    HW2 1272   4.841   3.157   1.177
  125SOL     OW 1273   1.828   3.382   1.722
  125SOL    HW1 1274   1.909   3.358   1.774
  125SOL    HW2 1275   1.850   3.457   1.659
  126SOL     OW 1276   3.398   4.740   1.434
  126SOL    HW1 1277   3.432   4.648   1.411
  126SOL    HW2 1278   3.445   4.773   1.516
  127SOL     OW 1279   0.037   6.102   6.419
  127SOL    HW1 1280   0.078   6.103   6.328
  127SOL    HW2 1281   0.095   6.050   6.481
  128SOL     OW 1282   4.601   2.438   1.585
  128SOL    HW1 1283   4.570   2.479   1.670
  128SOL    HW2 1284   4.661   2.502   1.537
  129SOL     OW 1285   2.809   3.820   6.727
  129SOL    HW1 1286   2.726   3.861   6.765
  129SOL    HW2 1287   2.846   3.881   6.657
  130SOL     OW 1288   1.561   1.822   4.409
  130SOL    HW1 1289   1.630   1.893   4.419
  130SOL    HW2 1290   1.517   1.830   4.319
  131SOL     OW 1291   5.220   1.669   2.936
  131SOL    HW1 1292   5.167   1.753   2.928
  131SOL    HW2 1293   5.159   1.590   2.929
  132SOL     OW 1294   0.886   2.489   0.787
  132SOL    HW1 1295   0.876   2.586   0.806
  132SOL    HW2 1296   0.870   2.437   0.871
  133SOL     OW 1297   6.498   5.602   2.471
  133SOL    HW1 1298   6.453   5.564   2.390
  133SOL    HW2 1299   6.597   5.589   2.463
  134SOL     OW 1300   6.890   3.503   2.756
  134SOL    HW1 1301   6.942   3.505   2.842
  134SOL    HW2 1302   6.795   3.529   2.774
  135SOL     OW 1303   4.816   1.459   4.028
  135SOL    HW1 1304   4.739   1.499   4.077
  135SOL    HW2 1305   4.839   1.370   4.069
  136SOL     OW 1306   5.701   4.876   5.210
  136SOL    HW1 1307   5.647   4.864   5.126
  136SOL    HW2 1308   5.797   4.854   5.191
  137SOL     OW 1309   4.012   0.045   5.779
  137SOL    HW1 1310   3.939   7.022   5.830
  137SOL    HW2 1311   3.999   0.030   5.681
  138SOL     OW 1312   6.727   5.253   4.832
  138SOL    HW1 1313   6.820   5.271   4.862
  138SOL    HW2 1314   6.669   5.234   4.911
  139SOL     OW 1315   3.673   4.850   5.504
  139SOL    HW1 1316   3.676   4.915   5.580
  139SOL    HW2 1317   3.607   4.778   5.524
  140SOL     OW 1318   6.596   4.444   4.602
  140SOL    HW1 1319   6.696   4.452   4.599
  140SOL    HW2 1320   6.555   4.535   4.596
  141SOL     OW 1321   1.428   2.101   4.167
  141SOL    HW1 1322   1.498   2.130   4.232
  141SOL    HW2 1323   1.463   2.109   4.073
  142SOL     OW 1324   1.859   5.396   1.433
  142SOL    HW1 1325   1.928   5.380   1.503
  142SOL    HW2 1326   1.904   5.409   1.344
  143SOL     OW 1327   5.729   4.026   1.751
  143SOL    HW1 1328   5.668   4.105   1.758
  143SOL    HW2 1329   5.716   3.983   1.662
  144SOL     OW 1330   2.486   6.907   0.083
  144SOL    HW1 1331   2.440   6.927   0.170
  144SOL    HW2 1332   2.421   6.864   0.020
  145SOL     OW 1333   0.327   5.571   0.591
  145SOL    HW1 1334   0.249   5.509   0.596
  145SOL    HW2 1335   0.295   5.662   0.566
  146SOL     OW 1336   5.510   5.072   0.867
  146SOL    HW1 1337   5.608   5.079   0.888
  146SOL    HW2 1338   5.479   4.979   0.886
  147SOL     OW 1339   6.301   2.091   1.182
  147SOL    HW1 1340   6.283   2.134   1.270
  147SOL    HW2 1341   6.235   2.018   1.166
  148SOL     OW 1342   0.845   5.542   5.647
  148SOL    HW1 1343   0.830   5.512   5.552
  148SOL    HW2 1344   0.761   5.581   5.683
  149SOL     OW 1345   3.126   0.946   4.912
  149SOL    HW1 1346   3.173   1.012   4.971
  149SOL    HW2 1347   3.036   0.982   4.887
  150SOL     OW 1348   0.182   5.145   6.658
  150SOL    HW1 1349   0.083   5.127   6.653
  150SOL    HW2 1350   0.198   5.225   6.717
  151SOL     OW 1351   4.077   1.778   1.564
  151SOL    HW1 1352   4.065   1.857   1.505
  151SOL    HW2 1353   4.000   1.770   1.627
  152SOL     OW 1354   2.955   0.665   4.344
  152SOL    HW1 1355   2.941   0.712   4.432
  152SOL    HW2 1356   2.871   0.616   4.320
  153SOL     OW 1357   2.112   1.594   3.430
  153SOL    HW1 1358   2.057   1.668   3.469
  153SOL    HW2 1359   2.188   1.574   3.492
  154SOL     OW 1360   6.741   2.108   2.298
  154SOL    HW1 1361   6.809   2.041   2.329
  154SOL    HW2 1362   6.787   2.194   2.274
  155SOL     OW 1363   0.008   1.115   3.030
  155SOL    HW1 1364   0.087   1.153   3.079
  155SOL    HW2 1365   7.006   1.176   2.954
  156SOL     OW 1366   6.233   2.374   1.051
  156SOL    HW1 1367   6.321   2.400   1.090
  156SOL    HW2 1368   6.215   2.278   1.070
  157SOL     OW 1369   6.017   3.757   2.687
  157SOL    HW1 1370   5.952   3.680   2.688
  157SOL    HW2 1371   6.012   3.805   2.775
  158SOL     OW 1372   1.878   1.114   2.767
  158SOL    HW1 1373   1.949   1.162   2.716
  158SOL    HW2 1374   1.788   1.137   2.729
  159SOL     OW 1375   4.940   4.115   2.205
  159SOL    HW1 1376   4.872   4.181   2.172
  159SOL    HW2 1377   5.002   4.160   2.269
  160SOL     OW 1378   6.514   4.367   5.686
  160SOL    HW1 1379   6.480   4.455   5.718
  160SOL    HW2 1380   6.509   4.364   5.586
  161SOL     OW 1381   2.636   5.089   4.861
  161SOL    HW1 1382   2.704   5.020   4.888
  161SOL    HW2 1383   2.544   5.055   4.881
  162SOL     OW 1384   4.426   5.709   1.566
  162SOL    HW1 1385   4.501   5.753   1.517
  162SOL    HW2 1386   4.345   5.768   1.564
  163SOL     OW 1387   4.422   0.647   2.402
  163SOL    HW1 1388   4.475   0.730   2.421
  163SOL    HW2 1389   4.325   0.666   2.413
  164SOL     OW 1390   5.809   3.187   1.023
  164SOL    HW1 1391   5.890   3.170   0.967
  164SOL    HW2 1392   5.748   3.108   1.019
  165SOL     OW 1393   5.091   3.366   6.415
  165SOL    HW1 1394   4.997   3.381   6.447
  165SOL    HW2 1395   5.116   3.271   6.429
  166SOL     OW 1396   1.130   0.217   2.410
  166SOL    HW1 1397   1.072   0.151   2.362
  166SOL    HW2 1398   1.078   0.300   2.431
  167SOL     OW 1399   6.260   2.639   0.218
  167SOL    HW1 1400   6.257   2.727   0.171
  167SOL    HW2 1401   6.324   2.578   0.171
  168SOL     OW 1402   2.256   5.467   0.742
  168SOL    HW1 1403   2.231   5.556   0.704
  168SOL    HW2 1404   2.324   5.424   0.683
  169SOL     OW 1405   2.071   6.584   1.824
  169SOL    HW1 1406   2.113   6.629   1.745
  169SOL    HW2 1407   2.130   6.597   1.904
  170SOL     OW 1408   0.421   1.530   3.038
  170SOL    HW1 1409   0.510   1.496   3.069
  170SOL    HW2 1410   0.417   1.629   3.053
  171SOL     OW 1411   3.403   3.653   0.143
  171SOL    HW1 1412   3.476   3.670   0.076
  171SOL    HW2 1413   3.315   3.680   0.105
  172SOL     OW 1414   0.385   2.875   5.656
  172SOL    HW1 1415   0.288   2.852   5.664
  172SOL    HW2 1416   0.394   2.963   5.610
  173SOL     OW 1417   0.156   6.562   5.598
  173SOL    HW1 1418   0.082   6.626   5.620
  173SOL    HW2 1419   0.193   6.525   5.683
  174SOL     OW 1420   2.748   5.399   3.821
  174SOL    HW1 1421   2.658   5.397   3.778
  174SOL    HW2 1422   2.814   5.438   3.757
  175SOL     OW 1423   1.080   5.606   2.870
  175SOL    HW1 1424   1.072   5.514   2.907
  175SOL    HW2 1425   1.082   5.672   2.945
  176SOL     OW 1426   2.377   4.774   0.923
  176SOL    HW1 1427   2.298   4.825   0.887
  176SOL    HW2 1428   2.363   4.757   1.021
  177SOL     OW 1429   4.596   1.839   2.554
  177SOL    HW1 1430   4.576   1.836   2.456
  177SOL    HW2 1431   4.670   1.776   2.574
  178SOL     OW 1432   5.106   5.026   6.675
  178SOL    HW1 1433   5.198   5.036   6.637
  178SOL    HW2 1434   5.111   4.985   6.766
  179SOL     OW 1435   2.971   0.433   0.300
  179SOL    HW1 1436   2.889   0.472   0.258
  179SOL    HW2 1437   2.956   0.422   0.398
  180SOL     OW 1438   0.707   2.130   6.906
  180SOL    HW1 1439   0.784   2.187   6.878
  180SOL    HW2 1440   0.629   2.188   6.928
  181SOL     OW 1441   3.304   2.990   5.569
  181SOL    HW1 1442   3.398   2.959   5.582
  181SOL    HW2 1443   3.274   2.969   5.476
  182SOL     OW 1444   4.193   2.224   4.926
  182SOL    HW1 1445   4.103   2.186   4.904
  182SOL    HW2 1446   4.182   2.308   4.978
  183SOL     OW 1447   5.145   1.380   2.099
  183SOL    HW1 1448   5.125   1.291   2.060
  183SOL    HW2 1449   5.231   1.415   2.061
  184SOL     OW 1450   0.061   4.515   2.837
  184SOL    HW1 1451   0.033   4.447   2.769
  184SOL    HW2 1452   0.139   4.567   2.802
  185SOL     OW 1453   1.855   3.967   6.315
  185SOL    HW1 1454   1.903   3.907   6.251
  185SOL    HW2 1455   1.918   4.040   6.345
  186SOL     OW 1456   5.556   6.898   3.040
  186SOL    HW1 1457   5.539   6.899   3.138
  186SOL    HW2 1458   5.550   6.804   3.006
  187SOL     OW 1459   5.863   1.271   3.984
  187SOL    HW1 1460   5.913   1.193   3.947
  187SOL    HW2 1461   5.851   1.341   3.913
  188SOL     OW 1462   6.518   2.235   3.437
  188SOL    HW1 1463   6.499   2.292   3.357
  188SOL    HW2 1464   6.575   2.157   3.410
  189SOL     OW 1465   2.392   4.388   2.817
  189SOL    HW1 1466   2.448   4.307   2.800
  189SOL    HW2 1467   2.333   4.405   2.738
  190SOL     OW 1468   3.665   0.951   5.765
  190SOL    HW1 1469   3.645   1.047   5.782
  190SOL    HW2 1470   3.580   0.898   5.771
  191SOL     OW 1471   5.112   5.917   6.244
  191SOL    HW1 1472   5.115   5.824   6.207
  191SOL    HW2 1473   5.047   5.920   6.321
  192SOL     OW 1474   6.796   0.828   1.725
  192SOL    HW1 1475   6.758   0.738   1.746
  192SOL    HW2 1476   6.888   0.817   1.688
  193SOL     OW 1477   5.378   3.939   6.945
  193SOL    HW1 1478   5.396   3.889   0.007
  193SOL    HW2 1479   5.385   3.876   6.867
  194SOL     OW 1480   3.344   0.328   3.310
  194SOL    HW1 1481   3.251   0.358   3.290
  194SOL    HW2 1482   3.343   0.234   3.343
  195SOL     OW 1483   0.397   5.741   3.451
  195SOL    HW1 1484   0.459   5.777   3.381
  195SOL    HW2 1485   0.450   5.698   3.524
  196SOL     OW 1486   0.754   1.922   0.509
  196SOL    HW1 1487   0.696   1.958   0.436
  196SOL    HW2 1488   0.849   1.916   0.477
  197SOL     OW 1489   1.536   0.628   0.942
  197SOL    HW1 1490   1.563   0.571   1.020
  197SOL    HW2 1491   1.592   0.710   0.938
  198SOL     OW 1492   3.384   2.096   3.868
  198SOL    HW1 1493   3.353   2.048   3.786
  198SOL    HW2 1494   3.305   2.131   3.918
  199SOL     OW 1495   1.484   2.513   4.226
  199SOL    HW1 1496   1.484   2.558   4.137
  199SOL    HW2 1497   1.396   2.467   4.240
  200SOL     OW 1498   6.709   2.629   0.018
  200SOL    HW1 1499   6.798   2.623   0.064
  200SOL    HW2 1500   6.714   2.584   6.952
  201SOL     OW 1501   0.587   0.941   6.698
  201SOL    HW1 1502   0.611   0.863   6.640
  201SOL    HW2 1503   0.488   0.955   6.696
  202SOL     OW 1504   4.554   6.777   0.224
  202SOL    HW1 1505   4.649   6.796   0.200
  202SOL    HW2 1506   4.518   6.703   0.167
  203SOL     OW 1507   6.014   2.697   5.922
  203SOL    HW1 1508   6.092   2.753   5.894
  203SOL    HW2 1509   5.941   2.756   5.957
  204SOL     OW 1510   6.263   1.354   5.866
  204SOL    HW1 1511   6.271   1.353   5.766
  204SOL    HW2 1512   6.355   1.358   5.906
  205SOL     OW 1513   1.253   2.979   2.513
  205SOL    HW1 1514   1.203   3.054   2.556
  205SOL    HW2 1515   1.352   2.995   2.523
  206SOL     OW 1516   0.492   3.624   0.584
  206SOL    HW1 1517   0.537   3.637   0.496
  206SOL    HW2 1518   0.524   3.693   0.648
  207SOL     OW 1519   5.916   2.242   4.562
  207SOL    HW1 1520   5.938   2.320   4.504
  207SOL    HW2 1521   5.828   2.258   4.607
  208SOL     OW 1522   1.408   4.212   4.133
  208SOL    HW1 1523   1.399   4.241   4.228
  208SOL    HW2 1524   1.427   4.114   4.129
  209SOL     OW 1525   6.308   4.189   2.710
  209SOL    HW1 1526   6.256   4.161   2.790
  209SOL    HW2 1527   6.361   4.271   2.731
  210SOL     OW 1528   4.707   2.693   6.849
  210SOL    HW1 1529   4.797   2.657   6.874
  210SOL    HW2 1530   4.717   2.761   6.776
  211SOL     OW 1531   0.264   1.551   2.576
  211SOL    HW1 1532   0.273   1.609   2.495
  211SOL    HW2 1533   0.174   1.563   2.616
  212SOL     OW 1534   1.966   3.571   2.885
  212SOL    HW1 1535   1.931   3.662   2.862
  212SOL    HW2 1536   1.961   3.512   2.804
  213SOL     OW 1537   1.533   5.410   1.083
  213SOL    HW1 1538   1.471   5.372   1.152
  213SOL    HW2 1539   1.626   5.410   1.119
  214SOL     OW 1540   4.962   6.329   2.134
  214SOL    HW1 1541   4.899   6.265   2.090
  214SOL    HW2 1542   5.054   6.315   2.097
  215SOL     OW 1543   2.511   4.996   3.068
  215SOL    HW1 1544   2.480   4.941   3.146
  215SOL    HW2 1545   2.487   4.950   2.983
  216SOL     OW 1546   1.156   6.872   2.453
  216SOL    HW1 1547   1.191   6.781   2.476
  216SOL    HW2 1548   1.150   6.881   2.354
  217SOL     OW 1549   1.458   4.373   6.195
  217SOL    HW1 1550   1.551   4.407   6.180
  217SOL    HW2 1551   1.404   4.387   6.112
  218SOL     OW 1552   1.410   1.792   4.891
  218SOL    HW1 1553   1.446   1.709   4.935
  218SOL    HW2 1554   1.463   1.871   4.922
  219SOL     OW 1555   4.404   1.783   0.895
  219SOL    HW1 1556   4.378   1.734   0.978
  219SOL    HW2 1557   4.384   1.881   0.906
  220SOL     OW 1558   2.868   6.807   0.641
  220SOL    HW1 1559   2.801   6.735   0.655
  220SOL    HW2 1560   2.901   6.805   0.547
  221SOL     OW 1561   4.610   5.669   1.910
  221SOL    HW1 1562   4.541   5.598   1.923
  221SOL    HW2 1563   4.688   5.652   1.970
  222SOL     OW 1564   2.564   4.936   6.543
  222SOL    HW1 1565   2.521   4.923   6.633
  222SOL    HW2 1566   2.607   4.850   6.514
  223SOL     OW 1567   6.175   2.791   5.236
  223SOL    HW1 1568   6.256   2.732   5.236
  223SOL    HW2 1569   6.159   2.825   5.329
  224SOL     OW 1570   2.473   1.422   6.278
  224SOL    HW1 1571   2.436   1.329   6.280
  224SOL    HW2 1572   2.468   1.462   6.369
  225SOL     OW 1573   4.292   5.371   5.483
  225SOL    HW1 1574   4.364   5.395   5.548
  225SOL    HW2 1575   4.333   5.329   5.402
  226SOL     OW 1576   0.892   2.281   6.802
  226SOL    HW1 1577   0.866   2.366   6.846
  226SOL    HW2 1578   0.977   2.295   6.750
  227SOL     OW 1579   1.107   3.648   1.751
  227SOL    HW1 1580   1.177   3.646   1.822
  227SOL    HW2 1581   1.122   3.573   1.687
  228SOL     OW 1582   1.654   6.764   2.932
  228SOL    HW1 1583   1.716   6.691   2.902
  228SOL    HW2 1584   1.644   6.831   2.858
  229SOL     OW 1585   4.088   5.780   6.174
  229SOL    HW1 1586   4.069   5.753   6.268
  229SOL    HW2 1587   4.031   5.858   6.149
  230SOL     OW 1588   4.783   5.770   4.739
  230SOL    HW1 1589   4.715   5.824   4.788
  230SOL    HW2 1590   4.769   5.673   4.758
  231SOL     OW 1591   5.649   1.516   6.963
  231SOL    HW1 1592   5.702   1.453   7.020
  231SOL    HW2 1593   5.641   1.604   7.011
  232SOL     OW 1594   1.818   2.398   5.891
  232SOL    HW1 1595   1.858   2.484   5.924
  232SOL    HW2 1596   1.779   2.412   5.800
  233SOL     OW 1597   2.746   1.513   2.922
  233SOL    HW1 1598   2.701   1.582   2.979
  233SOL    HW2 1599   2.774   1.435   2.979
  234SOL     OW 1600   4.539   0.926   0.151
  234SOL    HW1 1601   4.497   0.835   0.159
  234SOL    HW2 1602   4.626   0.927   0.200
  235SOL     OW 1603   4.770   2.671   3.310
  235SOL    HW1 1604   4.806   2.745   3.254
  235SOL    HW2 1605   4.717   2.608   3.252
  236SOL     OW 1606   4.587   4.515   6.278
  236SOL    HW1 1607   4.607   4.473   6.366
  236SOL    HW2 1608   4.505   4.473   6.239
  237SOL     OW 1609   6.181   3.616   2.940
  237SOL    HW1 1610   6.096   3.643   2.987
  237SOL    HW2 1611   6.232   3.699   2.915
  238SOL     OW 1612   6.404   1.525   0.932
  238SOL    HW1 1613   6.375   1.581   0.855
  238SOL    HW2 1614   6.379   1.571   1.017
  239SOL     OW 1615   1.620   3.730   0.129
  239SOL    HW1 1616   1.544   3.794   0.137
  239SOL    HW2 1617   1.607   3.672   0.049
  240SOL     OW 1618   5.432   3.094   3.201
  240SOL    HW1 1619   5.433   3.074   3.103
  240SOL    HW2 1620   5.376   3.175   3.219
  241SOL     OW 1621   3.213   1.667   3.864
  241SOL    HW1 1622   3.132   1.698   3.913
  241SOL    HW2 1623   3.193   1.581   3.815
  242SOL     OW 1624   3.319   3.619   3.104
  242SOL    HW1 1625   3.239   3.623   3.044
  242SOL    HW2 1626   3.302   3.673   3.186
  243SOL     OW 1627   4.308   2.617   6.032
  243SOL    HW1 1628   4.317   2.679   5.954
  243SOL    HW2 1629   4.398   2.580   6.055
  244SOL     OW 1630   4.996   3.507   5.193
  244SOL    HW1 1631   5.070   3.473   5.134
  244SOL    HW2 1632   4.910   3.506   5.142
  245SOL     OW 1633   3.142   1.742   2.840
  245SOL    HW1 1634   3.175   1.814   2.779
  245SOL    HW2 1635   3.208   1.667   2.841
  246SOL     OW 1636   6.651   1.266   2.387
  246SOL    HW1 1637   6.689   1.292   2.298
  246SOL    HW2 1638   6.604   1.178   2.380
  247SOL     OW 1639   1.863   1.475   1.198
  247SOL    HW1 1640   1.791   1.486   1.129
  247SOL    HW2 1641   1.951   1.497   1.158
  248SOL     OW 1642   1.794   2.434   2.372
  248SOL    HW1 1643   1.743   2.487   2.440
  248SOL    HW2 1644   1.787   2.478   2.283
  249SOL     OW 1645   5.536   6.623   4.967
  249SOL    HW1 1646   5.582   6.711   4.980
  249SOL    HW2 1647   5.605   6.550   4.968
  250SOL     OW 1648   4.550   2.471   1.192
  250SOL    HW1 1649   4.640   2.435   1.216
  250SOL    HW2 1650   4.560   2.562   1.151
  251SOL     OW 1651   4.126   3.753   5.627
  251SOL    HW1 1652   4.037   3.727   5.665
  251SOL    HW2 1653   4.115   3.835   5.570
  252SOL     OW 1654   6.021   6.244   5.594
  252SOL    HW1 1655   6.119   6.258   5.607
  252SOL    HW2 1656   5.979   6.329   5.562
  253SOL     OW 1657   3.723   6.358   6.178
  253SOL    HW1 1658   3.636   6.337   6.223
  253SOL    HW2 1659   3.773   6.273   6.160
  254SOL     OW 1660   5.925   2.832   5.102
  254SOL    HW1 1661   5.864   2.850   5.179
  254SOL    HW2 1662   6.019   2.825   5.134
  255SOL     OW 1663   1.974   4.051   5.872
  255SOL    HW1 1664   2.017   4.072   5.784
  255SOL    HW2 1665   1.915   3.971   5.862
  256SOL     OW 1666   4.958   2.358   4.906
  256SOL    HW1 1667   5.053   2.330   4.891
  256SOL    HW2 1668   4.923   2.314   4.989
  257SOL     OW 1669   5.001   6.705   2.369
  257SOL    HW1 1670   4.974   6.709   2.273
  257SOL    HW2 1671   5.101   6.713   2.376
  258SOL     OW 1672   1.641   3.472   5.776
  258SOL    HW1 1673   1.647   3.530   5.695
  258SOL    HW2 1674   1.730   3.433   5.796
  259SOL     OW 1675   3.588   0.030   4.101
  259SOL    HW1 1676   3.613   0.048   4.196
  259SOL    HW2 1677   3.588   0.115   4.049
  260SOL     OW 1678   3.596   5.583   3.717
  260SOL    HW1 1679   3.640   5.500   3.683
  260SOL    HW2 1680   3.512   5.600   3.665
  261SOL     OW 1681   3.985   4.830   0.076
  261SOL    HW1 1682   3.933   4.904   0.118
  261SOL    HW2 1683   4.013   4.857   7.006
  262SOL     OW 1684   1.948   3.569   6.595
  262SOL    HW1 1685   1.875   3.507   6.622
  262SOL    HW2 1686   1.916   3.663   6.602
  263SOL     OW 1687   1.105   5.686   4.301
  263SOL    HW1 1688   1.077   5.719   4.211
  263SOL    HW2 1689   1.203   5.664   4.300
  264SOL     OW 1690   0.025   3.925   6.248
  264SOL    HW1 1691   7.019   3.829   6.253
  264SOL    HW2 1692   0.009   3.960   6.156
  265SOL     OW 1693   6.599   0.153   4.176
  265SOL    HW1 1694   6.604   0.101   4.262
  265SOL    HW2 1695   6.646   0.102   4.104
  266SOL     OW 1696   3.579   1.204   6.025
  266SOL    HW1 1697   3.537   1.202   5.935
  266SOL    HW2 1698   3.538   1.133   6.083
  267SOL     OW 1699   1.189   0.762   4.596
  267SOL    HW1 1700   1.202   0.664   4.587
  267SOL    HW2 1701   1.149   0.782   4.686
  268SOL     OW 1702   3.184   1.306   1.318
  268SOL    HW1 1703   3.176   1.230   1.382
  268SOL    HW2 1704   3.216   1.388   1.366
  269SOL     OW 1705   3.893   1.628   0.196
  269SOL    HW1 1706   3.886   1.594   0.290
  269SOL    HW2 1707   3.820   1.695   0.179
  270SOL     OW 1708   6.389   6.812   0.590
  270SOL    HW1 1709   6.457   6.792   0.519
  270SOL    HW2 1710   6.417   6.893   0.641
  271SOL     OW 1711   1.296   3.034   6.369
  271SOL    HW1 1712   1.326   3.063   6.278
  271SOL    HW2 1713   1.375   3.022   6.429
  272SOL     OW 1714   2.528   6.640   3.864
  272SOL    HW1 1715   2.491   6.549   3.844
  272SOL    HW2 1716   2.546   6.688   3.779
  273SOL     OW 1717   1.789   5.003   6.006
  273SOL    HW1 1718   1.726   4.933   6.041
  273SOL    HW2 1719   1.859   4.960   5.950
  274SOL     OW 1720   4.317   1.500   3.587
  274SOL    HW1 1721   4.404   1.461   3.618
  274SOL    HW2 1722   4.319   1.512   3.488
  275SOL     OW 1723   6.744   6.590   2.045
  275SOL    HW1 1724   6.655   6.554   2.018
  275SOL    HW2 1725   6.786   6.530   2.113
  276SOL     OW 1726   0.594   0.959   4.562
  276SOL    HW1 1727   0.620   0.874   4.516
  276SOL    HW2 1728   0.672   0.994   4.614
  277SOL     OW 1729   2.273   3.765   0.811
  277SOL    HW1 1730   2.250   3.861   0.826
  277SOL    HW2 1731   2.190   3.713   0.791
  278SOL     OW 1732   0.318   2.518   1.944
  278SOL    HW1 1733   0.290   2.423   1.955
  278SOL    HW2 1734   0.269   2.575   2.011
  279SOL     OW 1735   6.453   2.318   4.124
  279SOL    HW1 1736   6.528   2.334   4.187
  279SOL    HW2 1737   6.431   2.403   4.076
  280SOL     OW 1738   1.809   4.473   2.020
  280SOL    HW1 1739   1.733   4.443   2.078
  280SOL    HW2 1740   1.893   4.477   2.074
  281SOL     OW 1741   2.269   4.500   0.970
  281SOL    HW1 1742   2.308   4.450   1.048
  281SOL    HW2 1743   2.311   4.591   0.965
  282SOL     OW 1744   3.088   2.226   5.962
  282SOL    HW1 1745   3.033   2.156   5.917
  282SOL    HW2 1746   3.110   2.196   6.055
  283SOL     OW 1747   4.651   2.421   5.642
  283SOL    HW1 1748   4.733   2.379   5.604
  283SOL    HW2 1749   4.677   2.485   5.714
  284SOL     OW 1750   1.658   3.359   4.119
  284SOL    HW1 1751   1.587   3.295   4.147
  284SOL    HW2 1752   1.641   3.449   4.160
  285SOL     OW 1753   5.261   4.640   4.414
  285SOL    HW1 1754   5.176   4.693   4.421
  285SOL    HW2 1755   5.286   4.630   4.318
  286SOL     OW 1756   3.029   3.572   6.495
  286SOL    HW1 1757   3.071   3.559   6.585
  286SOL    HW2 1758   3.100   3.589   6.428
  287SOL     OW 1759   1.962   3.503   7.014
  287SOL    HW1 1760   2.014   3.450   6.947
  287SOL    HW2 1761   1.965   3.600   6.989
  288SOL     OW 1762   4.961   2.643   6.955
  288SOL    HW1 1763   5.033   2.703   6.921
  288SOL    HW2 1764   4.949   2.657   0.031
  289SOL     OW 1765   3.300   4.769   6.295
  289SOL    HW1 1766   3.360   4.758   6.375
  289SOL    HW2 1767   3.356   4.778   6.213
  290SOL     OW 1768   0.430   2.335   5.506
  290SOL    HW1 1769   0.374   2.332   5.423
  290SOL    HW2 1770   0.401   2.411   5.564
  291SOL     OW 1771   0.089   2.235   2.454
  291SOL    HW1 1772   0.094   2.334   2.439
  291SOL    HW2 1773   0.056   2.217   2.546
  292SOL     OW 1774   2.055   6.979   4.077
  292SOL    HW1 1775   2.055   6.972   4.176
  292SOL    HW2 1776   1.963   6.960   4.042
  293SOL     OW 1777   3.646   5.357   3.524
  293SOL    HW1 1778   3.586   5.277   3.526
  293SOL    HW2 1779   3.704   5.353   3.443
  294SOL     OW 1780   4.419   6.735   6.450
  294SOL    HW1 1781   4.383   6.748   6.542
  294SOL    HW2 1782   4.440   6.824   6.409
  295SOL     OW 1783   5.151   0.338   4.258
  295SOL    HW1 1784   5.082   0.384   4.314
  295SOL    HW2 1785   5.240   0.343   4.303
  296SOL     OW 1786   2.493   1.825   3.905
  296SOL    HW1 1787   2.480   1.901   3.968
  296SOL    HW2 1788   2.406   1.802   3.862
  297SOL     OW 1789   2.185   4.451   3.012
  297SOL    HW1 1790   2.252   4.416   2.946
  297SOL    HW2 1791   2.112   4.498   2.963
  298SOL     OW 1792   5.793   5.108   0.838
  298SOL    HW1 1793   5.815   5.090   0.742
  298SOL    HW2 1794   5.852   5.053   0.897
  299SOL     OW 1795   6.724   2.613   4.576
  299SOL    HW1 1796   6.758   2.678   4.508
  299SOL    HW2 1797   6.800   2.579   4.631
  300SOL     OW 1798   5.959   0.011   2.613
  300SOL    HW1 1799   5.946   0.079   2.541
  300SOL    HW2 1800   6.024   6.965   2.581
  301SOL     OW 1801   5.305   3.843   5.938
  301SOL    HW1 1802   5.250   3.921   5.908
  301SOL    HW2 1803   5.293   3.830   6.037
  302SOL     OW 1804   1.367   7.005   3.508
  302SOL    HW1 1805   1.389   0.038   3.588
  302SOL    HW2 1806   1.387   0.034   3.425
  303SOL     OW 1807   5.654   0.026   3.761
  303SOL    HW1 1808   5.610   6.971   3.806
  303SOL    HW2 1809   5.599   0.055   3.682
  304SOL     OW 1810   3.120   0.172   3.028
  304SOL    HW1 1811   3.133   0.168   3.127
  304SOL    HW2 1812   3.025   0.197   3.009
  305SOL     OW 1813   1.171   3.383   1.619
  305SOL    HW1 1814   1.212   3.377   1.710
  305SOL    HW2 1815   1.242   3.379   1.549
  306SOL     OW 1816   2.308   0.486   3.209
  306SOL    HW1 1817   2.310   0.508   3.306
  306SOL    HW2 1818   2.356   0.557   3.158
  307SOL     OW 1819   3.536   0.574   1.077
  307SOL    HW1 1820   3.526   0.609   0.984
  307SOL    HW2 1821   3.560   0.649   1.138
  308SOL     OW 1822   0.587   5.238   4.302
  308SOL    HW1 1823   0.601   5.284   4.214
  308SOL    HW2 1824   0.489   5.229   4.319
  309SOL     OW 1825   4.079   5.282   5.094
  309SOL    HW1 1826   4.152   5.295   5.028
  309SOL    HW2 1827   4.047   5.370   5.128
  310SOL     OW 1828   0.919   6.850   6.309
  310SOL    HW1 1829   0.953   6.944   6.310
  310SOL    HW2 1830   0.923   6.812   6.401
  311SOL     OW 1831   0.684   0.326   1.470
  311SOL    HW1 1832   0.726   0.390   1.406
  311SOL    HW2 1833   0.634   0.256   1.419
  312SOL     OW 1834   3.619   1.670   4.746
  312SOL    HW1 1835   3.696   1.714   4.793
  312SOL    HW2 1836   3.644   1.652   4.651
  313SOL     OW 1837   0.646   4.711   1.783
  313SOL    HW1 1838   0.640   4.758   1.871
  313SOL    HW2 1839   0.608   4.770   1.712
  314SOL     OW 1840   3.361   6.326   1.481
  314SOL    HW1 1841   3.295   6.304   1.410
  314SOL    HW2 1842   3.342   6.271   1.562
  315SOL     OW 1843   1.310   3.108   3.132
  315SOL    HW1 1844   1.220   3.110   3.175
  315SOL    HW2 1845   1.373   3.055   3.190
  316SOL     OW 1846   2.392   2.695   4.031
  316SOL    HW1 1847   2.457   2.722   3.959
  316SOL    HW2 1848   2.348   2.609   4.006
  317SOL     OW 1849   6.538   1.730   0.000
  317SOL    HW1 1850   6.493   1.800   0.056
  317SOL    HW2 1851   6.513   1.639   0.033
  318SOL     OW 1852   2.604   5.342   1.046
  318SOL    HW1 1853   2.639   5.333   1.139
  318SOL    HW2 1854   2.559   5.431   1.035
  319SOL     OW 1855   1.251   6.945   0.617
  319SOL    HW1 1856   1.256   6.845   0.614
  319SOL    HW2 1857   1.344   6.982   0.629
  320SOL     OW 1858   5.112   4.027   0.495
  320SOL    HW1 1859   5.038   3.995   0.436
  320SOL    HW2 1860   5.173   3.951   0.517
  321SOL     OW 1861   2.251   1.205   1.337
  321SOL    HW1 1862   2.277   1.222   1.242
  321SOL    HW2 1863   2.332   1.198   1.394
  322SOL     OW 1864   3.655   2.851   4.816
  322SOL    HW1 1865   3.598   2.849   4.734
  322SOL    HW2 1866   3.624   2.781   4.880
  323SOL     OW 1867   0.309   4.116   2.152
  323SOL    HW1 1868   0.392   4.126   2.207
  323SOL    HW2 1869   0.307   4.025   2.110
  324SOL     OW 1870   0.457   3.129   4.357
  324SOL    HW1 1871   0.370   3.080   4.357
  324SOL    HW2 1872   0.469   3.176   4.269
  325SOL     OW 1873   2.524   2.519   2.967
  325SOL    HW1 1874   2.468   2.452   3.015
  325SOL    HW2 1875   2.605   2.474   2.928
  326SOL     OW 1876   2.457   4.691   6.313
  326SOL    HW1 1877   2.387   4.731   6.373
  326SOL    HW2 1878   2.540   4.674   6.366
  327SOL     OW 1879   6.237   5.512   5.925
  327SOL    HW1 1880   6.334   5.497   5.907
  327SOL    HW2 1881   6.189   5.424   5.924
  328SOL     OW 1882   2.464   5.869   2.338
  328SOL    HW1 1883   2.454   5.940   2.268
  328SOL    HW2 1884   2.483   5.912   2.427
  329SOL     OW 1885   3.508   3.338   2.453
  329SOL    HW1 1886   3.425   3.288   2.432
  329SOL    HW2 1887   3.564   3.284   2.517
  330SOL     OW 1888   3.741   1.180   2.031
  330SOL    HW1 1889   3.825   1.147   1.988
  330SOL    HW2 1890   3.752   1.181   2.130
  331SOL     OW 1891   5.263   4.930   6.375
  331SOL    HW1 1892   5.347   4.982   6.361
  331SOL    HW2 1893   5.255   4.906   6.472
  332SOL     OW 1894   3.791   2.110   3.274
  332SOL    HW1 1895   3.718   2.117   3.206
  332SOL    HW2 1896   3.792   2.017   3.313
  333SOL     OW 1897   3.827   6.475   6.891
  333SOL    HW1 1898   3.731   6.491   6.866
  333SOL    HW2 1899   3.834   6.392   6.946
  334SOL     OW 1900   4.629   6.763   2.519
  334SOL    HW1 1901   4.679   6.689   2.564
  334SOL    HW2 1902   4.664   6.776   2.427
  335SOL     OW 1903   3.192   6.909   3.110
  335SOL    HW1 1904   3.135   6.990   3.098
  335SOL    HW2 1905   3.173   6.867   3.199
  336SOL     OW 1906   2.785   0.673   4.786
  336SOL    HW1 1907   2.845   0.670   4.866
  336SOL    HW2 1908   2.691   0.685   4.816
  337SOL     OW 1909   0.169   4.054   1.256
  337SOL    HW1 1910   0.233   4.038   1.181
  337SOL    HW2 1911   0.211   4.026   1.342
  338SOL     OW 1912   3.486   2.742   1.469
  338SOL    HW1 1913   3.391   2.770   1.461
  338SOL    HW2 1914   3.546   2.821   1.456
  339SOL     OW 1915   4.523   0.141   2.688
  339SOL    HW1 1916   4.521   0.093   2.601
  339SOL    HW2 1917   4.435   0.131   2.735
  340SOL     OW 1918   5.011   3.843   4.299
  340SOL    HW1 1919   5.066   3.925   4.280
  340SOL    HW2 1920   5.061   3.762   4.270
  341SOL     OW 1921   5.524   5.052   5.353
  341SOL    HW1 1922   5.566   5.140   5.372
  341SOL    HW2 1923   5.590   4.979   5.372
  342SOL     OW 1924   5.829   3.500   0.135
  342SOL    HW1 1925   5.759   3.542   0.192
  342SOL    HW2 1926   5.919   3.516   0.176
  343SOL     OW 1927   2.506   0.332   2.957
  343SOL    HW1 1928   2.410   0.356   2.970
  343SOL    HW2 1929   2.537   0.274   3.032
  344SOL     OW 1930   3.379   5.198   0.370
  344SOL    HW1 1931   3.416   5.115   0.327
  344SOL    HW2 1932   3.279   5.200   0.357
  345SOL     OW 1933   0.784   6.496   6.121
  345SOL    HW1 1934   0.742   6.486   6.031
  345SOL    HW2 1935   0.769   6.589   6.154
  346SOL     OW 1936   2.232   0.216   4.060
  346SOL    HW1 1937   2.217   0.117   4.061
  346SOL    HW2 1938   2.289   0.241   3.982
  347SOL     OW 1939   5.049   6.070   5.993
  347SOL    HW1 1940   5.088   6.038   6.079
  347SOL    HW2 1941   5.108   6.042   5.917
  348SOL     OW 1942   3.218   5.914   2.800
  348SOL    HW1 1943   3.314   5.897   2.778
  348SOL    HW2 1944   3.193   6.006   2.770
  349SOL     OW 1945   2.156   4.583   1.805
  349SOL    HW1 1946   2.135   4.485   1.807
  349SOL    HW2 1947   2.236   4.599   1.747
  350SOL     OW 1948   4.506   2.796   1.491
  350SOL    HW1 1949   4.436   2.732   1.459
  350SOL    HW2 1950   4.526   2.778   1.588
  351SOL     OW 1951   3.427   1.476   0.161
  351SOL    HW1 1952   3.351   1.454   0.099
  351SOL    HW2 1953   3.409   1.564   0.204
  352SOL     OW 1954   3.577   1.140   6.643
  352SOL    HW1 1955   3.601   1.060   6.589
  352SOL    HW2 1956   3.531   1.207   6.586
  353SOL     OW 1957   1.931   6.916   1.143
  353SOL    HW1 1958   1.985   6.862   1.208
  353SOL    HW2 1959   1.925   7.011   1.175
  354SOL     OW 1960   4.627   1.323   1.771
  354SOL    HW1 1961   4.554   1.346   1.835
  354SOL    HW2 1962   4.678   1.406   1.749
  355SOL     OW 1963   1.716   1.502   2.208
  355SOL    HW1 1964   1.754   1.421   2.251
  355SOL    HW2 1965   1.648   1.474   2.139
  356SOL     OW 1966   3.888   6.119   3.126
  356SOL    HW1 1967   3.884   6.179   3.047
  356SOL    HW2 1968   3.954   6.156   3.192
  357SOL     OW 1969   1.279   4.675   5.439
  357SOL    HW1 1970   1.332   4.592   5.454
  357SOL    HW2 1971   1.337   4.755   5.455
  358SOL     OW 1972   5.027   1.568   1.911
  358SOL    HW1 1973   5.104   1.628   1.890
  358SOL    HW2 1974   5.053   1.504   1.983
  359SOL     OW 1975   1.467   1.561   1.906
  359SOL    HW1 1976   1.417   1.525   1.985
  359SOL    HW2 1977   1.508   1.649   1.931
  360SOL     OW 1978   4.265   6.129   0.992
  360SOL    HW1 1979   4.357   6.126   0.954
  360SOL    HW2 1980   4.199   6.136   0.917
  361SOL     OW 1981   4.176   0.580   3.293
  361SOL    HW1 1982   4.236   0.565   3.214
  361SOL    HW2 1983   4.162   0.493   3.342
  362SOL     OW 1984   2.847   3.936   0.951
  362SOL    HW1 1985   2.887   3.935   0.859
  362SOL    HW2 1986   2.783   3.859   0.960
  363SOL     OW 1987   4.431   4.649   4.373
  363SOL    HW1 1988   4.411   4.588   4.450
  363SOL    HW2 1989   4.364   4.723   4.371
  364SOL     OW 1990   1.930   5.842   5.739
  364SOL    HW1 1991   1.986   5.765   5.709
  364SOL    HW2 1992   1.941   5.855   5.837
  365SOL     OW 1993   4.935   6.605   2.763
  365SOL    HW1 1994   4.894   6.557   2.684
  365SOL    HW2 1995   4.954   6.699   2.737
  366SOL     OW 1996   5.076   6.294   0.284
  366SOL    HW1 1997   5.109   6.201   0.301
  366SOL    HW2 1998   5.026   6.296   0.198
  367SOL     OW 1999   5.141   2.104   1.702
  367SOL    HW1 2000   5.107   2.072   1.614
  367SOL    HW2 2001   5.241   2.109   1.699
  368SOL     OW 2002   1.537   4.949   5.460
  368SOL    HW1 2003   1.582   4.896   5.388
  368SOL    HW2 2004   1.519   5.042   5.427
  369SOL     OW 2005   0.674   3.636   1.596
  369SOL    HW1 2006   0.590   3.630   1.541
  369SOL    HW2 2007   0.744   3.576   1.557
  370SOL     OW 2008   3.483   1.301   6.449
  370SOL    HW1 2009   3.576   1.328   6.423
  370SOL    HW2 2010   3.418   1.362   6.404
  371SOL     OW 2011   3.995   2.869   6.513
  371SOL    HW1 2012   4.028   2.817   6.434
  371SOL    HW2 2013   4.065   2.936   6.540
  372SOL     OW 2014   1.818   5.108   6.374
  372SOL    HW1 2015   1.778   5.018   6.361
  372SOL    HW2 2016   1.883   5.126   6.300
  373SOL     OW 2017   6.562   6.982   0.721
  373SOL    HW1 2018   6.656   6.967   0.750
  373SOL    HW2 2019   6.558   0.038   0.659
  374SOL     OW 2020   4.027   1.213   1.046
  374SOL    HW1 2021   4.035   1.296   1.102
  374SOL    HW2 2022   4.110   1.201   0.993
  375SOL     OW 2023   6.674   4.275   2.049
  375SOL    HW1 2024   6.629   4.192   2.016
  375SOL    HW2 2025   6.639   4.354   1.999
  376SOL     OW 2026   2.064   2.992   4.691
  376SOL    HW1 2027   2.078   2.973   4.788
  376SOL    HW2 2028   1.972   3.030   4.677
  377SOL     OW 2029   4.862   1.558   4.488
  377SOL    HW1 2030   4.905   1.497   4.554
  377SOL    HW2 2031   4.779   1.515   4.452
  378SOL     OW 2032   4.628   2.574   4.449
  378SOL    HW1 2033   4.653   2.640   4.520
  378SOL    HW2 2034   4.552   2.517   4.481
  379SOL     OW 2035   7.003   3.371   1.663
  379SOL    HW1 2036   6.993   3.277   1.696
  379SOL    HW2 2037   6.921   3.399   1.613
  380SOL     OW 2038   1.316   2.082   0.043
  380SOL    HW1 2039   1.288   2.125   0.129
  380SOL    HW2 2040   1.234   2.051   7.016
  381SOL     OW 2041   3.418   3.853   0.313
  381SOL    HW1 2042   3.414   3.769   0.258
  381SOL    HW2 2043   3.389   3.931   0.258
  382SOL     OW 2044   2.203   5.075   0.951
  382SOL    HW1 2045   2.168   5.169   0.946
  382SOL    HW2 2046   2.303   5.077   0.955
  383SOL     OW 2047   6.583   2.042   7.003
  383SOL    HW1 2048   6.639   2.086   6.932
  383SOL    HW2 2049   6.573   1.945   6.982
  384SOL     OW 2050   2.087   5.514   4.820
  384SOL    HW1 2051   2.097   5.535   4.918
  384SOL    HW2 2052   2.119   5.421   4.802
  385SOL     OW 2053   4.846   5.057   1.365
  385SOL    HW1 2054   4.789   4.991   1.316
  385SOL    HW2 2055   4.858   5.139   1.309
  386SOL     OW 2056   2.884   6.640   5.131
  386SOL    HW1 2057   2.806   6.689   5.094
  386SOL    HW2 2058   2.921   6.579   5.060
  387SOL     OW 2059   0.092   0.381   6.095
  387SOL    HW1 2060   0.143   0.452   6.046
  387SOL    HW2 2061   0.012   0.354   6.041
  388SOL     OW 2062   0.469   2.476   5.125
  388SOL    HW1 2063   0.528   2.538   5.178
  388SOL    HW2 2064   0.419   2.416   5.187
  389SOL     OW 2065   4.842   4.429   1.566
  389SOL    HW1 2066   4.753   4.384   1.565
  389SOL    HW2 2067   4.871   4.444   1.660
  390SOL     OW 2068   3.746   2.363   0.482
  390SOL    HW1 2069   3.690   2.280   0.480
  390SOL    HW2 2070   3.842   2.338   0.468
  391SOL     OW 2071   3.623   4.077   3.616
  391SOL    HW1 2072   3.615   4.108   3.521
  391SOL    HW2 2073   3.705   4.020   3.626
  392SOL     OW 2074   1.349   4.005   1.263
  392SOL    HW1 2075   1.386   4.040   1.350
  392SOL    HW2 2076   1.378   3.910   1.250
  393SOL     OW 2077   1.376   5.276   1.288
  393SOL    HW1 2078   1.380   5.297   1.386
  393SOL    HW2 2079   1.281   5.264   1.260
  394SOL     OW 2080   6.309   1.203   6.544
  394SOL    HW1 2081   6.233   1.163   6.596
  394SOL    HW2 2082   6.364   1.259   6.605
  395SOL     OW 2083   5.916   4.422   0.866
  395SOL    HW1 2084   5.986   4.482   0.904
  395SOL    HW2 2085   5.880   4.462   0.781
  396SOL     OW 2086   1.660   6.802   1.439
  396SOL    HW1 2087   1.720   6.868   1.483
  396SOL    HW2 2088   1.657   6.718   1.493
  397SOL     OW 2089   3.819   1.785   4.895
  397SOL    HW1 2090   3.854   1.879   4.897
  397SOL    HW2 2091   3.793   1.757   4.987
  398SOL     OW 2092   0.809   0.689   3.189
  398SOL    HW1 2093   0.761   0.775   3.174
  398SOL    HW2 2094   0.884   0.703   3.253
  399SOL     OW 2095   5.675   5.761   3.958
  399SOL    HW1 2096   5.577   5.744   3.960
  399SOL    HW2 2097   5.717   5.722   4.040
  400SOL     OW 2098   5.951   0.024   3.797
  400SOL    HW1 2099   5.856   0.053   3.803
  400SOL    HW2 2100   5.969   7.009   3.706
  401SOL     OW 2101   0.516   5.867   5.395
  401SOL    HW1 2102   0.419   5.879   5.413
  401SOL    HW2 2103   0.535   5.884   5.298
  402SOL     OW 2104   5.325   1.770   4.038
  402SOL    HW1 2105   5.230   1.799   4.027
  402SOL    HW2 2106   5.329   1.670   4.040
  403SOL     OW 2107   2.796   1.887   5.525
  403SOL    HW1 2108   2.773   1.790   5.514
  403SOL    HW2 2109   2.824   1.924   5.436
  404SOL     OW 2110   3.363   5.821   3.502
  404SOL    HW1 2111   3.357   5.759   3.581
  404SOL    HW2 2112   3.282   5.808   3.444
  405SOL     OW 2113   2.757   5.024   4.160
  405SOL    HW1 2114   2.818   5.082   4.106
  405SOL    HW2 2115   2.665   5.061   4.157
  406SOL     OW 2116   0.506   0.127   6.043
  406SOL    HW1 2117   0.438   0.186   6.086
  406SOL    HW2 2118   0.461   0.068   5.975
  407SOL     OW 2119   2.246   2.906   4.179
  407SOL    HW1 2120   2.282   2.834   4.120
  407SOL    HW2 2121   2.234   2.872   4.272
  408SOL     OW 2122   2.039   2.143   3.234
  408SOL    HW1 2123   1.999   2.082   3.302
  408SOL    HW2 2124   1.966   2.196   3.190
  409SOL     OW 2125   0.673   3.152   2.092
  409SOL    HW1 2126   0.772   3.143   2.082
  409SOL    HW2 2127   0.631   3.164   2.002
  410SOL     OW 2128   1.793   2.415   1.591
  410SOL    HW1 2129   1.744   2.428   1.505
  410SOL    HW2 2130   1.835   2.324   1.591
  411SOL     OW 2131   6.690   2.060   0.793
  411SOL    HW1 2132   6.660   1.974   0.834
  411SOL    HW2 2133   6.786   2.077   0.819
  412SOL     OW 2134   1.668   4.877   2.798
  412SOL    HW1 2135   1.577   4.838   2.785
  412SOL    HW2 2136   1.695   4.869   2.894
  413SOL     OW 2137   6.146   5.335   1.989
  413SOL    HW1 2138   6.225   5.380   1.949
  413SOL    HW2 2139   6.081   5.404   2.021
  414SOL     OW 2140   1.920   0.162   3.086
  414SOL    HW1 2141   1.840   0.113   3.052
  414SOL    HW2 2142   2.002   0.127   3.041
  415SOL     OW 2143   5.730   1.482   6.709
  415SOL    HW1 2144   5.692   1.511   6.796
  415SOL    HW2 2145   5.827   1.507   6.705
  416SOL     OW 2146   5.884   3.425   5.693
  416SOL    HW1 2147   5.922   3.477   5.616
  416SOL    HW2 2148   5.786   3.415   5.681
  417SOL     OW 2149   2.026   2.127   6.499
  417SOL    HW1 2150   1.979   2.214   6.485
  417SOL    HW2 2151   1.960   2.058   6.528
  418SOL     OW 2152   3.762   0.123   5.011
  418SOL    HW1 2153   3.712   0.169   5.085
  418SOL    HW2 2154   3.704   0.052   4.971
  419SOL     OW 2155   6.507   0.081   0.291
  419SOL    HW1 2156   6.547   0.011   0.231
  419SOL    HW2 2157   6.408   0.067   0.295
  420SOL     OW 2158   3.582   6.966   0.895
  420SOL    HW1 2159   3.642   0.007   0.846
  420SOL    HW2 2160   3.580   6.878   0.848
  421SOL     OW 2161   4.802   4.089   2.793
  421SOL    HW1 2162   4.797   4.031   2.875
  421SOL    HW2 2163   4.736   4.164   2.800
  422SOL     OW 2164   5.009   2.488   1.689
  422SOL    HW1 2165   5.088   2.447   1.734
  422SOL    HW2 2166   4.962   2.548   1.753
  423SOL     OW 2167   2.812   0.931   6.286
  423SOL    HW1 2168   2.800   0.851   6.226
  423SOL    HW2 2169   2.864   0.904   6.367
  424SOL     OW 2170   1.945   3.947   3.858
  424SOL    HW1 2171   2.008   3.905   3.923
  424SOL    HW2 2172   1.853   3.911   3.872
  425SOL     OW 2173   3.835   0.930   0.150
  425SOL    HW1 2174   3.811   0.867   0.077
  425SOL    HW2 2175   3.826   1.024   0.117
  426SOL     OW 2176   2.966   2.237   4.203
  426SOL    HW1 2177   2.955   2.259   4.299
  426SOL    HW2 2178   2.876   2.232   4.159
  427SOL     OW 2179   4.966   1.959   3.241
  427SOL    HW1 2180   5.056   1.945   3.201
  427SOL    HW2 2181   4.931   2.049   3.214
  428SOL     OW 2182   2.895   2.516   6.643
  428SOL    HW1 2183   2.858   2.469   6.563
  428SOL    HW2 2184   2.920   2.610   6.617
  429SOL     OW 2185   6.760   5.857   4.334
  429SOL    HW1 2186   6.682   5.903   4.292
  429SOL    HW2 2187   6.808   5.920   4.395
  430SOL     OW 2188   1.438   6.967   4.304
  430SOL    HW1 2189   1.465   6.930   4.393
  430SOL    HW2 2190   1.519   6.973   4.245
  431SOL     OW 2191   2.748   1.899   1.327
  431SOL    HW1 2192   2.655   1.869   1.304
  431SOL    HW2 2193   2.752   1.999   1.327
  432SOL     OW 2194   4.577   1.577   1.251
  432SOL    HW1 2195   4.586   1.632   1.334
  432SOL    HW2 2196   4.480   1.563   1.231
  433SOL     OW 2197   1.833   4.213   0.844
  433SOL    HW1 2198   1.921   4.242   0.883
  433SOL    HW2 2199   1.781   4.162   0.912
  434SOL     OW 2200   4.597   5.286   3.134
  434SOL    HW1 2201   4.585   5.369   3.189
  434SOL    HW2 2202   4.691   5.253   3.143
  435SOL     OW 2203   3.861   2.887   6.136
  435SOL    HW1 2204   3.816   2.833   6.207
  435SOL    HW2 2205   3.792   2.924   6.074
  436SOL     OW 2206   5.195   6.278   1.957
  436SOL    HW1 2207   5.289   6.313   1.956
  436SOL    HW2 2208   5.154   6.290   1.867
  437SOL     OW 2209   6.343   1.491   5.190
  437SOL    HW1 2210   6.327   1.421   5.260
  437SOL    HW2 2211   6.264   1.553   5.186
  438SOL     OW 2212   0.582   4.720   2.322
  438SOL    HW1 2213   0.530   4.788   2.374
  438SOL    HW2 2214   0.524   4.640   2.306
  439SOL     OW 2215   0.046   1.000   5.346
  439SOL    HW1 2216   6.985   1.049   5.371
  439SOL    HW2 2217   0.106   1.060   5.293
  440SOL     OW 2218   4.179   1.536   0.463
  440SOL    HW1 2219   4.218   1.532   0.555
  440SOL    HW2 2220   4.242   1.583   0.402
  441SOL     OW 2221   0.605   4.795   2.074
  441SOL    HW1 2222   0.644   4.886   2.058
  441SOL    HW2 2223   0.623   4.767   2.168
  442SOL     OW 2224   4.560   3.489   5.390
  442SOL    HW1 2225   4.587   3.536   5.306
  442SOL    HW2 2226   4.616   3.407   5.402
  443SOL     OW 2227   4.856   2.765   2.977
  443SOL    HW1 2228   4.949   2.798   2.994
  443SOL    HW2 2229   4.812   2.821   2.907
  444SOL     OW 2230   4.405   1.922   1.582
  444SOL    HW1 2231   4.337   1.992   1.602
  444SOL    HW2 2232   4.487   1.964   1.543
  445SOL     OW 2233   1.559   4.545   3.087
  445SOL    HW1 2234   1.606   4.536   3.175
  445SOL    HW2 2235   1.612   4.604   3.027
  446SOL     OW 2236   6.630   6.790   1.587
  446SOL    HW1 2237   6.535   6.778   1.556
  446SOL    HW2 2238   6.655   6.886   1.583
  447SOL     OW 2239   5.759   3.925   0.872
  447SOL    HW1 2240   5.739   3.957   0.964
  447SOL    HW2 2241   5.828   3.853   0.875
  448SOL     OW 2242   3.421   6.608   4.098
  448SOL    HW1 2243   3.473   6.564   4.171
  448SOL    HW2 2244   3.449   6.568   4.010
  449SOL     OW 2245   1.549   4.354   4.471
  449SOL    HW1 2246   1.480   4.326   4.538
  449SOL    HW2 2247   1.638   4.362   4.517
  450SOL     OW 2248   6.359   4.605   3.263
  450SOL    HW1 2249   6.322   4.686   3.310
  450SOL    HW2 2250   6.407   4.633   3.180
  451SOL     OW 2251   1.182   2.123   0.769
  451SOL    HW1 2252   1.084   2.110   0.781
  451SOL    HW2 2253   1.231   2.083   0.846
  452SOL     OW 2254   4.338   5.445   2.749
  452SOL    HW1 2255   4.267   5.396   2.799
  452SOL    HW2 2256   4.416   5.385   2.734
  453SOL     OW 2257   3.861   1.181   0.009
  453SOL    HW1 2258   3.960   1.187   0.008
  453SOL    HW2 2259   3.823   1.260   0.058
  454SOL     OW 2260   0.309   3.860   4.995
  454SOL    HW1 2261   0.273   3.768   4.981
  454SOL    HW2 2262   0.407   3.855   5.016
  455SOL     OW 2263   5.137   5.179   6.230
  455SOL    HW1 2264   5.092   5.134   6.153
  455SOL    HW2 2265   5.235   5.160   6.227
  456SOL     OW 2266   2.784   0.874   2.629
  456SOL    HW1 2267   2.811   0.894   2.723
  456SOL    HW2 2268   2.865   0.850   2.576
  457SOL     OW 2269   2.469   6.662   6.922
  457SOL    HW1 2270   2.560   6.668   6.963
  457SOL    HW2 2271   2.452   6.569   6.889
  458SOL     OW 2272   3.486   1.166   3.021
  458SOL    HW1 2273   3.538   1.136   2.941
  458SOL    HW2 2274   3.514   1.258   3.048
  459SOL     OW 2275   3.223   0.716   3.389
  459SOL    HW1 2276   3.293   0.687   3.455
  459SOL    HW2 2277   3.238   0.669   3.302
  460SOL     OW 2278   0.529   1.310   6.203
  460SOL    HW1 2279   0.621   1.344   6.185
  460SOL    HW2 2280   0.534   1.229   6.261
  461SOL     OW 2281   1.104   5.962   5.728
  461SOL    HW1 2282   1.017   5.920   5.700
  461SOL    HW2 2283   1.087   6.025   5.804
  462SOL     OW 2284   3.147   3.990   4.660
  462SOL    HW1 2285   3.238   3.953   4.678
  462SOL    HW2 2286   3.097   3.997   4.747
  463SOL     OW 2287   5.601   6.421   3.890
  463SOL    HW1 2288   5.517   6.469   3.914
  463SOL    HW2 2289   5.618   6.348   3.956
  464SOL     OW 2290   4.533   5.395   5.683
  464SOL    HW1 2291   4.563   5.490   5.698
  464SOL    HW2 2292   4.478   5.365   5.761
  465SOL     OW 2293   0.564   4.478   0.139
  465SOL    HW1 2294   0.573   4.568   0.097
  465SOL    HW2 2295   0.612   4.411   0.083
  466SOL     OW 2296   4.043   4.895   3.979
  466SOL    HW1 2297   4.038   4.887   3.879
  466SOL    HW2 2298   4.051   4.992   4.003
  467SOL     OW 2299   6.212   0.235   2.410
  467SOL    HW1 2300   6.221   0.329   2.378
  467SOL    HW2 2301   6.302   0.196   2.425
  468SOL     OW 2302   2.566   6.146   6.190
  468SOL    HW1 2303   2.572   6.050   6.162
  468SOL    HW2 2304   2.523   6.152   6.280
  469SOL     OW 2305   2.737   4.898   5.058
  469SOL    HW1 2306   2.701   4.888   5.151
  469SOL    HW2 2307   2.769   4.810   5.025
  470SOL     OW 2308   2.023   4.871   2.952
  470SOL    HW1 2309   2.055   4.891   2.860
  470SOL    HW2 2310   2.082   4.917   3.018
  471SOL     OW 2311   1.970   1.926   4.334
  471SOL    HW1 2312   2.003   1.862   4.404
  471SOL    HW2 2313   2.039   1.997   4.318
  472SOL     OW 2314   5.351   3.905   6.349
  472SOL    HW1 2315   5.442   3.880   6.316
  472SOL    HW2 2316   5.334   4.001   6.329
  473SOL     OW 2317   5.159   3.690   2.490
  473SOL    HW1 2318   5.170   3.590   2.492
  473SOL    HW2 2319   5.081   3.715   2.546
  474SOL     OW 2320   4.733   5.340   4.251
  474SOL    HW1 2321   4.751   5.436   4.226
  474SOL    HW2 2322   4.654   5.307   4.200
  475SOL     OW 2323   5.772   1.398   0.979
  475SOL    HW1 2324   5.738   1.444   0.897
  475SOL    HW2 2325   5.812   1.310   0.954
  476SOL     OW 2326   1.605   4.108   6.516
  476SOL    HW1 2327   1.676   4.172   6.487
  476SOL    HW2 2328   1.517   4.156   6.518
  477SOL     OW 2329   1.180   5.155   2.922
  477SOL    HW1 2330   1.276   5.150   2.894
  477SOL    HW2 2331   1.174   5.151   3.022
  478SOL     OW 2332   6.019   6.300   3.384
  478SOL    HW1 2333   6.035   6.202   3.399
  478SOL    HW2 2334   6.075   6.332   3.308
  479SOL     OW 2335   2.954   3.449   2.693
  479SOL    HW1 2336   3.049   3.479   2.705
  479SOL    HW2 2337   2.921   3.406   2.777
  480SOL     OW 2338   0.934   0.854   2.710
  480SOL    HW1 2339   0.933   0.947   2.747
  480SOL    HW2 2340   0.892   0.792   2.776
  481SOL     OW 2341   6.278   0.136   1.223
  481SOL    HW1 2342   6.247   0.087   1.142
  481SOL    HW2 2343   6.336   0.076   1.278
  482SOL     OW 2344   4.295   5.030   2.764
  482SOL    HW1 2345   4.330   4.980   2.685
  482SOL    HW2 2346   4.284   5.127   2.740
  483SOL     OW 2347   5.628   1.634   4.102
  483SOL    HW1 2348   5.541   1.620   4.056
  483SOL    HW2 2349   5.624   1.717   4.158
  484SOL     OW 2350   1.915   4.986   3.678
  484SOL    HW1 2351   1.857   4.909   3.704
  484SOL    HW2 2352   1.865   5.047   3.617
  485SOL     OW 2353   5.486   1.938   1.217
  485SOL    HW1 2354   5.541   2.020   1.226
  485SOL    HW2 2355   5.541   1.865   1.176
  486SOL     OW 2356   5.835   6.618   5.828
  486SOL    HW1 2357   5.853   6.708   5.866
  486SOL    HW2 2358   5.906   6.554   5.858
  487SOL     OW 2359   0.333   0.665   6.899
  487SOL    HW1 2360   0.320   0.735   6.829
  487SOL    HW2 2361   0.252   0.606   6.903
  488SOL     OW 2362   1.912   6.170   3.245
  488SOL    HW1 2363   1.878   6.089   3.293
  488SOL    HW2 2364   2.012   6.173   3.252
  489SOL     OW 2365   2.266   5.650   5.278
  489SOL    HW1 2366   2.356   5.607   5.281
  489SOL    HW2 2367   2.257   5.714   5.355
  490SOL     OW 2368   1.668   3.412   4.438
  490SOL    HW1 2369   1.690   3.356   4.358
  490SOL    HW2 2370   1.639   3.352   4.513
  491SOL     OW 2371   6.334   3.087   0.927
  491SOL    HW1 2372   6.297   3.149   0.997
  491SOL    HW2 2373   6.332   2.993   0.961
  492SOL     OW 2374   1.378   2.817   5.641
  492SOL    HW1 2375   1.386   2.732   5.693
  492SOL    HW2 2376   1.322   2.801   5.560
  493SOL     OW 2377   1.645   5.567   4.510
  493SOL    HW1 2378   1.575   5.530   4.572
  493SOL    HW2 2379   1.716   5.499   4.496
  494SOL     OW 2380   2.362   0.939   4.517
  494SOL    HW1 2381   2.437   0.878   4.494
  494SOL    HW2 2382   2.364   1.019   4.458
  495SOL     OW 2383   3.512   3.949   6.933
  495SOL    HW1 2384   3.458   3.916   6.855
  495SOL    HW2 2385   3.465   4.026   6.976
  496SOL     OW 2386   5.155   1.016   3.100
  496SOL    HW1 2387   5.109   0.983   3.017
  496SOL    HW2 2388   5.105   0.984   3.180
  497SOL     OW 2389   4.516   1.834   0.576
  497SOL    HW1 2390   4.464   1.763   0.624
  497SOL    HW2 2391   4.594   1.861   0.633
  498SOL     OW 2392   0.507   0.735   1.085
  498SOL    HW1 2393   0.564   0.815   1.104
  498SOL    HW2 2394   0.420   0.765   1.045
  499SOL     OW 2395   2.877   6.300   0.288
  499SOL    HW1 2396   2.952   6.241   0.318
  499SOL    HW2 2397   2.887   6.391   0.330
  500SOL     OW 2398   5.535   1.741   6.390
  500SOL    HW1 2399   5.458   1.693   6.347
  500SOL    HW2 2400   5.577   1.802   6.322
  501SOL     OW 2401   1.264   1.642   5.238
  501SOL    HW1 2402   1.284   1.740   5.233
  501SOL    HW2 2403   1.200   1.618   5.164
  502SOL     OW 2404   2.217   4.218   6.742
  502SOL    HW1 2405   2.216   4.192   6.839
  502SOL    HW2 2406   2.300   4.182   6.699
  503SOL     OW 2407   3.435   5.707   1.460
  503SOL    HW1 2408   3.504   5.670   1.398
  503SOL    HW2 2409   3.437   5.807   1.457
  504SOL     OW 2410   6.322   6.157   1.410
  504SOL    HW1 2411   6.335   6.256   1.420
  504SOL    HW2 2412   6.245   6.139   1.350
  505SOL     OW 2413   5.780   5.188   5.160
  505SOL    HW1 2414   5.766   5.097   5.200
  505SOL    HW2 2415   5.756   5.258   5.226
  506SOL     OW 2416   3.148   5.126   3.114
  506SOL    HW1 2417   3.200   5.040   3.117
  506SOL    HW2 2418   3.120   5.144   3.020
  507SOL     OW 2419   3.259   0.580   1.745
  507SOL    HW1 2420   3.343   0.569   1.798
  507SOL    HW2 2421   3.264   0.523   1.663
  508SOL     OW 2422   6.989   4.839   3.559
  508SOL    HW1 2423   0.015   4.777   3.497
  508SOL    HW2 2424   6.939   4.785   3.627
  509SOL     OW 2425   4.135   6.751   6.240
  509SOL    HW1 2426   4.096   6.682   6.301
  509SOL    HW2 2427   4.088   6.838   6.254
  510SOL     OW 2428   6.921   4.142   0.456
  510SOL    HW1 2429   6.861   4.175   0.529
  510SOL    HW2 2430   6.882   4.167   0.367
  511SOL     OW 2431   0.480   1.341   0.048
  511SOL    HW1 2432   0.428   1.259   0.027
  511SOL    HW2 2433   0.502   1.343   0.145
  512SOL     OW 2434   0.479   2.558   4.168
  512SOL    HW1 2435   0.380   2.570   4.177
  512SOL    HW2 2436   0.519   2.638   4.123
  513SOL     OW 2437   5.465   6.645   2.974
  513SOL    HW1 2438   5.513   6.563   3.005
  513SOL    HW2 2439   5.377   6.652   3.020
  514SOL     OW 2440   4.711   1.317   5.326
  514SOL    HW1 2441   4.766   1.340   5.406
  514SOL    HW2 2442   4.618   1.352   5.338
  515SOL     OW 2443   3.455   0.771   0.390
  515SOL    HW1 2444   3.534   0.786   0.449
  515SOL    HW2 2445   3.381   0.832   0.418
  516SOL     OW 2446   1.818   6.154   2.375
  516SOL    HW1 2447   1.820   6.164   2.275
  516SOL    HW2 2448   1.772   6.068   2.399
  517SOL     OW 2449   3.739   5.265   1.914
  517SOL    HW1 2450   3.653   5.314   1.906
  517SOL    HW2 2451   3.730   5.174   1.873
  518SOL     OW 2452   1.936   5.346   4.124
  518SOL    HW1 2453   1.868   5.274   4.136
  518SOL    HW2 2454   1.906   5.409   4.052
  519SOL     OW 2455   6.793   6.847   2.142
  519SOL    HW1 2456   6.754   6.760   2.112
  519SOL    HW2 2457   6.771   6.918   2.076
  520SOL     OW 2458   2.439   4.536   0.378
  520SOL    HW1 2459   2.499   4.579   0.445
  520SOL    HW2 2460   2.442   4.437   0.389
  521SOL     OW 2461   6.370   5.763   5.723
  521SOL    HW1 2462   6.273   5.740   5.715
  521SOL    HW2 2463   6.379   5.857   5.758
  522SOL     OW 2464   3.876   4.621   0.249
  522SOL    HW1 2465   3.796   4.578   0.206
  522SOL    HW2 2466   3.907   4.697   0.192
  523SOL     OW 2467   1.430   6.613   6.558
  523SOL    HW1 2468   1.517   6.587   6.514
  523SOL    HW2 2469   1.435   6.709   6.587
  524SOL     OW 2470   0.134   1.246   0.921
  524SOL    HW1 2471   0.225   1.244   0.878
  524SOL    HW2 2472   0.076   1.311   0.871
  525SOL     OW 2473   0.790   3.219   3.627
  525SOL    HW1 2474   0.816   3.315   3.635
  525SOL    HW2 2475   0.831   3.167   3.702
  526SOL     OW 2476   4.123   0.275   4.152
  526SOL    HW1 2477   4.200   0.230   4.198
  526SOL    HW2 2478   4.126   0.373   4.171
  527SOL     OW 2479   0.574   1.556   1.071
  527SOL    HW1 2480   0.645   1.582   1.136
  527SOL    HW2 2481   0.497   1.515   1.119
  528SOL     OW 2482   0.147   2.698   4.287
  528SOL    HW1 2483   0.113   2.604   4.282
  528SOL    HW2 2484   0.082   2.760   4.243
  529SOL     OW 2485   1.416   0.209   6.632
  529SOL    HW1 2486   1.317   0.208   6.630
  529SOL    HW2 2487   1.451   0.264   6.555
  530SOL     OW 2488   3.427   4.499   1.315
  530SOL    HW1 2489   3.444   4.502   1.216
  530SOL    HW2 2490   3.426   4.404   1.345
  531SOL     OW 2491   1.312   6.930   0.009
  531SOL    HW1 2492   1.349   6.898   6.944
  531SOL    HW2 2493   1.337   0.003   0.022
  532SOL     OW 2494   2.246   1.225   5.958
  532SOL    HW1 2495   2.271   1.318   5.984
  532SOL    HW2 2496   2.150   1.209   5.980
  533SOL     OW 2497   3.865   0.526   3.860
  533SOL    HW1 2498   3.821   0.536   3.771
  533SOL    HW2 2499   3.890   0.617   3.894
  534SOL     OW 2500   1.598   3.971   1.768
  534SOL    HW1 2501   1.507   3.962   1.807
  534SOL    HW2 2502   1.655   3.894   1.798
  535SOL     OW 2503   5.272   3.627   4.329
  535SOL    HW1 2504   5.259   3.548   4.270
  535SOL    HW2 2505   5.370   3.644   4.340
  536SOL     OW 2506   6.225   6.590   1.759
  536SOL    HW1 2507   6.141   6.538   1.744
  536SOL    HW2 2508   6.203   6.677   1.803
  537SOL     OW 2509   3.134   1.577   2.322
  537SOL    HW1 2510   3.098   1.670   2.316
  537SOL    HW2 2511   3.101   1.533   2.405
  538SOL     OW 2512   3.674   4.954   4.859
  538SOL    HW1 2513   3.742   4.962   4.785
  538SOL    HW2 2514   3.585   4.928   4.820
  539SOL     OW 2515   1.727   0.431   6.709
  539SOL    HW1 2516   1.698   0.428   6.613
  539SOL    HW2 2517   1.826   0.446   6.713
  540SOL     OW 2518   1.820   0.807   5.131
  540SOL    HW1 2519   1.734   0.851   5.105
  540SOL    HW2 2520   1.819   0.711   5.101
  541SOL     OW 2521   5.138   6.292   3.951
  541SOL    HW1 2522   5.209   6.281   4.020
  541SOL    HW2 2523   5.125   6.205   3.903
  542SOL     OW 2524   3.744   6.829   6.226
  542SOL    HW1 2525   3.809   6.835   6.302
  542SOL    HW2 2526   3.791   6.798   6.144
  543SOL     OW 2527   6.053   2.575   3.498
  543SOL    HW1 2528   6.019   2.574   3.592
  543SOL    HW2 2529   6.048   2.483   3.460
  544SOL     OW 2530   1.243   3.097   1.145
  544SOL    HW1 2531   1.290   3.185   1.141
  544SOL    HW2 2532   1.163   3.105   1.205
  545SOL     OW 2533   6.777   5.801   0.843
  545SOL    HW1 2534   6.805   5.725   0.785
  545SOL    HW2 2535   6.839   5.809   0.921
  546SOL     OW 2536   0.496   3.877   1.657
  546SOL    HW1 2537   0.518   3.975   1.661
  546SOL    HW2 2538   0.580   3.824   1.649
  547SOL     OW 2539   4.950   6.951   6.565
  547SOL    HW1 2540   4.900   0.005   6.524
  547SOL    HW2 2541   4.930   6.946   6.663
  548SOL     OW 2542   3.918   3.046   0.326
  548SOL    HW1 2543   3.842   3.043   0.391
  548SOL    HW2 2544   3.957   3.138   0.325
  549SOL     OW 2545   5.312   1.635   2.144
  549SOL    HW1 2546   5.388   1.698   2.156
  549SOL    HW2 2547   5.337   1.544   2.178
  550SOL     OW 2548   6.978   5.885   3.186
  550SOL    HW1 2549   6.990   5.906   3.089
  550SOL    HW2 2550   6.927   5.799   3.195
  551SOL     OW 2551   5.905   0.283   0.044
  551SOL    HW1 2552   5.894   0.381   0.030
  551SOL    HW2 2553   5.897   0.235   6.979
  552SOL     OW 2554   0.689   0.077   4.966
  552SOL    HW1 2555   0.659   0.073   5.061
  552SOL    HW2 2556   0.739   7.017   4.943
  553SOL     OW 2557   3.585   2.684   6.559
  553SOL    HW1 2558   3.514   2.614   6.553
  553SOL    HW2 2559   3.659   2.652   6.618
  554SOL     OW 2560   6.364   5.557   0.698
  554SOL    HW1 2561   6.328   5.527   0.610
  554SOL    HW2 2562   6.456   5.519   0.711
  555SOL     OW 2563   2.432   3.711   5.337
  555SOL    HW1 2564   2.531   3.695   5.341
  555SOL    HW2 2565   2.414   3.793   5.282
  556SOL     OW 2566   5.943   6.881   3.579
  556SOL    HW1 2567   5.859   6.895   3.528
  556SOL    HW2 2568   5.930   6.808   3.646
  557SOL     OW 2569   5.565   4.206   6.442
  557SOL    HW1 2570   5.518   4.173   6.524
  557SOL    HW2 2571   5.657   4.167   6.438
  558SOL     OW 2572   3.136   3.452   2.327
  558SOL    HW1 2573   3.169   3.448   2.233
  558SOL    HW2 2574   3.041   3.482   2.328
  559SOL     OW 2575   6.889   0.632   6.649
  559SOL    HW1 2576   6.845   0.565   6.588
  559SOL    HW2 2577   6.819   0.673   6.709
  560SOL     OW 2578   6.752   2.945   3.980
  560SOL    HW1 2579   6.685   2.874   4.000
  560SOL    HW2 2580   6.724   3.031   4.021
  561SOL     OW 2581   0.495   3.380   0.728
  561SOL    HW1 2582   0.522   3.457   0.671
  561SOL    HW2 2583   0.563   3.365   0.799
  562SOL     OW 2584   3.790   6.843   4.113
  562SOL    HW1 2585   3.870   6.901   4.096
  562SOL    HW2 2586   3.709   6.901   4.123
  563SOL     OW 2587   1.488   0.665   4.219
  563SOL    HW1 2588   1.390   0.676   4.202
  563SOL    HW2 2589   1.540   0.707   4.145
  564SOL     OW 2590   6.052   2.263   6.278
  564SOL    HW1 2591   6.122   2.222   6.337
  564SOL    HW2 2592   6.036   2.358   6.307
  565SOL     OW 2593   3.260   3.325   3.262
  565SOL    HW1 2594   3.261   3.385   3.342
  565SOL    HW2 2595   3.173   3.336   3.214
  566SOL     OW 2596   2.707   1.063   3.600
  566SOL    HW1 2597   2.661   1.091   3.684
  566SOL    HW2 2598   2.673   1.119   3.523
  567SOL     OW 2599   3.062   2.739   5.412
  567SOL    HW1 2600   3.070   2.741   5.512
  567SOL    HW2 2601   3.121   2.668   5.375
  568SOL     OW 2602   0.688   6.271   0.263
  568SOL    HW1 2603   0.700   6.278   0.164
  568SOL    HW2 2604   0.672   6.175   0.287
  569SOL     OW 2605   5.681   3.253   0.027
  569SOL    HW1 2606   5.713   3.287   6.961
  569SOL    HW2 2607   5.737   3.290   0.100
  570SOL     OW 2608   3.416   0.660   5.696
  570SOL    HW1 2609   3.510   0.627   5.689
  570SOL    HW2 2610   3.362   0.625   5.621
  571SOL     OW 2611   2.292   4.417   1.561
  571SOL    HW1 2612   2.295   4.517   1.554
  571SOL    HW2 2613   2.373   4.385   1.610
  572SOL     OW 2614   2.186   0.879   4.761
  572SOL    HW1 2615   2.091   0.910   4.753
  572SOL    HW2 2616   2.233   0.893   4.674
  573SOL     OW 2617   0.593   0.963   5.434
  573SOL    HW1 2618   0.511   0.955   5.491
  573SOL    HW2 2619   0.651   1.036   5.470
  574SOL     OW 2620   1.989   1.276   6.087
  574SOL    HW1 2621   1.934   1.339   6.031
  574SOL    HW2 2622   1.933   1.199   6.115
  575SOL     OW 2623   3.938   4.211   7.014
  575SOL    HW1 2624   3.926   4.156   0.074
  575SOL    HW2 2625   4.024   4.263   7.021
  576SOL     OW 2626   2.030   1.377   2.823
  576SOL    HW1 2627   2.105   1.430   2.861
  576SOL    HW2 2628   1.946   1.432   2.823
  577SOL     OW 2629   0.404   1.027   1.871
  577SOL    HW1 2630   0.304   1.021   1.870
  577SOL    HW2 2631   0.442   0.946   1.827
  578SOL     OW 2632   3.565   6.835   7.006
  578SOL    HW1 2633   3.624   6.832   6.926
  578SOL    HW2 2634   3.621   6.840   0.066
  579SOL     OW 2635   1.535   3.501   1.999
  579SOL    HW1 2636   1.633   3.521   1.998
  579SOL    HW2 2637   1.521   3.406   2.029
  580SOL     OW 2638   4.680   5.046   5.003
  580SOL    HW1 2639   4.581   5.055   5.013
  580SOL    HW2 2640   4.701   4.987   4.925
  581SOL     OW 2641   1.928   2.733   4.517
  581SOL    HW1 2642   1.889   2.763   4.604
  581SOL    HW2 2643   2.013   2.783   4.499
  582SOL     OW 2644   5.774   4.796   4.305
  582SOL    HW1 2645   5.771   4.696   4.307
  582SOL    HW2 2646   5.856   4.828   4.352
  583SOL     OW 2647   3.742   6.082   5.909
  583SOL    HW1 2648   3.645   6.091   5.932
  583SOL    HW2 2649   3.752   6.076   5.810
  584SOL     OW 2650   3.923   0.555   5.444
  584SOL    HW1 2651   3.959   0.541   5.352
  584SOL    HW2 2652   3.914   0.653   5.461
  585SOL     OW 2653   3.775   6.627   1.528
  585SOL    HW1 2654   3.701   6.585   1.581
  585SOL    HW2 2655   3.740   6.706   1.479
  586SOL     OW 2656   3.801   0.132   0.768
  586SOL    HW1 2657   3.860   0.122   0.687
  586SOL    HW2 2658   3.786   0.229   0.787
  587SOL     OW 2659   4.588   1.647   2.080
  587SOL    HW1 2660   4.652   1.686   2.013
  587SOL    HW2 2661   4.635   1.579   2.136
  588SOL     OW 2662   1.729   4.549   2.794
  588SOL    HW1 2663   1.661   4.590   2.733
  588SOL    HW2 2664   1.721   4.449   2.790
  589SOL     OW 2665   3.276   5.281   0.832
  589SOL    HW1 2666   3.336   5.244   0.903
  589SOL    HW2 2667   3.332   5.325   0.761
  590SOL     OW 2668   3.050   2.081   0.135
  590SOL    HW1 2669   3.147   2.100   0.123
  590SOL    HW2 2670   3.030   1.986   0.112
  591SOL     OW 2671   3.025   6.121   4.073
  591SOL    HW1 2672   3.117   6.160   4.076
  591SOL    HW2 2673   2.957   6.192   4.094
  592SOL     OW 2674   4.083   1.986   4.699
  592SOL    HW1 2675   4.096   1.944   4.610
  592SOL    HW2 2676   4.003   2.047   4.696
  593SOL     OW 2677   1.874   1.937   6.589
  593SOL    HW1 2678   1.795   1.972   6.639
  593SOL    HW2 2679   1.926   1.875   6.648
  594SOL     OW 2680   4.318   0.871   2.913
  594SOL    HW1 2681   4.354   0.960   2.941
  594SOL    HW2 2682   4.386   0.824   2.856
  595SOL     OW 2683   6.372   5.161   3.038
  595SOL    HW1 2684   6.454   5.188   2.987
  595SOL    HW2 2685   6.295   5.154   2.975
  596SOL     OW 2686   6.429   5.079   4.245
  596SOL    HW1 2687   6.433   5.143   4.168
  596SOL    HW2 2688   6.423   4.985   4.211
  597SOL     OW 2689   3.233   1.238   6.575
  597SOL    HW1 2690   3.225   1.139   6.580
  597SOL    HW2 2691   3.319   1.262   6.530
  598SOL     OW 2692   3.167   4.080   3.652
  598SOL    HW1 2693   3.189   4.032   3.737
  598SOL    HW2 2694   3.074   4.057   3.624
  599SOL     OW 2695   1.666   5.385   1.620
  599SOL    HW1 2696   1.733   5.398   1.547
  599SOL    HW2 2697   1.704   5.420   1.706
  600SOL     OW 2698   6.872   3.709   5.392
  600SOL    HW1 2699   6.841   3.778   5.326
  600SOL    HW2 2700   6.964   3.678   5.367
  601SOL     OW 2701   0.487   6.387   5.803
  601SOL    HW1 2702   0.511   6.399   5.899
  601SOL    HW2 2703   0.485   6.289   5.780
  602SOL     OW 2704   1.420   0.387   3.579
  602SOL    HW1 2705   1.445   0.439   3.661
  602SOL    HW2 2706   1.501   0.340   3.544
  603SOL     OW 2707   1.994   1.448   3.960
  603SOL    HW1 2708   2.030   1.428   4.051
  603SOL    HW2 2709   1.896   1.464   3.966
  604SOL     OW 2710   6.023   3.112   0.873
  604SOL    HW1 2711   5.996   3.017   0.857
  604SOL    HW2 2712   6.123   3.119   0.875
  605SOL     OW 2713   6.568   6.583   1.294
  605SOL    HW1 2714   6.627   6.551   1.368
  605SOL    HW2 2715   6.473   6.584   1.325
  606SOL     OW 2716   3.952   6.656   5.001
  606SOL    HW1 2717   3.889   6.663   5.078
  606SOL    HW2 2718   3.966   6.746   4.961
  607SOL     OW 2719   1.800   3.089   5.848
  607SOL    HW1 2720   1.723   3.036   5.812
  607SOL    HW2 2721   1.847   3.035   5.918
  608SOL     OW 2722   3.299   0.996   6.082
  608SOL    HW1 2723   3.337   0.972   5.992
  608SOL    HW2 2724   3.369   0.981   6.152
  609SOL     OW 2725   3.732   2.890   2.121
  609SOL    HW1 2726   3.829   2.872   2.103
  609SOL    HW2 2727   3.691   2.936   2.042
  610SOL     OW 2728   4.600   3.614   1.710
  610SOL    HW1 2729   4.686   3.586   1.753
  610SOL    HW2 2730   4.599   3.582   1.615
  611SOL     OW 2731   3.978   1.285   3.227
  611SOL    HW1 2732   3.951   1.376   3.196
  611SOL    HW2 2733   4.032   1.292   3.311
  612SOL     OW 2734   4.454   4.949   3.765
  612SOL    HW1 2735   4.549   4.921   3.778
  612SOL    HW2 2736   4.408   4.955   3.854
  613SOL     OW 2737   3.808   4.520   5.907
  613SOL    HW1 2738   3.885   4.509   5.843
  613SOL    HW2 2739   3.816   4.608   5.953
  614SOL     OW 2740   2.754   6.351   6.160
  614SOL    HW1 2741   2.689   6.275   6.168
  614SOL    HW2 2742   2.717   6.430   6.209
  615SOL     OW 2743   0.254   4.675   2.733
  615SOL    HW1 2744   0.298   4.764   2.744
  615SOL    HW2 2745   0.232   4.660   2.637
  616SOL     OW 2746   5.875   2.921   3.625
  616SOL    HW1 2747   5.948   2.935   3.691
  616SOL    HW2 2748   5.912   2.926   3.532
  617SOL     OW 2749   3.249   6.752   5.992
  617SOL    HW1 2750   3.311   6.680   5.962
  617SOL    HW2 2751   3.170   6.757   5.931
  618SOL     OW 2752   1.585   1.132   3.261
  618SOL    HW1 2753   1.586   1.045   3.311
  618SOL    HW2 2754   1.492   1.156   3.236
  619SOL     OW 2755   1.068   1.976   6.941
  619SOL    HW1 2756   1.104   1.887   6.914
  619SOL    HW2 2757   1.025   2.020   6.862
  620SOL     OW 2758   4.301   3.442   1.448
  620SOL    HW1 2759   4.360   3.477   1.521
  620SOL    HW2 2760   4.340   3.357   1.412
  621SOL     OW 2761   0.401   5.566   1.244
  621SOL    HW1 2762   0.354   5.571   1.156
  621SOL    HW2 2763   0.442   5.655   1.265
  622SOL     OW 2764   0.936   0.622   6.528
  622SOL    HW1 2765   0.949   0.531   6.487
  622SOL    HW2 2766   0.967   0.620   6.623
  623SOL     OW 2767   0.399   5.068   5.522
  623SOL    HW1 2768   0.477   5.012   5.495
  623SOL    HW2 2769   0.314   5.019   5.502
  624SOL     OW 2770   1.397   1.666   0.946
  624SOL    HW1 2771   1.313   1.656   0.893
  624SOL    HW2 2772   1.393   1.607   1.026
  625SOL     OW 2773   1.638   1.464   2.989
  625SOL    HW1 2774   1.729   1.477   3.029
  625SOL    HW2 2775   1.594   1.552   2.978
  626SOL     OW 2776   3.350   6.819   4.743
  626SOL    HW1 2777   3.319   6.907   4.777
  626SOL    HW2 2778   3.378   6.827   4.647
  627SOL     OW 2779   5.104   0.284   0.138
  627SOL    HW1 2780   5.172   0.210   0.149
  627SOL    HW2 2781   5.088   0.300   0.041
  628SOL     OW 2782   5.465   4.054   3.359
  628SOL    HW1 2783   5.511   4.127   3.308
  628SOL    HW2 2784   5.523   3.972   3.359
  629SOL     OW 2785   1.555   6.827   0.812
  629SOL    HW1 2786   1.563   6.913   0.762
  629SOL    HW2 2787   1.613   6.829   0.893
  630SOL     OW 2788   3.472   1.905   1.340
  630SOL    HW1 2789   3.387   1.931   1.387
  630SOL    HW2 2790   3.474   1.947   1.249
  631SOL     OW 2791   2.439   6.994   5.014
  631SOL    HW1 2792   2.511   0.023   4.967
  631SOL    HW2 2793   2.397   6.929   4.951
  632SOL     OW 2794   2.510   0.721   0.748
  632SOL    HW1 2795   2.438   0.767   0.697
  632SOL    HW2 2796   2.507   0.623   0.728
  633SOL     OW 2797   2.417   6.563   5.532
  633SOL    HW1 2798   2.392   6.619   5.610
  633SOL    HW2 2799   2.384   6.469   5.546
  634SOL     OW 2800   2.763   5.579   2.121
  634SOL    HW1 2801   2.830   5.505   2.117
  634SOL    HW2 2802   2.802   5.657   2.170
  635SOL     OW 2803   2.690   0.357   2.495
  635SOL    HW1 2804   2.737   0.441   2.522
  635SOL    HW2 2805   2.612   0.379   2.437
  636SOL     OW 2806   5.148   5.406   0.170
  636SOL    HW1 2807   5.057   5.442   0.191
  636SOL    HW2 2808   5.190   5.372   0.254
  637SOL     OW 2809   5.922   4.572   7.021
  637SOL    HW1 2810   5.826   4.571   6.993
  637SOL    HW2 2811   5.953   4.479   0.014
  638SOL     OW 2812   5.420   0.986   2.663
  638SOL    HW1 2813   5.439   1.067   2.718
  638SOL    HW2 2814   5.468   0.993   2.576
  639SOL     OW 2815   4.779   4.040   2.509
  639SOL    HW1 2816   4.823   4.118   2.464
  639SOL    HW2 2817   4.810   4.032   2.603
  640SOL     OW 2818   2.681   3.677   5.827
  640SOL    HW1 2819   2.585   3.654   5.841
  640SOL    HW2 2820   2.692   3.719   5.737
  641SOL     OW 2821   0.222   5.747   5.945
  641SOL    HW1 2822   0.265   5.667   5.986
  641SOL    HW2 2823   0.127   5.726   5.923
  642SOL     OW 2824   1.053   4.924   5.976
  642SOL    HW1 2825   1.109   4.998   5.938
  642SOL    HW2 2826   1.035   4.857   5.905
  643SOL     OW 2827   6.063   5.980   5.401
  643SOL    HW1 2828   6.153   6.012   5.430
  643SOL    HW2 2829   6.055   5.992   5.302
  644SOL     OW 2830   2.433   5.610   2.436
  644SOL    HW1 2831   2.471   5.701   2.420
  644SOL    HW2 2832   2.335   5.619   2.457
  645SOL     OW 2833   6.873   2.978   3.182
  645SOL    HW1 2834   6.804   3.040   3.221
  645SOL    HW2 2835   6.951   3.032   3.150
  646SOL     OW 2836   1.086   2.276   4.446
  646SOL    HW1 2837   1.161   2.340   4.435
  646SOL    HW2 2838   1.117   2.196   4.496
  647SOL     OW 2839   5.288   3.016   0.197
  647SOL    HW1 2840   5.341   3.028   0.113
  647SOL    HW2 2841   5.193   3.042   0.181
  648SOL     OW 2842   4.711   2.224   3.755
  648SOL    HW1 2843   4.767   2.293   3.800
  648SOL    HW2 2844   4.717   2.138   3.805
  649SOL     OW 2845   4.506   4.474   2.196
  649SOL    HW1 2846   4.503   4.400   2.129
  649SOL    HW2 2847   4.527   4.435   2.286
  650SOL     OW 2848   5.162   3.547   0.864
  650SOL    HW1 2849   5.189   3.513   0.953
  650SOL    HW2 2850   5.235   3.531   0.798
  651SOL     OW 2851   0.795   6.404   6.434
  651SOL    HW1 2852   0.786   6.346   6.353
  651SOL    HW2 2853   0.739   6.486   6.421
  652SOL     OW 2854   5.251   1.474   2.495
  652SOL    HW1 2855   5.345   1.505   2.507
  652SOL    HW2 2856   5.209   1.521   2.418
  653SOL     OW 2857   3.489   4.914   3.255
  653SOL    HW1 2858   3.415   4.909   3.188
  653SOL    HW2 2859   3.457   4.875   3.342
  654SOL     OW 2860   6.624   5.377   6.815
  654SOL    HW1 2861   6.544   5.342   6.863
  654SOL    HW2 2862   6.646   5.317   6.738
  655SOL     OW 2863   0.002   1.263   6.697
  655SOL    HW1 2864   6.935   1.307   6.708
  655SOL    HW2 2865   0.048   1.301   6.616
  656SOL     OW 2866   2.346   6.074   1.595
  656SOL    HW1 2867   2.275   6.105   1.658
  656SOL    HW2 2868   2.307   6.061   1.504
  657SOL     OW 2869   3.845   1.278   6.614
  657SOL    HW1 2870   3.799   1.299   6.527
  657SOL    HW2 2871   3.789   1.310   6.690
  658SOL     OW 2872   3.883   5.079   6.003
  658SOL    HW1 2873   3.934   4.995   6.020
  658SOL    HW2 2874   3.936   5.140   5.944
  659SOL     OW 2875   3.230   0.365   6.034
  659SOL    HW1 2876   3.238   0.434   5.962
  659SOL    HW2 2877   3.322   0.334   6.060
  660SOL     OW 2878   3.563   5.744   3.274
  660SOL    HW1 2879   3.528   5.766   3.366
  660SOL    HW2 2880   3.493   5.695   3.223
  661SOL     OW 2881   6.008   5.843   2.968
  661SOL    HW1 2882   6.059   5.913   3.020
  661SOL    HW2 2883   5.989   5.878   2.876
  662SOL     OW 2884   3.800   1.300   0.861
  662SOL    HW1 2885   3.777   1.229   0.794
  662SOL    HW2 2886   3.870   1.266   0.923
  663SOL     OW 2887   1.750   4.727   4.508
  663SOL    HW1 2888   1.825   4.779   4.466
  663SOL    HW2 2889   1.774   4.705   4.603
  664SOL     OW 2890   5.706   0.614   6.572
  664SOL    HW1 2891   5.778   0.571   6.627
  664SOL    HW2 2892   5.658   0.683   6.627
  665SOL     OW 2893   1.593   4.407   2.159
  665SOL    HW1 2894   1.577   4.502   2.134
  665SOL    HW2 2895   1.517   4.350   2.126
  666SOL     OW 2896   4.401   1.411   0.960
  666SOL    HW1 2897   4.379   1.499   1.002
  666SOL    HW2 2898   4.366   1.337   1.017
  667SOL     OW 2899   1.138   6.841   2.183
  667SOL    HW1 2900   1.227   6.799   2.163
  667SOL    HW2 2901   1.120   6.912   2.115
  668SOL     OW 2902   5.532   3.770   0.838
  668SOL    HW1 2903   5.473   3.840   0.879
  668SOL    HW2 2904   5.620   3.811   0.813
  669SOL     OW 2905   4.848   1.861   2.328
  669SOL    HW1 2906   4.751   1.850   2.306
  669SOL    HW2 2907   4.900   1.869   2.243
  670SOL     OW 2908   3.248   2.117   3.303
  670SOL    HW1 2909   3.339   2.088   3.332
  670SOL    HW2 2910   3.198   2.155   3.380
  671SOL     OW 2911   2.600   6.218   1.620
  671SOL    HW1 2912   2.539   6.280   1.669
  671SOL    HW2 2913   2.545   6.157   1.563
  672SOL     OW 2914   1.243   6.632   2.630
  672SOL    HW1 2915   1.216   6.618   2.726
  672SOL    HW2 2916   1.271   6.544   2.591
  673SOL     OW 2917   5.672   6.728   0.370
  673SOL    HW1 2918   5.582   6.765   0.346
  673SOL    HW2 2919   5.668   6.688   0.461
  674SOL     OW 2920   5.514   0.856   3.995
  674SOL    HW1 2921   5.529   0.953   4.012
  674SOL    HW2 2922   5.485   0.842   3.901
  675SOL     OW 2923   0.393   3.897   3.400
  675SOL    HW1 2924   0.362   3.855   3.485
  675SOL    HW2 2925   0.422   3.991   3.418
  676SOL     OW 2926   2.646   6.492   5.857
  676SOL    HW1 2927   2.712   6.452   5.792
  676SOL    HW2 2928   2.595   6.418   5.902
  677SOL     OW 2929   5.568   1.683   1.085
  677SOL    HW1 2930   5.492   1.680   1.020
  677SOL    HW2 2931   5.642   1.626   1.052
  678SOL     OW 2932   0.862   5.183   3.457
  678SOL    HW1 2933   0.876   5.269   3.408
  678SOL    HW2 2934   0.927   5.177   3.534
  679SOL     OW 2935   4.657   2.095   5.467
  679SOL    HW1 2936   4.653   2.060   5.373
  679SOL    HW2 2937   4.625   2.024   5.530
  680SOL     OW 2938   6.224   6.334   4.187
  680SOL    HW1 2939   6.311   6.370   4.222
  680SOL    HW2 2940   6.149   6.392   4.216
  681SOL     OW 2941   4.873   4.689   3.074
  681SOL    HW1 2942   4.801   4.663   3.009
  681SOL    HW2 2943   4.832   4.734   3.153
  682SOL     OW 2944   0.171   1.522   2.930
  682SOL    HW1 2945   0.111   1.536   3.009
  682SOL    HW2 2946   0.266   1.526   2.960
  683SOL     OW 2947   3.608   4.289   1.518
  683SOL    HW1 2948   3.655   4.278   1.605
  683SOL    HW2 2949   3.606   4.201   1.469
  684SOL     OW 2950   6.428   1.231   5.617
  684SOL    HW1 2951   6.487   1.311   5.616
  684SOL    HW2 2952   6.465   1.163   5.680
  685SOL     OW 2953   2.815   6.760   2.685
  685SOL    HW1 2954   2.836   6.719   2.596
  685SOL    HW2 2955   2.882   6.728   2.752
  686SOL     OW 2956   3.866   0.500   5.033
  686SOL    HW1 2957   3.937   0.535   5.094
  686SOL    HW2 2958   3.812   0.577   4.998
  687SOL     OW 2959   0.349   1.670   3.381
  687SOL    HW1 2960   0.326   1.581   3.420
  687SOL    HW2 2961   0.449   1.682   3.383
  688SOL     OW 2962   6.076   1.356   6.842
  688SOL    HW1 2963   6.033   1.427   6.786
  688SOL    HW2 2964   6.024   1.347   6.927
  689SOL     OW 2965   2.052   5.953   6.788
  689SOL    HW1 2966   2.101   5.867   6.804
  689SOL    HW2 2967   2.053   5.974   6.691
  690SOL     OW 2968   5.631   3.850   3.368
  690SOL    HW1 2969   5.583   3.805   3.293
  690SOL    HW2 2970   5.627   3.793   3.450
  691SOL     OW 2971   5.892   1.402   1.212
  691SOL    HW1 2972   5.819   1.381   1.278
  691SOL    HW2 2973   5.871   1.358   1.125
  692SOL     OW 2974   1.743   0.236   4.823
  692SOL    HW1 2975   1.841   0.215   4.825
  692SOL    HW2 2976   1.727   0.315   4.764
  693SOL     OW 2977   5.943   5.621   3.128
  693SOL    HW1 2978   5.934   5.664   3.218
  693SOL    HW2 2979   5.953   5.691   3.058
  694SOL     OW 2980   4.558   5.877   5.371
  694SOL    HW1 2981   4.636   5.867   5.310
  694SOL    HW2 2982   4.574   5.825   5.455
  695SOL     OW 2983   4.498   6.929   3.939
  695SOL    HW1 2984   4.447   6.920   4.025
  695SOL    HW2 2985   4.496   0.002   3.909
  696SOL     OW 2986   5.716   4.178   2.784
  696SOL    HW1 2987   5.710   4.179   2.685
  696SOL    HW2 2988   5.809   4.204   2.812
  697SOL     OW 2989   1.002   6.191   2.269
  697SOL    HW1 2990   1.032   6.098   2.290
  697SOL    HW2 2991   1.023   6.212   2.174
  698SOL     OW 2992   5.585   6.317   6.747
  698SOL    HW1 2993   5.641   6.261   6.809
  698SOL    HW2 2994   5.509   6.261   6.712
  699SOL     OW 2995   3.248   3.256   1.114
  699SOL    HW1 2996   3.308   3.249   1.034
  699SOL    HW2 2997   3.156   3.281   1.084
  700SOL     OW 2998   4.052   0.076   4.558
  700SOL    HW1 2999   4.024   7.020   4.502
  700SOL    HW2 3000   3.971   0.132   4.579
  701SOL     OW 3001   4.930   5.197   1.613
  701SOL    HW1 3002   4.939   5.145   1.529
  701SOL    HW2 3003   4.836   5.228   1.624
  702SOL     OW 3004   3.849   0.922   4.517
  702SOL    HW1 3005   3.854   0.823   4.526
  702SOL    HW2 3006   3.755   0.949   4.496
  703SOL     OW 3007   2.973   2.229   6.882
  703SOL    HW1 3008   2.959   2.148   6.825
  703SOL    HW2 3009   3.056   2.277   6.852
  704SOL     OW 3010   3.056   1.758   5.237
  704SOL    HW1 3011   3.086   1.852   5.254
  704SOL    HW2 3012   3.087   1.699   5.311
  705SOL     OW 3013   0.219   6.729   5.177
  705SOL    HW1 3014   0.165   6.725   5.092
  705SOL    HW2 3015   0.191   6.655   5.237
  706SOL     OW 3016   3.725   1.458   4.243
  706SOL    HW1 3017   3.732   1.465   4.143
  706SOL    HW2 3018   3.673   1.375   4.267
  707SOL     OW 3019   3.106   5.133   4.215
  707SOL    HW1 3020   3.131   5.174   4.127
  707SOL    HW2 3021   3.030   5.185   4.255
  708SOL     OW 3022   5.104   6.046   3.829
  708SOL    HW1 3023   5.153   5.991   3.761
  708SOL    HW2 3024   5.008   6.053   3.802
  709SOL     OW 3025   2.457   0.325   0.884
  709SOL    HW1 3026   2.540   0.280   0.915
  709SOL    HW2 3027   2.384   0.258   0.873
  710SOL     OW 3028   4.905   3.238   1.907
  710SOL    HW1 3029   5.001   3.210   1.905
  710SOL    HW2 3030   4.851   3.166   1.951
  711SOL     OW 3031   6.928   1.730   0.427
  711SOL    HW1 3032   6.967   1.764   0.512
  711SOL    HW2 3033   6.850   1.786   0.401
  712SOL     OW 3034   4.851   3.899   6.982
  712SOL    HW1 3035   4.815   3.872   0.049
  712SOL    HW2 3036   4.904   3.823   6.943
  713SOL     OW 3037   4.309   3.468   5.599
  713SOL    HW1 3038   4.389   3.481   5.540
  713SOL    HW2 3039   4.297   3.549   5.657
  714SOL     OW 3040   5.452   5.793   3.304
  714SOL    HW1 3041   5.528   5.836   3.352
  714SOL    HW2 3042   5.487   5.730   3.234
  715SOL     OW 3043   6.369   4.668   5.290
  715SOL    HW1 3044   6.439   4.699   5.226
  715SOL    HW2 3045   6.395   4.696   5.383
  716SOL     OW 3046   2.720   2.178   3.378
  716SOL    HW1 3047   2.662   2.255   3.352
  716SOL    HW2 3048   2.735   2.179   3.477
  717SOL     OW 3049   5.206   4.994   4.306
  717SOL    HW1 3050   5.138   5.066   4.290
  717SOL    HW2 3051   5.283   5.031   4.357
  718SOL     OW 3052   5.184   2.332   5.312
  718SOL    HW1 3053   5.160   2.257   5.375
  718SOL    HW2 3054   5.165   2.420   5.356
  719SOL     OW 3055   4.944   6.729   3.864
  719SOL    HW1 3056   4.994   6.814   3.848
  719SOL    HW2 3057   5.003   6.651   3.840
  720SOL     OW 3058   2.527   0.912   0.939
  720SOL    HW1 3059   2.541   0.834   0.879
  720SOL    HW2 3060   2.534   0.996   0.886
  721SOL     OW 3061   6.863   2.334   2.200
  721SOL    HW1 3062   6.962   2.335   2.210
  721SOL    HW2 3063   6.836   2.395   2.125
  722SOL     OW 3064   4.956   6.166   0.662
  722SOL    HW1 3065   4.995   6.257   0.650
  722SOL    HW2 3066   4.960   6.116   0.576
  723SOL     OW 3067   2.377   0.389   4.573
  723SOL    HW1 3068   2.389   0.357   4.479
  723SOL    HW2 3069   2.281   0.384   4.598
  724SOL     OW 3070   0.813   2.104   4.167
  724SOL    HW1 3071   0.860   2.096   4.078
  724SOL    HW2 3072   0.714   2.102   4.153
  725SOL     OW 3073   1.799   4.279   2.851
  725SOL    HW1 3074   1.873   4.319   2.905
  725SOL    HW2 3075   1.731   4.239   2.913
  726SOL     OW 3076   1.613   3.588   0.885
  726SOL    HW1 3077   1.597   3.619   0.979
  726SOL    HW2 3078   1.710   3.573   0.871
  727SOL     OW 3079   3.901   5.319   4.796
  727SOL    HW1 3080   3.847   5.268   4.863
  727SOL    HW2 3081   3.886   5.279   4.705
  728SOL     OW 3082   6.440   3.273   3.811
  728SOL    HW1 3083   6.447   3.235   3.719
  728SOL    HW2 3084   6.360   3.234   3.857
  729SOL     OW 3085   0.360   4.183   0.884
  729SOL    HW1 3086   0.313   4.253   0.938
  729SOL    HW2 3087   0.320   4.093   0.903
  730SOL     OW 3088   3.723   0.848   3.354
  730SOL    HW1 3089   3.745   0.944   3.333
  730SOL    HW2 3090   3.629   0.829   3.325
  731SOL     OW 3091   4.479   5.462   4.766
  731SOL    HW1 3092   4.575   5.491   4.767
  731SOL    HW2 3093   4.424   5.529   4.716
  732SOL     OW 3094   3.835   1.071   5.302
  732SOL    HW1 3095   3.799   1.155   5.343
  732SOL    HW2 3096   3.846   1.083   5.204
  733SOL     OW 3097   6.267   5.549   3.278
  733SOL    HW1 3098   6.232   5.457   3.260
  733SOL    HW2 3099   6.367   5.546   3.278
  734SOL     OW 3100   6.421   6.976   2.626
  734SOL    HW1 3101   6.355   0.006   2.680
  734SOL    HW2 3102   6.450   6.896   2.679
  735SOL     OW 3103   4.686   0.073   2.207
  735SOL    HW1 3104   4.739   0.010   2.264
  735SOL    HW2 3105   4.650   0.024   2.128
  736SOL     OW 3106   2.146   1.300   3.783
  736SOL    HW1 3107   2.163   1.214   3.831
  736SOL    HW2 3108   2.073   1.350   3.829
  737SOL     OW 3109   3.701   0.799   6.248
  737SOL    HW1 3110   3.660   0.765   6.332
  737SOL    HW2 3111   3.782   0.744   6.225
  738SOL     OW 3112   2.379   4.825   0.443
  738SOL    HW1 3113   2.458   4.810   0.503
  738SOL    HW2 3114   2.296   4.792   0.488
  739SOL     OW 3115   2.609   6.863   3.641
  739SOL    HW1 3116   2.654   6.910   3.566
  739SOL    HW2 3117   2.609   6.921   3.722
  740SOL     OW 3118   4.886   3.126   2.921
  740SOL    HW1 3119   4.902   3.088   3.013
  740SOL    HW2 3120   4.875   3.051   2.856
  741SOL     OW 3121   2.752   0.600   2.638
  741SOL    HW1 3122   2.708   0.560   2.718
  741SOL    HW2 3123   2.717   0.692   2.624
  742SOL     OW 3124   2.291   6.309   1.928
  742SOL    HW1 3125   2.364   6.273   1.987
  742SOL    HW2 3126   2.272   6.404   1.955
  743SOL     OW 3127   0.325   6.594   3.120
  743SOL    HW1 3128   0.355   6.584   3.025
  743SOL    HW2 3129   0.250   6.661   3.124
  744SOL     OW 3130   5.053   1.998   7.021
  744SOL    HW1 3131   5.131   2.060   7.012
  744SOL    HW2 3132   5.012   2.010   0.089
  745SOL     OW 3133   1.994   0.109   4.895
  745SOL    HW1 3134   2.073   0.141   4.947
  745SOL    HW2 3135   2.015   0.022   4.851
  746SOL     OW 3136   0.325   4.898   5.169
  746SOL    HW1 3137   0.404   4.949   5.138
  746SOL    HW2 3138   0.255   4.961   5.203
  747SOL     OW 3139   4.825   5.903   2.574
  747SOL    HW1 3140   4.864   5.817   2.541
  747SOL    HW2 3141   4.798   5.960   2.496
  748SOL     OW 3142   5.408   5.099   1.718
  748SOL    HW1 3143   5.441   5.182   1.764
  748SOL    HW2 3144   5.373   5.122   1.628
  749SOL     OW 3145   4.776   4.296   5.011
  749SOL    HW1 3146   4.769   4.350   4.927
  749SOL    HW2 3147   4.692   4.307   5.064
  750SOL     OW 3148   2.647   1.975   2.141
  750SOL    HW1 3149   2.606   2.059   2.175
  750SOL    HW2 3150   2.644   1.905   2.212
  751SOL     OW 3151   3.275   0.578   0.489
  751SOL    HW1 3152   3.351   0.632   0.452
  751SOL    HW2 3153   3.254   0.504   0.426
  752SOL     OW 3154   3.664   2.584   5.411
  752SOL    HW1 3155   3.593   2.648   5.383
  752SOL    HW2 3156   3.654   2.564   5.508
  753SOL     OW 3157   3.379   3.912   4.019
  753SOL    HW1 3158   3.355   3.915   3.922
  753SOL    HW2 3159   3.374   4.004   4.058
  754SOL     OW 3160   5.516   0.640   0.168
  754SOL    HW1 3161   5.607   0.609   0.196
  754SOL    HW2 3162   5.475   0.571   0.108
  755SOL     OW 3163   4.418   4.273   5.343
  755SOL    HW1 3164   4.353   4.328   5.290
  755SOL    HW2 3165   4.369   4.202   5.394
  756SOL     OW 3166   2.517   5.128   6.086
  756SOL    HW1 3167   2.451   5.074   6.033
  756SOL    HW2 3168   2.469   5.204   6.131
  757SOL     OW 3169   2.246   6.382   2.288
  757SOL    HW1 3170   2.231   6.402   2.385
  757SOL    HW2 3171   2.181   6.313   2.258
  758SOL     OW 3172   4.803   0.730   4.212
  758SOL    HW1 3173   4.900   0.735   4.190
  758SOL    HW2 3174   4.763   0.647   4.172
  759SOL     OW 3175   0.936   3.454   3.655
  759SOL    HW1 3176   1.012   3.520   3.653
  759SOL    HW2 3177   0.850   3.500   3.637
  760SOL     OW 3178   6.784   5.242   3.345
  760SOL    HW1 3179   6.794   5.299   3.426
  760SOL    HW2 3180   6.686   5.226   3.327
  761SOL     OW 3181   4.266   4.700   6.402
  761SOL    HW1 3182   4.347   4.743   6.441
  761SOL    HW2 3183   4.287   4.667   6.310
  762SOL     OW 3184   3.470   6.282   3.362
  762SOL    HW1 3185   3.512   6.367   3.392
  762SOL    HW2 3186   3.376   6.300   3.331
  763SOL     OW 3187   5.337   0.465   0.339
  763SOL    HW1 3188   5.319   0.555   0.298
  763SOL    HW2 3189   5.367   0.401   0.268
  764SOL     OW 3190   5.072   6.518   5.640
  764SOL    HW1 3191   5.017   6.531   5.557
  764SOL    HW2 3192   5.031   6.447   5.697
  765SOL     OW 3193   6.758   6.965   0.410
  765SOL    HW1 3194   6.732   0.038   0.418
  765SOL    HW2 3195   6.808   6.937   0.493
  766SOL     OW 3196   2.554   2.168   4.366
  766SOL    HW1 3197   2.478   2.113   4.331
  766SOL    HW2 3198   2.567   2.248   4.307
  767SOL     OW 3199   6.377   5.234   4.461
  767SOL    HW1 3200   6.386   5.168   4.387
  767SOL    HW2 3201   6.461   5.236   4.515
  768SOL     OW 3202   1.718   5.189   2.997
  768SOL    HW1 3203   1.671   5.254   3.057
  768SOL    HW2 3204   1.811   5.222   2.978
  769SOL     OW 3205   3.132   2.025   5.461
  769SOL    HW1 3206   3.067   2.092   5.497
  769SOL    HW2 3207   3.154   2.048   5.366
  770SOL     OW 3208   1.085   5.189   5.835
  770SOL    HW1 3209   1.184   5.189   5.850
  770SOL    HW2 3210   1.056   5.281   5.806
  771SOL     OW 3211   1.425   4.760   2.717
  771SOL    HW1 3212   1.349   4.804   2.669
  771SOL    HW2 3213   1.392   4.677   2.762
  772SOL     OW 3214   5.877   4.012   0.392
  772SOL    HW1 3215   5.892   3.916   0.413
  772SOL    HW2 3216   5.961   4.063   0.411
  773SOL     OW 3217   1.933   4.245   3.877
  773SOL    HW1 3218   1.917   4.158   3.924
  773SOL    HW2 3219   2.030   4.257   3.860
  774SOL     OW 3220   2.309   0.663   3.442
  774SOL    HW1 3221   2.352   0.722   3.374
  774SOL    HW2 3222   2.310   0.708   3.531
  775SOL     OW 3223   1.158   4.678   2.902
  775SOL    HW1 3224   1.216   4.753   2.933
  775SOL    HW2 3225   1.206   4.626   2.830
  776SOL     OW 3226   2.323   5.369   5.726
  776SOL    HW1 3227   2.356   5.398   5.815
  776SOL    HW2 3228   2.394   5.383   5.657
  777SOL     OW 3229   2.352   3.989   5.972
  777SOL    HW1 3230   2.280   4.002   6.041
  777SOL    HW2 3231   2.323   3.918   5.907
  778SOL     OW 3232   2.827   5.963   7.002
  778SOL    HW1 3233   2.921   5.958   6.967
  778SOL    HW2 3234   2.797   6.058   7.002
  779SOL     OW 3235   6.049   2.708   2.773
  779SOL    HW1 3236   6.083   2.672   2.686
  779SOL    HW2 3237   5.968   2.656   2.801
  780SOL     OW 3238   6.749   2.114   4.876
  780SOL    HW1 3239   6.750   2.214   4.873
  780SOL    HW2 3240   6.655   2.081   4.866
  781SOL     OW 3241   0.076   4.764   6.628
  781SOL    HW1 3242   0.016   4.696   6.669
  781SOL    HW2 3243   0.031   4.804   6.548
  782SOL     OW 3244   1.614   3.515   4.911
  782SOL    HW1 3245   1.531   3.551   4.954
  782SOL    HW2 3246   1.603   3.516   4.811
  783SOL     OW 3247   6.512   4.788   6.976
  783SOL    HW1 3248   6.426   4.788   6.924
  783SOL    HW2 3249   6.553   4.879   6.970
  784SOL     OW 3250   2.245   6.091   0.538
  784SOL    HW1 3251   2.211   6.099   0.445
  784SOL    HW2 3252   2.169   6.099   0.603
  785SOL     OW 3253   0.647   0.994   4.134
  785SOL    HW1 3254   0.568   0.946   4.173
  785SOL    HW2 3255   0.728   0.936   4.141
  786SOL     OW 3256   6.106   0.733   4.231
  786SOL    HW1 3257   6.082   0.793   4.155
  786SOL    HW2 3258   6.042   0.656   4.234
  787SOL     OW 3259   2.470   6.924   1.106
  787SOL    HW1 3260   2.532   6.847   1.091
  787SOL    HW2 3261   2.388   6.913   1.050
  788SOL     OW 3262   1.934   2.512   1.829
  788SOL    HW1 3263   1.982   2.424   1.835
  788SOL    HW2 3264   1.934   2.544   1.734
  789SOL     OW 3265   4.252   4.674   2.682
  789SOL    HW1 3266   4.189   4.750   2.694
  789SOL    HW2 3267   4.335   4.706   2.635
  790SOL     OW 3268   0.944   3.057   2.099
  790SOL    HW1 3269   0.959   3.045   2.001
  790SOL    HW2 3270   0.938   2.968   2.143
  791SOL     OW 3271   2.653   6.725   4.098
  791SOL    HW1 3272   2.597   6.705   4.017
  791SOL    HW2 3273   2.698   6.641   4.129
  792SOL     OW 3274   2.062   0.077   0.115
  792SOL    HW1 3275   2.081   0.112   0.206
  792SOL    HW2 3276   1.966   0.091   0.092
  793SOL     OW 3277   2.658   6.373   4.609
  793SOL    HW1 3278   2.757   6.372   4.620
  793SOL    HW2 3279   2.615   6.375   4.700
  794SOL     OW 3280   2.962   3.181   2.604
  794SOL    HW1 3281   2.947   3.276   2.631
  794SOL    HW2 3282   3.001   3.130   2.680
  795SOL     OW 3283   4.607   0.855   6.068
  795SOL    HW1 3284   4.623   0.867   5.970
  795SOL    HW2 3285   4.539   0.783   6.081
  796SOL     OW 3286   0.497   2.536   0.354
  796SOL    HW1 3287   0.470   2.535   0.451
  796SOL    HW2 3288   0.421   2.568   0.298
  797SOL     OW 3289   3.644   6.887   1.146
  797SOL    HW1 3290   3.643   6.938   1.060
  797SOL    HW2 3291   3.550   6.875   1.178
  798SOL     OW 3292   5.460   5.410   1.426
  798SOL    HW1 3293   5.488   5.400   1.522
  798SOL    HW2 3294   5.364   5.440   1.423
  799SOL     OW 3295   2.771   2.605   5.660
  799SOL    HW1 3296   2.685   2.635   5.620
  799SOL    HW2 3297   2.779   2.640   5.753
  800SOL     OW 3298   5.416   2.883   3.384
  800SOL    HW1 3299   5.504   2.844   3.410
  800SOL    HW2 3300   5.430   2.958   3.319
  801SOL     OW 3301   1.968   6.157   6.359
  801SOL    HW1 3302   1.999   6.187   6.269
  801SOL    HW2 3303   1.892   6.093   6.348
  802SOL     OW 3304   4.938   1.938   6.692
  802SOL    HW1 3305   4.974   1.935   6.785
  802SOL    HW2 3306   4.861   1.876   6.683
  803SOL     OW 3307   2.288   1.619   4.364
  803SOL    HW1 3308   2.247   1.696   4.315
  803SOL    HW2 3309   2.329   1.651   4.449
  804SOL     OW 3310   5.157   0.434   2.765
  804SOL    HW1 3311   5.182   0.410   2.859
  804SOL    HW2 3312   5.067   0.395   2.744
  805SOL     OW 3313   3.358   0.460   3.873
  805SOL    HW1 3314   3.356   0.549   3.918
  805SOL    HW2 3315   3.283   0.455   3.806
  806SOL     OW 3316   3.089   6.292   5.353
  806SOL    HW1 3317   3.004   6.345   5.357
  806SOL    HW2 3318   3.131   6.303   5.263
  807SOL     OW 3319   1.102   6.412   6.040
  807SOL    HW1 3320   1.144   6.493   6.081
  807SOL    HW2 3321   1.011   6.435   6.008
  808SOL     OW 3322   5.386   2.447   6.057
  808SOL    HW1 3323   5.448   2.411   5.988
  808SOL    HW2 3324   5.355   2.539   6.030
  809SOL     OW 3325   2.816   5.598   0.313
  809SOL    HW1 3326   2.825   5.688   0.270
  809SOL    HW2 3327   2.895   5.582   0.372
  810SOL     OW 3328   3.588   3.483   0.307
  810SOL    HW1 3329   3.606   3.391   0.273
  810SOL    HW2 3330   3.538   3.536   0.239
  811SOL     OW 3331   6.170   5.254   4.639
  811SOL    HW1 3332   6.239   5.248   4.567
  811SOL    HW2 3333   6.214   5.284   4.724
  812SOL     OW 3334   0.865   3.761   1.774
  812SOL    HW1 3335   0.798   3.718   1.714
  812SOL    HW2 3336   0.955   3.721   1.759
  813SOL     OW 3337   1.605   1.671   5.667
  813SOL    HW1 3338   1.564   1.751   5.624
  813SOL    HW2 3339   1.702   1.665   5.642
  814SOL     OW 3340   0.397   4.441   2.743
  814SOL    HW1 3341   0.486   4.487   2.748
  814SOL    HW2 3342   0.324   4.507   2.755
  815SOL     OW 3343   4.249   1.806   4.854
  815SOL    HW1 3344   4.203   1.895   4.849
  815SOL    HW2 3345   4.193   1.742   4.908
  816SOL     OW 3346   5.827   3.930   6.672
  816SOL    HW1 3347   5.811   4.017   6.626
  816SOL    HW2 3348   5.768   3.859   6.632
  817SOL     OW 3349   0.533   4.875   6.771
  817SOL    HW1 3350   0.554   4.953   6.713
  817SOL    HW2 3351   0.493   4.906   6.857
  818SOL     OW 3352   7.006   2.322   4.945
  818SOL    HW1 3353   0.071   2.368   4.931
  818SOL    HW2 3354   7.019   2.223   4.937
  819SOL     OW 3355   4.760   3.071   1.672
  819SOL    HW1 3356   4.821   3.138   1.713
  819SOL    HW2 3357   4.709   3.023   1.744
  820SOL     OW 3358   2.557   2.075   5.319
  820SOL    HW1 3359   2.598   2.057   5.408
  820SOL    HW2 3360   2.629   2.088   5.251
  821SOL     OW 3361   5.170   3.271   6.867
  821SOL    HW1 3362   5.205   3.357   6.830
  821SOL    HW2 3363   5.237   3.199   6.854
  822SOL     OW 3364   0.423   4.892   3.305
  822SOL    HW1 3365   0.389   4.858   3.217
  822SOL    HW2 3366   0.483   4.824   3.347
  823SOL     OW 3367   1.537   3.041   4.987
  823SOL    HW1 3368   1.637   3.037   4.990
  823SOL    HW2 3369   1.499   2.953   5.018
  824SOL     OW 3370   5.086   0.214   6.476
  824SOL    HW1 3371   4.989   0.197   6.456
  824SOL    HW2 3372   5.111   0.168   6.562
  825SOL     OW 3373   6.238   6.521   0.948
  825SOL    HW1 3374   6.181   6.585   0.898
  825SOL    HW2 3375   6.188   6.486   1.027
  826SOL     OW 3376   3.419   2.128   0.361
  826SOL    HW1 3377   3.497   2.129   0.422
  826SOL    HW2 3378   3.350   2.064   0.395
  827SOL     OW 3379   3.527   3.641   5.202
  827SOL    HW1 3380   3.526   3.667   5.105
  827SOL    HW2 3381   3.620   3.650   5.238
  828SOL     OW 3382   0.253   6.551   6.272
  828SOL    HW1 3383   0.178   6.495   6.309
  828SOL    HW2 3384   0.215   6.632   6.227
  829SOL     OW 3385   3.613   3.524   2.290
  829SOL    HW1 3386   3.563   3.461   2.349
  829SOL    HW2 3387   3.670   3.584   2.346
  830SOL     OW 3388   6.687   4.415   6.742
  830SOL    HW1 3389   6.639   4.466   6.813
  830SOL    HW2 3390   6.759   4.360   6.784
  831SOL     OW 3391   5.002   0.683   2.046
  831SOL    HW1 3392   5.018   0.681   2.145
  831SOL    HW2 3393   5.025   0.774   2.010
  832SOL     OW 3394   3.041   1.372   4.772
  832SOL    HW1 3395   3.050   1.322   4.858
  832SOL    HW2 3396   3.102   1.451   4.772
  833SOL     OW 3397   4.145   2.684   0.199
  833SOL    HW1 3398   4.216   2.664   0.267
  833SOL    HW2 3399   4.055   2.670   0.240
  834SOL     OW 3400   5.890   2.428   0.612
  834SOL    HW1 3401   5.906   2.526   0.626
  834SOL    HW2 3402   5.954   2.393   0.544
  835SOL     OW 3403   0.101   0.150   4.915
  835SOL    HW1 3404   0.200   0.165   4.913
  835SOL    HW2 3405   0.056   0.233   4.948
  836SOL     OW 3406   4.930   0.956   5.100
  836SOL    HW1 3407   4.991   1.013   5.045
  836SOL    HW2 3408   4.836   0.967   5.069
  837SOL     OW 3409   1.566   0.557   0.032
  837SOL    HW1 3410   1.511   0.479   0.061
  837SOL    HW2 3411   1.573   0.623   0.107
  838SOL     OW 3412   1.113   5.837   3.689
  838SOL    HW1 3413   1.191   5.899   3.692
  838SOL    HW2 3414   1.128   5.761   3.753
  839SOL     OW 3415   1.591   2.138   0.267
  839SOL    HW1 3416   1.691   2.130   0.266
  839SOL    HW2 3417   1.559   2.154   0.360
  840SOL     OW 3418   4.515   5.021   0.501
  840SOL    HW1 3419   4.491   4.974   0.416
  840SOL    HW2 3420   4.560   4.957   0.563
  841SOL     OW 3421   3.121   4.992   6.915
  841SOL    HW1 3422   3.173   4.996   7.000
  841SOL    HW2 3423   3.174   4.943   6.846
  842SOL     OW 3424   4.221   5.424   1.239
  842SOL    HW1 3425   4.265   5.513   1.237
  842SOL    HW2 3426   4.216   5.390   1.333
  843SOL     OW 3427   1.360   0.452   2.127
  843SOL    HW1 3428   1.291   0.523   2.112
  843SOL    HW2 3429   1.378   0.444   2.224
  844SOL     OW 3430   0.031   0.423   1.371
  844SOL    HW1 3431   7.000   0.501   1.340
  844SOL    HW2 3432   0.059   0.368   1.292
  845SOL     OW 3433   3.219   1.918   2.630
  845SOL    HW1 3434   3.131   1.908   2.584
  845SOL    HW2 3435   3.292   1.927   2.562
  846SOL     OW 3436   2.846   1.964   0.932
  846SOL    HW1 3437   2.879   1.890   0.991
  846SOL    HW2 3438   2.894   2.049   0.955
  847SOL     OW 3439   2.644   3.696   1.518
  847SOL    HW1 3440   2.737   3.730   1.498
  847SOL    HW2 3441   2.643   3.656   1.609
  848SOL     OW 3442   6.701   6.393   0.277
  848SOL    HW1 3443   6.715   6.298   0.307
  848SOL    HW2 3444   6.627   6.394   0.209
  849SOL     OW 3445   5.793   3.405   6.761
  849SOL    HW1 3446   5.871   3.385   6.701
  849SOL    HW2 3447   5.815   3.485   6.817
  850SOL     OW 3448   1.117   1.016   4.967
  850SOL    HW1 3449   1.102   1.108   4.929
  850SOL    HW2 3450   1.069   1.009   5.054
  851SOL     OW 3451   5.593   3.250   5.655
  851SOL    HW1 3452   5.615   3.185   5.728
  851SOL    HW2 3453   5.575   3.199   5.570
  852SOL     OW 3454   0.324   3.866   2.067
  852SOL    HW1 3455   0.385   3.792   2.091
  852SOL    HW2 3456   0.230   3.842   2.094
  853SOL     OW 3457   2.693   3.089   0.567
  853SOL    HW1 3458   2.678   3.060   0.662
  853SOL    HW2 3459   2.791   3.086   0.548
  854SOL     OW 3460   5.847   6.221   5.804
  854SOL    HW1 3461   5.903   6.236   5.722
  854SOL    HW2 3462   5.762   6.175   5.778
  855SOL     OW 3463   5.942   1.276   0.060
  855SOL    HW1 3464   5.882   1.355   0.072
  855SOL    HW2 3465   5.977   1.247   0.149
  856SOL     OW 3466   2.011   5.141   1.908
  856SOL    HW1 3467   2.007   5.041   1.913
  856SOL    HW2 3468   2.038   5.178   1.997
  857SOL     OW 3469   6.815   5.884   4.951
  857SOL    HW1 3470   6.766   5.959   4.906
  857SOL    HW2 3471   6.797   5.798   4.902
  858SOL     OW 3472   4.411   3.731   0.045
  858SOL    HW1 3473   4.443   3.646   0.085
  858SOL    HW2 3474   4.345   3.774   0.106
  859SOL     OW 3475   5.304   6.255   5.167
  859SOL    HW1 3476   5.267   6.163   5.179
  859SOL    HW2 3477   5.255   6.319   5.227
  860SOL     OW 3478   4.822   2.737   6.353
  860SOL    HW1 3479   4.728   2.724   6.385
  860SOL    HW2 3480   4.884   2.683   6.410
  861SOL     OW 3481   1.856   5.494   1.796
  861SOL    HW1 3482   1.796   5.572   1.814
  861SOL    HW2 3483   1.869   5.442   1.881
  862SOL     OW 3484   0.577   4.231   3.900
  862SOL    HW1 3485   0.621   4.261   3.816
  862SOL    HW2 3486   0.557   4.311   3.957
  863SOL     OW 3487   5.985   0.619   1.532
  863SOL    HW1 3488   5.922   0.585   1.602
  863SOL    HW2 3489   6.050   0.546   1.508
  864SOL     OW 3490   5.698   6.694   3.579
  864SOL    HW1 3491   5.606   6.687   3.541
  864SOL    HW2 3492   5.755   6.620   3.543
  865SOL     OW 3493   1.651   6.052   5.387
  865SOL    HW1 3494   1.733   6.088   5.342
  865SOL    HW2 3495   1.590   6.127   5.412
  866SOL     OW 3496   3.513   0.502   1.829
  866SOL    HW1 3497   3.484   0.454   1.912
  866SOL    HW2 3498   3.613   0.508   1.828
  867SOL     OW 3499   5.939   1.755   5.834
  867SOL    HW1 3500   6.008   1.742   5.763
  867SOL    HW2 3501   5.970   1.713   5.919
  868SOL     OW 3502   0.317   2.227   1.257
  868SOL    HW1 3503   0.252   2.236   1.332
  868SOL    HW2 3504   0.328   2.130   1.234
  869SOL     OW 3505   0.180   3.761   3.776
  869SOL    HW1 3506   0.169   3.730   3.682
  869SOL    HW2 3507   0.104   3.727   3.831
  870SOL     OW 3508   3.833   5.119   2.135
  870SOL    HW1 3509   3.768   5.157   2.069
  870SOL    HW2 3510   3.915   5.089   2.087
  871SOL     OW 3511   4.866   1.555   3.291
  871SOL    HW1 3512   4.818   1.643   3.284
  871SOL    HW2 3513   4.960   1.566   3.259
  872SOL     OW 3514   1.310   2.390   4.812
  872SOL    HW1 3515   1.402   2.381   4.850
  872SOL    HW2 3516   1.305   2.473   4.756
  873SOL     OW 3517   4.284   0.291   6.181
  873SOL    HW1 3518   4.379   0.298   6.152
  873SOL    HW2 3519   4.228   0.259   6.103
  874SOL     OW 3520   5.137   3.584   1.502
  874SOL    HW1 3521   5.089   3.671   1.489
  874SOL    HW2 3522   5.078   3.508   1.477
  875SOL     OW 3523   4.798   5.538   1.653
  875SOL    HW1 3524   4.743   5.593   1.717
  875SOL    HW2 3525   4.769   5.443   1.658
  876SOL     OW 3526   7.017   0.163   0.676
  876SOL    HW1 3527   0.076   0.177   0.732
  876SOL    HW2 3528   6.938   0.204   0.723
  877SOL     OW 3529   2.179   3.577   6.745
  877SOL    HW1 3530   2.228   3.506   6.695
  877SOL    HW2 3531   2.090   3.593   6.701
  878SOL     OW 3532   3.972   6.399   4.482
  878SOL    HW1 3533   4.001   6.492   4.458
  878SOL    HW2 3534   4.052   6.339   4.482
  879SOL     OW 3535   5.621   0.068   0.369
  879SOL    HW1 3536   5.603   7.009   0.314
  879SOL    HW2 3537   5.716   0.066   0.402
  880SOL     OW 3538   2.928   3.160   2.288
  880SOL    HW1 3539   3.025   3.179   2.273
  880SOL    HW2 3540   2.909   3.160   2.386
  881SOL     OW 3541   4.456   1.583   0.386
  881SOL    HW1 3542   4.537   1.635   0.358
  881SOL    HW2 3543   4.449   1.585   0.486
  882SOL     OW 3544   1.590   3.234   4.642
  882SOL    HW1 3545   1.535   3.153   4.627
  882SOL    HW2 3546   1.674   3.210   4.691
  883SOL     OW 3547   2.590   0.156   3.189
  883SOL    HW1 3548   2.684   0.181   3.214
  883SOL    HW2 3549   2.582   0.057   3.182
  884SOL     OW 3550   3.903   3.490   5.512
  884SOL    HW1 3551   3.876   3.407   5.463
  884SOL    HW2 3552   4.001   3.503   5.503
  885SOL     OW 3553   4.163   2.543   6.531
  885SOL    HW1 3554   4.155   2.446   6.508
  885SOL    HW2 3555   4.113   2.598   6.464
  886SOL     OW 3556   3.568   0.639   6.735
  886SOL    HW1 3557   3.516   0.721   6.760
  886SOL    HW2 3558   3.531   0.560   6.784
  887SOL     OW 3559   5.057   1.641   4.947
  887SOL    HW1 3560   5.081   1.720   4.891
  887SOL    HW2 3561   4.972   1.659   4.996
  888SOL     OW 3562   6.681   6.726   2.961
  888SOL    HW1 3563   6.767   6.759   2.922
  888SOL    HW2 3564   6.644   6.796   3.022
  889SOL     OW 3565   0.853   3.979   6.826
  889SOL    HW1 3566   0.845   3.889   6.868
  889SOL    HW2 3567   0.944   4.016   6.843
  890SOL     OW 3568   2.395   5.316   4.032
  890SOL    HW1 3569   2.317   5.285   4.086
  890SOL    HW2 3570   2.367   5.333   3.938
  891SOL     OW 3571   4.595   5.890   1.769
  891SOL    HW1 3572   4.596   5.800   1.812
  891SOL    HW2 3573   4.613   5.881   1.671
  892SOL     OW 3574   3.043   4.509   0.845
  892SOL    HW1 3575   3.073   4.589   0.898
  892SOL    HW2 3576   3.027   4.432   0.908
  893SOL     OW 3577   1.657   6.280   2.551
  893SOL    HW1 3578   1.573   6.226   2.546
  893SOL    HW2 3579   1.725   6.242   2.489
  894SOL     OW 3580   0.789   4.413   1.196
  894SOL    HW1 3581   0.840   4.486   1.150
  894SOL    HW2 3582   0.798   4.424   1.295
  895SOL     OW 3583   0.434   5.711   4.230
  895SOL    HW1 3584   0.428   5.797   4.180
  895SOL    HW2 3585   0.423   5.728   4.328
  896SOL     OW 3586   0.229   0.382   6.520
  896SOL    HW1 3587   0.200   0.288   6.505
  896SOL    HW2 3588   0.300   0.384   6.590
  897SOL     OW 3589   5.052   0.649   6.948
  897SOL    HW1 3590   5.056   0.550   6.959
  897SOL    HW2 3591   4.966   0.675   6.904
  898SOL     OW 3592   4.378   6.571   3.311
  898SOL    HW1 3593   4.458   6.518   3.338
  898SOL    HW2 3594   4.308   6.564   3.382
  899SOL     OW 3595   6.982   4.849   0.227
  899SOL    HW1 3596   6.917   4.925   0.231
  899SOL    HW2 3597   6.941   4.774   0.174
  900SOL     OW 3598   5.320   5.275   0.884
  900SOL    HW1 3599   5.375   5.192   0.874
  900SOL    HW2 3600   5.351   5.344   0.818
  901SOL     OW 3601   1.478   0.815   2.423
  901SOL    HW1 3602   1.571   0.795   2.394
  901SOL    HW2 3603   1.418   0.739   2.400
  902SOL     OW 3604   6.081   3.468   1.851
  902SOL    HW1 3605   5.993   3.420   1.856
  902SOL    HW2 3606   6.107   3.499   1.943
  903SOL     OW 3607   0.219   2.375   0.714
  903SOL    HW1 3608   0.196   2.278   0.716
  903SOL    HW2 3609   0.246   2.400   0.621
  904SOL     OW 3610   3.065   1.395   1.892
  904SOL    HW1 3611   3.161   1.399   1.920
  904SOL    HW2 3612   3.055   1.440   1.803
  905SOL     OW 3613   6.052   2.894   6.518
  905SOL    HW1 3614   6.152   2.894   6.524
  905SOL    HW2 3615   6.024   2.871   6.425
  906SOL     OW 3616   5.861   3.312   6.209
  906SOL    HW1 3617   5.781   3.255   6.190
  906SOL    HW2 3618   5.936   3.255   6.242
  907SOL     OW 3619   5.128   3.762   6.697
  907SOL    HW1 3620   5.178   3.716   6.770
  907SOL    HW2 3621   5.146   3.716   6.610
  908SOL     OW 3622   1.293   4.521   2.696
  908SOL    HW1 3623   1.309   4.431   2.736
  908SOL    HW2 3624   1.285   4.512   2.597
  909SOL     OW 3625   5.408   5.201   6.212
  909SOL    HW1 3626   5.421   5.228   6.117
  909SOL    HW2 3627   5.414   5.281   6.272
  910SOL     OW 3628   2.710   4.586   0.978
  910SOL    HW1 3629   2.679   4.541   0.895
  910SOL    HW2 3630   2.804   4.558   0.998
  911SOL     OW 3631   0.933   5.286   6.265
  911SOL    HW1 3632   0.853   5.287   6.325
  911SOL    HW2 3633   1.004   5.345   6.302
  912SOL     OW 3634   5.042   1.887   3.766
  912SOL    HW1 3635   5.052   1.846   3.675
  912SOL    HW2 3636   4.979   1.831   3.821
  913SOL     OW 3637   5.542   6.561   2.701
  913SOL    HW1 3638   5.500   6.473   2.681
  913SOL    HW2 3639   5.514   6.592   2.792
  914SOL     OW 3640   3.050   0.265   6.603
  914SOL    HW1 3641   3.104   0.266   6.519
  914SOL    HW2 3642   3.111   0.273   6.682
  915SOL     OW 3643   5.089   5.622   0.902
  915SOL    HW1 3644   5.160   5.656   0.841
  915SOL    HW2 3645   5.000   5.654   0.871
  916SOL     OW 3646   1.904   2.338   2.659
  916SOL    HW1 3647   1.919   2.428   2.701
  916SOL    HW2 3648   1.950   2.335   2.571
  917SOL     OW 3649   6.880   6.231   0.948
  917SOL    HW1 3650   6.854   6.298   1.018
  917SOL    HW2 3651   6.967   6.188   0.974
  918SOL     OW 3652   2.531   5.536   0.330
  918SOL    HW1 3653   2.603   5.601   0.354
  918SOL    HW2 3654   2.572   5.456   0.287
  919SOL     OW 3655   6.062   1.949   4.950
  919SOL    HW1 3656   6.035   2.011   4.877
  919SOL    HW2 3657   5.987   1.939   5.015
  920SOL     OW 3658   3.064   5.077   2.628
  920SOL    HW1 3659   3.067   5.105   2.532
  920SOL    HW2 3660   3.089   4.980   2.635
  921SOL     OW 3661   4.551   5.302   5.269
  921SOL    HW1 3662   4.527   5.279   5.175
  921SOL    HW2 3663   4.612   5.381   5.270
  922SOL     OW 3664   3.955   3.096   3.669
  922SOL    HW1 3665   4.000   3.182   3.696
  922SOL    HW2 3666   3.990   3.067   3.580
  923SOL     OW 3667   2.301   3.473   5.393
  923SOL    HW1 3668   2.374   3.540   5.405
  923SOL    HW2 3669   2.341   3.386   5.363
  924SOL     OW 3670   6.829   3.517   2.219
  924SOL    HW1 3671   6.810   3.500   2.122
  924SOL    HW2 3672   6.900   3.453   2.251
  925SOL     OW 3673   0.246   1.513   0.433
  925SOL    HW1 3674   0.160   1.467   0.456
  925SOL    HW2 3675   0.238   1.553   0.341
  926SOL     OW 3676   1.904   1.726   2.179
  926SOL    HW1 3677   1.853   1.807   2.150
  926SOL    HW2 3678   1.843   1.647   2.180
  927SOL     OW 3679   6.364   3.463   4.379
  927SOL    HW1 3680   6.337   3.406   4.456
  927SOL    HW2 3681   6.314   3.550   4.381
  928SOL     OW 3682   3.846   4.473   6.273
  928SOL    HW1 3683   3.851   4.409   6.197
  928SOL    HW2 3684   3.754   4.471   6.312
  929SOL     OW 3685   0.373   1.552   4.948
  929SOL    HW1 3686   0.373   1.526   5.044
  929SOL    HW2 3687   0.281   1.582   4.921
  930SOL     OW 3688   5.066   5.105   5.489
  930SOL    HW1 3689   4.976   5.071   5.515
  930SOL    HW2 3690   5.060   5.201   5.461
  931SOL     OW 3691   6.664   1.671   2.899
  931SOL    HW1 3692   6.569   1.662   2.868
  931SOL    HW2 3693   6.665   1.704   2.993
  932SOL     OW 3694   3.839   0.557   3.568
  932SOL    HW1 3695   3.914   0.490   3.564
  932SOL    HW2 3696   3.783   0.548   3.485
  933SOL     OW 3697   1.375   5.564   2.134
  933SOL    HW1 3698   1.348   5.522   2.221
  933SOL    HW2 3699   1.395   5.661   2.147
  934SOL     OW 3700   1.829   3.887   0.045
  934SOL    HW1 3701   1.758   3.847   0.104
  934SOL    HW2 3702   1.842   3.828   6.987
  935SOL     OW 3703   6.157   2.782   4.513
  935SOL    HW1 3704   6.089   2.837   4.464
  935SOL    HW2 3705   6.178   2.826   4.601
  936SOL     OW 3706   1.560   0.008   6.071
  936SOL    HW1 3707   1.565   0.108   6.062
  936SOL    HW2 3708   1.465   7.002   6.077
  937SOL     OW 3709   3.576   2.173   6.020
  937SOL    HW1 3710   3.564   2.180   6.119
  937SOL    HW2 3711   3.651   2.232   5.992
  938SOL     OW 3712   5.984   5.566   4.425
  938SOL    HW1 3713   5.940   5.641   4.475
  938SOL    HW2 3714   6.080   5.560   4.451
  939SOL     OW 3715   0.421   6.455   6.075
  939SOL    HW1 3716   0.463   6.532   6.027
  939SOL    HW2 3717   0.361   6.490   6.147
  940SOL     OW 3718   2.314   4.919   0.077
  940SOL    HW1 3719   2.346   4.824   0.083
  940SOL    HW2 3720   2.284   4.939   7.007
  941SOL     OW 3721   3.491   7.022   0.347
  941SOL    HW1 3722   3.541   0.074   0.301
  941SOL    HW2 3723   3.455   0.033   0.434
  942SOL     OW 3724   0.071   5.427   0.620
  942SOL    HW1 3725   0.086   5.386   0.710
  942SOL    HW2 3726   0.047   5.355   0.555
  943SOL     OW 3727   3.183   5.971   1.747
  943SOL    HW1 3728   3.150   5.877   1.742
  943SOL    HW2 3729   3.214   6.001   1.657
  944SOL     OW 3730   5.952   6.752   4.279
  944SOL    HW1 3731   5.915   6.762   4.187
  944SOL    HW2 3732   5.939   6.838   4.329
  945SOL     OW 3733   0.894   4.913   0.107
  945SOL    HW1 3734   0.891   5.010   0.083
  945SOL    HW2 3735   0.876   4.857   0.025
  946SOL     OW 3736   5.327   2.046   4.688
  946SOL    HW1 3737   5.365   1.964   4.730
  946SOL    HW2 3738   5.358   2.053   4.593
  947SOL     OW 3739   3.732   4.048   4.131
  947SOL    HW1 3740   3.694   4.093   4.212
  947SOL    HW2 3741   3.702   4.097   4.049
  948SOL     OW 3742   3.755   0.471   2.947
  948SOL    HW1 3743   3.790   0.466   2.853
  948SOL    HW2 3744   3.792   0.552   2.992
  949SOL     OW 3745   3.735   0.041   5.910
  949SOL    HW1 3746   3.784   7.011   5.978
  949SOL    HW2 3747   3.638   0.045   5.934
  950SOL     OW 3748   6.777   0.136   2.123
  950SOL    HW1 3749   6.825   0.182   2.197
  950SOL    HW2 3750   6.684   0.173   2.115
  951SOL     OW 3751   1.711   6.981   3.098
  951SOL    HW1 3752   1.676   6.910   3.037
  951SOL    HW2 3753   1.792   6.948   3.146
  952SOL     OW 3754   3.184   0.833   3.000
  952SOL    HW1 3755   3.191   0.929   3.028
  952SOL    HW2 3756   3.255   0.812   2.934
  953SOL     OW 3757   7.009   4.539   5.492
  953SOL    HW1 3758   0.054   4.612   5.484
  953SOL    HW2 3759   6.983   4.508   5.401
  954SOL     OW 3760   4.763   6.066   2.336
  954SOL    HW1 3761   4.731   6.161   2.341
  954SOL    HW2 3762   4.728   6.023   2.253
  955SOL     OW 3763   2.198   4.671   0.602
  955SOL    HW1 3764   2.104   4.638   0.595
  955SOL    HW2 3765   2.199   4.758   0.651
  956SOL     OW 3766   4.601   0.576   0.967
  956SOL    HW1 3767   4.626   0.486   0.933
  956SOL    HW2 3768   4.672   0.642   0.942
  957SOL     OW 3769   5.989   1.084   3.115
  957SOL    HW1 3770   5.971   1.024   3.037
  957SOL    HW2 3771   5.904   1.095   3.168
  958SOL     OW 3772   5.391   6.987   1.399
  958SOL    HW1 3773   5.365   0.008   1.485
  958SOL    HW2 3774   5.315   6.994   1.334
  959SOL     OW 3775   4.570   6.883   3.497
  959SOL    HW1 3776   4.642   6.882   3.428
  959SOL    HW2 3777   4.609   6.864   3.587
  960SOL     OW 3778   1.725   6.308   6.390
  960SOL    HW1 3779   1.821   6.283   6.398
  960SOL    HW2 3780   1.711   6.401   6.423
  961SOL     OW 3781   3.497   0.134   3.060
  961SOL    HW1 3782   3.485   0.233   3.058
  961SOL    HW2 3783   3.447   0.092   2.984
  962SOL     OW 3784   6.730   0.919   4.556
  962SOL    HW1 3785   6.750   1.010   4.594
  962SOL    HW2 3786   6.658   0.927   4.487
  963SOL     OW 3787   5.574   2.660   1.065
  963SOL    HW1 3788   5.492   2.639   1.118
  963SOL    HW2 3789   5.552   2.662   0.968
  964SOL     OW 3790   4.310   5.305   4.934
  964SOL    HW1 3791   4.345   5.392   4.899
  964SOL    HW2 3792   4.258   5.259   4.863
  965SOL     OW 3793   5.923   2.203   3.250
  965SOL    HW1 3794   5.879   2.221   3.338
  965SOL    HW2 3795   5.935   2.104   3.239
  966SOL     OW 3796   4.461   1.154   4.040
  966SOL    HW1 3797   4.560   1.136   4.042
  966SOL    HW2 3798   4.439   1.209   3.959
  967SOL     OW 3799   4.339   4.058   6.527
  967SOL    HW1 3800   4.428   4.080   6.486
  967SOL    HW2 3801   4.324   3.959   6.523
  968SOL     OW 3802   3.995   0.793   1.526
  968SOL    HW1 3803   3.928   0.734   1.571
  968SOL    HW2 3804   3.950   0.845   1.453
  969SOL     OW 3805   3.188   4.465   6.233
  969SOL    HW1 3806   3.142   4.467   6.144
  969SOL    HW2 3807   3.164   4.547   6.285
  970SOL     OW 3808   5.228   0.189   5.980
  970SOL    HW1 3809   5.212   0.169   6.077
  970SOL    HW2 3810   5.308   0.139   5.949
  971SOL     OW 3811   5.682   3.542   3.946
  971SOL    HW1 3812   5.633   3.473   3.892
  971SOL    HW2 3813   5.775   3.550   3.912
  972SOL     OW 3814   7.005   2.656   0.051
  972SOL    HW1 3815   0.067   2.621   0.008
  972SOL    HW2 3816   6.979   2.742   0.008
  973SOL     OW 3817   0.293   3.428   5.719
  973SOL    HW1 3818   0.245   3.346   5.751
  973SOL    HW2 3819   0.268   3.447   5.624
  974SOL     OW 3820   0.182   4.682   2.466
  974SOL    HW1 3821   0.205   4.778   2.453
  974SOL    HW2 3822   0.115   4.655   2.396
  975SOL     OW 3823   3.186   0.491   2.021
  975SOL    HW1 3824   3.161   0.526   1.931
  975SOL    HW2 3825   3.199   0.568   2.084
  976SOL     OW 3826   6.999   3.505   3.566
  976SOL    HW1 3827   6.915   3.535   3.611
  976SOL    HW2 3828   6.976   3.441   3.492
  977SOL     OW 3829   6.337   0.867   2.215
  977SOL    HW1 3830   6.405   0.794   2.225
  977SOL    HW2 3831   6.315   0.878   2.119
  978SOL     OW 3832   5.441   2.759   1.862
  978SOL    HW1 3833   5.350   2.717   1.868
  978SOL    HW2 3834   5.431   2.855   1.836
  979SOL     OW 3835   0.309   4.404   0.002
  979SOL    HW1 3836   0.362   4.442   0.078
  979SOL    HW2 3837   0.319   4.463   6.944
  980SOL     OW 3838   3.603   0.904   4.803
  980SOL    HW1 3839   3.576   0.982   4.860
  980SOL    HW2 3840   3.598   0.931   4.707
  981SOL     OW 3841   0.317   6.827   5.605
  981SOL    HW1 3842   0.353   6.734   5.595
  981SOL    HW2 3843   0.220   6.823   5.627
  982SOL     OW 3844   6.434   1.411   6.202
  982SOL    HW1 3845   6.524   1.368   6.199
  982SOL    HW2 3846   6.364   1.341   6.189
  983SOL     OW 3847   0.331   4.560   3.649
  983SOL    HW1 3848   0.303   4.620   3.724
  983SOL    HW2 3849   0.431   4.558   3.643
  984SOL     OW 3850   0.711   3.525   3.504
  984SOL    HW1 3851   0.637   3.510   3.569
  984SOL    HW2 3852   0.681   3.587   3.432
  985SOL     OW 3853   6.545   5.238   5.055
  985SOL    HW1 3854   6.562   5.179   5.135
  985SOL    HW2 3855   6.502   5.323   5.085
  986SOL     OW 3856   4.673   5.282   1.626
  986SOL    HW1 3857   4.643   5.321   1.538
  986SOL    HW2 3858   4.596   5.236   1.669
  987SOL     OW 3859   4.749   4.097   4.381
  987SOL    HW1 3860   4.767   4.010   4.429
  987SOL    HW2 3861   4.748   4.081   4.283
  988SOL     OW 3862   2.599   4.688   2.240
  988SOL    HW1 3863   2.644   4.671   2.328
  988SOL    HW2 3864   2.654   4.651   2.166
  989SOL     OW 3865   1.639   2.333   0.794
  989SOL    HW1 3866   1.577   2.399   0.836
  989SOL    HW2 3867   1.624   2.243   0.834
  990SOL     OW 3868   3.519   0.039   4.634
  990SOL    HW1 3869   3.583   0.007   4.704
  990SOL    HW2 3870   3.436   0.074   4.678
  991SOL     OW 3871   7.013   5.484   4.183
  991SOL    HW1 3872   6.997   5.583   4.180
  991SOL    HW2 3873   0.043   5.461   4.265
  992SOL     OW 3874   0.241   2.268   0.110
  992SOL    HW1 3875   0.202   2.178   0.089
  992SOL    HW2 3876   0.339   2.258   0.127
  993SOL     OW 3877   1.198   5.001   0.122
  993SOL    HW1 3878   1.106   5.025   0.156
  993SOL    HW2 3879   1.232   4.921   0.171
  994SOL     OW 3880   3.361   6.227   0.178
  994SOL    HW1 3881   3.413   6.179   0.249
  994SOL    HW2 3882   3.425   6.274   0.117
  995SOL     OW 3883   6.575   4.328   5.945
  995SOL    HW1 3884   6.554   4.351   5.850
  995SOL    HW2 3885   6.520   4.251   5.974
  996SOL     OW 3886   4.101   6.031   3.894
  996SOL    HW1 3887   4.042   6.079   3.959
  996SOL    HW2 3888   4.191   6.016   3.935
  997SOL     OW 3889   1.536   6.525   3.849
  997SOL    HW1 3890   1.495   6.524   3.757
  997SOL    HW2 3891   1.603   6.599   3.855
  998SOL     OW 3892   4.696   6.988   6.328
  998SOL    HW1 3893   4.597   6.994   6.343
  998SOL    HW2 3894   4.718   6.900   6.285
  999SOL     OW 3895   4.886   3.242   2.381
  999SOL    HW1 3896   4.790   3.214   2.377
  999SOL    HW2 3897   4.939   3.186   2.318
 1000SOL     OW 3898   5.227   2.341   1.787
 1000SOL    HW1 3899   5.185   2.251   1.774
 1000SOL    HW2 3900   5.323   2.338   1.760
 1001SOL     OW 3901   2.794   6.749   2.188
 1001SOL    HW1 3902   2.849   6.827   2.217
 1001SOL    HW2 3903   2.854   6.674   2.160
 1002SOL     OW 3904   4.796   2.377   1.285
 1002SOL    HW1 3905   4.808   2.281   1.311
 1002SOL    HW2 3906   4.809   2.436   1.364
 1003SOL     OW 3907   0.875   0.202   3.279
 1003SOL    HW1 3908   0.809   0.132   3.306
 1003SOL    HW2 3909   0.968   0.164   3.287
 1004SOL     OW 3910   5.341   1.505   4.082
 1004SOL    HW1 3911   5.243   1.521   4.099
 1004SOL    HW2 3912   5.384   1.473   4.166
 1005SOL     OW 3913   1.366   4.913   1.997
 1005SOL    HW1 3914   1.356   4.828   1.945
 1005SOL    HW2 3915   1.283   4.930   2.050
 1006SOL     OW 3916   2.509   3.944   1.506
 1006SOL    HW1 3917   2.421   3.941   1.553
 1006SOL    HW2 3918   2.556   3.856   1.519
 1007SOL     OW 3919   4.803   0.868   6.576
 1007SOL    HW1 3920   4.801   0.968   6.582
 1007SOL    HW2 3921   4.810   0.841   6.480
 1008SOL     OW 3922   0.797   4.918   5.304
 1008SOL    HW1 3923   0.813   4.918   5.205
 1008SOL    HW2 3924   0.704   4.888   5.323
 1009SOL     OW 3925   6.829   5.810   5.784
 1009SOL    HW1 3926   6.800   5.803   5.880
 1009SOL    HW2 3927   6.899   5.741   5.765
 1010SOL     OW 3928   3.051   3.458   0.496
 1010SOL    HW1 3929   3.086   3.377   0.448
 1010SOL    HW2 3930   2.990   3.509   0.434
 1011SOL     OW 3931   6.939   5.881   2.913
 1011SOL    HW1 3932   6.887   5.808   2.868
 1011SOL    HW2 3933   6.930   5.965   2.860
 1012SOL     OW 3934   5.379   6.260   3.402
 1012SOL    HW1 3935   5.372   6.232   3.306
 1012SOL    HW2 3936   5.475   6.258   3.430
 1013SOL     OW 3937   6.893   6.997   6.547
 1013SOL    HW1 3938   6.975   6.942   6.534
 1013SOL    HW2 3939   6.832   6.950   6.612
 1014SOL     OW 3940   1.029   4.437   5.198
 1014SOL    HW1 3941   1.090   4.516   5.204
 1014SOL    HW2 3942   0.954   4.457   5.136
 1015SOL     OW 3943   2.312   6.318   0.168
 1015SOL    HW1 3944   2.248   6.282   0.235
 1015SOL    HW2 3945   2.346   6.407   0.198
 1016SOL     OW 3946   6.493   3.896   1.150
 1016SOL    HW1 3947   6.464   3.845   1.069
 1016SOL    HW2 3948   6.558   3.840   1.202
 1017SOL     OW 3949   2.264   1.732   1.954
 1017SOL    HW1 3950   2.230   1.697   1.866
 1017SOL    HW2 3951   2.239   1.669   2.027
 1018SOL     OW 3952   6.454   6.453   4.901
 1018SOL    HW1 3953   6.433   6.401   4.817
 1018SOL    HW2 3954   6.495   6.392   4.968
 1019SOL     OW 3955   6.567   3.845   0.873
 1019SOL    HW1 3956   6.613   3.925   0.912
 1019SOL    HW2 3957   6.634   3.773   0.856
 1020SOL     OW 3958   5.291   1.284   0.614
 1020SOL    HW1 3959   5.276   1.323   0.705
 1020SOL    HW2 3960   5.291   1.358   0.546
 1021SOL     OW 3961   1.236   6.477   0.944
 1021SOL    HW1 3962   1.232   6.417   1.024
 1021SOL    HW2 3963   1.273   6.566   0.972
 1022SOL     OW 3964   2.687   5.951   6.423
 1022SOL    HW1 3965   2.681   5.981   6.518
 1022SOL    HW2 3966   2.751   5.874   6.417
 1023SOL     OW 3967   0.449   1.158   3.011
 1023SOL    HW1 3968   0.535   1.201   3.037
 1023SOL    HW2 3969   0.424   1.089   3.080
 1024SOL     OW 3970   1.786   1.747   4.185
 1024SOL    HW1 3971   1.829   1.833   4.213
 1024SOL    HW2 3972   1.687   1.753   4.200
 1025SOL     OW 3973   4.781   4.225   0.421
 1025SOL    HW1 3974   4.837   4.177   0.353
 1025SOL    HW2 3975   4.823   4.215   0.511
 1026SOL     OW 3976   2.904   2.789   1.573
 1026SOL    HW1 3977   2.968   2.827   1.641
 1026SOL    HW2 3978   2.956   2.751   1.497
 1027SOL     OW 3979   0.541   6.689   0.244
 1027SOL    HW1 3980   0.487   6.618   0.289
 1027SOL    HW2 3981   0.625   6.706   0.295
 1028SOL     OW 3982   1.411   6.060   2.846
 1028SOL    HW1 3983   1.375   5.967   2.838
 1028SOL    HW2 3984   1.410   6.088   2.942
 1029SOL     OW 3985   1.026   1.083   5.571
 1029SOL    HW1 3986   0.932   1.097   5.538
 1029SOL    HW2 3987   1.044   0.986   5.580
 1030SOL     OW 3988   3.635   3.366   0.919
 1030SOL    HW1 3989   3.647   3.450   0.971
 1030SOL    HW2 3990   3.684   3.373   0.832
 1031SOL     OW 3991   3.636   3.222   1.138
 1031SOL    HW1 3992   3.594   3.139   1.175
 1031SOL    HW2 3993   3.623   3.225   1.039
 1032SOL     OW 3994   1.890   1.559   6.996
 1032SOL    HW1 3995   1.939   1.484   6.952
 1032SOL    HW2 3996   1.824   1.522   0.038
 1033SOL     OW 3997   0.442   6.746   2.692
 1033SOL    HW1 3998   0.456   6.839   2.658
 1033SOL    HW2 3999   0.505   6.684   2.645
 1034SOL     OW 4000   3.156   0.560   4.839
 1034SOL    HW1 4001   3.077   0.603   4.883
 1034SOL    HW2 4002   3.178   0.609   4.755
 1035SOL     OW 4003   1.583   1.323   0.018
 1035SOL    HW1 4004   1.487   1.344   0.038
 1035SOL    HW2 4005   1.592   1.298   6.944
 1036SOL     OW 4006   4.804   1.031   1.371
 1036SOL    HW1 4007   4.895   0.994   1.350
 1036SOL    HW2 4008   4.753   1.043   1.287
 1037SOL     OW 4009   1.699   3.155   1.757
 1037SOL    HW1 4010   1.750   3.238   1.735
 1037SOL    HW2 4011   1.644   3.128   1.677
 1038SOL     OW 4012   2.422   5.868   6.972
 1038SOL    HW1 4013   2.511   5.824   6.958
 1038SOL    HW2 4014   2.419   5.908   0.041
 1039SOL     OW 4015   3.633   3.452   2.813
 1039SOL    HW1 4016   3.696   3.412   2.880
 1039SOL    HW2 4017   3.611   3.384   2.744
 1040SOL     OW 4018   3.494   2.054   3.411
 1040SOL    HW1 4019   3.550   2.079   3.332
 1040SOL    HW2 4020   3.519   2.113   3.488
 1041SOL     OW 4021   6.108   5.432   6.678
 1041SOL    HW1 4022   6.149   5.408   6.590
 1041SOL    HW2 4023   6.058   5.354   6.713
 1042SOL     OW 4024   5.225   4.349   3.143
 1042SOL    HW1 4025   5.261   4.274   3.088
 1042SOL    HW2 4026   5.287   4.368   3.219
 1043SOL     OW 4027   2.676   2.333   3.665
 1043SOL    HW1 4028   2.651   2.357   3.759
 1043SOL    HW2 4029   2.736   2.253   3.665
 1044SOL     OW 4030   6.150   4.840   1.607
 1044SOL    HW1 4031   6.083   4.778   1.567
 1044SOL    HW2 4032   6.122   4.866   1.699
 1045SOL     OW 4033   2.124   0.607   1.834
 1045SOL    HW1 4034   2.102   0.556   1.918
 1045SOL    HW2 4035   2.116   0.546   1.755
 1046SOL     OW 4036   3.210   1.871   1.445
 1046SOL    HW1 4037   3.169   1.895   1.533
 1046SOL    HW2 4038   3.151   1.903   1.371
 1047SOL     OW 4039   3.459   6.656   3.395
 1047SOL    HW1 4040   3.430   6.747   3.425
 1047SOL    HW2 4041   3.447   6.591   3.470
 1048SOL     OW 4042   1.040   6.401   2.438
 1048SOL    HW1 4043   1.036   6.461   2.359
 1048SOL    HW2 4044   1.024   6.307   2.409
 1049SOL     OW 4045   4.412   6.152   5.160
 1049SOL    HW1 4046   4.357   6.122   5.238
 1049SOL    HW2 4047   4.389   6.246   5.137
 1050SOL     OW 4048   2.866   6.432   3.909
 1050SOL    HW1 4049   2.800   6.439   3.834
 1050SOL    HW2 4050   2.948   6.484   3.886
 1051SOL     OW 4051   1.186   0.819   5.887
 1051SOL    HW1 4052   1.218   0.894   5.946
 1051SOL    HW2 4053   1.218   0.836   5.793
 1052SOL     OW 4054   3.383   0.962   0.017
 1052SOL    HW1 4055   3.311   1.017   0.062
 1052SOL    HW2 4056   3.381   0.869   0.053
 1053SOL     OW 4057   5.009   1.707   4.343
 1053SOL    HW1 4058   4.967   1.647   4.412
 1053SOL    HW2 4059   4.992   1.802   4.366
 1054SOL     OW 4060   3.860   5.222   6.236
 1054SOL    HW1 4061   3.875   5.181   6.146
 1054SOL    HW2 4062   3.889   5.317   6.234
 1055SOL     OW 4063   4.511   5.750   6.526
 1055SOL    HW1 4064   4.469   5.803   6.453
 1055SOL    HW2 4065   4.502   5.652   6.506
 1056SOL     OW 4066   3.004   3.860   0.242
 1056SOL    HW1 4067   3.046   3.878   0.332
 1056SOL    HW2 4068   2.961   3.944   0.209
 1057SOL     OW 4069   2.850   2.749   0.406
 1057SOL    HW1 4070   2.840   2.666   0.461
 1057SOL    HW2 4071   2.817   2.733   0.313
 1058SOL     OW 4072   2.829   2.178   2.257
 1058SOL    HW1 4073   2.798   2.085   2.237
 1058SOL    HW2 4074   2.856   2.223   2.172
 1059SOL     OW 4075   2.439   6.419   1.720
 1059SOL    HW1 4076   2.391   6.365   1.789
 1059SOL    HW2 4077   2.492   6.491   1.765
 1060SOL     OW 4078   6.241   0.479   5.868
 1060SOL    HW1 4079   6.232   0.560   5.926
 1060SOL    HW2 4080   6.154   0.459   5.824
 1061SOL     OW 4081   6.954   3.668   6.212
 1061SOL    HW1 4082   6.995   3.578   6.224
 1061SOL    HW2 4083   7.002   3.717   6.139
 1062SOL     OW 4084   3.539   6.149   4.457
 1062SOL    HW1 4085   3.486   6.231   4.431
 1062SOL    HW2 4086   3.626   6.177   4.497
 1063SOL     OW 4087   3.640   6.462   5.122
 1063SOL    HW1 4088   3.581   6.397   5.170
 1063SOL    HW2 4089   3.642   6.548   5.172
 1064SOL     OW 4090   1.817   3.529   0.231
 1064SOL    HW1 4091   1.754   3.607   0.233
 1064SOL    HW2 4092   1.882   3.541   0.155
 1065SOL     OW 4093   5.541   0.690   4.488
 1065SOL    HW1 4094   5.481   0.766   4.511
 1065SOL    HW2 4095   5.535   0.620   4.560
 1066SOL     OW 4096   5.312   6.629   1.149
 1066SOL    HW1 4097   5.324   6.622   1.050
 1066SOL    HW2 4098   5.318   6.538   1.190
 1067SOL     OW 4099   2.768   1.601   0.399
 1067SOL    HW1 4100   2.783   1.671   0.329
 1067SOL    HW2 4101   2.710   1.529   0.362
 1068SOL     OW 4102   6.869   2.900   1.382
 1068SOL    HW1 4103   6.867   2.842   1.301
 1068SOL    HW2 4104   6.895   2.845   1.462
 1069SOL     OW 4105   6.126   3.348   2.250
 1069SOL    HW1 4106   6.163   3.418   2.190
 1069SOL    HW2 4107   6.189   3.270   2.254
 1070SOL     OW 4108   0.980   0.049   2.252
 1070SOL    HW1 4109   1.004   6.975   2.245
 1070SOL    HW2 4110   0.881   0.058   2.260
 1071SOL     OW 4111   0.580   2.989   5.812
 1071SOL    HW1 4112   0.517   2.921   5.775
 1071SOL    HW2 4113   0.560   3.003   5.909
 1072SOL     OW 4114   1.526   1.710   2.287
 1072SOL    HW1 4115   1.462   1.715   2.211
 1072SOL    HW2 4116   1.595   1.640   2.269
 1073SOL     OW 4117   4.961   2.375   3.082
 1073SOL    HW1 4118   4.980   2.428   3.164
 1073SOL    HW2 4119   4.870   2.398   3.048
 1074SOL     OW 4120   2.802   4.848   1.526
 1074SOL    HW1 4121   2.880   4.836   1.586
 1074SOL    HW2 4122   2.720   4.809   1.569
 1075SOL     OW 4123   6.241   4.322   5.818
 1075SOL    HW1 4124   6.335   4.298   5.792
 1075SOL    HW2 4125   6.237   4.337   5.916
 1076SOL     OW 4126   1.694   4.591   4.984
 1076SOL    HW1 4127   1.602   4.631   4.983
 1076SOL    HW2 4128   1.687   4.491   4.987
 1077SOL     OW 4129   6.805   6.751   0.220
 1077SOL    HW1 4130   6.711   6.756   0.187
 1077SOL    HW2 4131   6.825   6.832   0.275
 1078SOL     OW 4132   6.497   7.001   4.886
 1078SOL    HW1 4133   6.593   6.975   4.878
 1078SOL    HW2 4134   6.455   7.003   4.796
 1079SOL     OW 4135   1.244   6.868   1.704
 1079SOL    HW1 4136   1.186   6.875   1.624
 1079SOL    HW2 4137   1.232   6.779   1.748
 1080SOL     OW 4138   3.576   6.267   6.556
 1080SOL    HW1 4139   3.572   6.367   6.564
 1080SOL    HW2 4140   3.570   6.227   6.648
 1081SOL     OW 4141   6.502   6.740   4.387
 1081SOL    HW1 4142   6.510   6.662   4.449
 1081SOL    HW2 4143   6.406   6.764   4.375
 1082SOL     OW 4144   4.209   6.818   6.916
 1082SOL    HW1 4145   4.258   6.877   6.980
 1082SOL    HW2 4146   4.116   6.853   6.903
 1083SOL     OW 4147   5.361   4.668   2.168
 1083SOL    HW1 4148   5.426   4.736   2.134
 1083SOL    HW2 4149   5.375   4.581   2.121
 1084SOL     OW 4150   6.378   0.554   5.365
 1084SOL    HW1 4151   6.368   0.591   5.273
 1084SOL    HW2 4152   6.440   0.611   5.418
 1085SOL     OW 4153   2.163   3.870   4.756
 1085SOL    HW1 4154   2.218   3.900   4.678
 1085SOL    HW2 4155   2.143   3.949   4.814
 1086SOL     OW 4156   5.876   5.449   0.820
 1086SOL    HW1 4157   5.854   5.390   0.898
 1086SOL    HW2 4158   5.929   5.528   0.851
 1087SOL     OW 4159   3.759   0.284   5.784
 1087SOL    HW1 4160   3.772   0.200   5.836
 1087SOL    HW2 4161   3.801   0.273   5.693
 1088SOL     OW 4162   6.493   5.152   3.292
 1088SOL    HW1 4163   6.499   5.242   3.335
 1088SOL    HW2 4164   6.423   5.154   3.221
 1089SOL     OW 4165   6.130   4.783   4.165
 1089SOL    HW1 4166   6.215   4.834   4.148
 1089SOL    HW2 4167   6.091   4.812   4.252
 1090SOL     OW 4168   5.082   2.117   5.464
 1090SOL    HW1 4169   5.094   2.057   5.543
 1090SOL    HW2 4170   5.073   2.061   5.381
 1091SOL     OW 4171   2.373   2.370   3.135
 1091SOL    HW1 4172   2.323   2.430   3.197
 1091SOL    HW2 4173   2.337   2.277   3.142
 1092SOL     OW 4174   6.909   5.632   0.663
 1092SOL    HW1 4175   6.828   5.619   0.605
 1092SOL    HW2 4176   6.976   5.561   0.642
 1093SOL     OW 4177   1.490   0.658   2.863
 1093SOL    HW1 4178   1.494   0.595   2.941
 1093SOL    HW2 4179   1.397   0.660   2.827
 1094SOL     OW 4180   0.290   0.482   3.286
 1094SOL    HW1 4181   0.358   0.410   3.301
 1094SOL    HW2 4182   0.204   0.456   3.330
 1095SOL     OW 4183   5.191   3.116   0.804
 1095SOL    HW1 4184   5.180   3.022   0.837
 1095SOL    HW2 4185   5.205   3.115   0.705
 1096SOL     OW 4186   2.280   6.044   1.897
 1096SOL    HW1 4187   2.210   6.000   1.841
 1096SOL    HW2 4188   2.274   6.143   1.886
 1097SOL     OW 4189   2.744   6.025   4.679
 1097SOL    HW1 4190   2.651   6.034   4.717
 1097SOL    HW2 4191   2.796   6.108   4.699
 1098SOL     OW 4192   6.105   4.147   0.396
 1098SOL    HW1 4193   6.201   4.129   0.376
 1098SOL    HW2 4194   6.091   4.149   0.495
 1099SOL     OW 4195   4.795   6.931   5.942
 1099SOL    HW1 4196   4.751   6.864   6.003
 1099SOL    HW2 4197   4.826   7.009   5.996
 1100SOL     OW 4198   4.025   1.735   4.476
 1100SOL    HW1 4199   3.971   1.713   4.557
 1100SOL    HW2 4200   3.971   1.716   4.394
 1101SOL     OW 4201   5.092   3.296   6.101
 1101SOL    HW1 4202   5.032   3.291   6.181
 1101SOL    HW2 4203   5.043   3.263   6.021
 1102SOL     OW 4204   2.595   0.559   2.854
 1102SOL    HW1 4205   2.549   0.475   2.883
 1102SOL    HW2 4206   2.569   0.634   2.915
 1103SOL     OW 4207   3.562   6.780   0.461
 1103SOL    HW1 4208   3.525   6.868   0.432
 1103SOL    HW2 4209   3.661   6.782   0.453
 1104SOL     OW 4210   0.666   2.845   3.617
 1104SOL    HW1 4211   0.580   2.794   3.627
 1104SOL    HW2 4212   0.736   2.803   3.674
 1105SOL     OW 4213   5.186   1.263   6.050
 1105SOL    HW1 4214   5.219   1.176   6.013
 1105SOL    HW2 4215   5.192   1.260   6.150
 1106SOL     OW 4216   6.623   1.374   0.661
 1106SOL    HW1 4217   6.666   1.424   0.737
 1106SOL    HW2 4218   6.568   1.299   0.697
 1107SOL     OW 4219   1.019   1.253   6.644
 1107SOL    HW1 4220   0.932   1.207   6.660
 1107SOL    HW2 4221   1.003   1.340   6.596
 1108SOL     OW 4222   2.314   0.314   4.274
 1108SOL    HW1 4223   2.302   0.411   4.255
 1108SOL    HW2 4224   2.291   0.261   4.192
 1109SOL     OW 4225   4.573   2.096   4.966
 1109SOL    HW1 4226   4.592   2.146   4.882
 1109SOL    HW2 4227   4.523   2.012   4.944
 1110SOL     OW 4228   2.583   0.712   2.338
 1110SOL    HW1 4229   2.681   0.690   2.332
 1110SOL    HW2 4230   2.567   0.805   2.306
 1111SOL     OW 4231   5.826   4.110   6.453
 1111SOL    HW1 4232   5.921   4.140   6.463
 1111SOL    HW2 4233   5.818   4.049   6.375
 1112SOL     OW 4234   5.540   0.775   2.159
 1112SOL    HW1 4235   5.514   0.688   2.116
 1112SOL    HW2 4236   5.610   0.759   2.228
 1113SOL     OW 4237   5.882   3.867   2.465
 1113SOL    HW1 4238   5.959   3.827   2.516
 1113SOL    HW2 4239   5.846   3.945   2.515
 1114SOL     OW 4240   3.699   3.761   4.570
 1114SOL    HW1 4241   3.692   3.675   4.621
 1114SOL    HW2 4242   3.783   3.762   4.516
 1115SOL     OW 4243   2.935   4.458   5.670
 1115SOL    HW1 4244   3.022   4.483   5.627
 1115SOL    HW2 4245   2.890   4.541   5.704
 1116SOL     OW 4246   4.552   6.632   6.836
 1116SOL    HW1 4247   4.469   6.593   6.877
 1116SOL    HW2 4248   4.555   6.609   6.739
 1117SOL     OW 4249   2.293   2.589   1.252
 1117SOL    HW1 4250   2.197   2.603   1.273
 1117SOL    HW2 4251   2.347   2.662   1.293
 1118SOL     OW 4252   4.232   6.105   0.100
 1118SOL    HW1 4253   4.326   6.081   0.126
 1118SOL    HW2 4254   4.175   6.023   0.100
 1119SOL     OW 4255   3.260   5.265   3.613
 1119SOL    HW1 4256   3.161   5.266   3.599
 1119SOL    HW2 4257   3.304   5.318   3.541
 1120SOL     OW 4258   6.535   3.555   1.200
 1120SOL    HW1 4259   6.576   3.471   1.163
 1120SOL    HW2 4260   6.592   3.590   1.274
 1121SOL     OW 4261   0.081   4.854   4.464
 1121SOL    HW1 4262   0.127   4.764   4.464
 1121SOL    HW2 4263   7.005   4.841   4.455
 1122SOL     OW 4264   5.488   2.352   2.038
 1122SOL    HW1 4265   5.518   2.408   2.115
 1122SOL    HW2 4266   5.399   2.310   2.060
 1123SOL     OW 4267   4.048   1.034   3.609
 1123SOL    HW1 4268   4.038   0.951   3.555
 1123SOL    HW2 4269   4.029   1.014   3.705
 1124SOL     OW 4270   1.958   2.265   4.518
 1124SOL    HW1 4271   2.019   2.246   4.441
 1124SOL    HW2 4272   1.958   2.188   4.581
 1125SOL     OW 4273   2.156   3.543   3.502
 1125SOL    HW1 4274   2.113   3.569   3.589
 1125SOL    HW2 4275   2.209   3.620   3.468
 1126SOL     OW 4276   3.922   4.890   4.633
 1126SOL    HW1 4277   3.964   4.803   4.659
 1126SOL    HW2 4278   3.967   4.925   4.551
 1127SOL     OW 4279   6.328   6.880   2.222
 1127SOL    HW1 4280   6.371   6.970   2.233
 1127SOL    HW2 4281   6.302   6.845   2.312
 1128SOL     OW 4282   4.889   1.197   4.118
 1128SOL    HW1 4283   4.946   1.138   4.061
 1128SOL    HW2 4284   4.813   1.143   4.156
 1129SOL     OW 4285   1.372   0.870   0.438
 1129SOL    HW1 4286   1.446   0.888   0.503
 1129SOL    HW2 4287   1.319   0.791   0.469
 1130SOL     OW 4288   2.257   4.705   2.009
 1130SOL    HW1 4289   2.345   4.664   2.033
 1130SOL    HW2 4290   2.218   4.657   1.931
 1131SOL     OW 4291   1.519   5.477   4.116
 1131SOL    HW1 4292   1.557   5.568   4.133
 1131SOL    HW2 4293   1.509   5.428   4.202
 1132SOL     OW 4294   2.334   1.301   2.382
 1132SOL    HW1 4295   2.336   1.311   2.481
 1132SOL    HW2 4296   2.394   1.369   2.340
 1133SOL     OW 4297   0.931   0.111   6.298
 1133SOL    HW1 4298   0.866   0.161   6.242
 1133SOL    HW2 4299   1.024   0.138   6.275
 1134SOL     OW 4300   3.545   6.619   1.681
 1134SOL    HW1 4301   3.527   6.545   1.747
 1134SOL    HW2 4302   3.538   6.707   1.727
 1135SOL     OW 4303   1.962   5.819   3.346
 1135SOL    HW1 4304   1.972   5.846   3.442
 1135SOL    HW2 4305   2.052   5.800   3.307
 1136SOL     OW 4306   1.718   4.896   2.224
 1136SOL    HW1 4307   1.776   4.870   2.147
 1136SOL    HW2 4308   1.772   4.948   2.290
 1137SOL     OW 4309   1.001   5.313   5.134
 1137SOL    HW1 4310   0.933   5.266   5.190
 1137SOL    HW2 4311   1.083   5.332   5.188
 1138SOL     OW 4312   2.167   3.401   4.806
 1138SOL    HW1 4313   2.218   3.370   4.886
 1138SOL    HW2 4314   2.109   3.479   4.831
 1139SOL     OW 4315   2.535   5.110   5.288
 1139SOL    HW1 4316   2.612   5.067   5.336
 1139SOL    HW2 4317   2.449   5.079   5.329
 1140SOL     OW 4318   2.313   2.180   1.316
 1140SOL    HW1 4319   2.334   2.266   1.363
 1140SOL    HW2 4320   2.393   2.150   1.265
 1141SOL     OW 4321   6.935   4.793   6.034
 1141SOL    HW1 4322   6.961   4.701   6.004
 1141SOL    HW2 4323   7.017   4.850   6.040
 1142SOL     OW 4324   1.703   6.452   2.187
 1142SOL    HW1 4325   1.686   6.497   2.275
 1142SOL    HW2 4326   1.788   6.487   2.148
 1143SOL     OW 4327   0.832   3.943   1.951
 1143SOL    HW1 4328   0.802   4.018   1.892
 1143SOL    HW2 4329   0.852   3.862   1.895
 1144SOL     OW 4330   5.856   4.556   0.376
 1144SOL    HW1 4331   5.845   4.553   0.475
 1144SOL    HW2 4332   5.791   4.621   0.337
 1145SOL     OW 4333   5.789   6.810   0.659
 1145SOL    HW1 4334   5.814   6.879   0.591
 1145SOL    HW2 4335   5.870   6.787   0.713
 1146SOL     OW 4336   0.954   1.130   1.300
 1146SOL    HW1 4337   0.989   1.037   1.292
 1146SOL    HW2 4338   0.924   1.163   1.210
 1147SOL     OW 4339   2.155   6.352   1.390
 1147SOL    HW1 4340   2.091   6.424   1.416
 1147SOL    HW2 4341   2.161   6.284   1.464
 1148SOL     OW 4342   4.040   6.165   3.351
 1148SOL    HW1 4343   4.132   6.136   3.325
 1148SOL    HW2 4344   4.044   6.257   3.389
 1149SOL     OW 4345   4.589   3.248   1.485
 1149SOL    HW1 4346   4.507   3.192   1.468
 1149SOL    HW2 4347   4.653   3.197   1.541
 1150SOL     OW 4348   1.378   3.545   0.723
 1150SOL    HW1 4349   1.340   3.637   0.715
 1150SOL    HW2 4350   1.466   3.549   0.770
 1151SOL     OW 4351   6.161   5.467   4.143
 1151SOL    HW1 4352   6.199   5.478   4.235
 1151SOL    HW2 4353   6.199   5.538   4.083
 1152SOL     OW 4354   3.485   6.247   6.296
 1152SOL    HW1 4355   3.529   6.252   6.386
 1152SOL    HW2 4356   3.417   6.174   6.296
 1153SOL     OW 4357   6.012   6.946   1.364
 1153SOL    HW1 4358   6.019   0.022   1.348
 1153SOL    HW2 4359   6.067   6.921   1.444
 1154SOL     OW 4360   1.956   2.978   1.041
 1154SOL    HW1 4361   1.881   2.914   1.025
 1154SOL    HW2 4362   2.041   2.926   1.055
 1155SOL     OW 4363   2.857   6.779   4.535
 1155SOL    HW1 4364   2.773   6.728   4.520
 1155SOL    HW2 4365   2.907   6.788   4.449
 1156SOL     OW 4366   2.719   1.868   3.538
 1156SOL    HW1 4367   2.713   1.785   3.594
 1156SOL    HW2 4368   2.734   1.842   3.442
 1157SOL     OW 4369   3.304   0.945   6.597
 1157SOL    HW1 4370   3.251   0.866   6.627
 1157SOL    HW2 4371   3.385   0.954   6.654
 1158SOL     OW 4372   5.474   4.539   3.160
 1158SOL    HW1 4373   5.497   4.504   3.068
 1158SOL    HW2 4374   5.391   4.594   3.155
 1159SOL     OW 4375   6.477   5.085   0.893
 1159SOL    HW1 4376   6.447   5.006   0.946
 1159SOL    HW2 4377   6.404   5.154   0.892
 1160SOL     OW 4378   5.718   1.715   0.115
 1160SOL    HW1 4379   5.630   1.762   0.119
 1160SOL    HW2 4380   5.790   1.781   0.091
 1161SOL     OW 4381   6.925   5.225   1.106
 1161SOL    HW1 4382   6.861   5.171   1.161
 1161SOL    HW2 4383   6.935   5.182   1.016
 1162SOL     OW 4384   2.913   2.196   4.875
 1162SOL    HW1 4385   2.933   2.196   4.777
 1162SOL    HW2 4386   2.998   2.212   4.926
 1163SOL     OW 4387   5.778   2.933   1.748
 1163SOL    HW1 4388   5.769   2.843   1.707
 1163SOL    HW2 4389   5.779   2.924   1.848
 1164SOL     OW 4390   4.144   2.439   5.830
 1164SOL    HW1 4391   4.118   2.525   5.786
 1164SOL    HW2 4392   4.214   2.457   5.900
 1165SOL     OW 4393   3.681   6.460   3.522
 1165SOL    HW1 4394   3.596   6.493   3.562
 1165SOL    HW2 4395   3.676   6.361   3.510
 1166SOL     OW 4396   3.442   4.504   6.112
 1166SOL    HW1 4397   3.363   4.502   6.173
 1166SOL    HW2 4398   3.433   4.580   6.048
 1167SOL     OW 4399   5.150   4.641   2.455
 1167SOL    HW1 4400   5.210   4.690   2.392
 1167SOL    HW2 4401   5.170   4.670   2.549
 1168SOL     OW 4402   6.154   0.589   2.971
 1168SOL    HW1 4403   6.112   0.542   2.894
 1168SOL    HW2 4404   6.241   0.545   2.993
 1169SOL     OW 4405   5.100   1.219   5.577
 1169SOL    HW1 4406   5.187   1.266   5.560
 1169SOL    HW2 4407   5.086   1.149   5.508
 1170SOL     OW 4408   4.971   5.984   3.399
 1170SOL    HW1 4409   4.941   5.901   3.446
 1170SOL    HW2 4410   5.013   5.959   3.312
 1171SOL     OW 4411   0.793   5.953   1.147
 1171SOL    HW1 4412   0.795   6.032   1.086
 1171SOL    HW2 4413   0.699   5.917   1.152
 1172SOL     OW 4414   6.722   3.350   6.814
 1172SOL    HW1 4415   6.631   3.381   6.842
 1172SOL    HW2 4416   6.791   3.404   6.862
 1173SOL     OW 4417   3.811   1.624   0.723
 1173SOL    HW1 4418   3.834   1.707   0.773
 1173SOL    HW2 4419   3.862   1.622   0.637
 1174SOL     OW 4420   2.543   4.019   0.762
 1174SOL    HW1 4421   2.554   3.984   0.856
 1174SOL    HW2 4422   2.633   4.040   0.724
 1175SOL     OW 4423   3.414   2.871   4.294
 1175SOL    HW1 4424   3.374   2.957   4.263
 1175SOL    HW2 4425   3.512   2.872   4.274
 1176SOL     OW 4426   5.598   3.455   5.821
 1176SOL    HW1 4427   5.653   3.435   5.903
 1176SOL    HW2 4428   5.579   3.369   5.773
 1177SOL     OW 4429   0.310   1.903   4.454
 1177SOL    HW1 4430   0.387   1.965   4.440
 1177SOL    HW2 4431   0.334   1.812   4.421
 1178SOL     OW 4432   3.667   5.584   0.544
 1178SOL    HW1 4433   3.743   5.533   0.504
 1178SOL    HW2 4434   3.580   5.540   0.519
 1179SOL     OW 4435   1.974   5.416   0.280
 1179SOL    HW1 4436   1.971   5.347   0.353
 1179SOL    HW2 4437   2.065   5.456   0.275
 1180SOL     OW 4438   3.446   5.972   0.813
 1180SOL    HW1 4439   3.444   6.071   0.822
 1180SOL    HW2 4440   3.540   5.940   0.802
 1181SOL     OW 4441   0.368   6.521   0.392
 1181SOL    HW1 4442   0.359   6.602   0.451
 1181SOL    HW2 4443   0.422   6.452   0.439
 1182SOL     OW 4444   4.477   4.543   2.947
 1182SOL    HW1 4445   4.527   4.531   3.033
 1182SOL    HW2 4446   4.395   4.597   2.964
 1183SOL     OW 4447   2.544   3.177   5.578
 1183SOL    HW1 4448   2.570   3.097   5.632
 1183SOL    HW2 4449   2.568   3.260   5.627
 1184SOL     OW 4450   0.631   6.816   5.675
 1184SOL    HW1 4451   0.697   6.831   5.749
 1184SOL    HW2 4452   0.622   6.899   5.621
 1185SOL     OW 4453   6.835   1.451   6.716
 1185SOL    HW1 4454   6.747   1.471   6.674
 1185SOL    HW2 4455   6.824   1.436   6.814
 1186SOL     OW 4456   5.451   6.307   4.641
 1186SOL    HW1 4457   5.387   6.384   4.644
 1186SOL    HW2 4458   5.424   6.238   4.708
 1187SOL     OW 4459   6.076   0.567   6.283
 1187SOL    HW1 4460   6.155   0.611   6.240
 1187SOL    HW2 4461   6.089   0.468   6.284
 1188SOL     OW 4462   2.592   0.229   6.181
 1188SOL    HW1 4463   2.674   0.191   6.224
 1188SOL    HW2 4464   2.534   0.155   6.148
 1189SOL     OW 4465   5.464   3.456   3.285
 1189SOL    HW1 4466   5.426   3.544   3.256
 1189SOL    HW2 4467   5.469   3.454   3.385
 1190SOL     OW 4468   2.225   5.832   3.230
 1190SOL    HW1 4469   2.240   5.834   3.131
 1190SOL    HW2 4470   2.266   5.913   3.271
 1191SOL     OW 4471   4.018   5.921   2.674
 1191SOL    HW1 4472   4.008   5.889   2.769
 1191SOL    HW2 4473   3.943   5.983   2.652
 1192SOL     OW 4474   5.835   6.023   3.562
 1192SOL    HW1 4475   5.830   6.095   3.631
 1192SOL    HW2 4476   5.918   6.036   3.507
 1193SOL     OW 4477   6.561   5.317   4.103
 1193SOL    HW1 4478   6.571   5.399   4.161
 1193SOL    HW2 4479   6.467   5.313   4.069
 1194SOL     OW 4480   3.751   0.911   0.874
 1194SOL    HW1 4481   3.678   0.879   0.935
 1194SOL    HW2 4482   3.833   0.933   0.928
 1195SOL     OW 4483   5.563   2.316   3.594
 1195SOL    HW1 4484   5.524   2.239   3.643
 1195SOL    HW2 4485   5.585   2.389   3.658
 1196SOL     OW 4486   6.267   6.379   5.329
 1196SOL    HW1 4487   6.245   6.476   5.340
 1196SOL    HW2 4488   6.198   6.336   5.271
 1197SOL     OW 4489   2.505   5.975   0.604
 1197SOL    HW1 4490   2.545   5.941   0.519
 1197SOL    HW2 4491   2.413   6.008   0.586
 1198SOL     OW 4492   1.282   3.047   0.068
 1198SOL    HW1 4493   1.251   2.956   0.096
 1198SOL    HW2 4494   1.344   3.084   0.136
 1199SOL     OW 4495   5.466   3.856   1.549
 1199SOL    HW1 4496   5.404   3.933   1.560
 1199SOL    HW2 4497   5.554   3.888   1.513
 1200SOL     OW 4498   3.132   3.085   1.916
 1200SOL    HW1 4499   3.075   3.167   1.915
 1200SOL    HW2 4500   3.225   3.110   1.888
 1201SOL     OW 4501   1.902   1.994   4.667
 1201SOL    HW1 4502   1.961   1.915   4.678
 1201SOL    HW2 4503   1.835   1.976   4.595
 1202SOL     OW 4504   0.491   5.290   5.738
 1202SOL    HW1 4505   0.430   5.257   5.811
 1202SOL    HW2 4506   0.467   5.246   5.652
 1203SOL     OW 4507   4.938   5.715   5.946
 1203SOL    HW1 4508   4.908   5.668   5.863
 1203SOL    HW2 4509   4.917   5.813   5.938
 1204SOL     OW 4510   2.030   6.756   2.940
 1204SOL    HW1 4511   2.096   6.784   2.870
 1204SOL    HW2 4512   2.051   6.805   3.025
 1205SOL     OW 4513   4.931   4.521   2.350
 1205SOL    HW1 4514   5.018   4.555   2.386
 1205SOL    HW2 4515   4.898   4.447   2.407
 1206SOL     OW 4516   3.002   3.217   4.844
 1206SOL    HW1 4517   2.964   3.143   4.788
 1206SOL    HW2 4518   3.002   3.302   4.791
 1207SOL     OW 4519   1.324   6.128   2.168
 1207SOL    HW1 4520   1.234   6.142   2.127
 1207SOL    HW2 4521   1.390   6.191   2.126
 1208SOL     OW 4522   3.508   4.208   6.088
 1208SOL    HW1 4523   3.451   4.282   6.052
 1208SOL    HW2 4524   3.488   4.124   6.038
 1209SOL     OW 4525   3.923   6.473   5.392
 1209SOL    HW1 4526   3.988   6.492   5.318
 1209SOL    HW2 4527   3.870   6.391   5.370
 1210SOL     OW 4528   3.109   0.557   2.955
 1210SOL    HW1 4529   3.184   0.540   2.891
 1210SOL    HW2 4530   3.108   0.653   2.981
 1211SOL     OW 4531   1.155   3.789   6.891
 1211SOL    HW1 4532   1.148   3.699   6.934
 1211SOL    HW2 4533   1.099   3.855   6.942
 1212SOL     OW 4534   1.542   6.650   0.486
 1212SOL    HW1 4535   1.546   6.554   0.460
 1212SOL    HW2 4536   1.497   6.702   0.413
 1213SOL     OW 4537   5.607   2.726   1.455
 1213SOL    HW1 4538   5.534   2.703   1.519
 1213SOL    HW2 4539   5.654   2.642   1.428
 1214SOL     OW 4540   6.936   2.078   1.212
 1214SOL    HW1 4541   6.968   2.002   1.269
 1214SOL    HW2 4542   7.015   2.120   1.166
 1215SOL     OW 4543   1.590   5.752   4.106
 1215SOL    HW1 4544   1.652   5.829   4.091
 1215SOL    HW2 4545   1.521   5.750   4.033
 1216SOL     OW 4546   4.598   6.164   1.023
 1216SOL    HW1 4547   4.692   6.166   0.989
 1216SOL    HW2 4548   4.560   6.256   1.020
 1217SOL     OW 4549   3.078   4.108   6.745
 1217SOL    HW1 4550   3.044   4.054   6.668
 1217SOL    HW2 4551   3.161   4.066   6.781
 1218SOL     OW 4552   1.861   4.693   3.509
 1218SOL    HW1 4553   1.912   4.730   3.431
 1218SOL    HW2 4554   1.926   4.655   3.575
 1219SOL     OW 4555   4.635   6.322   2.236
 1219SOL    HW1 4556   4.549   6.272   2.223
 1219SOL    HW2 4557   4.615   6.411   2.276
 1220SOL     OW 4558   0.767   4.718   2.521
 1220SOL    HW1 4559   0.854   4.672   2.502
 1220SOL    HW2 4560   0.728   4.753   2.436
 1221SOL     OW 4561   5.207   4.100   6.238
 1221SOL    HW1 4562   5.228   4.063   6.147
 1221SOL    HW2 4563   5.114   4.074   6.264
 1222SOL     OW 4564   6.430   0.080   6.504
 1222SOL    HW1 4565   6.382   0.039   6.426
 1222SOL    HW2 4566   6.419   0.179   6.501
 1223SOL     OW 4567   3.258   6.334   0.468
 1223SOL    HW1 4568   3.278   6.386   0.551
 1223SOL    HW2 4569   3.261   6.395   0.389
 1224SOL     OW 4570   3.399   0.325   2.019
 1224SOL    HW1 4571   3.449   0.359   2.098
 1224SOL    HW2 4572   3.315   0.379   2.007
 1225SOL     OW 4573   2.682   4.222   6.223
 1225SOL    HW1 4574   2.782   4.226   6.216
 1225SOL    HW2 4575   2.644   4.314   6.208
 1226SOL     OW 4576   1.961   4.571   1.084
 1226SOL    HW1 4577   2.049   4.613   1.064
 1226SOL    HW2 4578   1.975   4.477   1.116
 1227SOL     OW 4579   0.323   3.834   5.914
 1227SOL    HW1 4580   0.410   3.879   5.892
 1227SOL    HW2 4581   0.339   3.764   5.984
 1228SOL     OW 4582   3.641   1.469   6.059
 1228SOL    HW1 4583   3.633   1.370   6.048
 1228SOL    HW2 4584   3.737   1.495   6.069
 1229SOL     OW 4585   3.685   4.055   6.264
 1229SOL    HW1 4586   3.643   3.966   6.281
 1229SOL    HW2 4587   3.622   4.111   6.210
 1230SOL     OW 4588   4.596   6.424   3.419
 1230SOL    HW1 4589   4.641   6.496   3.472
 1230SOL    HW2 4590   4.622   6.334   3.456
 1231SOL     OW 4591   1.303   5.150   4.438
 1231SOL    HW1 4592   1.280   5.094   4.358
 1231SOL    HW2 4593   1.284   5.098   4.521
 1232SOL     OW 4594   1.754   2.424   4.816
 1232SOL    HW1 4595   1.806   2.338   4.820
 1232SOL    HW2 4596   1.725   2.441   4.722
 1233SOL     OW 4597   0.753   2.996   4.283
 1233SOL    HW1 4598   0.777   3.038   4.370
 1233SOL    HW2 4599   0.700   3.060   4.228
 1234SOL     OW 4600   6.800   4.131   4.401
 1234SOL    HW1 4601   6.871   4.193   4.435
 1234SOL    HW2 4602   6.710   4.172   4.417
 1235SOL     OW 4603   6.767   5.669   4.125
 1235SOL    HW1 4604   6.789   5.707   4.035
 1235SOL    HW2 4605   6.766   5.742   4.193
 1236SOL     OW 4606   5.186   1.103   6.680
 1236SOL    HW1 4607   5.215   1.162   6.605
 1236SOL    HW2 4608   5.149   1.160   6.754
 1237SOL     OW 4609   2.880   4.287   6.698
 1237SOL    HW1 4610   2.953   4.230   6.734
 1237SOL    HW2 4611   2.880   4.284   6.598
 1238SOL     OW 4612   1.708   1.409   1.428
 1238SOL    HW1 4613   1.631   1.345   1.428
 1238SOL    HW2 4614   1.739   1.424   1.334
 1239SOL     OW 4615   0.277   6.810   6.135
 1239SOL    HW1 4616   0.357   6.840   6.187
 1239SOL    HW2 4617   0.237   6.887   6.086
 1240SOL     OW 4618   4.158   6.112   1.928
 1240SOL    HW1 4619   4.075   6.086   1.978
 1240SOL    HW2 4620   4.237   6.109   1.990
 1241SOL     OW 4621   6.715   3.045   3.500
 1241SOL    HW1 4622   6.647   3.113   3.472
 1241SOL    HW2 4623   6.675   2.954   3.495
 1242SOL     OW 4624   2.675   3.680   6.119
 1242SOL    HW1 4625   2.682   3.772   6.157
 1242SOL    HW2 4626   2.693   3.682   6.021
 1243SOL     OW 4627   2.872   4.970   5.689
 1243SOL    HW1 4628   2.891   4.916   5.607
 1243SOL    HW2 4629   2.890   4.914   5.770
 1244SOL     OW 4630   0.750   0.964   3.043
 1244SOL    HW1 4631   0.754   1.030   3.118
 1244SOL    HW2 4632   0.710   1.008   2.963
 1245SOL     OW 4633   2.646   2.934   6.005
 1245SOL    HW1 4634   2.622   2.899   6.096
 1245SOL    HW2 4635   2.713   3.007   6.013
 1246SOL     OW 4636   1.050   6.533   2.209
 1246SOL    HW1 4637   1.005   6.504   2.125
 1246SOL    HW2 4638   1.078   6.628   2.201
 1247SOL     OW 4639   1.565   6.572   7.004
 1247SOL    HW1 4640   1.586   6.656   0.030
 1247SOL    HW2 4641   1.491   6.588   6.939
 1248SOL     OW 4642   1.992   6.614   3.232
 1248SOL    HW1 4643   2.044   6.557   3.295
 1248SOL    HW2 4644   2.026   6.600   3.139
 1249SOL     OW 4645   6.333   3.270   3.099
 1249SOL    HW1 4646   6.370   3.268   3.192
 1249SOL    HW2 4647   6.393   3.325   3.041
 1250SOL     OW 4648   0.647   4.252   4.178
 1250SOL    HW1 4649   0.594   4.255   4.263
 1250SOL    HW2 4650   0.714   4.326   4.178
 1251SOL     OW 4651   3.239   6.734   5.582
 1251SOL    HW1 4652   3.299   6.788   5.641
 1251SOL    HW2 4653   3.192   6.664   5.636
 1252SOL     OW 4654   3.395   3.398   6.583
 1252SOL    HW1 4655   3.382   3.321   6.520
 1252SOL    HW2 4656   3.415   3.363   6.674
 1253SOL     OW 4657   4.257   6.232   3.580
 1253SOL    HW1 4658   4.282   6.287   3.660
 1253SOL    HW2 4659   4.205   6.287   3.516
 1254SOL     OW 4660   6.477   2.304   2.527
 1254SOL    HW1 4661   6.570   2.287   2.560
 1254SOL    HW2 4662   6.427   2.360   2.593
 1255SOL     OW 4663   6.265   6.980   0.383
 1255SOL    HW1 4664   6.270   6.880   0.378
 1255SOL    HW2 4665   6.272   7.008   0.479
 1256SOL     OW 4666   4.155   1.613   3.792
 1256SOL    HW1 4667   4.187   1.572   3.706
 1256SOL    HW2 4668   4.206   1.698   3.808
 1257SOL     OW 4669   6.481   1.299   4.123
 1257SOL    HW1 4670   6.567   1.343   4.148
 1257SOL    HW2 4671   6.500   1.219   4.065
 1258SOL     OW 4672   6.778   6.425   4.131
 1258SOL    HW1 4673   6.759   6.341   4.080
 1258SOL    HW2 4674   6.699   6.485   4.127
 1259SOL     OW 4675   4.233   2.387   5.497
 1259SOL    HW1 4676   4.283   2.435   5.424
 1259SOL    HW2 4677   4.184   2.309   5.457
 1260SOL     OW 4678   0.562   1.397   5.771
 1260SOL    HW1 4679   0.539   1.378   5.675
 1260SOL    HW2 4680   0.615   1.321   5.809
 1261SOL     OW 4681   6.193   3.814   0.512
 1261SOL    HW1 4682   6.222   3.844   0.603
 1261SOL    HW2 4683   6.259   3.846   0.444
 1262SOL     OW 4684   5.115   6.288   2.811
 1262SOL    HW1 4685   5.046   6.358   2.794
 1262SOL    HW2 4686   5.101   6.211   2.749
 1263SOL     OW 4687   6.944   2.406   3.490
 1263SOL    HW1 4688   6.905   2.491   3.526
 1263SOL    HW2 4689   6.929   2.402   3.391
 1264SOL     OW 4690   0.693   2.801   5.107
 1264SOL    HW1 4691   0.660   2.772   5.196
 1264SOL    HW2 4692   0.631   2.871   5.070
 1265SOL     OW 4693   5.464   6.487   5.525
 1265SOL    HW1 4694   5.386   6.528   5.478
 1265SOL    HW2 4695   5.433   6.412   5.582
 1266SOL     OW 4696   1.914   1.681   5.703
 1266SOL    HW1 4697   2.013   1.682   5.712
 1266SOL    HW2 4698   1.877   1.599   5.747
 1267SOL     OW 4699   3.313   0.320   2.660
 1267SOL    HW1 4700   3.378   0.303   2.586
 1267SOL    HW2 4701   3.321   0.248   2.729
 1268SOL     OW 4702   4.150   2.698   5.752
 1268SOL    HW1 4703   4.134   2.745   5.839
 1268SOL    HW2 4704   4.247   2.704   5.729
 1269SOL     OW 4705   5.919   2.147   3.935
 1269SOL    HW1 4706   5.961   2.210   3.870
 1269SOL    HW2 4707   5.893   2.063   3.888
 1270SOL     OW 4708   6.576   5.494   2.827
 1270SOL    HW1 4709   6.483   5.512   2.795
 1270SOL    HW2 4710   6.578   5.406   2.876
 1271SOL     OW 4711   1.883   1.264   0.943
 1271SOL    HW1 4712   1.820   1.189   0.962
 1271SOL    HW2 4713   1.956   1.232   0.882
 1272SOL     OW 4714   6.319   2.898   6.501
 1272SOL    HW1 4715   6.347   2.807   6.473
 1272SOL    HW2 4716   6.379   2.966   6.457
 1273SOL     OW 4717   1.154   4.672   5.199
 1273SOL    HW1 4718   1.183   4.749   5.143
 1273SOL    HW2 4719   1.187   4.684   5.293
 1274SOL     OW 4720   0.020   5.172   2.862
 1274SOL    HW1 4721   6.966   5.132   2.913
 1274SOL    HW2 4722   0.094   5.195   2.925
 1275SOL     OW 4723   2.249   1.256   3.198
 1275SOL    HW1 4724   2.240   1.353   3.173
 1275SOL    HW2 4725   2.160   1.211   3.190
 1276SOL     OW 4726   5.399   4.809   3.644
 1276SOL    HW1 4727   5.446   4.787   3.730
 1276SOL    HW2 4728   5.304   4.776   3.649
 1277SOL     OW 4729   0.306   5.843   0.548
 1277SOL    HW1 4730   0.284   5.857   0.451
 1277SOL    HW2 4731   0.403   5.861   0.564
 1278SOL     OW 4732   1.313   5.930   3.193
 1278SOL    HW1 4733   1.274   5.979   3.271
 1278SOL    HW2 4734   1.365   5.851   3.226
 1279SOL     OW 4735   2.684   2.929   1.671
 1279SOL    HW1 4736   2.720   3.001   1.730
 1279SOL    HW2 4737   2.760   2.873   1.636
 1280SOL     OW 4738   2.240   1.838   4.233
 1280SOL    HW1 4739   2.248   1.809   4.137
 1280SOL    HW2 4740   2.217   1.935   4.236
 1281SOL     OW 4741   5.007   6.251   5.311
 1281SOL    HW1 4742   5.060   6.191   5.371
 1281SOL    HW2 4743   5.063   6.329   5.284
 1282SOL     OW 4744   0.511   2.728   1.241
 1282SOL    HW1 4745   0.453   2.808   1.227
 1282SOL    HW2 4746   0.477   2.675   1.319
 1283SOL     OW 4747   6.803   2.838   4.415
 1283SOL    HW1 4748   6.752   2.924   4.413
 1283SOL    HW2 4749   6.900   2.858   4.434
 1284SOL     OW 4750   3.997   2.175   1.829
 1284SOL    HW1 4751   3.960   2.100   1.883
 1284SOL    HW2 4752   3.923   2.226   1.785
 1285SOL     OW 4753   4.322   1.167   5.273
 1285SOL    HW1 4754   4.253   1.151   5.344
 1285SOL    HW2 4755   4.297   1.117   5.190
 1286SOL     OW 4756   5.367   1.333   0.899
 1286SOL    HW1 4757   5.454   1.297   0.864
 1286SOL    HW2 4758   5.364   1.432   0.885
 1287SOL     OW 4759   6.883   4.986   4.780
 1287SOL    HW1 4760   6.814   4.953   4.715
 1287SOL    HW2 4761   6.906   5.081   4.758
 1288SOL     OW 4762   4.725   4.602   6.969
 1288SOL    HW1 4763   4.780   4.678   7.002
 1288SOL    HW2 4764   4.689   4.624   6.878
 1289SOL     OW 4765   0.335   6.651   1.317
 1289SOL    HW1 4766   0.386   6.579   1.271
 1289SOL    HW2 4767   0.245   6.660   1.275
 1290SOL     OW 4768   1.317   6.239   5.137
 1290SOL    HW1 4769   1.417   6.231   5.145
 1290SOL    HW2 4770   1.276   6.149   5.151
 1291SOL     OW 4771   6.346   5.036   3.610
 1291SOL    HW1 4772   6.443   5.030   3.634
 1291SOL    HW2 4773   6.317   5.131   3.610
 1292SOL     OW 4774   0.901   6.898   1.743
 1292SOL    HW1 4775   0.960   6.903   1.662
 1292SOL    HW2 4776   0.856   6.809   1.745
 1293SOL     OW 4777   4.832   0.925   0.002
 1293SOL    HW1 4778   4.927   0.942   7.001
 1293SOL    HW2 4779   4.824   0.908   0.100
 1294SOL     OW 4780   2.043   4.488   5.071
 1294SOL    HW1 4781   1.974   4.424   5.038
 1294SOL    HW2 4782   2.095   4.445   5.145
 1295SOL     OW 4783   6.607   4.505   0.948
 1295SOL    HW1 4784   6.703   4.479   0.940
 1295SOL    HW2 4785   6.592   4.592   0.900
 1296SOL     OW 4786   5.268   0.032   5.661
 1296SOL    HW1 4787   5.356   0.044   5.706
 1296SOL    HW2 4788   5.213   6.988   5.712
 1297SOL     OW 4789   0.291   0.269   1.506
 1297SOL    HW1 4790   0.254   0.232   1.421
 1297SOL    HW2 4791   0.377   0.223   1.528
 1298SOL     OW 4792   5.176   0.751   2.520
 1298SOL    HW1 4793   5.205   0.749   2.615
 1298SOL    HW2 4794   5.218   0.830   2.474
 1299SOL     OW 4795   0.873   3.242   4.153
 1299SOL    HW1 4796   0.844   3.251   4.248
 1299SOL    HW2 4797   0.914   3.151   4.139
 1300SOL     OW 4798   0.696   5.593   1.461
 1300SOL    HW1 4799   0.641   5.510   1.462
 1300SOL    HW2 4800   0.642   5.669   1.425
 1301SOL     OW 4801   0.083   0.247   0.437
 1301SOL    HW1 4802   0.179   0.267   0.419
 1301SOL    HW2 4803   0.075   0.202   0.527
 1302SOL     OW 4804   6.334   6.872   5.341
 1302SOL    HW1 4805   6.250   6.861   5.288
 1302SOL    HW2 4806   6.407   6.904   5.280
 1303SOL     OW 4807   3.180   6.292   1.750
 1303SOL    HW1 4808   3.135   6.373   1.712
 1303SOL    HW2 4809   3.123   6.211   1.736
 1304SOL     OW 4810   0.371   0.415   0.681
 1304SOL    HW1 4811   0.392   0.374   0.592
 1304SOL    HW2 4812   0.334   0.507   0.668
 1305SOL     OW 4813   4.503   3.811   6.220
 1305SOL    HW1 4814   4.523   3.740   6.152
 1305SOL    HW2 4815   4.407   3.804   6.248
 1306SOL     OW 4816   3.262   5.851   4.268
 1306SOL    HW1 4817   3.293   5.768   4.222
 1306SOL    HW2 4818   3.272   5.929   4.206
 1307SOL     OW 4819   2.545   2.486   3.476
 1307SOL    HW1 4820   2.589   2.428   3.543
 1307SOL    HW2 4821   2.598   2.485   3.391
 1308SOL     OW 4822   0.134   4.296   6.337
 1308SOL    HW1 4823   0.198   4.252   6.274
 1308SOL    HW2 4824   0.046   4.309   6.292
 1309SOL     OW 4825   5.532   4.730   6.759
 1309SOL    HW1 4826   5.456   4.704   6.699
 1309SOL    HW2 4827   5.591   4.650   6.774
 1310SOL     OW 4828   1.691   4.528   3.337
 1310SOL    HW1 4829   1.671   4.436   3.370
 1310SOL    HW2 4830   1.748   4.576   3.405
 1311SOL     OW 4831   5.900   5.045   0.583
 1311SOL    HW1 4832   5.992   5.009   0.594
 1311SOL    HW2 4833   5.839   4.972   0.550
 1312SOL     OW 4834   3.078   0.994   5.897
 1312SOL    HW1 4835   2.988   1.027   5.921
 1312SOL    HW2 4836   3.114   0.936   5.970
 1313SOL     OW 4837   6.375   5.463   1.905
 1313SOL    HW1 4838   6.420   5.515   1.978
 1313SOL    HW2 4839   6.440   5.446   1.832
 1314SOL     OW 4840   2.380   1.840   4.916
 1314SOL    HW1 4841   2.377   1.771   4.843
 1314SOL    HW2 4842   2.475   1.853   4.945
 1315SOL     OW 4843   6.256   0.983   2.969
 1315SOL    HW1 4844   6.172   0.970   3.021
 1315SOL    HW2 4845   6.326   1.022   3.028
 1316SOL     OW 4846   5.491   0.436   6.668
 1316SOL    HW1 4847   5.539   0.350   6.649
 1316SOL    HW2 4848   5.544   0.512   6.631
 1317SOL     OW 4849   3.524   3.526   5.874
 1317SOL    HW1 4850   3.546   3.516   5.777
 1317SOL    HW2 4851   3.428   3.504   5.890
 1318SOL     OW 4852   1.552   1.965   6.247
 1318SOL    HW1 4853   1.629   2.028   6.238
 1318SOL    HW2 4854   1.562   1.913   6.332
 1319SOL     OW 4855   6.850   6.951   0.642
 1319SOL    HW1 4856   6.877   0.023   0.662
 1319SOL    HW2 4857   6.885   6.891   0.714
 1320SOL     OW 4858   3.729   2.985   5.903
 1320SOL    HW1 4859   3.812   3.027   5.866
 1320SOL    HW2 4860   3.656   3.054   5.905
 1321SOL     OW 4861   6.821   2.617   0.397
 1321SOL    HW1 4862   6.763   2.668   0.459
 1321SOL    HW2 4863   6.913   2.609   0.436
 1322SOL     OW 4864   3.347   2.540   6.887
 1322SOL    HW1 4865   3.267   2.500   6.841
 1322SOL    HW2 4866   3.430   2.493   6.857
 1323SOL     OW 4867   3.865   6.428   1.070
 1323SOL    HW1 4868   3.800   6.431   1.145
 1323SOL    HW2 4869   3.816   6.410   0.984
 1324SOL     OW 4870   2.305   3.967   6.365
 1324SOL    HW1 4871   2.244   3.986   6.441
 1324SOL    HW2 4872   2.286   3.876   6.328
 1325SOL     OW 4873   2.847   5.826   5.301
 1325SOL    HW1 4874   2.910   5.774   5.243
 1325SOL    HW2 4875   2.864   5.802   5.397
 1326SOL     OW 4876   4.745   2.061   4.605
 1326SOL    HW1 4877   4.745   2.155   4.638
 1326SOL    HW2 4878   4.653   2.021   4.617
 1327SOL     OW 4879   5.238   5.537   2.432
 1327SOL    HW1 4880   5.170   5.488   2.487
 1327SOL    HW2 4881   5.257   5.626   2.474
 1328SOL     OW 4882   1.893   2.670   5.918
 1328SOL    HW1 4883   1.857   2.684   5.826
 1328SOL    HW2 4884   1.920   2.758   5.958
 1329SOL     OW 4885   1.034   3.027   4.069
 1329SOL    HW1 4886   1.049   2.997   4.164
 1329SOL    HW2 4887   1.122   3.053   4.029
 1330SOL     OW 4888   5.716   3.131   2.756
 1330SOL    HW1 4889   5.811   3.115   2.781
 1330SOL    HW2 4890   5.703   3.109   2.659
 1331SOL     OW 4891   4.355   1.877   3.828
 1331SOL    HW1 4892   4.365   1.906   3.923
 1331SOL    HW2 4893   4.427   1.919   3.772
 1332SOL     OW 4894   2.319   5.625   0.198
 1332SOL    HW1 4895   2.326   5.725   0.197
 1332SOL    HW2 4896   2.388   5.587   0.259
 1333SOL     OW 4897   2.983   3.789   2.967
 1333SOL    HW1 4898   2.885   3.805   2.982
 1333SOL    HW2 4899   3.028   3.876   2.947
 1334SOL     OW 4900   6.508   3.549   1.556
 1334SOL    HW1 4901   6.460   3.525   1.640
 1334SOL    HW2 4902   6.447   3.604   1.498
 1335SOL     OW 4903   0.879   3.713   3.075
 1335SOL    HW1 4904   0.938   3.751   3.004
 1335SOL    HW2 4905   0.799   3.772   3.088
 1336SOL     OW 4906   2.406   0.235   5.776
 1336SOL    HW1 4907   2.491   0.216   5.826
 1336SOL    HW2 4908   2.427   0.288   5.694
 1337SOL     OW 4909   6.845   0.362   3.099
 1337SOL    HW1 4910   6.936   0.321   3.097
 1337SOL    HW2 4911   6.848   0.450   3.147
 1338SOL     OW 4912   6.711   4.264   4.823
 1338SOL    HW1 4913   6.644   4.208   4.774
 1338SOL    HW2 4914   6.800   4.219   4.821
 1339SOL     OW 4915   6.860   0.334   0.421
 1339SOL    HW1 4916   6.952   0.303   0.443
 1339SOL    HW2 4917   6.855   0.356   0.323
 1340SOL     OW 4918   4.288   2.720   1.303
 1340SOL    HW1 4919   4.235   2.786   1.356
 1340SOL    HW2 4920   4.227   2.671   1.240
 1341SOL     OW 4921   5.115   5.707   0.017
 1341SOL    HW1 4922   5.167   5.630   0.056
 1341SOL    HW2 4923   5.179   5.780   7.015
 1342SOL     OW 4924   1.909   6.379   1.729
 1342SOL    HW1 4925   1.864   6.320   1.796
 1342SOL    HW2 4926   1.969   6.444   1.777
 1343SOL     OW 4927   6.061   6.030   3.435
 1343SOL    HW1 4928   6.068   5.945   3.382
 1343SOL    HW2 4929   6.122   6.025   3.514
 1344SOL     OW 4930   0.747   0.752   4.488
 1344SOL    HW1 4931   0.837   0.749   4.444
 1344SOL    HW2 4932   0.727   0.663   4.528
 1345SOL     OW 4933   0.407   6.311   0.187
 1345SOL    HW1 4934   0.504   6.288   0.183
 1345SOL    HW2 4935   0.391   6.373   0.264
 1346SOL     OW 4936   3.265   4.983   5.002
 1346SOL    HW1 4937   3.185   4.940   5.044
 1346SOL    HW2 4938   3.257   5.082   5.008
 1347SOL     OW 4939   1.157   0.049   6.565
 1347SOL    HW1 4940   1.111   0.137   6.548
 1347SOL    HW2 4941   1.170   0.000   6.479
 1348SOL     OW 4942   0.316   6.309   5.152
 1348SOL    HW1 4943   0.355   6.273   5.238
 1348SOL    HW2 4944   0.248   6.244   5.118
 1349SOL     OW 4945   4.727   2.908   3.804
 1349SOL    HW1 4946   4.726   2.996   3.756
 1349SOL    HW2 4947   4.726   2.834   3.736
 1350SOL     OW 4948   4.256   4.383   6.643
 1350SOL    HW1 4949   4.323   4.407   6.714
 1350SOL    HW2 4950   4.199   4.462   6.623
 1351SOL     OW 4951   0.773   2.787   5.788
 1351SOL    HW1 4952   0.850   2.817   5.732
 1351SOL    HW2 4953   0.724   2.867   5.822
 1352SOL     OW 4954   0.139   0.495   2.186
 1352SOL    HW1 4955   0.235   0.497   2.214
 1352SOL    HW2 4956   0.116   0.580   2.140
 1353SOL     OW 4957   0.818   0.848   0.419
 1353SOL    HW1 4958   0.835   0.897   0.334
 1353SOL    HW2 4959   0.879   0.769   0.425
 1354SOL     OW 4960   4.542   5.251   2.760
 1354SOL    HW1 4961   4.510   5.236   2.854
 1354SOL    HW2 4962   4.600   5.175   2.732
 1355SOL     OW 4963   5.574   2.749   5.907
 1355SOL    HW1 4964   5.512   2.741   5.829
 1355SOL    HW2 4965   5.523   2.733   5.992
 1356SOL     OW 4966   2.607   3.153   0.069
 1356SOL    HW1 4967   2.699   3.177   0.101
 1356SOL    HW2 4968   2.574   3.073   0.121
 1357SOL     OW 4969   1.266   3.252   5.608
 1357SOL    HW1 4970   1.301   3.202   5.529
 1357SOL    HW2 4971   1.342   3.280   5.666
 1358SOL     OW 4972   2.511   0.012   0.512
 1358SOL    HW1 4973   2.421   0.010   0.470
 1358SOL    HW2 4974   2.563   0.090   0.477
 1359SOL     OW 4975   6.400   4.619   1.228
 1359SOL    HW1 4976   6.488   4.588   1.263
 1359SOL    HW2 4977   6.366   4.553   1.161
 1360SOL     OW 4978   1.897   2.733   6.974
 1360SOL    HW1 4979   1.848   2.814   6.941
 1360SOL    HW2 4980   1.851   2.698   0.034
 1361SOL     OW 4981   6.886   4.568   4.982
 1361SOL    HW1 4982   6.950   4.579   4.906
 1361SOL    HW2 4983   6.827   4.649   4.988
 1362SOL     OW 4984   3.445   3.371   3.076
 1362SOL    HW1 4985   3.398   3.331   3.154
 1362SOL    HW2 4986   3.438   3.471   3.080
 1363SOL     OW 4987   1.002   5.984   4.257
 1363SOL    HW1 4988   0.941   5.932   4.199
 1363SOL    HW2 4989   1.050   5.923   4.320
 1364SOL     OW 4990   4.688   4.350   1.055
 1364SOL    HW1 4991   4.773   4.359   1.002
 1364SOL    HW2 4992   4.645   4.263   1.033
 1365SOL     OW 4993   6.208   3.268   6.747
 1365SOL    HW1 4994   6.119   3.224   6.741
 1365SOL    HW2 4995   6.223   3.301   6.840
 1366SOL     OW 4996   3.047   6.902   5.477
 1366SOL    HW1 4997   3.118   6.841   5.513
 1366SOL    HW2 4998   2.958   6.859   5.489
 1367SOL     OW 4999   2.611   1.277   2.045
 1367SOL    HW1 5000   2.534   1.339   2.028
 1367SOL    HW2 5001   2.676   1.321   2.106
 1368SOL     OW 5002   5.669   6.259   3.419
 1368SOL    HW1 5003   5.701   6.238   3.512
 1368SOL    HW2 5004   5.640   6.174   3.375
 1369SOL     OW 5005   1.085   0.985   2.976
 1369SOL    HW1 5006   0.992   0.948   2.980
 1369SOL    HW2 5007   1.088   1.062   2.913
 1370SOL     OW 5008   2.455   0.403   1.622
 1370SOL    HW1 5009   2.360   0.384   1.645
 1370SOL    HW2 5010   2.515   0.365   1.693
 1371SOL     OW 5011   3.958   0.432   6.978
 1371SOL    HW1 5012   4.040   0.378   6.995
 1371SOL    HW2 5013   3.983   0.517   6.932
 1372SOL     OW 5014   3.047   2.075   2.046
 1372SOL    HW1 5015   3.133   2.076   1.994
 1372SOL    HW2 5016   3.007   2.166   2.044
 1373SOL     OW 5017   1.223   5.894   0.401
 1373SOL    HW1 5018   1.198   5.986   0.431
 1373SOL    HW2 5019   1.226   5.833   0.480
 1374SOL     OW 5020   5.011   3.564   0.386
 1374SOL    HW1 5021   5.092   3.547   0.441
 1374SOL    HW2 5022   4.933   3.582   0.446
 1375SOL     OW 5023   0.762   4.466   5.056
 1375SOL    HW1 5024   0.691   4.399   5.037
 1375SOL    HW2 5025   0.744   4.550   5.005
 1376SOL     OW 5026   4.089   1.399   2.750
 1376SOL    HW1 5027   4.161   1.333   2.769
 1376SOL    HW2 5028   4.124   1.469   2.688
 1377SOL     OW 5029   1.031   4.931   4.701
 1377SOL    HW1 5030   1.126   4.928   4.669
 1377SOL    HW2 5031   0.994   4.839   4.707
 1378SOL     OW 5032   1.730   2.812   6.557
 1378SOL    HW1 5033   1.788   2.752   6.613
 1378SOL    HW2 5034   1.785   2.887   6.521
 1379SOL     OW 5035   4.343   5.882   1.355
 1379SOL    HW1 5036   4.281   5.951   1.391
 1379SOL    HW2 5037   4.429   5.925   1.328
 1380SOL     OW 5038   6.246   6.337   2.700
 1380SOL    HW1 5039   6.241   6.385   2.613
 1380SOL    HW2 5040   6.168   6.362   2.758
 1381SOL     OW 5041   5.965   0.184   1.252
 1381SOL    HW1 5042   6.062   0.161   1.256
 1381SOL    HW2 5043   5.954   0.283   1.258
 1382SOL     OW 5044   6.966   4.732   6.345
 1382SOL    HW1 5045   0.035   4.727   6.306
 1382SOL    HW2 5046   6.918   4.645   6.330
 1383SOL     OW 5047   2.758   0.469   0.112
 1383SOL    HW1 5048   2.689   0.539   0.089
 1383SOL    HW2 5049   2.714   0.380   0.115
 1384SOL     OW 5050   2.514   2.181   2.263
 1384SOL    HW1 5051   2.414   2.174   2.260
 1384SOL    HW2 5052   2.542   2.272   2.232
 1385SOL     OW 5053   5.588   2.876   3.931
 1385SOL    HW1 5054   5.572   2.781   3.956
 1385SOL    HW2 5055   5.501   2.926   3.936
 1386SOL     OW 5056   1.955   2.915   3.980
 1386SOL    HW1 5057   1.951   2.880   4.073
 1386SOL    HW2 5058   2.037   2.972   3.970
 1387SOL     OW 5059   2.374   0.618   4.745
 1387SOL    HW1 5060   2.397   0.527   4.711
 1387SOL    HW2 5061   2.373   0.683   4.669
 1388SOL     OW 5062   6.402   1.155   4.674
 1388SOL    HW1 5063   6.390   1.135   4.577
 1388SOL    HW2 5064   6.470   1.227   4.685
 1389SOL     OW 5065   6.544   0.654   3.893
 1389SOL    HW1 5066   6.486   0.581   3.931
 1389SOL    HW2 5067   6.631   0.656   3.941
 1390SOL     OW 5068   4.409   2.349   2.109
 1390SOL    HW1 5069   4.352   2.369   2.189
 1390SOL    HW2 5070   4.494   2.401   2.115
 1391SOL     OW 5071   6.018   1.568   4.572
 1391SOL    HW1 5072   5.972   1.630   4.635
 1391SOL    HW2 5073   6.000   1.596   4.478
 1392SOL     OW 5074   4.518   6.155   5.453
 1392SOL    HW1 5075   4.502   6.133   5.357
 1392SOL    HW2 5076   4.466   6.237   5.477
 1393SOL     OW 5077   5.213   0.083   6.706
 1393SOL    HW1 5078   5.126   0.078   6.755
 1393SOL    HW2 5079   5.289   0.073   6.771
 1394SOL     OW 5080   4.357   0.497   3.647
 1394SOL    HW1 5081   4.379   0.443   3.729
 1394SOL    HW2 5082   4.313   0.438   3.579
 1395SOL     OW 5083   0.813   4.951   2.351
 1395SOL    HW1 5084   0.872   4.982   2.425
 1395SOL    HW2 5085   0.866   4.945   2.266
 1396SOL     OW 5086   1.277   1.379   3.957
 1396SOL    HW1 5087   1.266   1.332   4.045
 1396SOL    HW2 5088   1.271   1.312   3.883
 1397SOL     OW 5089   0.741   5.214   5.338
 1397SOL    HW1 5090   0.737   5.184   5.434
 1397SOL    HW2 5091   0.717   5.138   5.279
 1398SOL     OW 5092   1.700   6.570   6.460
 1398SOL    HW1 5093   1.720   6.619   6.545
 1398SOL    HW2 5094   1.670   6.635   6.390
 1399SOL     OW 5095   3.956   0.118   6.391
 1399SOL    HW1 5096   3.960   0.127   6.292
 1399SOL    HW2 5097   3.865   0.147   6.423
 1400SOL     OW 5098   6.926   1.330   4.847
 1400SOL    HW1 5099   6.837   1.369   4.869
 1400SOL    HW2 5100   6.980   1.396   4.794
 1401SOL     OW 5101   5.829   0.459   2.199
 1401SOL    HW1 5102   5.866   0.367   2.190
 1401SOL    HW2 5103   5.888   0.513   2.259
 1402SOL     OW 5104   6.766   4.650   2.067
 1402SOL    HW1 5105   6.863   4.637   2.087
 1402SOL    HW2 5106   6.739   4.590   1.991
 1403SOL     OW 5107   3.281   3.236   5.957
 1403SOL    HW1 5108   3.381   3.231   5.960
 1403SOL    HW2 5109   3.250   3.230   5.862
 1404SOL     OW 5110   4.200   6.939   0.865
 1404SOL    HW1 5111   4.102   6.954   0.875
 1404SOL    HW2 5112   4.225   6.849   0.901
 1405SOL     OW 5113   1.003   3.900   0.655
 1405SOL    HW1 5114   1.070   3.846   0.605
 1405SOL    HW2 5115   0.995   3.865   0.749
 1406SOL     OW 5116   1.980   3.017   0.046
 1406SOL    HW1 5117   1.950   2.973   6.984
 1406SOL    HW2 5118   1.950   3.113   0.046
 1407SOL     OW 5119   0.617   2.683   1.013
 1407SOL    HW1 5120   0.585   2.595   0.978
 1407SOL    HW2 5121   0.577   2.700   1.103
 1408SOL     OW 5122   5.461   6.437   0.720
 1408SOL    HW1 5123   5.427   6.394   0.636
 1408SOL    HW2 5124   5.559   6.417   0.730
 1409SOL     OW 5125   6.332   1.840   5.771
 1409SOL    HW1 5126   6.323   1.907   5.698
 1409SOL    HW2 5127   6.295   1.752   5.741
 1410SOL     OW 5128   3.388   0.200   0.018
 1410SOL    HW1 5129   3.336   0.116   0.025
 1410SOL    HW2 5130   3.481   0.185   0.051
 1411SOL     OW 5131   3.605   4.889   6.685
 1411SOL    HW1 5132   3.671   4.823   6.721
 1411SOL    HW2 5133   3.531   4.901   6.751
 1412SOL     OW 5134   2.410   2.244   0.260
 1412SOL    HW1 5135   2.346   2.175   0.226
 1412SOL    HW2 5136   2.443   2.300   0.183
 1413SOL     OW 5137   2.110   1.662   5.361
 1413SOL    HW1 5138   2.065   1.749   5.340
 1413SOL    HW2 5139   2.198   1.680   5.405
 1414SOL     OW 5140   0.893   4.872   1.687
 1414SOL    HW1 5141   0.988   4.894   1.669
 1414SOL    HW2 5142   0.877   4.775   1.665
 1415SOL     OW 5143   3.389   1.796   4.790
 1415SOL    HW1 5144   3.385   1.885   4.835
 1415SOL    HW2 5145   3.484   1.771   4.774
 1416SOL     OW 5146   4.196   0.672   4.842
 1416SOL    HW1 5147   4.256   0.627   4.776
 1416SOL    HW2 5148   4.251   0.710   4.916
 1417SOL     OW 5149   3.285   3.474   4.277
 1417SOL    HW1 5150   3.277   3.572   4.260
 1417SOL    HW2 5151   3.194   3.436   4.298
 1418SOL     OW 5152   3.259   3.542   5.781
 1418SOL    HW1 5153   3.198   3.610   5.741
 1418SOL    HW2 5154   3.325   3.511   5.712
 1419SOL     OW 5155   1.053   5.945   2.363
 1419SOL    HW1 5156   1.060   5.940   2.463
 1419SOL    HW2 5157   1.112   5.875   2.322
 1420SOL     OW 5158   3.082   5.884   3.027
 1420SOL    HW1 5159   3.135   5.920   3.104
 1420SOL    HW2 5160   3.132   5.896   2.942
 1421SOL     OW 5161   1.995   5.466   6.920
 1421SOL    HW1 5162   2.080   5.483   6.969
 1421SOL    HW2 5163   1.918   5.500   6.975
 1422SOL     OW 5164   1.765   3.384   6.715
 1422SOL    HW1 5165   1.714   3.308   6.676
 1422SOL    HW2 5166   1.844   3.350   6.766
 1423SOL     OW 5167   3.714   0.683   4.932
 1423SOL    HW1 5168   3.652   0.678   5.010
 1423SOL    HW2 5169   3.674   0.741   4.861
 1424SOL     OW 5170   6.504   2.627   1.051
 1424SOL    HW1 5171   6.574   2.644   0.982
 1424SOL    HW2 5172   6.490   2.528   1.060
 1425SOL     OW 5173   5.439   0.258   3.746
 1425SOL    HW1 5174   5.480   0.279   3.835
 1425SOL    HW2 5175   5.340   0.250   3.757
 1426SOL     OW 5176   4.339   0.519   0.003
 1426SOL    HW1 5177   4.276   0.589   6.992
 1426SOL    HW2 5178   4.415   0.510   6.962
 1427SOL     OW 5179   1.140   0.582   4.161
 1427SOL    HW1 5180   1.109   0.570   4.067
 1427SOL    HW2 5181   1.213   0.517   4.181
 1428SOL     OW 5182   2.164   3.855   3.972
 1428SOL    HW1 5183   2.222   3.937   3.967
 1428SOL    HW2 5184   2.179   3.809   4.059
 1429SOL     OW 5185   5.988   0.055   1.733
 1429SOL    HW1 5186   6.009   6.980   1.744
 1429SOL    HW2 5187   6.034   0.107   1.805
 1430SOL     OW 5188   2.161   4.174   4.509
 1430SOL    HW1 5189   2.188   4.095   4.454
 1430SOL    HW2 5190   2.235   4.241   4.509
 1431SOL     OW 5191   3.418   1.299   0.397
 1431SOL    HW1 5192   3.439   1.243   0.317
 1431SOL    HW2 5193   3.378   1.386   0.367
 1432SOL     OW 5194   4.522   6.726   2.853
 1432SOL    HW1 5195   4.591   6.730   2.781
 1432SOL    HW2 5196   4.506   6.630   2.878
 1433SOL     OW 5197   3.137   1.272   3.748
 1433SOL    HW1 5198   3.210   1.340   3.755
 1433SOL    HW2 5199   3.128   1.243   3.653
 1434SOL     OW 5200   5.311   4.221   0.406
 1434SOL    HW1 5201   5.252   4.141   0.393
 1434SOL    HW2 5202   5.295   4.260   0.496
 1435SOL     OW 5203   0.655   6.795   4.510
 1435SOL    HW1 5204   0.696   6.796   4.419
 1435SOL    HW2 5205   0.727   6.789   4.579
 1436SOL     OW 5206   5.758   0.916   0.273
 1436SOL    HW1 5207   5.714   0.856   0.339
 1436SOL    HW2 5208   5.784   1.002   0.319
 1437SOL     OW 5209   4.220   1.281   0.342
 1437SOL    HW1 5210   4.173   1.347   0.400
 1437SOL    HW2 5211   4.267   1.329   0.268
 1438SOL     OW 5212   2.233   6.955   2.362
 1438SOL    HW1 5213   2.291   6.998   2.432
 1438SOL    HW2 5214   2.154   7.014   2.344
 1439SOL     OW 5215   0.715   5.297   6.429
 1439SOL    HW1 5216   0.692   5.270   6.522
 1439SOL    HW2 5217   0.649   5.365   6.397
 1440SOL     OW 5218   4.165   3.409   2.424
 1440SOL    HW1 5219   4.230   3.448   2.360
 1440SOL    HW2 5220   4.081   3.464   2.424
 1441SOL     OW 5221   6.137   2.044   5.900
 1441SOL    HW1 5222   6.186   1.957   5.909
 1441SOL    HW2 5223   6.078   2.057   5.980
 1442SOL     OW 5224   5.348   6.004   0.380
 1442SOL    HW1 5225   5.368   6.032   0.286
 1442SOL    HW2 5226   5.331   6.086   0.436
 1443SOL     OW 5227   1.262   2.648   3.447
 1443SOL    HW1 5228   1.279   2.723   3.382
 1443SOL    HW2 5229   1.164   2.629   3.449
 1444SOL     OW 5230   5.269   6.578   5.037
 1444SOL    HW1 5231   5.215   6.578   4.952
 1444SOL    HW2 5232   5.364   6.599   5.016
 1445SOL     OW 5233   6.411   1.792   0.505
 1445SOL    HW1 5234   6.491   1.837   0.544
 1445SOL    HW2 5235   6.361   1.745   0.578
 1446SOL     OW 5236   3.742   6.047   1.460
 1446SOL    HW1 5237   3.730   5.954   1.497
 1446SOL    HW2 5238   3.837   6.076   1.473
 1447SOL     OW 5239   6.310   1.119   5.019
 1447SOL    HW1 5240   6.328   1.194   4.956
 1447SOL    HW2 5241   6.268   1.043   4.969
 1448SOL     OW 5242   5.421   0.448   6.941
 1448SOL    HW1 5243   5.464   0.451   6.851
 1448SOL    HW2 5244   5.376   0.359   6.954
 1449SOL     OW 5245   4.602   5.465   1.156
 1449SOL    HW1 5246   4.515   5.514   1.150
 1449SOL    HW2 5247   4.620   5.440   1.251
 1450SOL     OW 5248   6.264   1.841   3.413
 1450SOL    HW1 5249   6.330   1.786   3.464
 1450SOL    HW2 5250   6.242   1.924   3.465
 1451SOL     OW 5251   1.462   6.372   1.721
 1451SOL    HW1 5252   1.529   6.315   1.768
 1451SOL    HW2 5253   1.394   6.406   1.787
 1452SOL     OW 5254   3.467   0.826   5.457
 1452SOL    HW1 5255   3.419   0.865   5.536
 1452SOL    HW2 5256   3.496   0.733   5.478
 1453SOL     OW 5257   4.713   4.533   4.503
 1453SOL    HW1 5258   4.642   4.604   4.499
 1453SOL    HW2 5259   4.670   4.444   4.512
 1454SOL     OW 5260   4.909   4.407   0.886
 1454SOL    HW1 5261   4.930   4.505   0.883
 1454SOL    HW2 5262   4.872   4.377   0.798
 1455SOL     OW 5263   2.007   2.244   1.867
 1455SOL    HW1 5264   2.065   2.246   1.786
 1455SOL    HW2 5265   2.042   2.176   1.932
 1456SOL     OW 5266   5.939   5.197   4.921
 1456SOL    HW1 5267   5.961   5.138   4.843
 1456SOL    HW2 5268   5.897   5.142   4.994
 1457SOL     OW 5269   2.294   0.374   3.795
 1457SOL    HW1 5270   2.222   0.305   3.792
 1457SOL    HW2 5271   2.267   0.448   3.858
 1458SOL     OW 5272   6.841   5.545   0.272
 1458SOL    HW1 5273   6.941   5.543   0.267
 1458SOL    HW2 5274   6.813   5.589   0.357
 1459SOL     OW 5275   2.895   0.084   1.142
 1459SOL    HW1 5276   2.887   0.177   1.177
 1459SOL    HW2 5277   2.840   0.022   1.197
 1460SOL     OW 5278   0.922   6.578   0.062
 1460SOL    HW1 5279   0.836   6.627   0.046
 1460SOL    HW2 5280   0.934   6.507   7.016
 1461SOL     OW 5281   4.718   5.521   2.566
 1461SOL    HW1 5282   4.724   5.491   2.662
 1461SOL    HW2 5283   4.634   5.484   2.526
 1462SOL     OW 5284   5.322   0.256   5.249
 1462SOL    HW1 5285   5.415   0.249   5.285
 1462SOL    HW2 5286   5.257   0.221   5.317
 1463SOL     OW 5287   0.848   2.350   6.185
 1463SOL    HW1 5288   0.780   2.277   6.190
 1463SOL    HW2 5289   0.853   2.396   6.274
 1464SOL     OW 5290   0.797   0.948   1.558
 1464SOL    HW1 5291   0.764   0.893   1.634
 1464SOL    HW2 5292   0.763   1.042   1.568
 1465SOL     OW 5293   0.665   0.642   4.172
 1465SOL    HW1 5294   0.714   0.586   4.240
 1465SOL    HW2 5295   0.613   0.713   4.219
 1466SOL     OW 5296   5.507   5.057   4.724
 1466SOL    HW1 5297   5.449   4.996   4.669
 1466SOL    HW2 5298   5.587   5.083   4.670
 1467SOL     OW 5299   5.899   3.658   3.639
 1467SOL    HW1 5300   5.952   3.709   3.707
 1467SOL    HW2 5301   5.868   3.572   3.678
 1468SOL     OW 5302   4.985   0.001   1.983
 1468SOL    HW1 5303   5.029   6.942   1.945
 1468SOL    HW2 5304   4.901   0.021   1.933
 1469SOL     OW 5305   0.959   1.227   2.158
 1469SOL    HW1 5306   0.873   1.215   2.109
 1469SOL    HW2 5307   1.020   1.151   2.137
 1470SOL     OW 5308   6.872   0.740   3.117
 1470SOL    HW1 5309   6.840   0.676   3.186
 1470SOL    HW2 5310   6.958   0.781   3.147
 1471SOL     OW 5311   6.053   0.467   1.223
 1471SOL    HW1 5312   6.025   0.546   1.278
 1471SOL    HW2 5313   6.041   0.487   1.126
 1472SOL     OW 5314   4.752   5.508   4.778
 1472SOL    HW1 5315   4.825   5.468   4.723
 1472SOL    HW2 5316   4.757   5.474   4.871
 1473SOL     OW 5317   6.094   4.002   3.138
 1473SOL    HW1 5318   6.105   3.995   3.237
 1473SOL    HW2 5319   6.159   4.067   3.101
 1474SOL     OW 5320   5.096   5.377   3.212
 1474SOL    HW1 5321   5.093   5.443   3.287
 1474SOL    HW2 5322   5.016   5.316   3.218
 1475SOL     OW 5323   5.885   0.745   3.840
 1475SOL    HW1 5324   5.882   0.839   3.807
 1475SOL    HW2 5325   5.974   0.705   3.818
 1476SOL     OW 5326   6.856   2.406   0.974
 1476SOL    HW1 5327   6.824   2.354   0.895
 1476SOL    HW2 5328   6.895   2.493   0.944
 1477SOL     OW 5329   2.109   6.409   3.699
 1477SOL    HW1 5330   2.093   6.424   3.797
 1477SOL    HW2 5331   2.055   6.331   3.668
 1478SOL     OW 5332   0.014   4.089   1.627
 1478SOL    HW1 5333   0.037   4.175   1.673
 1478SOL    HW2 5334   6.988   4.029   1.691
 1479SOL     OW 5335   1.229   4.958   0.476
 1479SOL    HW1 5336   1.219   4.889   0.548
 1479SOL    HW2 5337   1.148   4.955   0.416
 1480SOL     OW 5338   2.620   1.122   0.121
 1480SOL    HW1 5339   2.708   1.122   0.169
 1480SOL    HW2 5340   2.635   1.111   0.023
 1481SOL     OW 5341   0.557   3.307   6.494
 1481SOL    HW1 5342   0.519   3.322   6.585
 1481SOL    HW2 5343   0.628   3.236   6.499
 1482SOL     OW 5344   5.361   0.609   6.186
 1482SOL    HW1 5345   5.364   0.556   6.271
 1482SOL    HW2 5346   5.326   0.701   6.206
 1483SOL     OW 5347   6.554   2.153   6.385
 1483SOL    HW1 5348   6.588   2.059   6.393
 1483SOL    HW2 5349   6.458   2.151   6.357
 1484SOL     OW 5350   6.263   0.020   3.274
 1484SOL    HW1 5351   6.259   6.985   3.356
 1484SOL    HW2 5352   6.200   0.097   3.284
 1485SOL     OW 5353   5.821   2.902   4.052
 1485SOL    HW1 5354   5.855   2.994   4.070
 1485SOL    HW2 5355   5.729   2.907   4.014
 1486SOL     OW 5356   5.756   2.223   2.001
 1486SOL    HW1 5357   5.662   2.254   2.014
 1486SOL    HW2 5358   5.810   2.244   2.082
 1487SOL     OW 5359   6.884   1.001   6.000
 1487SOL    HW1 5360   6.810   0.935   6.004
 1487SOL    HW2 5361   6.953   0.969   5.935
 1488SOL     OW 5362   5.276   2.298   4.151
 1488SOL    HW1 5363   5.260   2.375   4.090
 1488SOL    HW2 5364   5.191   2.272   4.196
 1489SOL     OW 5365   3.807   5.464   4.018
 1489SOL    HW1 5366   3.857   5.390   4.063
 1489SOL    HW2 5367   3.872   5.529   3.979
 1490SOL     OW 5368   2.505   2.709   1.394
 1490SOL    HW1 5369   2.543   2.801   1.396
 1490SOL    HW2 5370   2.578   2.643   1.414
 1491SOL     OW 5371   0.303   2.727   5.336
 1491SOL    HW1 5372   0.402   2.739   5.352
 1491SOL    HW2 5373   0.256   2.722   5.424
 1492SOL     OW 5374   5.739   2.477   1.666
 1492SOL    HW1 5375   5.816   2.439   1.718
 1492SOL    HW2 5376   5.760   2.473   1.568
 1493SOL     OW 5377   6.117   1.746   5.355
 1493SOL    HW1 5378   6.120   1.761   5.256
 1493SOL    HW2 5379   6.040   1.686   5.378
 1494SOL     OW 5380   5.907   1.792   4.699
 1494SOL    HW1 5381   5.812   1.815   4.718
 1494SOL    HW2 5382   5.942   1.850   4.626
 1495SOL     OW 5383   1.033   3.798   2.844
 1495SOL    HW1 5384   1.069   3.724   2.787
 1495SOL    HW2 5385   1.095   3.876   2.842
 1496SOL     OW 5386   0.907   1.204   2.559
 1496SOL    HW1 5387   0.998   1.172   2.531
 1496SOL    HW2 5388   0.868   1.141   2.625
 1497SOL     OW 5389   5.281   5.014   5.632
 1497SOL    HW1 5390   5.335   4.942   5.587
 1497SOL    HW2 5391   5.221   5.057   5.564
 1498SOL     OW 5392   2.226   5.251   0.438
 1498SOL    HW1 5393   2.134   5.224   0.466
 1498SOL    HW2 5394   2.241   5.225   0.343
 1499SOL     OW 5395   1.100   4.223   4.393
 1499SOL    HW1 5396   1.199   4.217   4.408
 1499SOL    HW2 5397   1.070   4.147   4.336
 1500SOL     OW 5398   4.578   6.504   5.300
 1500SOL    HW1 5399   4.542   6.540   5.386
 1500SOL    HW2 5400   4.660   6.450   5.318
 1501SOL     OW 5401   3.869   0.388   0.205
 1501SOL    HW1 5402   3.887   0.395   0.107
 1501SOL    HW2 5403   3.951   0.412   0.256
 1502SOL     OW 5404   6.977   6.060   6.735
 1502SOL    HW1 5405   6.972   5.990   6.664
 1502SOL    HW2 5406   6.957   6.020   6.824
 1503SOL     OW 5407   3.604   4.289   5.252
 1503SOL    HW1 5408   3.609   4.204   5.200
 1503SOL    HW2 5409   3.693   4.308   5.294
 1504SOL     OW 5410   2.673   6.587   4.447
 1504SOL    HW1 5411   2.703   6.568   4.353
 1504SOL    HW2 5412   2.681   6.505   4.502
 1505SOL     OW 5413   4.701   6.740   2.258
 1505SOL    HW1 5414   4.654   6.792   2.187
 1505SOL    HW2 5415   4.751   6.664   2.215
 1506SOL     OW 5416   0.870   6.800   3.285
 1506SOL    HW1 5417   0.809   6.723   3.267
 1506SOL    HW2 5418   0.924   6.819   3.203
 1507SOL     OW 5419   2.743   2.254   0.091
 1507SOL    HW1 5420   2.727   2.173   0.148
 1507SOL    HW2 5421   2.832   2.245   0.045
 1508SOL     OW 5422   4.660   6.984   1.005
 1508SOL    HW1 5423   4.741   6.938   1.042
 1508SOL    HW2 5424   4.676   0.060   1.001
 1509SOL     OW 5425   5.544   1.771   6.824
 1509SOL    HW1 5426   5.468   1.837   6.826
 1509SOL    HW2 5427   5.534   1.711   6.744
 1510SOL     OW 5428   0.054   2.185   2.717
 1510SOL    HW1 5429   0.022   2.131   2.795
 1510SOL    HW2 5430   0.093   2.271   2.750
 1511SOL     OW 5431   1.022   3.241   0.501
 1511SOL    HW1 5432   1.115   3.279   0.493
 1511SOL    HW2 5433   0.964   3.279   0.429
 1512SOL     OW 5434   6.338   1.049   1.998
 1512SOL    HW1 5435   6.304   1.098   2.079
 1512SOL    HW2 5436   6.351   1.113   1.923
 1513SOL     OW 5437   3.172   0.432   2.452
 1513SOL    HW1 5438   3.139   0.509   2.507
 1513SOL    HW2 5439   3.212   0.363   2.512
 1514SOL     OW 5440   4.433   0.633   6.085
 1514SOL    HW1 5441   4.465   0.569   6.014
 1514SOL    HW2 5442   4.334   0.628   6.092
 1515SOL     OW 5443   5.583   5.247   4.941
 1515SOL    HW1 5444   5.669   5.245   4.992
 1515SOL    HW2 5445   5.586   5.179   4.868
 1516SOL     OW 5446   0.810   1.162   0.602
 1516SOL    HW1 5447   0.769   1.249   0.627
 1516SOL    HW2 5448   0.739   1.099   0.570
 1517SOL     OW 5449   3.412   5.450   3.323
 1517SOL    HW1 5450   3.415   5.387   3.246
 1517SOL    HW2 5451   3.495   5.438   3.379
 1518SOL     OW 5452   0.821   4.636   0.792
 1518SOL    HW1 5453   0.818   4.731   0.761
 1518SOL    HW2 5454   0.759   4.580   0.736
 1519SOL     OW 5455   6.995   3.977   0.920
 1519SOL    HW1 5456   7.019   4.041   0.993
 1519SOL    HW2 5457   0.046   3.910   0.910
 1520SOL     OW 5458   1.250   2.333   2.925
 1520SOL    HW1 5459   1.201   2.260   2.878
 1520SOL    HW2 5460   1.333   2.356   2.872
 1521SOL     OW 5461   2.385   4.125   5.367
 1521SOL    HW1 5462   2.407   4.053   5.301
 1521SOL    HW2 5463   2.460   4.190   5.371
 1522SOL     OW 5464   0.921   2.493   6.445
 1522SOL    HW1 5465   0.885   2.542   6.524
 1522SOL    HW2 5466   0.978   2.417   6.476
 1523SOL     OW 5467   5.559   1.217   1.138
 1523SOL    HW1 5468   5.597   1.281   1.071
 1523SOL    HW2 5469   5.493   1.156   1.093
 1524SOL     OW 5470   6.317   0.503   2.290
 1524SOL    HW1 5471   6.276   0.551   2.213
 1524SOL    HW2 5472   6.416   0.500   2.278
 1525SOL     OW 5473   4.743   1.110   6.084
 1525SOL    HW1 5474   4.661   1.154   6.048
 1525SOL    HW2 5475   4.721   1.018   6.114
 1526SOL     OW 5476   6.489   1.089   6.815
 1526SOL    HW1 5477   6.485   1.189   6.822
 1526SOL    HW2 5478   6.418   1.048   6.872
 1527SOL     OW 5479   2.986   1.308   5.720
 1527SOL    HW1 5480   3.004   1.403   5.748
 1527SOL    HW2 5481   3.051   1.247   5.765
 1528SOL     OW 5482   5.755   5.242   3.875
 1528SOL    HW1 5483   5.683   5.269   3.939
 1528SOL    HW2 5484   5.738   5.148   3.843
 1529SOL     OW 5485   2.521   0.465   5.574
 1529SOL    HW1 5486   2.436   0.423   5.542
 1529SOL    HW2 5487   2.593   0.396   5.579
 1530SOL     OW 5488   2.755   6.690   1.555
 1530SOL    HW1 5489   2.714   6.668   1.643
 1530SOL    HW2 5490   2.752   6.609   1.495
 1531SOL     OW 5491   5.480   0.281   6.192
 1531SOL    HW1 5492   5.456   0.215   6.120
 1531SOL    HW2 5493   5.540   0.351   6.154
 1532SOL     OW 5494   3.228   2.528   5.349
 1532SOL    HW1 5495   3.231   2.448   5.288
 1532SOL    HW2 5496   3.220   2.498   5.443
 1533SOL     OW 5497   5.087   2.885   6.854
 1533SOL    HW1 5498   5.171   2.932   6.827
 1533SOL    HW2 5499   5.008   2.928   6.810
 1534SOL     OW 5500   6.696   0.495   2.241
 1534SOL    HW1 5501   6.665   0.400   2.235
 1534SOL    HW2 5502   6.759   0.515   2.165
 1535SOL     OW 5503   5.061   4.224   4.502
 1535SOL    HW1 5504   5.028   4.319   4.510
 1535SOL    HW2 5505   4.983   4.164   4.487
 1536SOL     OW 5506   3.005   5.692   3.254
 1536SOL    HW1 5507   3.007   5.634   3.172
 1536SOL    HW2 5508   2.992   5.787   3.226
 1537SOL     OW 5509   2.948   5.566   4.809
 1537SOL    HW1 5510   2.946   5.632   4.734
 1537SOL    HW2 5511   3.035   5.518   4.809
 1538SOL     OW 5512   3.595   5.257   6.565
 1538SOL    HW1 5513   3.663   5.259   6.491
 1538SOL    HW2 5514   3.551   5.167   6.568
 1539SOL     OW 5515   3.495   6.253   2.149
 1539SOL    HW1 5516   3.465   6.284   2.239
 1539SOL    HW2 5517   3.427   6.281   2.081
 1540SOL     OW 5518   5.906   0.171   5.191
 1540SOL    HW1 5519   5.965   0.170   5.272
 1540SOL    HW2 5520   5.875   0.265   5.174
 1541SOL     OW 5521   4.926   1.213   1.133
 1541SOL    HW1 5522   4.863   1.197   1.057
 1541SOL    HW2 5523   4.891   1.287   1.190
 1542SOL     OW 5524   0.818   5.810   0.829
 1542SOL    HW1 5525   0.879   5.792   0.906
 1542SOL    HW2 5526   0.789   5.723   0.788
 1543SOL     OW 5527   3.433   4.166   3.044
 1543SOL    HW1 5528   3.405   4.254   3.004
 1543SOL    HW2 5529   3.491   4.184   3.123
 1544SOL     OW 5530   3.253   3.249   2.480
 1544SOL    HW1 5531   3.240   3.209   2.389
 1544SOL    HW2 5532   3.216   3.342   2.481
 1545SOL     OW 5533   0.246   0.693   4.415
 1545SOL    HW1 5534   0.167   0.748   4.440
 1545SOL    HW2 5535   0.313   0.695   4.489
 1546SOL     OW 5536   6.537   6.354   6.397
 1546SOL    HW1 5537   6.510   6.319   6.307
 1546SOL    HW2 5538   6.485   6.437   6.417
 1547SOL     OW 5539   3.110   5.885   0.209
 1547SOL    HW1 5540   3.144   5.828   0.134
 1547SOL    HW2 5541   3.157   5.860   0.293
 1548SOL     OW 5542   5.966   4.040   3.867
 1548SOL    HW1 5543   6.000   4.067   3.777
 1548SOL    HW2 5544   5.866   4.043   3.866
 1549SOL     OW 5545   0.043   2.599   0.470
 1549SOL    HW1 5546   0.110   2.674   0.470
 1549SOL    HW2 5547   0.073   2.529   0.405
 1550SOL     OW 5548   2.255   5.289   2.798
 1550SOL    HW1 5549   2.262   5.374   2.852
 1550SOL    HW2 5550   2.317   5.294   2.720
 1551SOL     OW 5551   0.296   3.166   1.485
 1551SOL    HW1 5552   0.368   3.228   1.453
 1551SOL    HW2 5553   0.334   3.105   1.555
 1552SOL     OW 5554   0.735   6.819   2.056
 1552SOL    HW1 5555   0.763   6.741   2.113
 1552SOL    HW2 5556   0.646   6.800   2.015
 1553SOL     OW 5557   5.130   0.955   6.226
 1553SOL    HW1 5558   5.124   1.044   6.272
 1553SOL    HW2 5559   5.169   0.888   6.289
 1554SOL     OW 5560   2.924   2.671   1.128
 1554SOL    HW1 5561   2.839   2.636   1.086
 1554SOL    HW2 5562   2.997   2.669   1.060
 1555SOL     OW 5563   4.082   0.730   0.443
 1555SOL    HW1 5564   4.099   0.755   0.348
 1555SOL    HW2 5565   4.117   0.803   0.503
 1556SOL     OW 5566   3.762   2.037   6.989
 1556SOL    HW1 5567   3.778   2.112   0.031
 1556SOL    HW2 5568   3.838   1.973   6.993
 1557SOL     OW 5569   1.763   3.352   0.535
 1557SOL    HW1 5570   1.672   3.393   0.542
 1557SOL    HW2 5571   1.771   3.279   0.603
 1558SOL     OW 5572   5.110   2.879   6.433
 1558SOL    HW1 5573   5.101   2.799   6.493
 1558SOL    HW2 5574   5.100   2.962   6.488
 1559SOL     OW 5575   2.443   6.112   3.025
 1559SOL    HW1 5576   2.476   6.199   3.061
 1559SOL    HW2 5577   2.374   6.129   2.954
 1560SOL     OW 5578   4.146   2.539   1.182
 1560SOL    HW1 5579   4.157   2.465   1.115
 1560SOL    HW2 5580   4.052   2.572   1.179
 1561SOL     OW 5581   5.738   6.332   0.763
 1561SOL    HW1 5582   5.804   6.317   0.837
 1561SOL    HW2 5583   5.720   6.245   0.716
 1562SOL     OW 5584   3.555   0.487   2.165
 1562SOL    HW1 5585   3.557   0.586   2.176
 1562SOL    HW2 5586   3.632   0.446   2.214
 1563SOL     OW 5587   1.915   2.803   4.231
 1563SOL    HW1 5588   1.907   2.726   4.294
 1563SOL    HW2 5589   1.860   2.880   4.265
 1564SOL     OW 5590   0.829   1.602   2.974
 1564SOL    HW1 5591   0.765   1.600   2.898
 1564SOL    HW2 5592   0.783   1.573   3.058
 1565SOL     OW 5593   4.848   1.587   5.197
 1565SOL    HW1 5594   4.833   1.665   5.137
 1565SOL    HW2 5595   4.779   1.517   5.178
 1566SOL     OW 5596   6.684   4.030   3.745
 1566SOL    HW1 5597   6.661   3.980   3.829
 1566SOL    HW2 5598   6.782   4.018   3.725
 1567SOL     OW 5599   5.382   0.455   5.079
 1567SOL    HW1 5600   5.468   0.497   5.105
 1567SOL    HW2 5601   5.367   0.373   5.134
 1568SOL     OW 5602   2.833   5.122   1.457
 1568SOL    HW1 5603   2.819   5.028   1.488
 1568SOL    HW2 5604   2.930   5.138   1.439
 1569SOL     OW 5605   2.875   1.282   2.797
 1569SOL    HW1 5606   2.903   1.378   2.805
 1569SOL    HW2 5607   2.905   1.246   2.709
 1570SOL     OW 5608   2.847   6.179   6.521
 1570SOL    HW1 5609   2.788   6.115   6.471
 1570SOL    HW2 5610   2.906   6.227   6.456
 1571SOL     OW 5611   0.082   3.394   4.468
 1571SOL    HW1 5612   0.024   3.469   4.499
 1571SOL    HW2 5613   0.076   3.386   4.369
 1572SOL     OW 5614   2.194   5.888   2.929
 1572SOL    HW1 5615   2.252   5.846   2.858
 1572SOL    HW2 5616   2.200   5.987   2.923
 1573SOL     OW 5617   5.177   5.787   0.413
 1573SOL    HW1 5618   5.226   5.871   0.389
 1573SOL    HW2 5619   5.238   5.709   0.403
 1574SOL     OW 5620   0.977   4.247   2.716
 1574SOL    HW1 5621   0.956   4.203   2.803
 1574SOL    HW2 5622   1.075   4.241   2.697
 1575SOL     OW 5623   0.084   2.445   0.245
 1575SOL    HW1 5624   0.038   2.488   0.167
 1575SOL    HW2 5625   0.146   2.374   0.213
 1576SOL     OW 5626   1.826   5.933   1.860
 1576SOL    HW1 5627   1.773   5.851   1.883
 1576SOL    HW2 5628   1.778   5.985   1.789
 1577SOL     OW 5629   3.835   6.058   4.009
 1577SOL    HW1 5630   3.839   6.086   4.105
 1577SOL    HW2 5631   3.852   6.138   3.951
 1578SOL     OW 5632   4.855   1.380   1.518
 1578SOL    HW1 5633   4.914   1.447   1.563
 1578SOL    HW2 5634   4.863   1.292   1.564
 1579SOL     OW 5635   1.546   3.172   1.489
 1579SOL    HW1 5636   1.481   3.245   1.508
 1579SOL    HW2 5637   1.511   3.115   1.414
 1580SOL     OW 5638   3.541   2.967   2.529
 1580SOL    HW1 5639   3.485   2.984   2.447
 1580SOL    HW2 5640   3.481   2.946   2.606
 1581SOL     OW 5641   6.387   4.079   4.978
 1581SOL    HW1 5642   6.347   3.995   5.016
 1581SOL    HW2 5643   6.441   4.057   4.897
 1582SOL     OW 5644   5.001   5.914   4.860
 1582SOL    HW1 5645   4.961   5.972   4.931
 1582SOL    HW2 5646   4.930   5.884   4.796
 1583SOL     OW 5647   1.629   5.690   5.737
 1583SOL    HW1 5648   1.685   5.607   5.744
 1583SOL    HW2 5649   1.660   5.744   5.659
 1584SOL     OW 5650   0.077   3.782   0.264
 1584SOL    HW1 5651   0.141   3.716   0.303
 1584SOL    HW2 5652   0.037   3.743   0.180
 1585SOL     OW 5653   4.470   6.675   3.848
 1585SOL    HW1 5654   4.484   6.772   3.867
 1585SOL    HW2 5655   4.546   6.640   3.793
 1586SOL     OW 5656   2.942   5.816   2.747
 1586SOL    HW1 5657   2.901   5.726   2.730
 1586SOL    HW2 5658   3.042   5.807   2.748
 1587SOL     OW 5659   3.266   6.537   6.858
 1587SOL    HW1 5660   3.297   6.506   6.769
 1587SOL    HW2 5661   3.170   6.567   6.852
 1588SOL     OW 5662   6.468   1.876   3.187
 1588SOL    HW1 5663   6.406   1.919   3.122
 1588SOL    HW2 5664   6.418   1.855   3.271
 1589SOL     OW 5665   6.910   3.595   4.580
 1589SOL    HW1 5666   6.829   3.539   4.596
 1589SOL    HW2 5667   6.882   3.683   4.540
 1590SOL     OW 5668   6.294   1.278   3.346
 1590SOL    HW1 5669   6.351   1.352   3.382
 1590SOL    HW2 5670   6.353   1.204   3.313
 1591SOL     OW 5671   1.327   5.727   0.840
 1591SOL    HW1 5672   1.392   5.701   0.911
 1591SOL    HW2 5673   1.289   5.817   0.861
 1592SOL     OW 5674   0.131   3.695   5.765
 1592SOL    HW1 5675   0.166   3.603   5.780
 1592SOL    HW2 5676   0.191   3.762   5.810
 1593SOL     OW 5677   3.690   6.598   0.263
 1593SOL    HW1 5678   3.659   6.503   0.254
 1593SOL    HW2 5679   3.615   6.654   0.296
 1594SOL     OW 5680   5.402   0.481   2.619
 1594SOL    HW1 5681   5.438   0.574   2.629
 1594SOL    HW2 5682   5.306   0.479   2.648
 1595SOL     OW 5683   0.466   3.137   6.819
 1595SOL    HW1 5684   0.547   3.160   6.872
 1595SOL    HW2 5685   0.409   3.218   6.806
 1596SOL     OW 5686   4.792   4.623   3.480
 1596SOL    HW1 5687   4.727   4.564   3.528
 1596SOL    HW2 5688   4.884   4.582   3.485
 1597SOL     OW 5689   3.221   6.055   0.024
 1597SOL    HW1 5690   3.169   5.995   0.085
 1597SOL    HW2 5691   3.268   6.124   0.078
 1598SOL     OW 5692   1.074   4.744   6.220
 1598SOL    HW1 5693   1.051   4.778   6.129
 1598SOL    HW2 5694   1.168   4.771   6.242
 1599SOL     OW 5695   4.336   5.506   3.462
 1599SOL    HW1 5696   4.267   5.577   3.453
 1599SOL    HW2 5697   4.367   5.501   3.557
 1600SOL     OW 5698   4.195   0.950   1.671
 1600SOL    HW1 5699   4.187   0.921   1.766
 1600SOL    HW2 5700   4.120   0.911   1.617
 1601SOL     OW 5701   6.655   1.452   4.423
 1601SOL    HW1 5702   6.638   1.400   4.506
 1601SOL    HW2 5703   6.738   1.507   4.434
 1602SOL     OW 5704   4.590   5.797   4.071
 1602SOL    HW1 5705   4.603   5.742   3.988
 1602SOL    HW2 5706   4.622   5.890   4.054
 1603SOL     OW 5707   2.987   4.802   2.936
 1603SOL    HW1 5708   3.019   4.795   3.031
 1603SOL    HW2 5709   2.937   4.888   2.924
 1604SOL     OW 5710   4.556   4.873   2.876
 1604SOL    HW1 5711   4.584   4.783   2.843
 1604SOL    HW2 5712   4.617   4.942   2.839
 1605SOL     OW 5713   4.842   4.718   0.463
 1605SOL    HW1 5714   4.879   4.800   0.420
 1605SOL    HW2 5715   4.782   4.745   0.539
 1606SOL     OW 5716   3.212   6.174   4.903
 1606SOL    HW1 5717   3.257   6.114   4.969
 1606SOL    HW2 5718   3.281   6.234   4.860
 1607SOL     OW 5719   4.724   4.346   3.943
 1607SOL    HW1 5720   4.718   4.438   3.906
 1607SOL    HW2 5721   4.662   4.336   4.021
 1608SOL     OW 5722   5.820   2.216   3.515
 1608SOL    HW1 5723   5.731   2.248   3.549
 1608SOL    HW2 5724   5.838   2.125   3.553
 1609SOL     OW 5725   2.307   6.958   1.326
 1609SOL    HW1 5726   2.359   6.947   1.241
 1609SOL    HW2 5727   2.359   7.015   1.390
 1610SOL     OW 5728   5.433   6.812   0.594
 1610SOL    HW1 5729   5.517   6.866   0.597
 1610SOL    HW2 5730   5.398   6.810   0.500
 1611SOL     OW 5731   1.423   3.890   0.139
 1611SOL    HW1 5732   1.394   3.963   0.202
 1611SOL    HW2 5733   1.410   3.920   0.045
 1612SOL     OW 5734   4.074   1.334   2.427
 1612SOL    HW1 5735   4.064   1.369   2.334
 1612SOL    HW2 5736   4.088   1.410   2.490
 1613SOL     OW 5737   6.784   5.579   2.377
 1613SOL    HW1 5738   6.876   5.572   2.414
 1613SOL    HW2 5739   6.774   5.517   2.299
 1614SOL     OW 5740   6.570   1.637   6.062
 1614SOL    HW1 5741   6.505   1.713   6.064
 1614SOL    HW2 5742   6.529   1.556   6.104
 1615SOL     OW 5743   6.951   4.124   5.838
 1615SOL    HW1 5744   6.974   4.196   5.773
 1615SOL    HW2 5745   0.010   4.102   5.893
 1616SOL     OW 5746   0.659   0.250   3.896
 1616SOL    HW1 5747   0.601   0.330   3.883
 1616SOL    HW2 5748   0.604   0.167   3.888
 1617SOL     OW 5749   6.554   5.643   3.263
 1617SOL    HW1 5750   6.506   5.729   3.279
 1617SOL    HW2 5751   6.651   5.654   3.285
 1618SOL     OW 5752   3.368   5.289   3.092
 1618SOL    HW1 5753   3.278   5.245   3.091
 1618SOL    HW2 5754   3.433   5.235   3.039
 1619SOL     OW 5755   0.693   4.569   6.424
 1619SOL    HW1 5756   0.691   4.470   6.409
 1619SOL    HW2 5757   0.652   4.590   6.512
 1620SOL     OW 5758   3.446   6.393   4.287
 1620SOL    HW1 5759   3.395   6.351   4.362
 1620SOL    HW2 5760   3.457   6.326   4.213
 1621SOL     OW 5761   4.596   5.394   0.693
 1621SOL    HW1 5762   4.551   5.371   0.607
 1621SOL    HW2 5763   4.582   5.491   0.713
 1622SOL     OW 5764   6.541   4.199   4.208
 1622SOL    HW1 5765   6.543   4.199   4.308
 1622SOL    HW2 5766   6.447   4.212   4.177
 1623SOL     OW 5767   0.145   2.708   2.928
 1623SOL    HW1 5768   0.142   2.686   3.026
 1623SOL    HW2 5769   0.239   2.701   2.895
 1624SOL     OW 5770   3.719   2.988   0.527
 1624SOL    HW1 5771   3.679   2.904   0.566
 1624SOL    HW2 5772   3.725   3.058   0.598
 1625SOL     OW 5773   0.652   6.786   0.820
 1625SOL    HW1 5774   0.707   6.822   0.745
 1625SOL    HW2 5775   0.599   6.860   0.861
 1626SOL     OW 5776   2.647   1.781   1.676
 1626SOL    HW1 5777   2.646   1.739   1.767
 1626SOL    HW2 5778   2.725   1.746   1.624
 1627SOL     OW 5779   3.996   2.131   6.161
 1627SOL    HW1 5780   3.947   2.196   6.103
 1627SOL    HW2 5781   4.082   2.172   6.192
 1628SOL     OW 5782   5.438   0.140   0.815
 1628SOL    HW1 5783   5.382   0.072   0.862
 1628SOL    HW2 5784   5.465   0.212   0.879
 1629SOL     OW 5785   0.914   0.202   3.573
 1629SOL    HW1 5786   0.942   0.133   3.507
 1629SOL    HW2 5787   0.957   0.184   3.662
 1630SOL     OW 5788   0.416   3.697   6.127
 1630SOL    HW1 5789   0.373   3.608   6.144
 1630SOL    HW2 5790   0.506   3.699   6.171
 1631SOL     OW 5791   6.468   3.473   0.704
 1631SOL    HW1 5792   6.396   3.498   0.639
 1631SOL    HW2 5793   6.445   3.508   0.795
 1632SOL     OW 5794   6.362   5.535   2.201
 1632SOL    HW1 5795   6.393   5.445   2.233
 1632SOL    HW2 5796   6.264   5.532   2.184
 1633SOL     OW 5797   5.269   3.485   4.594
 1633SOL    HW1 5798   5.187   3.431   4.610
 1633SOL    HW2 5799   5.259   3.538   4.510
 1634SOL     OW 5800   0.401   2.811   6.173
 1634SOL    HW1 5801   0.421   2.737   6.109
 1634SOL    HW2 5802   0.468   2.884   6.162
 1635SOL     OW 5803   3.230   6.787   3.666
 1635SOL    HW1 5804   3.178   6.744   3.740
 1635SOL    HW2 5805   3.265   6.876   3.697
 1636SOL     OW 5806   6.670   6.069   0.849
 1636SOL    HW1 5807   6.725   6.151   0.864
 1636SOL    HW2 5808   6.724   5.988   0.869
 1637SOL     OW 5809   1.186   1.515   3.029
 1637SOL    HW1 5810   1.163   1.496   2.934
 1637SOL    HW2 5811   1.149   1.443   3.087
 1638SOL     OW 5812   5.209   2.403   2.315
 1638SOL    HW1 5813   5.194   2.354   2.229
 1638SOL    HW2 5814   5.263   2.346   2.377
 1639SOL     OW 5815   5.191   2.225   2.115
 1639SOL    HW1 5816   5.115   2.219   2.050
 1639SOL    HW2 5817   5.206   2.136   2.158
 1640SOL     OW 5818   5.994   0.794   6.118
 1640SOL    HW1 5819   5.962   0.743   6.039
 1640SOL    HW2 5820   5.996   0.734   6.198
 1641SOL     OW 5821   6.421   1.923   2.798
 1641SOL    HW1 5822   6.423   1.824   2.789
 1641SOL    HW2 5823   6.380   1.964   2.717
 1642SOL     OW 5824   7.022   3.378   6.291
 1642SOL    HW1 5825   7.011   3.360   6.194
 1642SOL    HW2 5826   6.946   3.337   6.342
 1643SOL     OW 5827   2.176   5.207   4.161
 1643SOL    HW1 5828   2.186   5.109   4.140
 1643SOL    HW2 5829   2.082   5.235   4.142
 1644SOL     OW 5830   6.139   2.396   1.631
 1644SOL    HW1 5831   6.082   2.362   1.706
 1644SOL    HW2 5832   6.233   2.406   1.663
 1645SOL     OW 5833   2.295   0.806   5.327
 1645SOL    HW1 5834   2.237   0.853   5.261
 1645SOL    HW2 5835   2.330   0.872   5.393
 1646SOL     OW 5836   1.491   5.042   1.169
 1646SOL    HW1 5837   1.441   5.114   1.217
 1646SOL    HW2 5838   1.555   5.084   1.104
 1647SOL     OW 5839   5.915   2.918   4.433
 1647SOL    HW1 5840   5.965   3.003   4.417
 1647SOL    HW2 5841   5.819   2.938   4.454
 1648SOL     OW 5842   5.715   6.063   1.554
 1648SOL    HW1 5843   5.700   6.020   1.644
 1648SOL    HW2 5844   5.746   6.157   1.567
 1649SOL     OW 5845   3.863   1.578   3.624
 1649SOL    HW1 5846   3.854   1.494   3.571
 1649SOL    HW2 5847   3.833   1.562   3.718
 1650SOL     OW 5848   3.093   3.524   5.423
 1650SOL    HW1 5849   3.064   3.446   5.367
 1650SOL    HW2 5850   3.170   3.570   5.378
 1651SOL     OW 5851   0.771   2.436   3.615
 1651SOL    HW1 5852   0.763   2.458   3.518
 1651SOL    HW2 5853   0.718   2.354   3.636
 1652SOL     OW 5854   0.593   3.500   1.830
 1652SOL    HW1 5855   0.666   3.442   1.866
 1652SOL    HW2 5856   0.622   3.540   1.743
 1653SOL     OW 5857   0.361   4.913   2.131
 1653SOL    HW1 5858   0.346   4.925   2.230
 1653SOL    HW2 5859   0.448   4.865   2.117
 1654SOL     OW 5860   0.349   3.548   1.948
 1654SOL    HW1 5861   0.445   3.527   1.928
 1654SOL    HW2 5862   0.316   3.617   1.884
 1655SOL     OW 5863   0.491   0.790   5.750
 1655SOL    HW1 5864   0.457   0.879   5.719
 1655SOL    HW2 5865   0.542   0.802   5.835
 1656SOL     OW 5866   2.197   3.960   3.150
 1656SOL    HW1 5867   2.147   3.988   3.068
 1656SOL    HW2 5868   2.261   4.032   3.177
 1657SOL     OW 5869   0.364   6.962   5.882
 1657SOL    HW1 5870   0.382   6.935   5.787
 1657SOL    HW2 5871   0.275   7.006   5.888
 1658SOL     OW 5872   5.255   6.543   6.303
 1658SOL    HW1 5873   5.182   6.481   6.333
 1658SOL    HW2 5874   5.250   6.555   6.204
 1659SOL     OW 5875   4.067   6.716   5.743
 1659SOL    HW1 5876   4.064   6.780   5.667
 1659SOL    HW2 5877   3.976   6.711   5.785
 1660SOL     OW 5878   2.355   0.729   2.123
 1660SOL    HW1 5879   2.441   0.680   2.138
 1660SOL    HW2 5880   2.366   0.824   2.152
 1661SOL     OW 5881   4.902   3.751   2.934
 1661SOL    HW1 5882   4.920   3.665   2.982
 1661SOL    HW2 5883   4.895   3.734   2.836
 1662SOL     OW 5884   0.405   1.997   3.865
 1662SOL    HW1 5885   0.398   2.029   3.771
 1662SOL    HW2 5886   0.318   1.953   3.892
 1663SOL     OW 5887   5.205   4.434   1.021
 1663SOL    HW1 5888   5.173   4.523   1.054
 1663SOL    HW2 5889   5.293   4.413   1.063
 1664SOL     OW 5890   1.359   0.526   6.306
 1664SOL    HW1 5891   1.277   0.582   6.318
 1664SOL    HW2 5892   1.440   0.579   6.332
 1665SOL     OW 5893   2.628   4.293   6.837
 1665SOL    HW1 5894   2.715   4.286   6.788
 1665SOL    HW2 5895   2.631   4.372   6.898
 1666SOL     OW 5896   4.626   6.342   6.430
 1666SOL    HW1 5897   4.623   6.436   6.396
 1666SOL    HW2 5898   4.716   6.302   6.410
 1667SOL     OW 5899   6.703   5.609   0.508
 1667SOL    HW1 5900   6.662   5.538   0.566
 1667SOL    HW2 5901   6.633   5.675   0.480
 1668SOL     OW 5902   5.678   3.706   2.351
 1668SOL    HW1 5903   5.757   3.740   2.403
 1668SOL    HW2 5904   5.595   3.719   2.405
 1669SOL     OW 5905   6.574   3.287   5.275
 1669SOL    HW1 5906   6.528   3.264   5.190
 1669SOL    HW2 5907   6.633   3.367   5.260
 1670SOL     OW 5908   2.838   4.691   5.789
 1670SOL    HW1 5909   2.907   4.713   5.858
 1670SOL    HW2 5910   2.748   4.684   5.833
 1671SOL     OW 5911   5.974   2.789   0.357
 1671SOL    HW1 5912   6.005   2.883   0.348
 1671SOL    HW2 5913   6.054   2.728   0.362
 1672SOL     OW 5914   0.461   2.449   0.933
 1672SOL    HW1 5915   0.435   2.352   0.928
 1672SOL    HW2 5916   0.395   2.504   0.882
 1673SOL     OW 5917   1.209   0.494   4.484
 1673SOL    HW1 5918   1.262   0.486   4.399
 1673SOL    HW2 5919   1.247   0.434   4.554
 1674SOL     OW 5920   5.027   1.896   2.908
 1674SOL    HW1 5921   4.929   1.885   2.926
 1674SOL    HW2 5922   5.051   1.993   2.917
 1675SOL     OW 5923   4.879   0.305   1.812
 1675SOL    HW1 5924   4.960   0.301   1.870
 1675SOL    HW2 5925   4.797   0.308   1.869
 1676SOL     OW 5926   1.041   2.448   3.618
 1676SOL    HW1 5927   0.942   2.444   3.632
 1676SOL    HW2 5928   1.067   2.384   3.546
 1677SOL     OW 5929   3.447   3.109   3.272
 1677SOL    HW1 5930   3.456   3.063   3.184
 1677SOL    HW2 5931   3.351   3.130   3.290
 1678SOL     OW 5932   1.527   0.365   0.542
 1678SOL    HW1 5933   1.565   0.351   0.634
 1678SOL    HW2 5934   1.526   0.278   0.493
 1679SOL     OW 5935   6.584   1.518   6.679
 1679SOL    HW1 5936   6.532   1.482   6.757
 1679SOL    HW2 5937   6.528   1.510   6.596
 1680SOL     OW 5938   5.785   2.698   3.144
 1680SOL    HW1 5939   5.779   2.796   3.124
 1680SOL    HW2 5940   5.802   2.648   3.060
 1681SOL     OW 5941   3.660   6.072   4.841
 1681SOL    HW1 5942   3.695   5.981   4.863
 1681SOL    HW2 5943   3.568   6.063   4.802
 1682SOL     OW 5944   3.426   0.368   4.218
 1682SOL    HW1 5945   3.486   0.444   4.192
 1682SOL    HW2 5946   3.456   0.332   4.307
 1683SOL     OW 5947   6.726   3.211   3.228
 1683SOL    HW1 5948   6.695   3.211   3.133
 1683SOL    HW2 5949   6.654   3.247   3.287
 1684SOL     OW 5950   2.655   4.719   1.737
 1684SOL    HW1 5951   2.711   4.668   1.803
 1684SOL    HW2 5952   2.616   4.799   1.782
 1685SOL     OW 5953   6.875   1.687   5.636
 1685SOL    HW1 5954   6.820   1.675   5.718
 1685SOL    HW2 5955   6.818   1.724   5.562
 1686SOL     OW 5956   4.345   5.601   2.534
 1686SOL    HW1 5957   4.426   5.658   2.551
 1686SOL    HW2 5958   4.338   5.531   2.604
 1687SOL     OW 5959   4.968   4.674   0.841
 1687SOL    HW1 5960   4.999   4.736   0.769
 1687SOL    HW2 5961   4.936   4.728   0.919
 1688SOL     OW 5962   1.274   0.276   3.342
 1688SOL    HW1 5963   1.307   0.346   3.406
 1688SOL    HW2 5964   1.312   0.294   3.251
 1689SOL     OW 5965   4.467   0.731   1.652
 1689SOL    HW1 5966   4.530   0.664   1.613
 1689SOL    HW2 5967   4.389   0.744   1.591
 1690SOL     OW 5968   6.782   4.732   4.025
 1690SOL    HW1 5969   6.748   4.640   4.046
 1690SOL    HW2 5970   6.723   4.774   3.957
 1691SOL     OW 5971   4.333   2.794   5.344
 1691SOL    HW1 5972   4.380   2.718   5.389
 1691SOL    HW2 5973   4.237   2.771   5.330
 1692SOL     OW 5974   5.067   4.956   1.498
 1692SOL    HW1 5975   4.998   4.982   1.430
 1692SOL    HW2 5976   5.149   5.012   1.486
 1693SOL     OW 5977   5.430   6.779   6.107
 1693SOL    HW1 5978   5.336   6.785   6.072
 1693SOL    HW2 5979   5.450   6.685   6.133
 1694SOL     OW 5980   4.633   1.707   6.345
 1694SOL    HW1 5981   4.561   1.652   6.387
 1694SOL    HW2 5982   4.688   1.649   6.285
 1695SOL     OW 5983   3.645   0.558   5.577
 1695SOL    HW1 5984   3.741   0.562   5.547
 1695SOL    HW2 5985   3.599   0.483   5.529
 1696SOL     OW 5986   4.262   6.524   0.771
 1696SOL    HW1 5987   4.296   6.591   0.837
 1696SOL    HW2 5988   4.258   6.567   0.680
 1697SOL     OW 5989   4.911   2.842   1.889
 1697SOL    HW1 5990   4.851   2.764   1.869
 1697SOL    HW2 5991   4.856   2.920   1.917
 1698SOL     OW 5992   4.146   1.367   1.291
 1698SOL    HW1 5993   4.099   1.455   1.300
 1698SOL    HW2 5994   4.223   1.364   1.355
 1699SOL     OW 5995   2.113   0.208   0.349
 1699SOL    HW1 5996   2.036   0.268   0.329
 1699SOL    HW2 5997   2.196   0.263   0.364
 1700SOL     OW 5998   5.288   2.757   2.915
 1700SOL    HW1 5999   5.245   2.666   2.917
 1700SOL    HW2 6000   5.271   2.800   2.827
 1701SOL     OW 6001   0.030   6.150   5.171
 1701SOL    HW1 6002   0.092   6.117   5.100
 1701SOL    HW2 6003   6.967   6.182   5.129
 1702SOL     OW 6004   2.137   2.631   6.957
 1702SOL    HW1 6005   2.203   2.705   6.949
 1702SOL    HW2 6006   2.046   2.668   6.975
 1703SOL     OW 6007   1.282   1.786   2.107
 1703SOL    HW1 6008   1.293   1.839   2.023
 1703SOL    HW2 6009   1.201   1.817   2.155
 1704SOL     OW 6010   2.729   2.712   0.116
 1704SOL    HW1 6011   2.768   2.684   0.029
 1704SOL    HW2 6012   2.651   2.653   0.139
 1705SOL     OW 6013   4.393   3.062   0.674
 1705SOL    HW1 6014   4.468   3.020   0.726
 1705SOL    HW2 6015   4.366   3.147   0.719
 1706SOL     OW 6016   6.067   2.083   6.684
 1706SOL    HW1 6017   6.058   2.101   6.782
 1706SOL    HW2 6018   6.120   1.999   6.671
 1707SOL     OW 6019   3.741   1.183   2.286
 1707SOL    HW1 6020   3.779   1.152   2.373
 1707SOL    HW2 6021   3.650   1.143   2.274
 1708SOL     OW 6022   2.870   4.826   1.967
 1708SOL    HW1 6023   2.829   4.748   2.014
 1708SOL    HW2 6024   2.811   4.906   1.977
 1709SOL     OW 6025   5.096   4.952   0.994
 1709SOL    HW1 6026   5.158   4.923   1.067
 1709SOL    HW2 6027   5.016   4.997   1.034
 1710SOL     OW 6028   4.824   3.874   2.302
 1710SOL    HW1 6029   4.855   3.950   2.245
 1710SOL    HW2 6030   4.762   3.909   2.373
 1711SOL     OW 6031   3.908   5.790   0.241
 1711SOL    HW1 6032   3.857   5.829   0.164
 1711SOL    HW2 6033   4.005   5.812   0.232
 1712SOL     OW 6034   0.786   1.690   1.943
 1712SOL    HW1 6035   0.750   1.735   2.025
 1712SOL    HW2 6036   0.858   1.625   1.970
 1713SOL     OW 6037   2.670   1.488   2.669
 1713SOL    HW1 6038   2.708   1.472   2.760
 1713SOL    HW2 6039   2.572   1.505   2.676
 1714SOL     OW 6040   2.909   3.999   1.202
 1714SOL    HW1 6041   2.888   3.985   1.105
 1714SOL    HW2 6042   2.967   4.080   1.212
 1715SOL     OW 6043   1.055   6.169   1.489
 1715SOL    HW1 6044   1.140   6.179   1.439
 1715SOL    HW2 6045   1.020   6.076   1.477
 1716SOL     OW 6046   3.867   1.483   3.057
 1716SOL    HW1 6047   3.806   1.545   3.107
 1716SOL    HW2 6048   3.852   1.493   2.959
 1717SOL     OW 6049   3.456   6.056   4.175
 1717SOL    HW1 6050   3.485   6.071   4.270
 1717SOL    HW2 6051   3.508   5.980   4.136
 1718SOL     OW 6052   1.818   3.160   1.462
 1718SOL    HW1 6053   1.729   3.195   1.489
 1718SOL    HW2 6054   1.820   3.061   1.475
 1719SOL     OW 6055   1.367   5.463   2.633
 1719SOL    HW1 6056   1.447   5.520   2.652
 1719SOL    HW2 6057   1.369   5.382   2.691
 1720SOL     OW 6058   0.887   3.455   5.348
 1720SOL    HW1 6059   0.928   3.500   5.269
 1720SOL    HW2 6060   0.956   3.443   5.419
 1721SOL     OW 6061   1.829   2.971   0.444
 1721SOL    HW1 6062   1.873   3.061   0.438
 1721SOL    HW2 6063   1.894   2.905   0.482
 1722SOL     OW 6064   2.181   2.105   4.266
 1722SOL    HW1 6065   2.135   2.185   4.230
 1722SOL    HW2 6066   2.222   2.126   4.355
 1723SOL     OW 6067   5.699   4.179   1.336
 1723SOL    HW1 6068   5.708   4.237   1.417
 1723SOL    HW2 6069   5.731   4.230   1.255
 1724SOL     OW 6070   5.226   2.202   0.913
 1724SOL    HW1 6071   5.252   2.106   0.914
 1724SOL    HW2 6072   5.196   2.228   0.821
 1725SOL     OW 6073   2.035   6.337   5.892
 1725SOL    HW1 6074   1.986   6.423   5.876
 1725SOL    HW2 6075   2.127   6.343   5.853
 1726SOL     OW 6076   4.916   4.414   2.743
 1726SOL    HW1 6077   4.845   4.484   2.755
 1726SOL    HW2 6078   4.987   4.425   2.812
 1727SOL     OW 6079   3.134   4.025   2.949
 1727SOL    HW1 6080   3.205   3.963   2.981
 1727SOL    HW2 6081   3.114   4.093   3.019
 1728SOL     OW 6082   5.773   2.505   4.019
 1728SOL    HW1 6083   5.815   2.573   4.078
 1728SOL    HW2 6084   5.768   2.417   4.067
 1729SOL     OW 6085   1.436   2.674   2.613
 1729SOL    HW1 6086   1.347   2.695   2.653
 1729SOL    HW2 6087   1.435   2.698   2.516
 1730SOL     OW 6088   2.293   6.360   4.255
 1730SOL    HW1 6089   2.289   6.313   4.342
 1730SOL    HW2 6090   2.328   6.453   4.268
 1731SOL     OW 6091   4.828   4.803   3.686
 1731SOL    HW1 6092   4.815   4.745   3.606
 1731SOL    HW2 6093   4.846   4.746   3.766
 1732SOL     OW 6094   2.971   3.717   5.122
 1732SOL    HW1 6095   2.884   3.679   5.153
 1732SOL    HW2 6096   3.014   3.654   5.058
 1733SOL     OW 6097   1.829   2.812   6.256
 1733SOL    HW1 6098   1.871   2.835   6.344
 1733SOL    HW2 6099   1.733   2.841   6.257
 1734SOL     OW 6100   7.022   2.938   1.089
 1734SOL    HW1 6101   6.925   2.959   1.091
 1734SOL    HW2 6102   0.018   2.861   1.149
 1735SOL     OW 6103   3.461   5.411   6.222
 1735SOL    HW1 6104   3.421   5.407   6.313
 1735SOL    HW2 6105   3.560   5.398   6.228
 1736SOL     OW 6106   5.220   2.401   6.534
 1736SOL    HW1 6107   5.225   2.315   6.585
 1736SOL    HW2 6108   5.311   2.440   6.525
 1737SOL     OW 6109   3.531   0.631   5.979
 1737SOL    HW1 6110   3.618   0.674   5.955
 1737SOL    HW2 6111   3.518   0.548   5.924
 1738SOL     OW 6112   1.992   3.360   2.332
 1738SOL    HW1 6113   2.026   3.437   2.278
 1738SOL    HW2 6114   1.907   3.386   2.377
 1739SOL     OW 6115   5.570   6.045   3.270
 1739SOL    HW1 6116   5.494   6.040   3.206
 1739SOL    HW2 6117   5.656   6.026   3.222
 1740SOL     OW 6118   6.836   3.068   4.918
 1740SOL    HW1 6119   6.797   3.001   4.854
 1740SOL    HW2 6120   6.862   3.022   5.003
 1741SOL     OW 6121   0.857   1.908   4.717
 1741SOL    HW1 6122   0.881   1.981   4.782
 1741SOL    HW2 6123   0.803   1.947   4.643
 1742SOL     OW 6124   6.424   6.590   6.841
 1742SOL    HW1 6125   6.399   6.593   6.938
 1742SOL    HW2 6126   6.519   6.619   6.831
 1743SOL     OW 6127   1.791   2.303   2.041
 1743SOL    HW1 6128   1.880   2.286   2.001
 1743SOL    HW2 6129   1.787   2.397   2.075
 1744SOL     OW 6130   3.516   2.273   5.695
 1744SOL    HW1 6131   3.436   2.214   5.708
 1744SOL    HW2 6132   3.485   2.369   5.690
 1745SOL     OW 6133   6.522   6.391   0.894
 1745SOL    HW1 6134   6.428   6.406   0.923
 1745SOL    HW2 6135   6.581   6.382   0.975
 1746SOL     OW 6136   2.676   4.636   3.442
 1746SOL    HW1 6137   2.759   4.676   3.481
 1746SOL    HW2 6138   2.614   4.609   3.515
 1747SOL     OW 6139   3.897   6.999   2.516
 1747SOL    HW1 6140   3.973   7.000   2.580
 1747SOL    HW2 6141   3.812   6.981   2.565
 1748SOL     OW 6142   0.014   2.111   4.645
 1748SOL    HW1 6143   6.948   2.149   4.617
 1748SOL    HW2 6144   0.088   2.157   4.596
 1749SOL     OW 6145   6.803   5.387   1.557
 1749SOL    HW1 6146   6.787   5.420   1.464
 1749SOL    HW2 6147   6.851   5.299   1.553
 1750SOL     OW 6148   3.232   0.920   0.443
 1750SOL    HW1 6149   3.180   0.840   0.414
 1750SOL    HW2 6150   3.171   0.985   0.488
 1751SOL     OW 6151   5.594   3.376   4.719
 1751SOL    HW1 6152   5.512   3.391   4.774
 1751SOL    HW2 6153   5.569   3.337   4.631
 1752SOL     OW 6154   0.468   0.606   2.552
 1752SOL    HW1 6155   0.526   0.585   2.473
 1752SOL    HW2 6156   0.375   0.623   2.521
 1753SOL     OW 6157   6.980   1.495   1.411
 1753SOL    HW1 6158   0.037   1.542   1.374
 1753SOL    HW2 6159   6.897   1.534   1.374
 1754SOL     OW 6160   3.075   5.231   3.374
 1754SOL    HW1 6161   3.091   5.209   3.277
 1754SOL    HW2 6162   3.062   5.330   3.384
 1755SOL     OW 6163   6.886   0.259   5.971
 1755SOL    HW1 6164   6.899   0.186   6.038
 1755SOL    HW2 6165   6.876   0.219   5.880
 1756SOL     OW 6166   4.571   5.659   0.729
 1756SOL    HW1 6167   4.505   5.675   0.655
 1756SOL    HW2 6168   4.543   5.710   0.810
 1757SOL     OW 6169   2.774   4.562   5.394
 1757SOL    HW1 6170   2.810   4.497   5.462
 1757SOL    HW2 6171   2.828   4.555   5.310
 1758SOL     OW 6172   1.241   6.118   3.971
 1758SOL    HW1 6173   1.289   6.063   4.040
 1758SOL    HW2 6174   1.189   6.190   4.017
 1759SOL     OW 6175   0.830   5.693   0.147
 1759SOL    HW1 6176   0.818   5.605   0.192
 1759SOL    HW2 6177   0.852   5.678   0.050
 1760SOL     OW 6178   6.807   1.636   4.596
 1760SOL    HW1 6179   6.757   1.707   4.646
 1760SOL    HW2 6180   6.887   1.608   4.649
 1761SOL     OW 6181   5.148   1.047   2.669
 1761SOL    HW1 6182   5.158   1.127   2.728
 1761SOL    HW2 6183   5.239   1.012   2.644
 1762SOL     OW 6184   0.565   2.003   5.757
 1762SOL    HW1 6185   0.614   1.931   5.806
 1762SOL    HW2 6186   0.469   2.005   5.788
 1763SOL     OW 6187   1.400   5.128   3.606
 1763SOL    HW1 6188   1.463   5.190   3.652
 1763SOL    HW2 6189   1.432   5.110   3.513
 1764SOL     OW 6190   0.477   6.168   3.562
 1764SOL    HW1 6191   0.565   6.137   3.526
 1764SOL    HW2 6192   0.490   6.252   3.614
 1765SOL     OW 6193   5.480   4.174   1.749
 1765SOL    HW1 6194   5.421   4.142   1.823
 1765SOL    HW2 6195   5.438   4.153   1.661
 1766SOL     OW 6196   4.634   4.319   4.194
 1766SOL    HW1 6197   4.598   4.257   4.263
 1766SOL    HW2 6198   4.702   4.379   4.236
 1767SOL     OW 6199   0.133   4.864   1.620
 1767SOL    HW1 6200   0.077   4.864   1.702
 1767SOL    HW2 6201   0.088   4.810   1.549
 1768SOL     OW 6202   4.867   4.322   2.510
 1768SOL    HW1 6203   4.768   4.330   2.498
 1768SOL    HW2 6204   4.894   4.364   2.597
 1769SOL     OW 6205   5.313   0.372   0.994
 1769SOL    HW1 6206   5.403   0.403   0.962
 1769SOL    HW2 6207   5.305   0.389   1.092
 1770SOL     OW 6208   1.844   4.793   0.423
 1770SOL    HW1 6209   1.927   4.790   0.369
 1770SOL    HW2 6210   1.816   4.889   0.436
 1771SOL     OW 6211   2.017   3.503   5.930
 1771SOL    HW1 6212   1.983   3.524   6.022
 1771SOL    HW2 6213   1.954   3.439   5.885
 1772SOL     OW 6214   1.958   3.840   2.825
 1772SOL    HW1 6215   1.984   3.812   2.733
 1772SOL    HW2 6216   2.025   3.904   2.862
 1773SOL     OW 6217   2.473   6.355   6.019
 1773SOL    HW1 6218   2.501   6.304   6.101
 1773SOL    HW2 6219   2.440   6.446   6.046
 1774SOL     OW 6220   5.840   5.876   1.038
 1774SOL    HW1 6221   5.770   5.809   1.062
 1774SOL    HW2 6222   5.886   5.909   1.121
 1775SOL     OW 6223   1.852   5.502   0.613
 1775SOL    HW1 6224   1.859   5.416   0.664
 1775SOL    HW2 6225   1.943   5.542   0.601
 1776SOL     OW 6226   4.703   3.052   6.048
 1776SOL    HW1 6227   4.660   3.135   6.083
 1776SOL    HW2 6228   4.707   3.055   5.949
 1777SOL     OW 6229   4.251   6.549   6.951
 1777SOL    HW1 6230   4.226   6.646   6.950
 1777SOL    HW2 6231   4.279   6.523   0.021
 1778SOL     OW 6232   5.985   0.490   4.201
 1778SOL    HW1 6233   6.042   0.418   4.240
 1778SOL    HW2 6234   5.952   0.462   4.111
 1779SOL     OW 6235   5.273   0.855   4.895
 1779SOL    HW1 6236   5.206   0.924   4.921
 1779SOL    HW2 6237   5.247   0.767   4.935
 1780SOL     OW 6238   2.432   5.657   5.663
 1780SOL    HW1 6239   2.382   5.724   5.607
 1780SOL    HW2 6240   2.449   5.696   5.753
 1781SOL     OW 6241   3.850   1.102   5.623
 1781SOL    HW1 6242   3.788   1.038   5.668
 1781SOL    HW2 6243   3.797   1.174   5.579
 1782SOL     OW 6244   4.789   1.211   2.595
 1782SOL    HW1 6245   4.734   1.275   2.542
 1782SOL    HW2 6246   4.862   1.174   2.538
 1783SOL     OW 6247   1.866   4.564   6.917
 1783SOL    HW1 6248   1.868   4.474   6.960
 1783SOL    HW2 6249   1.909   4.559   6.827
 1784SOL     OW 6250   2.705   6.437   1.477
 1784SOL    HW1 6251   2.652   6.366   1.524
 1784SOL    HW2 6252   2.797   6.403   1.459
 1785SOL     OW 6253   1.631   6.663   4.863
 1785SOL    HW1 6254   1.618   6.729   4.936
 1785SOL    HW2 6255   1.697   6.698   4.797
 1786SOL     OW 6256   0.480   5.933   1.970
 1786SOL    HW1 6257   0.455   5.868   1.899
 1786SOL    HW2 6258   0.555   5.896   2.026
 1787SOL     OW 6259   1.631   3.208   5.609
 1787SOL    HW1 6260   1.657   3.204   5.513
 1787SOL    HW2 6261   1.707   3.243   5.663
 1788SOL     OW 6262   4.187   3.394   0.493
 1788SOL    HW1 6263   4.189   3.321   0.425
 1788SOL    HW2 6264   4.107   3.452   0.476
 1789SOL     OW 6265   5.796   3.372   2.286
 1789SOL    HW1 6266   5.823   3.425   2.206
 1789SOL    HW2 6267   5.846   3.404   2.366
 1790SOL     OW 6268   1.685   2.496   5.072
 1790SOL    HW1 6269   1.751   2.448   5.130
 1790SOL    HW2 6270   1.694   2.465   4.978
 1791SOL     OW 6271   4.917   0.634   3.533
 1791SOL    HW1 6272   4.855   0.563   3.564
 1791SOL    HW2 6273   4.938   0.696   3.608
 1792SOL     OW 6274   6.826   2.583   6.457
 1792SOL    HW1 6275   6.806   2.679   6.475
 1792SOL    HW2 6276   6.748   2.527   6.487
 1793SOL     OW 6277   6.688   1.857   5.210
 1793SOL    HW1 6278   6.598   1.882   5.173
 1793SOL    HW2 6279   6.704   1.760   5.196
 1794SOL     OW 6280   0.390   1.312   6.565
 1794SOL    HW1 6281   0.382   1.346   6.659
 1794SOL    HW2 6282   0.484   1.282   6.548
 1795SOL     OW 6283   5.565   4.926   1.125
 1795SOL    HW1 6284   5.532   4.988   1.197
 1795SOL    HW2 6285   5.663   4.909   1.139
 1796SOL     OW 6286   6.334   0.201   0.909
 1796SOL    HW1 6287   6.309   0.111   0.875
 1796SOL    HW2 6288   6.404   0.192   0.980
 1797SOL     OW 6289   2.819   5.744   5.570
 1797SOL    HW1 6290   2.778   5.763   5.659
 1797SOL    HW2 6291   2.816   5.646   5.553
 1798SOL     OW 6292   2.325   4.027   5.623
 1798SOL    HW1 6293   2.357   4.034   5.529
 1798SOL    HW2 6294   2.389   4.075   5.684
 1799SOL     OW 6295   2.877   1.202   1.967
 1799SOL    HW1 6296   2.782   1.225   1.944
 1799SOL    HW2 6297   2.935   1.281   1.949
 1800SOL     OW 6298   6.249   3.095   5.694
 1800SOL    HW1 6299   6.153   3.122   5.684
 1800SOL    HW2 6300   6.288   3.142   5.773
 1801SOL     OW 6301   0.320   0.571   3.020
 1801SOL    HW1 6302   0.303   0.669   3.015
 1801SOL    HW2 6303   0.280   0.535   3.104
 1802SOL     OW 6304   6.126   4.884   3.733
 1802SOL    HW1 6305   6.210   4.896   3.680
 1802SOL    HW2 6306   6.124   4.952   3.807
 1803SOL     OW 6307   0.081   0.324   4.056
 1803SOL    HW1 6308   0.011   0.295   3.992
 1803SOL    HW2 6309   0.161   0.357   4.006
 1804SOL     OW 6310   1.793   2.134   6.255
 1804SOL    HW1 6311   1.775   2.192   6.176
 1804SOL    HW2 6312   1.809   2.192   6.335
 1805SOL     OW 6313   6.564   4.722   0.812
 1805SOL    HW1 6314   6.503   4.752   0.886
 1805SOL    HW2 6315   6.537   4.769   0.727
 1806SOL     OW 6316   0.726   1.435   0.873
 1806SOL    HW1 6317   0.692   1.341   0.883
 1806SOL    HW2 6318   0.685   1.493   0.943
 1807SOL     OW 6319   6.206   2.894   2.873
 1807SOL    HW1 6320   6.145   2.836   2.819
 1807SOL    HW2 6321   6.151   2.955   2.929
 1808SOL     OW 6322   5.622   1.192   6.319
 1808SOL    HW1 6323   5.623   1.116   6.253
 1808SOL    HW2 6324   5.708   1.192   6.371
 1809SOL     OW 6325   5.901   0.511   5.421
 1809SOL    HW1 6326   5.994   0.521   5.456
 1809SOL    HW2 6327   5.841   0.576   5.467
 1810SOL     OW 6328   1.252   0.874   4.183
 1810SOL    HW1 6329   1.160   0.837   4.168
 1810SOL    HW2 6330   1.294   0.894   4.094
 1811SOL     OW 6331   3.147   5.845   2.141
 1811SOL    HW1 6332   3.131   5.926   2.084
 1811SOL    HW2 6333   3.203   5.870   2.220
 1812SOL     OW 6334   3.725   6.816   6.775
 1812SOL    HW1 6335   3.778   6.901   6.778
 1812SOL    HW2 6336   3.763   6.756   6.704
 1813SOL     OW 6337   4.957   3.955   1.982
 1813SOL    HW1 6338   4.868   3.968   1.939
 1813SOL    HW2 6339   4.958   3.998   2.072
 1814SOL     OW 6340   6.620   6.061   0.571
 1814SOL    HW1 6341   6.602   5.966   0.547
 1814SOL    HW2 6342   6.630   6.070   0.670
 1815SOL     OW 6343   5.665   5.680   1.453
 1815SOL    HW1 6344   5.696   5.635   1.370
 1815SOL    HW2 6345   5.641   5.775   1.433
 1816SOL     OW 6346   4.406   5.076   5.052
 1816SOL    HW1 6347   4.375   5.168   5.026
 1816SOL    HW2 6348   4.363   5.009   4.992
 1817SOL     OW 6349   0.180   2.579   3.603
 1817SOL    HW1 6350   0.124   2.542   3.677
 1817SOL    HW2 6351   0.222   2.504   3.552
 1818SOL     OW 6352   2.342   1.217   0.468
 1818SOL    HW1 6353   2.347   1.241   0.371
 1818SOL    HW2 6354   2.363   1.120   0.480
 1819SOL     OW 6355   1.330   4.399   1.866
 1819SOL    HW1 6356   1.244   4.394   1.815
 1819SOL    HW2 6357   1.334   4.324   1.932
 1820SOL     OW 6358   3.494   0.252   4.468
 1820SOL    HW1 6359   3.410   0.269   4.520
 1820SOL    HW2 6360   3.531   0.163   4.495
 1821SOL     OW 6361   3.561   1.097   2.765
 1821SOL    HW1 6362   3.498   1.114   2.690
 1821SOL    HW2 6363   3.649   1.141   2.746
 1822SOL     OW 6364   1.409   3.807   3.747
 1822SOL    HW1 6365   1.467   3.761   3.815
 1822SOL    HW2 6366   1.431   3.904   3.744
 1823SOL     OW 6367   3.696   6.783   3.206
 1823SOL    HW1 6368   3.698   6.882   3.219
 1823SOL    HW2 6369   3.659   6.739   3.287
 1824SOL     OW 6370   4.403   3.141   1.727
 1824SOL    HW1 6371   4.401   3.115   1.630
 1824SOL    HW2 6372   4.485   3.103   1.770
 1825SOL     OW 6373   1.055   3.663   6.280
 1825SOL    HW1 6374   1.009   3.748   6.307
 1825SOL    HW2 6375   1.128   3.685   6.214
 1826SOL     OW 6376   4.148   2.330   0.989
 1826SOL    HW1 6377   4.086   2.321   0.910
 1826SOL    HW2 6378   4.239   2.356   0.958
 1827SOL     OW 6379   5.699   4.756   0.242
 1827SOL    HW1 6380   5.745   4.799   0.164
 1827SOL    HW2 6381   5.629   4.693   0.208
 1828SOL     OW 6382   1.758   4.388   4.629
 1828SOL    HW1 6383   1.808   4.465   4.668
 1828SOL    HW2 6384   1.721   4.331   4.703
 1829SOL     OW 6385   2.474   6.029   2.134
 1829SOL    HW1 6386   2.449   6.124   2.154
 1829SOL    HW2 6387   2.434   6.003   2.046
 1830SOL     OW 6388   4.423   1.057   6.148
 1830SOL    HW1 6389   4.495   0.988   6.138
 1830SOL    HW2 6390   4.464   1.148   6.140
 1831SOL     OW 6391   3.478   4.751   0.547
 1831SOL    HW1 6392   3.454   4.655   0.542
 1831SOL    HW2 6393   3.566   4.762   0.594
 1832SOL     OW 6394   1.888   3.319   5.736
 1832SOL    HW1 6395   1.981   3.333   5.704
 1832SOL    HW2 6396   1.876   3.223   5.762
 1833SOL     OW 6397   5.996   0.584   6.973
 1833SOL    HW1 6398   6.066   0.649   6.945
 1833SOL    HW2 6399   6.026   0.537   0.034
 1834SOL     OW 6400   0.694   3.789   6.172
 1834SOL    HW1 6401   0.717   3.768   6.267
 1834SOL    HW2 6402   0.760   3.855   6.136
 1835SOL     OW 6403   6.935   6.402   1.297
 1835SOL    HW1 6404   6.873   6.373   1.370
 1835SOL    HW2 6405   0.002   6.360   1.311
 1836SOL     OW 6406   5.521   1.549   2.519
 1836SOL    HW1 6407   5.564   1.459   2.526
 1836SOL    HW2 6408   5.589   1.620   2.538
 1837SOL     OW 6409   2.646   2.215   6.854
 1837SOL    HW1 6410   2.643   2.214   6.954
 1837SOL    HW2 6411   2.712   2.284   6.823
 1838SOL     OW 6412   4.733   0.804   0.492
 1838SOL    HW1 6413   4.799   0.836   0.560
 1838SOL    HW2 6414   4.644   0.848   0.509
 1839SOL     OW 6415   6.376   0.495   0.027
 1839SOL    HW1 6416   6.444   0.543   0.082
 1839SOL    HW2 6417   6.397   0.508   6.952
 1840SOL     OW 6418   3.984   0.017   4.088
 1840SOL    HW1 6419   4.081   0.005   4.109
 1840SOL    HW2 6420   3.962   0.114   4.082
 1841SOL     OW 6421   1.964   0.609   1.390
 1841SOL    HW1 6422   2.058   0.620   1.421
 1841SOL    HW2 6423   1.958   0.637   1.294
 1842SOL     OW 6424   0.070   5.013   1.393
 1842SOL    HW1 6425   0.155   4.984   1.437
 1842SOL    HW2 6426   0.084   5.102   1.349
 1843SOL     OW 6427   2.393   1.305   0.194
 1843SOL    HW1 6428   2.452   1.245   0.141
 1843SOL    HW2 6429   2.315   1.333   0.137
 1844SOL     OW 6430   5.494   2.902   6.584
 1844SOL    HW1 6431   5.592   2.883   6.583
 1844SOL    HW2 6432   5.444   2.816   6.577
 1845SOL     OW 6433   1.141   2.521   3.967
 1845SOL    HW1 6434   1.205   2.450   3.937
 1845SOL    HW2 6435   1.143   2.597   3.902
 1846SOL     OW 6436   3.002   0.660   1.471
 1846SOL    HW1 6437   3.084   0.702   1.512
 1846SOL    HW2 6438   2.950   0.613   1.542
 1847SOL     OW 6439   2.211   5.663   6.438
 1847SOL    HW1 6440   2.294   5.691   6.391
 1847SOL    HW2 6441   2.183   5.734   6.503
 1848SOL     OW 6442   4.143   6.599   3.586
 1848SOL    HW1 6443   4.200   6.681   3.587
 1848SOL    HW2 6444   4.059   6.615   3.636
 1849SOL     OW 6445   4.941   2.498   2.676
 1849SOL    HW1 6446   4.851   2.455   2.686
 1849SOL    HW2 6447   4.929   2.595   2.653
 1850SOL     OW 6448   4.120   1.953   0.933
 1850SOL    HW1 6449   4.066   1.896   0.872
 1850SOL    HW2 6450   4.165   2.025   0.881
 1851SOL     OW 6451   0.486   4.592   4.376
 1851SOL    HW1 6452   0.506   4.555   4.285
 1851SOL    HW2 6453   0.560   4.653   4.404
 1852SOL     OW 6454   0.493   6.921   3.539
 1852SOL    HW1 6455   0.546   6.944   3.457
 1852SOL    HW2 6456   0.549   6.867   3.601
 1853SOL     OW 6457   0.910   2.250   5.673
 1853SOL    HW1 6458   0.966   2.188   5.728
 1853SOL    HW2 6459   0.815   2.222   5.677
 1854SOL     OW 6460   0.001   0.646   3.799
 1854SOL    HW1 6461   0.098   0.670   3.802
 1854SOL    HW2 6462   6.970   0.722   3.838
 1855SOL     OW 6463   5.896   2.320   5.299
 1855SOL    HW1 6464   5.858   2.383   5.367
 1855SOL    HW2 6465   5.862   2.228   5.317
 1856SOL     OW 6466   4.720   3.624   0.649
 1856SOL    HW1 6467   4.781   3.569   0.706
 1856SOL    HW2 6468   4.633   3.576   0.637
 1857SOL     OW 6469   3.947   0.934   6.666
 1857SOL    HW1 6470   3.888   0.960   6.743
 1857SOL    HW2 6471   3.987   1.017   6.626
 1858SOL     OW 6472   5.566   1.859   5.060
 1858SOL    HW1 6473   5.586   1.790   5.128
 1858SOL    HW2 6474   5.468   1.880   5.060
 1859SOL     OW 6475   6.533   0.839   3.377
 1859SOL    HW1 6476   6.445   0.827   3.330
 1859SOL    HW2 6477   6.576   0.923   3.345
 1860SOL     OW 6478   2.728   1.425   6.240
 1860SOL    HW1 6479   2.629   1.416   6.240
 1860SOL    HW2 6480   2.756   1.486   6.315
 1861SOL     OW 6481   6.095   6.270   5.141
 1861SOL    HW1 6482   5.997   6.266   5.159
 1861SOL    HW2 6483   6.117   6.212   5.062
 1862SOL     OW 6484   3.093   5.546   5.663
 1862SOL    HW1 6485   3.123   5.452   5.649
 1862SOL    HW2 6486   3.029   5.572   5.591
 1863SOL     OW 6487   0.147   1.667   1.288
 1863SOL    HW1 6488   0.158   1.572   1.258
 1863SOL    HW2 6489   0.184   1.728   1.218
 1864SOL     OW 6490   2.745   6.323   1.891
 1864SOL    HW1 6491   2.764   6.278   1.804
 1864SOL    HW2 6492   2.800   6.282   1.963
 1865SOL     OW 6493   6.208   2.309   5.899
 1865SOL    HW1 6494   6.186   2.213   5.911
 1865SOL    HW2 6495   6.289   2.319   5.841
 1866SOL     OW 6496   0.395   5.219   3.784
 1866SOL    HW1 6497   0.392   5.177   3.693
 1866SOL    HW2 6498   0.366   5.314   3.777
 1867SOL     OW 6499   1.254   1.354   1.448
 1867SOL    HW1 6500   1.157   1.367   1.429
 1867SOL    HW2 6501   1.280   1.410   1.527
 1868SOL     OW 6502   5.190   3.566   6.065
 1868SOL    HW1 6503   5.164   3.469   6.062
 1868SOL    HW2 6504   5.290   3.574   6.068
 1869SOL     OW 6505   5.222   0.724   5.371
 1869SOL    HW1 6506   5.154   0.695   5.304
 1869SOL    HW2 6507   5.246   0.819   5.356
 1870SOL     OW 6508   6.067   0.065   6.254
 1870SOL    HW1 6509   6.133   0.023   6.193
 1870SOL    HW2 6510   6.027   7.018   6.315
 1871SOL     OW 6511   0.951   5.912   0.272
 1871SOL    HW1 6512   0.940   5.825   0.224
 1871SOL    HW2 6513   1.027   5.905   0.336
 1872SOL     OW 6514   2.730   3.045   1.159
 1872SOL    HW1 6515   2.684   3.031   1.246
 1872SOL    HW2 6516   2.689   3.123   1.111
 1873SOL     OW 6517   5.954   1.072   1.745
 1873SOL    HW1 6518   5.905   1.060   1.659
 1873SOL    HW2 6519   5.912   1.015   1.816
 1874SOL     OW 6520   1.535   5.943   6.765
 1874SOL    HW1 6521   1.511   5.995   6.683
 1874SOL    HW2 6522   1.453   5.898   6.801
 1875SOL     OW 6523   0.180   6.356   2.139
 1875SOL    HW1 6524   0.151   6.344   2.234
 1875SOL    HW2 6525   0.209   6.267   2.102
 1876SOL     OW 6526   0.644   4.526   0.596
 1876SOL    HW1 6527   0.576   4.566   0.534
 1876SOL    HW2 6528   0.613   4.435   0.625
 1877SOL     OW 6529   1.181   1.690   2.549
 1877SOL    HW1 6530   1.274   1.694   2.583
 1877SOL    HW2 6531   1.117   1.711   2.623
 1878SOL     OW 6532   4.902   3.558   4.354
 1878SOL    HW1 6533   4.899   3.560   4.454
 1878SOL    HW2 6534   4.861   3.641   4.317
 1879SOL     OW 6535   4.006   6.163   4.944
 1879SOL    HW1 6536   3.988   6.245   4.998
 1879SOL    HW2 6537   4.100   6.165   4.910
 1880SOL     OW 6538   0.865   2.318   4.325
 1880SOL    HW1 6539   0.954   2.327   4.369
 1880SOL    HW2 6540   0.864   2.237   4.267
 1881SOL     OW 6541   1.792   1.005   3.871
 1881SOL    HW1 6542   1.806   0.921   3.819
 1881SOL    HW2 6543   1.745   1.073   3.814
 1882SOL     OW 6544   2.928   5.432   0.713
 1882SOL    HW1 6545   2.858   5.361   0.705
 1882SOL    HW2 6546   2.907   5.491   0.790
 1883SOL     OW 6547   2.330   2.557   2.767
 1883SOL    HW1 6548   2.400   2.562   2.839
 1883SOL    HW2 6549   2.305   2.649   2.738
 1884SOL     OW 6550   5.083   0.659   0.427
 1884SOL    HW1 6551   5.083   0.704   0.337
 1884SOL    HW2 6552   5.070   0.561   0.415
 1885SOL     OW 6553   0.344   1.282   0.524
 1885SOL    HW1 6554   0.326   1.374   0.491
 1885SOL    HW2 6555   0.266   1.223   0.503
 1886SOL     OW 6556   3.732   2.708   5.650
 1886SOL    HW1 6557   3.637   2.676   5.658
 1886SOL    HW2 6558   3.784   2.678   5.730
 1887SOL     OW 6559   0.730   6.161   5.056
 1887SOL    HW1 6560   0.813   6.210   5.029
 1887SOL    HW2 6561   0.754   6.082   5.112
 1888SOL     OW 6562   1.949   1.921   6.157
 1888SOL    HW1 6563   1.895   1.909   6.074
 1888SOL    HW2 6564   1.910   1.993   6.213
 1889SOL     OW 6565   2.875   3.249   0.107
 1889SOL    HW1 6566   2.839   3.302   0.031
 1889SOL    HW2 6567   2.837   3.284   0.193
 1890SOL     OW 6568   5.901   6.013   6.369
 1890SOL    HW1 6569   5.961   6.082   6.411
 1890SOL    HW2 6570   5.833   6.059   6.312
 1891SOL     OW 6571   5.228   3.668   6.997
 1891SOL    HW1 6572   5.306   3.607   6.980
 1891SOL    HW2 6573   5.224   3.691   0.072
 1892SOL     OW 6574   3.984   0.149   2.861
 1892SOL    HW1 6575   3.887   0.129   2.863
 1892SOL    HW2 6576   4.003   0.226   2.921
 1893SOL     OW 6577   3.128   0.759   6.104
 1893SOL    HW1 6578   3.134   0.680   6.164
 1893SOL    HW2 6579   3.192   0.830   6.135
 1894SOL     OW 6580   4.911   3.445   1.440
 1894SOL    HW1 6581   4.884   3.430   1.345
 1894SOL    HW2 6582   4.939   3.358   1.481
 1895SOL     OW 6583   4.838   6.044   3.804
 1895SOL    HW1 6584   4.738   6.040   3.792
 1895SOL    HW2 6585   4.859   6.040   3.901
 1896SOL     OW 6586   6.143   2.390   5.232
 1896SOL    HW1 6587   6.187   2.349   5.152
 1896SOL    HW2 6588   6.044   2.381   5.224
 1897SOL     OW 6589   5.545   4.999   2.778
 1897SOL    HW1 6590   5.450   4.981   2.753
 1897SOL    HW2 6591   5.554   4.995   2.878
 1898SOL     OW 6592   5.767   6.854   6.979
 1898SOL    HW1 6593   5.866   6.863   6.984
 1898SOL    HW2 6594   5.741   6.761   7.004
 1899SOL     OW 6595   1.722   2.699   3.864
 1899SOL    HW1 6596   1.797   2.693   3.798
 1899SOL    HW2 6597   1.728   2.786   3.914
 1900SOL     OW 6598   2.064   5.941   1.715
 1900SOL    HW1 6599   2.065   5.872   1.642
 1900SOL    HW2 6600   1.989   5.921   1.778
 1901SOL     OW 6601   1.062   0.818   5.575
 1901SOL    HW1 6602   1.160   0.829   5.561
 1901SOL    HW2 6603   1.027   0.748   5.513
 1902SOL     OW 6604   1.126   2.629   4.913
 1902SOL    HW1 6605   1.199   2.672   4.966
 1902SOL    HW2 6606   1.161   2.601   4.824
 1903SOL     OW 6607   6.411   4.825   4.140
 1903SOL    HW1 6608   6.449   4.816   4.048
 1903SOL    HW2 6609   6.457   4.760   4.202
 1904SOL     OW 6610   0.289   0.390   4.483
 1904SOL    HW1 6611   0.241   0.333   4.416
 1904SOL    HW2 6612   0.241   0.477   4.493
 1905SOL     OW 6613   6.453   3.052   4.356
 1905SOL    HW1 6614   6.451   2.954   4.377
 1905SOL    HW2 6615   6.546   3.079   4.330
 1906SOL     OW 6616   2.907   6.567   5.617
 1906SOL    HW1 6617   2.901   6.639   5.686
 1906SOL    HW2 6618   2.917   6.478   5.663
 1907SOL     OW 6619   4.161   6.825   3.886
 1907SOL    HW1 6620   4.248   6.791   3.921
 1907SOL    HW2 6621   4.168   6.923   3.868
 1908SOL     OW 6622   5.290   5.732   0.735
 1908SOL    HW1 6623   5.290   5.805   0.804
 1908SOL    HW2 6624   5.272   5.770   0.645
 1909SOL     OW 6625   4.663   5.657   3.630
 1909SOL    HW1 6626   4.584   5.709   3.599
 1909SOL    HW2 6627   4.662   5.566   3.588
 1910SOL     OW 6628   4.886   3.013   5.047
 1910SOL    HW1 6629   4.881   2.929   4.992
 1910SOL    HW2 6630   4.818   3.078   5.014
 1911SOL     OW 6631   0.146   3.301   5.324
 1911SOL    HW1 6632   0.155   3.392   5.366
 1911SOL    HW2 6633   0.089   3.308   5.242
 1912SOL     OW 6634   2.804   5.936   3.092
 1912SOL    HW1 6635   2.836   5.989   3.170
 1912SOL    HW2 6636   2.879   5.923   3.027
 1913SOL     OW 6637   1.830   4.316   5.461
 1913SOL    HW1 6638   1.867   4.396   5.510
 1913SOL    HW2 6639   1.835   4.332   5.363
 1914SOL     OW 6640   4.172   1.455   5.276
 1914SOL    HW1 6641   4.201   1.364   5.247
 1914SOL    HW2 6642   4.167   1.458   5.376
 1915SOL     OW 6643   2.970   0.261   5.139
 1915SOL    HW1 6644   2.991   0.214   5.225
 1915SOL    HW2 6645   2.924   0.347   5.159
 1916SOL     OW 6646   3.937   6.255   2.856
 1916SOL    HW1 6647   3.928   6.345   2.812
 1916SOL    HW2 6648   4.021   6.212   2.826
 1917SOL     OW 6649   3.035   3.744   4.579
 1917SOL    HW1 6650   3.019   3.749   4.481
 1917SOL    HW2 6651   3.022   3.834   4.620
 1918SOL     OW 6652   6.853   6.712   5.768
 1918SOL    HW1 6653   6.901   6.748   5.848
 1918SOL    HW2 6654   6.758   6.692   5.793
 1919SOL     OW 6655   6.327   0.324   2.686
 1919SOL    HW1 6656   6.418   0.305   2.648
 1919SOL    HW2 6657   6.295   0.413   2.653
 1920SOL     OW 6658   6.514   5.885   4.928
 1920SOL    HW1 6659   6.468   5.878   5.017
 1920SOL    HW2 6660   6.566   5.801   4.912
 1921SOL     OW 6661   1.736   6.913   6.838
 1921SOL    HW1 6662   1.732   6.850   6.760
 1921SOL    HW2 6663   1.706   6.865   6.920
 1922SOL     OW 6664   4.327   4.072   0.758
 1922SOL    HW1 6665   4.420   4.035   0.762
 1922SOL    HW2 6666   4.265   4.014   0.811
 1923SOL     OW 6667   1.593   3.010   0.607
 1923SOL    HW1 6668   1.613   2.947   0.683
 1923SOL    HW2 6669   1.651   2.988   0.529
 1924SOL     OW 6670   0.616   4.445   0.951
 1924SOL    HW1 6671   0.664   4.377   0.896
 1924SOL    HW2 6672   0.606   4.411   1.044
 1925SOL     OW 6673   3.689   4.516   0.619
 1925SOL    HW1 6674   3.766   4.492   0.559
 1925SOL    HW2 6675   3.640   4.433   0.645
 1926SOL     OW 6676   0.475   0.413   3.655
 1926SOL    HW1 6677   0.495   0.510   3.644
 1926SOL    HW2 6678   0.537   0.360   3.597
 1927SOL     OW 6679   4.690   3.284   1.229
 1927SOL    HW1 6680   4.659   3.286   1.324
 1927SOL    HW2 6681   4.610   3.279   1.168
 1928SOL     OW 6682   0.099   5.850   4.936
 1928SOL    HW1 6683   0.119   5.826   4.841
 1928SOL    HW2 6684   0.000   5.856   4.949
 1929SOL     OW 6685   1.455   6.225   3.323
 1929SOL    HW1 6686   1.538   6.232   3.377
 1929SOL    HW2 6687   1.479   6.212   3.227
 1930SOL     OW 6688   6.727   4.799   6.491
 1930SOL    HW1 6689   6.717   4.758   6.582
 1930SOL    HW2 6690   6.799   4.751   6.441
 1931SOL     OW 6691   0.471   2.147   4.943
 1931SOL    HW1 6692   0.529   2.070   4.916
 1931SOL    HW2 6693   0.527   2.229   4.955
 1932SOL     OW 6694   5.970   3.061   2.798
 1932SOL    HW1 6695   6.001   3.062   2.703
 1932SOL    HW2 6696   6.016   3.134   2.849
 1933SOL     OW 6697   2.626   4.850   0.636
 1933SOL    HW1 6698   2.674   4.936   0.650
 1933SOL    HW2 6699   2.655   4.784   0.705
 1934SOL     OW 6700   6.673   6.554   3.469
 1934SOL    HW1 6701   6.717   6.522   3.385
 1934SOL    HW2 6702   6.656   6.652   3.463
 1935SOL     OW 6703   1.986   0.837   2.880
 1935SOL    HW1 6704   1.962   0.930   2.852
 1935SOL    HW2 6705   2.080   0.817   2.852
 1936SOL     OW 6706   6.618   5.971   5.336
 1936SOL    HW1 6707   6.656   6.062   5.354
 1936SOL    HW2 6708   6.588   5.965   5.241
 1937SOL     OW 6709   3.830   0.927   3.081
 1937SOL    HW1 6710   3.821   0.954   2.985
 1937SOL    HW2 6711   3.823   1.008   3.139
 1938SOL     OW 6712   5.425   1.186   4.515
 1938SOL    HW1 6713   5.524   1.175   4.515
 1938SOL    HW2 6714   5.398   1.247   4.441
 1939SOL     OW 6715   2.456   0.729   4.152
 1939SOL    HW1 6716   2.479   0.753   4.246
 1939SOL    HW2 6717   2.504   0.645   4.127
 1940SOL     OW 6718   6.056   5.136   6.251
 1940SOL    HW1 6719   6.113   5.089   6.183
 1940SOL    HW2 6720   5.979   5.077   6.276
 1941SOL     OW 6721   5.274   5.158   2.535
 1941SOL    HW1 6722   5.373   5.176   2.532
 1941SOL    HW2 6723   5.258   5.072   2.583
 1942SOL     OW 6724   6.671   4.520   3.385
 1942SOL    HW1 6725   6.616   4.439   3.404
 1942SOL    HW2 6726   6.613   4.602   3.393
 1943SOL     OW 6727   2.807   5.420   3.180
 1943SOL    HW1 6728   2.765   5.334   3.150
 1943SOL    HW2 6729   2.882   5.444   3.118
 1944SOL     OW 6730   0.083   0.088   2.124
 1944SOL    HW1 6731   0.174   0.129   2.134
 1944SOL    HW2 6732   0.016   0.143   2.173
 1945SOL     OW 6733   3.305   5.014   3.661
 1945SOL    HW1 6734   3.295   5.113   3.647
 1945SOL    HW2 6735   3.275   4.990   3.753
 1946SOL     OW 6736   1.513   6.297   6.992
 1946SOL    HW1 6737   1.476   6.254   0.052
 1946SOL    HW2 6738   1.525   6.395   7.007
 1947SOL     OW 6739   4.875   0.170   3.824
 1947SOL    HW1 6740   4.938   0.213   3.890
 1947SOL    HW2 6741   4.782   0.176   3.858
 1948SOL     OW 6742   6.735   3.518   5.201
 1948SOL    HW1 6743   6.821   3.561   5.228
 1948SOL    HW2 6744   6.738   3.496   5.103
 1949SOL     OW 6745   5.092   4.021   6.614
 1949SOL    HW1 6746   5.114   3.929   6.646
 1949SOL    HW2 6747   5.056   4.016   6.520
 1950SOL     OW 6748   3.264   5.396   1.317
 1950SOL    HW1 6749   3.234   5.489   1.299
 1950SOL    HW2 6750   3.284   5.349   1.231
 1951SOL     OW 6751   6.784   2.937   0.350
 1951SOL    HW1 6752   6.782   2.869   0.423
 1951SOL    HW2 6753   6.700   2.931   0.296
 1952SOL     OW 6754   3.619   3.134   4.858
 1952SOL    HW1 6755   3.658   3.147   4.767
 1952SOL    HW2 6756   3.623   3.037   4.883
 1953SOL     OW 6757   0.378   2.766   4.617
 1953SOL    HW1 6758   0.459   2.812   4.580
 1953SOL    HW2 6759   0.296   2.809   4.580
 1954SOL     OW 6760   2.853   2.122   3.635
 1954SOL    HW1 6761   2.919   2.119   3.710
 1954SOL    HW2 6762   2.824   2.029   3.613
 1955SOL     OW 6763   6.450   5.139   1.944
 1955SOL    HW1 6764   6.488   5.187   1.865
 1955SOL    HW2 6765   6.350   5.142   1.939
 1956SOL     OW 6766   5.429   5.860   2.152
 1956SOL    HW1 6767   5.429   5.838   2.249
 1956SOL    HW2 6768   5.395   5.953   2.138
 1957SOL     OW 6769   0.816   6.524   5.345
 1957SOL    HW1 6770   0.737   6.585   5.345
 1957SOL    HW2 6771   0.875   6.546   5.423
 1958SOL     OW 6772   4.681   3.213   5.748
 1958SOL    HW1 6773   4.693   3.301   5.793
 1958SOL    HW2 6774   4.591   3.210   5.704
 1959SOL     OW 6775   2.457   1.621   0.223
 1959SOL    HW1 6776   2.404   1.658   0.300
 1959SOL    HW2 6777   2.439   1.523   0.215
 1960SOL     OW 6778   5.926   6.175   2.435
 1960SOL    HW1 6779   5.907   6.129   2.521
 1960SOL    HW2 6780   6.002   6.240   2.447
 1961SOL     OW 6781   6.097   4.758   5.304
 1961SOL    HW1 6782   6.183   4.711   5.287
 1961SOL    HW2 6783   6.062   4.797   5.219
 1962SOL     OW 6784   6.673   6.940   3.696
 1962SOL    HW1 6785   6.639   6.968   3.606
 1962SOL    HW2 6786   6.773   6.942   3.696
 1963SOL     OW 6787   2.851   0.172   3.207
 1963SOL    HW1 6788   2.941   0.150   3.244
 1963SOL    HW2 6789   2.852   0.265   3.170
 1964SOL     OW 6790   5.933   3.847   1.868
 1964SOL    HW1 6791   5.917   3.816   1.962
 1964SOL    HW2 6792   5.850   3.892   1.834
 1965SOL     OW 6793   2.441   6.041   3.708
 1965SOL    HW1 6794   2.402   6.088   3.787
 1965SOL    HW2 6795   2.497   5.964   3.740
 1966SOL     OW 6796   6.240   6.644   6.649
 1966SOL    HW1 6797   6.261   6.597   6.735
 1966SOL    HW2 6798   6.177   6.720   6.667
 1967SOL     OW 6799   5.064   3.314   4.643
 1967SOL    HW1 6800   5.024   3.361   4.722
 1967SOL    HW2 6801   5.141   3.258   4.673
 1968SOL     OW 6802   4.067   5.563   4.745
 1968SOL    HW1 6803   4.062   5.613   4.832
 1968SOL    HW2 6804   3.989   5.501   4.738
 1969SOL     OW 6805   6.947   1.806   1.638
 1969SOL    HW1 6806   6.980   1.769   1.725
 1969SOL    HW2 6807   6.850   1.826   1.646
 1970SOL     OW 6808   1.639   0.107   3.841
 1970SOL    HW1 6809   1.544   0.110   3.812
 1970SOL    HW2 6810   1.673   0.201   3.854
 1971SOL     OW 6811   0.211   1.144   5.880
 1971SOL    HW1 6812   0.188   1.068   5.940
 1971SOL    HW2 6813   0.233   1.224   5.935
 1972SOL     OW 6814   1.740   6.549   3.563
 1972SOL    HW1 6815   1.707   6.617   3.498
 1972SOL    HW2 6816   1.713   6.457   3.532
 1973SOL     OW 6817   2.502   2.652   6.957
 1973SOL    HW1 6818   2.519   2.636   6.860
 1973SOL    HW2 6819   2.482   2.749   6.971
 1974SOL     OW 6820   5.659   0.047   4.202
 1974SOL    HW1 6821   5.624   7.001   4.266
 1974SOL    HW2 6822   5.599   0.051   4.122
 1975SOL     OW 6823   2.660   0.257   3.536
 1975SOL    HW1 6824   2.736   0.314   3.567
 1975SOL    HW2 6825   2.575   0.311   3.536
 1976SOL     OW 6826   6.938   4.265   6.732
 1976SOL    HW1 6827   6.872   4.206   6.778
 1976SOL    HW2 6828   6.997   4.210   6.674
 1977SOL     OW 6829   2.744   2.314   5.617
 1977SOL    HW1 6830   2.835   2.293   5.583
 1977SOL    HW2 6831   2.746   2.399   5.669
 1978SOL     OW 6832   6.438   2.219   5.784
 1978SOL    HW1 6833   6.515   2.224   5.847
 1978SOL    HW2 6834   6.463   2.163   5.706
 1979SOL     OW 6835   6.001   4.553   2.780
 1979SOL    HW1 6836   5.969   4.525   2.689
 1979SOL    HW2 6837   6.090   4.511   2.798
 1980SOL     OW 6838   3.221   1.167   1.561
 1980SOL    HW1 6839   3.148   1.150   1.627
 1980SOL    HW2 6840   3.239   1.083   1.509
 1981SOL     OW 6841   4.797   3.499   1.861
 1981SOL    HW1 6842   4.829   3.405   1.855
 1981SOL    HW2 6843   4.870   3.557   1.898
 1982SOL     OW 6844   6.652   6.505   5.497
 1982SOL    HW1 6845   6.655   6.561   5.414
 1982SOL    HW2 6846   6.563   6.515   5.541
 1983SOL     OW 6847   0.565   4.370   2.151
 1983SOL    HW1 6848   0.647   4.408   2.193
 1983SOL    HW2 6849   0.538   4.287   2.200
 1984SOL     OW 6850   4.442   0.728   5.335
 1984SOL    HW1 6851   4.382   0.765   5.406
 1984SOL    HW2 6852   4.453   0.630   5.349
 1985SOL     OW 6853   2.129   6.742   1.611
 1985SOL    HW1 6854   2.111   6.833   1.574
 1985SOL    HW2 6855   2.226   6.735   1.636
 1986SOL     OW 6856   0.343   1.907   6.946
 1986SOL    HW1 6857   0.418   1.894   7.011
 1986SOL    HW2 6858   0.346   1.836   6.876
 1987SOL     OW 6859   2.825   4.075   0.670
 1987SOL    HW1 6860   2.853   3.979   0.664
 1987SOL    HW2 6861   2.902   4.134   0.643
 1988SOL     OW 6862   4.895   3.255   0.533
 1988SOL    HW1 6863   4.901   3.166   0.578
 1988SOL    HW2 6864   4.928   3.326   0.595
 1989SOL     OW 6865   2.550   1.149   4.157
 1989SOL    HW1 6866   2.604   1.232   4.175
 1989SOL    HW2 6867   2.608   1.069   4.170
 1990SOL     OW 6868   1.993   1.240   2.540
 1990SOL    HW1 6869   1.992   1.152   2.492
 1990SOL    HW2 6870   2.080   1.250   2.588
 1991SOL     OW 6871   4.975   5.673   3.232
 1991SOL    HW1 6872   4.902   5.692   3.167
 1991SOL    HW2 6873   5.052   5.631   3.184
 1992SOL     OW 6874   2.429   6.225   5.322
 1992SOL    HW1 6875   2.522   6.252   5.298
 1992SOL    HW2 6876   2.397   6.156   5.257
 1993SOL     OW 6877   3.357   3.111   4.159
 1993SOL    HW1 6878   3.373   3.105   4.061
 1993SOL    HW2 6879   3.266   3.148   4.176
 1994SOL     OW 6880   5.946   2.627   2.039
 1994SOL    HW1 6881   5.856   2.668   2.027
 1994SOL    HW2 6882   5.969   2.626   2.137
 1995SOL     OW 6883   4.346   2.391   1.341
 1995SOL    HW1 6884   4.434   2.417   1.301
 1995SOL    HW2 6885   4.273   2.445   1.299
 1996SOL     OW 6886   2.987   3.916   5.318
 1996SOL    HW1 6887   2.984   3.832   5.264
 1996SOL    HW2 6888   2.912   3.976   5.292
 1997SOL     OW 6889   5.616   0.217   3.975
 1997SOL    HW1 6890   5.638   0.146   3.907
 1997SOL    HW2 6891   5.646   0.306   3.940
 1998SOL     OW 6892   3.071   4.793   5.226
 1998SOL    HW1 6893   3.170   4.782   5.218
 1998SOL    HW2 6894   3.026   4.714   5.185
 1999SOL     OW 6895   2.304   0.788   1.861
 1999SOL    HW1 6896   2.328   0.785   1.958
 1999SOL    HW2 6897   2.230   0.724   1.842
 2000SOL     OW 6898   3.531   1.529   4.470
 2000SOL    HW1 6899   3.614   1.484   4.436
 2000SOL    HW2 6900   3.467   1.459   4.504
 2001SOL     OW 6901   2.135   3.736   6.960
 2001SOL    HW1 6902   2.188   3.696   6.886
 2001SOL    HW2 6903   2.165   3.830   6.976
 2002SOL     OW 6904   1.550   5.472   5.348
 2002SOL    HW1 6905   1.490   5.401   5.385
 2002SOL    HW2 6906   1.496   5.553   5.326
 2003SOL     OW 6907   6.071   4.589   3.125
 2003SOL    HW1 6908   5.973   4.569   3.118
 2003SOL    HW2 6909   6.092   4.670   3.070
 2004SOL     OW 6910   3.315   0.373   6.590
 2004SOL    HW1 6911   3.370   0.456   6.594
 2004SOL    HW2 6912   3.279   0.353   6.681
 2005SOL     OW 6913   3.209   6.361   5.125
 2005SOL    HW1 6914   3.234   6.454   5.097
 2005SOL    HW2 6915   3.190   6.306   5.043
 2006SOL     OW 6916   4.635   6.041   3.404
 2006SOL    HW1 6917   4.682   6.100   3.469
 2006SOL    HW2 6918   4.615   5.953   3.447
 2007SOL     OW 6919   6.243   5.405   0.097
 2007SOL    HW1 6920   6.333   5.402   0.141
 2007SOL    HW2 6921   6.191   5.483   0.134
 2008SOL     OW 6922   7.006   6.511   4.239
 2008SOL    HW1 6923   6.995   6.510   4.338
 2008SOL    HW2 6924   6.920   6.482   4.196
 2009SOL     OW 6925   0.822   0.281   0.333
 2009SOL    HW1 6926   0.877   0.220   0.390
 2009SOL    HW2 6927   0.792   0.359   0.388
 2010SOL     OW 6928   1.386   0.248   1.019
 2010SOL    HW1 6929   1.329   0.267   1.099
 2010SOL    HW2 6930   1.459   0.184   1.044
 2011SOL     OW 6931   6.931   2.549   4.732
 2011SOL    HW1 6932   6.968   2.466   4.692
 2011SOL    HW2 6933   7.001   2.621   4.731
 2012SOL     OW 6934   0.020   3.357   0.951
 2012SOL    HW1 6935   0.093   3.408   0.905
 2012SOL    HW2 6936   0.051   3.330   1.042
 2013SOL     OW 6937   4.383   1.687   2.712
 2013SOL    HW1 6938   4.301   1.661   2.660
 2013SOL    HW2 6939   4.446   1.737   2.652
 2014SOL     OW 6940   2.308   5.617   3.391
 2014SOL    HW1 6941   2.404   5.608   3.364
 2014SOL    HW2 6942   2.265   5.691   3.339
 2015SOL     OW 6943   3.166   6.412   0.224
 2015SOL    HW1 6944   3.242   6.358   0.190
 2015SOL    HW2 6945   3.140   6.481   0.156
 2016SOL     OW 6946   6.256   5.291   3.515
 2016SOL    HW1 6947   6.189   5.353   3.556
 2016SOL    HW2 6948   6.228   5.268   3.422
 2017SOL     OW 6949   2.105   4.930   2.068
 2017SOL    HW1 6950   2.012   4.895   2.057
 2017SOL    HW2 6951   2.170   4.857   2.053
 2018SOL     OW 6952   0.317   4.241   6.131
 2018SOL    HW1 6953   0.394   4.198   6.178
 2018SOL    HW2 6954   0.351   4.315   6.072
 2019SOL     OW 6955   5.736   1.745   3.023
 2019SOL    HW1 6956   5.741   1.645   3.029
 2019SOL    HW2 6957   5.646   1.772   2.990
 2020SOL     OW 6958   1.498   5.319   3.775
 2020SOL    HW1 6959   1.424   5.324   3.842
 2020SOL    HW2 6960   1.495   5.399   3.715
 2021SOL     OW 6961   1.646   6.735   1.966
 2021SOL    HW1 6962   1.615   6.804   2.032
 2021SOL    HW2 6963   1.723   6.684   2.005
 2022SOL     OW 6964   3.149   5.109   1.119
 2022SOL    HW1 6965   3.133   5.122   1.216
 2022SOL    HW2 6966   3.075   5.151   1.066
 2023SOL     OW 6967   6.241   1.706   6.425
 2023SOL    HW1 6968   6.143   1.709   6.444
 2023SOL    HW2 6969   6.258   1.729   6.329
 2024SOL     OW 6970   6.014   0.414   2.713
 2024SOL    HW1 6971   6.105   0.428   2.674
 2024SOL    HW2 6972   6.015   0.334   2.773
 2025SOL     OW 6973   6.288   0.785   0.797
 2025SOL    HW1 6974   6.372   0.781   0.851
 2025SOL    HW2 6975   6.288   0.712   0.728
 2026SOL     OW 6976   1.567   2.251   5.454
 2026SOL    HW1 6977   1.573   2.345   5.418
 2026SOL    HW2 6978   1.554   2.254   5.553
 2027SOL     OW 6979   0.977   1.471   1.998
 2027SOL    HW1 6980   0.915   1.407   1.953
 2027SOL    HW2 6981   0.990   1.444   2.093
 2028SOL     OW 6982   3.446   3.975   5.987
 2028SOL    HW1 6983   3.501   3.893   5.972
 2028SOL    HW2 6984   3.356   3.949   6.023
 2029SOL     OW 6985   1.911   0.388   0.296
 2029SOL    HW1 6986   1.886   0.469   0.349
 2029SOL    HW2 6987   1.867   0.392   0.206
 2030SOL     OW 6988   1.529   1.696   2.979
 2030SOL    HW1 6989   1.603   1.752   2.943
 2030SOL    HW2 6990   1.502   1.729   3.070
 2031SOL     OW 6991   4.995   6.843   2.666
 2031SOL    HW1 6992   4.926   6.888   2.610
 2031SOL    HW2 6993   5.079   6.898   2.666
 2032SOL     OW 6994   5.658   6.536   1.122
 2032SOL    HW1 6995   5.629   6.567   1.213
 2032SOL    HW2 6996   5.612   6.449   1.100
 2033SOL     OW 6997   6.729   5.638   6.759
 2033SOL    HW1 6998   6.676   5.556   6.780
 2033SOL    HW2 6999   6.673   5.701   6.704
 2034SOL     OW 7000   2.567   6.880   3.247
 2034SOL    HW1 7001   2.492   6.898   3.310
 2034SOL    HW2 7002   2.653   6.910   3.289
 2035SOL     OW 7003   0.605   2.986   0.845
 2035SOL    HW1 7004   0.534   2.968   0.777
 2035SOL    HW2 7005   0.634   2.900   0.887
 2036SOL     OW 7006   0.836   4.362   0.498
 2036SOL    HW1 7007   0.880   4.415   0.425
 2036SOL    HW2 7008   0.758   4.414   0.534
 2037SOL     OW 7009   0.194   1.917   6.045
 2037SOL    HW1 7010   0.171   1.822   6.066
 2037SOL    HW2 7011   0.212   1.966   6.131
 2038SOL     OW 7012   1.012   0.068   5.414
 2038SOL    HW1 7013   0.969   7.008   5.376
 2038SOL    HW2 7014   1.067   0.042   5.494
 2039SOL     OW 7015   1.199   5.135   2.052
 2039SOL    HW1 7016   1.176   5.142   1.955
 2039SOL    HW2 7017   1.298   5.146   2.064
 2040SOL     OW 7018   3.247   3.742   4.213
 2040SOL    HW1 7019   3.250   3.790   4.301
 2040SOL    HW2 7020   3.324   3.771   4.156
 2041SOL     OW 7021   6.090   3.557   0.223
 2041SOL    HW1 7022   6.139   3.470   0.231
 2041SOL    HW2 7023   6.134   3.613   0.153
 2042SOL     OW 7024   3.397   5.792   0.570
 2042SOL    HW1 7025   3.399   5.875   0.627
 2042SOL    HW2 7026   3.414   5.712   0.626
 2043SOL     OW 7027   4.509   4.468   2.687
 2043SOL    HW1 7028   4.414   4.466   2.657
 2043SOL    HW2 7029   4.516   4.514   2.776
 2044SOL     OW 7030   6.174   0.607   2.070
 2044SOL    HW1 7031   6.211   0.655   1.990
 2044SOL    HW2 7032   6.079   0.636   2.085
 2045SOL     OW 7033   2.457   5.749   6.336
 2045SOL    HW1 7034   2.543   5.783   6.376
 2045SOL    HW2 7035   2.476   5.711   6.245
 2046SOL     OW 7036   6.224   0.028   5.021
 2046SOL    HW1 7037   6.294   0.029   4.950
 2046SOL    HW2 7038   6.256   0.079   5.101
 2047SOL     OW 7039   5.465   2.348   0.311
 2047SOL    HW1 7040   5.493   2.436   0.349
 2047SOL    HW2 7041   5.378   2.320   0.352
 2048SOL     OW 7042   4.163   6.781   5.264
 2048SOL    HW1 7043   4.261   6.780   5.243
 2048SOL    HW2 7044   4.118   6.853   5.212
 2049SOL     OW 7045   4.679   5.980   0.699
 2049SOL    HW1 7046   4.767   6.015   0.731
 2049SOL    HW2 7047   4.638   5.924   0.770
 2050SOL     OW 7048   5.304   1.025   4.272
 2050SOL    HW1 7049   5.398   1.041   4.301
 2050SOL    HW2 7050   5.246   1.014   4.352
 2051SOL     OW 7051   2.733   5.103   0.649
 2051SOL    HW1 7052   2.825   5.141   0.639
 2051SOL    HW2 7053   2.686   5.149   0.724
 2052SOL     OW 7054   1.247   2.526   0.788
 2052SOL    HW1 7055   1.234   2.452   0.722
 2052SOL    HW2 7056   1.158   2.558   0.821
 2053SOL     OW 7057   5.108   1.117   0.083
 2053SOL    HW1 7058   5.127   1.061   0.164
 2053SOL    HW2 7059   5.100   1.058   0.003
 2054SOL     OW 7060   0.018   3.696   1.638
 2054SOL    HW1 7061   0.105   3.689   1.688
 2054SOL    HW2 7062   6.968   3.652   1.690
 2055SOL     OW 7063   6.205   1.927   3.919
 2055SOL    HW1 7064   6.157   1.932   4.007
 2055SOL    HW2 7065   6.192   1.837   3.879
 2056SOL     OW 7066   1.118   0.202   2.043
 2056SOL    HW1 7067   1.212   0.167   2.039
 2056SOL    HW2 7068   1.059   0.132   2.084
 2057SOL     OW 7069   6.818   2.449   3.815
 2057SOL    HW1 7070   6.770   2.371   3.776
 2057SOL    HW2 7071   6.853   2.507   3.742
 2058SOL     OW 7072   0.239   1.500   1.912
 2058SOL    HW1 7073   0.278   1.420   1.867
 2058SOL    HW2 7074   0.254   1.494   2.011
 2059SOL     OW 7075   1.353   1.118   6.847
 2059SOL    HW1 7076   1.435   1.173   6.833
 2059SOL    HW2 7077   1.353   1.040   6.784
 2060SOL     OW 7078   0.446   5.572   2.013
 2060SOL    HW1 7079   0.525   5.633   2.012
 2060SOL    HW2 7080   0.434   5.530   1.923
 2061SOL     OW 7081   0.993   1.407   1.368
 2061SOL    HW1 7082   0.976   1.310   1.353
 2061SOL    HW2 7083   0.992   1.455   1.280
 2062SOL     OW 7084   4.191   0.252   3.200
 2062SOL    HW1 7085   4.283   0.283   3.179
 2062SOL    HW2 7086   4.126   0.294   3.137
 2063SOL     OW 7087   2.818   1.787   0.570
 2063SOL    HW1 7088   2.803   1.691   0.546
 2063SOL    HW2 7089   2.765   1.810   0.652
 2064SOL     OW 7090   0.976   2.309   0.184
 2064SOL    HW1 7091   0.941   2.370   0.113
 2064SOL    HW2 7092   0.912   2.307   0.260
 2065SOL     OW 7093   6.372   2.942   1.891
 2065SOL    HW1 7094   6.320   2.860   1.915
 2065SOL    HW2 7095   6.309   3.016   1.868
 2066SOL     OW 7096   1.887   6.858   3.264
 2066SOL    HW1 7097   1.926   6.766   3.269
 2066SOL    HW2 7098   1.919   6.912   3.341
 2067SOL     OW 7099   0.119   6.947   0.907
 2067SOL    HW1 7100   0.160   6.859   0.929
 2067SOL    HW2 7101   0.042   6.964   0.969
 2068SOL     OW 7102   1.867   1.195   5.340
 2068SOL    HW1 7103   1.915   1.277   5.311
 2068SOL    HW2 7104   1.774   1.195   5.302
 2069SOL     OW 7105   0.995   2.040   1.983
 2069SOL    HW1 7106   0.924   2.087   1.931
 2069SOL    HW2 7107   1.060   1.998   1.920
 2070SOL     OW 7108   1.010   1.750   2.767
 2070SOL    HW1 7109   0.948   1.681   2.805
 2070SOL    HW2 7110   1.070   1.783   2.839
 2071SOL     OW 7111   1.577   6.267   5.180
 2071SOL    HW1 7112   1.624   6.180   5.195
 2071SOL    HW2 7113   1.555   6.307   5.269
 2072SOL     OW 7114   4.702   4.686   2.444
 2072SOL    HW1 7115   4.797   4.663   2.423
 2072SOL    HW2 7116   4.682   4.779   2.413
 2073SOL     OW 7117   3.444   5.977   5.575
 2073SOL    HW1 7118   3.486   6.012   5.491
 2073SOL    HW2 7119   3.384   5.901   5.553
 2074SOL     OW 7120   6.389   2.159   1.640
 2074SOL    HW1 7121   6.450   2.106   1.581
 2074SOL    HW2 7122   6.429   2.166   1.732
 2075SOL     OW 7123   3.734   3.408   6.136
 2075SOL    HW1 7124   3.801   3.389   6.208
 2075SOL    HW2 7125   3.641   3.395   6.173
 2076SOL     OW 7126   4.829   0.737   0.847
 2076SOL    HW1 7127   4.885   0.773   0.773
 2076SOL    HW2 7128   4.875   0.753   0.935
 2077SOL     OW 7129   5.454   1.733   3.668
 2077SOL    HW1 7130   5.437   1.655   3.728
 2077SOL    HW2 7131   5.522   1.793   3.710
 2078SOL     OW 7132   4.361   5.911   5.010
 2078SOL    HW1 7133   4.261   5.905   5.012
 2078SOL    HW2 7134   4.389   5.996   5.055
 2079SOL     OW 7135   5.574   1.405   3.451
 2079SOL    HW1 7136   5.518   1.409   3.368
 2079SOL    HW2 7137   5.580   1.311   3.483
 2080SOL     OW 7138   3.046   2.189   4.615
 2080SOL    HW1 7139   3.124   2.242   4.649
 2080SOL    HW2 7140   3.071   2.093   4.609
 2081SOL     OW 7141   0.871   5.747   4.808
 2081SOL    HW1 7142   0.786   5.749   4.859
 2081SOL    HW2 7143   0.859   5.796   4.721
 2082SOL     OW 7144   5.075   0.639   2.303
 2082SOL    HW1 7145   5.067   0.540   2.308
 2082SOL    HW2 7146   5.133   0.672   2.377
 2083SOL     OW 7147   3.633   4.532   5.506
 2083SOL    HW1 7148   3.615   4.519   5.604
 2083SOL    HW2 7149   3.553   4.505   5.454
 2084SOL     OW 7150   6.871   3.010   2.770
 2084SOL    HW1 7151   6.856   2.993   2.868
 2084SOL    HW2 7152   6.927   2.935   2.732
 2085SOL     OW 7153   5.143   6.206   6.545
 2085SOL    HW1 7154   5.210   6.216   6.618
 2085SOL    HW2 7155   5.189   6.181   6.460
 2086SOL     OW 7156   3.007   4.970   0.478
 2086SOL    HW1 7157   3.012   5.051   0.536
 2086SOL    HW2 7158   2.912   4.950   0.457
 2087SOL     OW 7159   5.978   6.160   3.818
 2087SOL    HW1 7160   5.915   6.117   3.883
 2087SOL    HW2 7161   5.959   6.258   3.814
 2088SOL     OW 7162   2.532   6.982   0.772
 2088SOL    HW1 7163   2.450   6.939   0.811
 2088SOL    HW2 7164   2.519   6.995   0.674
 2089SOL     OW 7165   2.617   0.627   6.525
 2089SOL    HW1 7166   2.575   0.555   6.469
 2089SOL    HW2 7167   2.608   0.715   6.479
 2090SOL     OW 7168   3.747   2.882   3.564
 2090SOL    HW1 7169   3.795   2.940   3.630
 2090SOL    HW2 7170   3.802   2.801   3.543
 2091SOL     OW 7171   1.967   5.183   0.492
 2091SOL    HW1 7172   1.885   5.145   0.450
 2091SOL    HW2 7173   1.959   5.178   0.591
 2092SOL     OW 7174   6.764   6.403   0.714
 2092SOL    HW1 7175   6.676   6.374   0.752
 2092SOL    HW2 7176   6.749   6.476   0.647
 2093SOL     OW 7177   0.842   2.273   1.294
 2093SOL    HW1 7178   0.896   2.324   1.361
 2093SOL    HW2 7179   0.827   2.180   1.327
 2094SOL     OW 7180   5.850   0.620   1.963
 2094SOL    HW1 7181   5.871   0.576   1.875
 2094SOL    HW2 7182   5.836   0.549   2.032
 2095SOL     OW 7183   0.096   4.815   4.825
 2095SOL    HW1 7184   0.004   4.848   4.802
 2095SOL    HW2 7185   0.162   4.887   4.804
 2096SOL     OW 7186   4.844   3.716   3.357
 2096SOL    HW1 7187   4.875   3.632   3.311
 2096SOL    HW2 7188   4.760   3.748   3.314
 2097SOL     OW 7189   6.494   3.431   6.917
 2097SOL    HW1 7190   6.409   3.388   6.947
 2097SOL    HW2 7191   6.553   3.448   6.996
 2098SOL     OW 7192   4.810   0.453   4.080
 2098SOL    HW1 7193   4.768   0.454   3.989
 2098SOL    HW2 7194   4.889   0.392   4.079
 2099SOL     OW 7195   2.895   1.380   3.689
 2099SOL    HW1 7196   2.811   1.397   3.742
 2099SOL    HW2 7197   2.955   1.319   3.740
 2100SOL     OW 7198   3.710   3.993   6.705
 2100SOL    HW1 7199   3.660   3.975   6.790
 2100SOL    HW2 7200   3.647   4.026   6.635
 2101SOL     OW 7201   6.392   0.492   3.167
 2101SOL    HW1 7202   6.446   0.544   3.100
 2101SOL    HW2 7203   6.424   0.397   3.169
 2102SOL     OW 7204   0.349   4.987   1.835
 2102SOL    HW1 7205   0.332   4.889   1.847
 2102SOL    HW2 7206   0.421   5.016   1.898
 2103SOL     OW 7207   2.645   3.764   6.439
 2103SOL    HW1 7208   2.618   3.858   6.415
 2103SOL    HW2 7209   2.632   3.750   6.537
 2104SOL     OW 7210   1.452   3.631   5.124
 2104SOL    HW1 7211   1.456   3.566   5.200
 2104SOL    HW2 7212   1.489   3.719   5.153
 2105SOL     OW 7213   6.252   5.771   1.339
 2105SOL    HW1 7214   6.260   5.787   1.240
 2105SOL    HW2 7215   6.321   5.705   1.368
 2106SOL     OW 7216   5.174   5.792   6.626
 2106SOL    HW1 7217   5.099   5.843   6.583
 2106SOL    HW2 7218   5.135   5.719   6.683
 2107SOL     OW 7219   3.402   4.182   0.008
 2107SOL    HW1 7220   3.310   4.156   0.037
 2107SOL    HW2 7221   3.397   4.258   6.966
 2108SOL     OW 7222   5.553   4.741   5.390
 2108SOL    HW1 7223   5.546   4.644   5.364
 2108SOL    HW2 7224   5.607   4.790   5.321
 2109SOL     OW 7225   5.641   6.638   2.379
 2109SOL    HW1 7226   5.644   6.550   2.425
 2109SOL    HW2 7227   5.592   6.704   2.437
 2110SOL     OW 7228   1.870   4.712   5.210
 2110SOL    HW1 7229   1.904   4.647   5.141
 2110SOL    HW2 7230   1.938   4.783   5.225
 2111SOL     OW 7231   1.673   2.424   6.997
 2111SOL    HW1 7232   1.669   2.453   0.070
 2111SOL    HW2 7233   1.657   2.325   6.991
 2112SOL     OW 7234   5.073   3.263   1.009
 2112SOL    HW1 7235   5.124   3.210   0.940
 2112SOL    HW2 7236   5.137   3.304   1.073
 2113SOL     OW 7237   6.963   1.499   3.354
 2113SOL    HW1 7238   7.007   1.548   3.279
 2113SOL    HW2 7239   6.884   1.550   3.386
 2114SOL     OW 7240   1.885   3.840   6.576
 2114SOL    HW1 7241   1.862   3.872   6.484
 2114SOL    HW2 7242   1.859   3.909   6.643
 2115SOL     OW 7243   2.709   5.066   2.055
 2115SOL    HW1 7244   2.631   5.127   2.042
 2115SOL    HW2 7245   2.765   5.100   2.131
 2116SOL     OW 7246   0.049   4.103   3.204
 2116SOL    HW1 7247   0.141   4.065   3.212
 2116SOL    HW2 7248   0.009   4.079   3.116
 2117SOL     OW 7249   6.836   5.067   0.197
 2117SOL    HW1 7250   6.755   5.063   0.256
 2117SOL    HW2 7251   6.853   5.162   0.170
 2118SOL     OW 7252   6.867   3.989   2.291
 2118SOL    HW1 7253   6.894   4.068   2.235
 2118SOL    HW2 7254   6.905   3.999   2.383
 2119SOL     OW 7255   3.502   6.018   1.122
 2119SOL    HW1 7256   3.446   6.004   1.040
 2119SOL    HW2 7257   3.516   6.115   1.136
 2120SOL     OW 7258   0.027   5.571   2.131
 2120SOL    HW1 7259   0.104   5.535   2.079
 2120SOL    HW2 7260   6.993   5.495   2.164
 2121SOL     OW 7261   0.722   4.407   4.618
 2121SOL    HW1 7262   0.662   4.483   4.640
 2121SOL    HW2 7263   0.749   4.412   4.522
 2122SOL     OW 7264   4.735   4.492   5.357
 2122SOL    HW1 7265   4.692   4.462   5.273
 2122SOL    HW2 7266   4.719   4.425   5.430
 2123SOL     OW 7267   4.602   4.573   3.866
 2123SOL    HW1 7268   4.505   4.595   3.856
 2123SOL    HW2 7269   4.650   4.653   3.901
 2124SOL     OW 7270   2.942   1.483   1.560
 2124SOL    HW1 7271   2.944   1.581   1.579
 2124SOL    HW2 7272   2.862   1.443   1.605
 2125SOL     OW 7273   3.146   0.008   1.059
 2125SOL    HW1 7274   3.170   0.045   0.969
 2125SOL    HW2 7275   3.053   0.035   1.083
 2126SOL     OW 7276   2.620   0.782   1.971
 2126SOL    HW1 7277   2.580   0.872   1.958
 2126SOL    HW2 7278   2.719   0.787   1.956
 2127SOL     OW 7279   5.721   2.992   4.705
 2127SOL    HW1 7280   5.643   2.990   4.642
 2127SOL    HW2 7281   5.766   2.903   4.705
 2128SOL     OW 7282   0.827   4.447   4.046
 2128SOL    HW1 7283   0.884   4.516   4.001
 2128SOL    HW2 7284   0.731   4.466   4.027
 2129SOL     OW 7285   3.766   2.226   5.649
 2129SOL    HW1 7286   3.795   2.272   5.565
 2129SOL    HW2 7287   3.669   2.242   5.664
 2130SOL     OW 7288   4.294   6.836   3.536
 2130SOL    HW1 7289   4.263   6.926   3.505
 2130SOL    HW2 7290   4.390   6.824   3.514
 2131SOL     OW 7291   5.222   1.721   6.955
 2131SOL    HW1 7292   5.165   1.712   0.014
 2131SOL    HW2 7293   5.203   1.809   6.910
 2132SOL     OW 7294   2.314   3.511   0.337
 2132SOL    HW1 7295   2.311   3.411   0.331
 2132SOL    HW2 7296   2.329   3.549   0.246
 2133SOL     OW 7297   3.053   3.358   6.072
 2133SOL    HW1 7298   2.999   3.436   6.044
 2133SOL    HW2 7299   3.139   3.356   6.020
 2134SOL     OW 7300   1.092   6.935   0.937
 2134SOL    HW1 7301   1.146   6.861   0.979
 2134SOL    HW2 7302   1.124   6.950   0.843
 2135SOL     OW 7303   6.567   4.478   4.954
 2135SOL    HW1 7304   6.596   4.511   5.044
 2135SOL    HW2 7305   6.647   4.450   4.901
 2136SOL     OW 7306   0.714   5.045   1.106
 2136SOL    HW1 7307   0.725   5.107   1.183
 2136SOL    HW2 7308   0.770   4.963   1.121
 2137SOL     OW 7309   2.046   6.503   4.536
 2137SOL    HW1 7310   1.967   6.517   4.476
 2137SOL    HW2 7311   2.023   6.434   4.605
 2138SOL     OW 7312   5.189   1.337   1.631
 2138SOL    HW1 7313   5.265   1.360   1.692
 2138SOL    HW2 7314   5.118   1.408   1.638
 2139SOL     OW 7315   2.934   0.241   5.655
 2139SOL    HW1 7316   2.887   0.321   5.694
 2139SOL    HW2 7317   3.003   0.208   5.719
 2140SOL     OW 7318   2.531   1.954   4.612
 2140SOL    HW1 7319   2.537   2.016   4.533
 2140SOL    HW2 7320   2.592   1.986   4.684
 2141SOL     OW 7321   6.669   3.454   3.457
 2141SOL    HW1 7322   6.649   3.543   3.414
 2141SOL    HW2 7323   6.768   3.441   3.461
 2142SOL     OW 7324   1.590   2.465   3.035
 2142SOL    HW1 7325   1.577   2.558   3.069
 2142SOL    HW2 7326   1.537   2.453   2.951
 2143SOL     OW 7327   0.647   4.714   5.831
 2143SOL    HW1 7328   0.596   4.797   5.812
 2143SOL    HW2 7329   0.642   4.693   5.929
 2144SOL     OW 7330   6.255   4.663   3.584
 2144SOL    HW1 7331   6.212   4.594   3.527
 2144SOL    HW2 7332   6.272   4.745   3.530
 2145SOL     OW 7333   4.397   1.115   3.617
 2145SOL    HW1 7334   4.374   1.024   3.653
 2145SOL    HW2 7335   4.358   1.126   3.526
 2146SOL     OW 7336   2.249   3.208   0.383
 2146SOL    HW1 7337   2.187   3.167   0.450
 2146SOL    HW2 7338   2.200   3.223   0.297
 2147SOL     OW 7339   5.937   6.999   4.428
 2147SOL    HW1 7340   5.839   6.978   4.432
 2147SOL    HW2 7341   5.951   0.058   4.372
 2148SOL     OW 7342   0.537   3.452   5.890
 2148SOL    HW1 7343   0.600   3.378   5.865
 2148SOL    HW2 7344   0.443   3.421   5.878
 2149SOL     OW 7345   1.131   0.192   0.216
 2149SOL    HW1 7346   1.159   0.253   0.290
 2149SOL    HW2 7347   1.164   0.099   0.235
 2150SOL     OW 7348   1.760   2.699   1.294
 2150SOL    HW1 7349   1.710   2.619   1.328
 2150SOL    HW2 7350   1.735   2.716   1.199
 2151SOL     OW 7351   0.836   5.308   0.436
 2151SOL    HW1 7352   0.775   5.360   0.495
 2151SOL    HW2 7353   0.903   5.259   0.492
 2152SOL     OW 7354   5.491   5.898   4.204
 2152SOL    HW1 7355   5.432   5.946   4.139
 2152SOL    HW2 7356   5.444   5.817   4.238
 2153SOL     OW 7357   4.834   0.964   3.878
 2153SOL    HW1 7358   4.789   0.907   3.809
 2153SOL    HW2 7359   4.891   1.032   3.833
 2154SOL     OW 7360   2.878   0.416   3.038
 2154SOL    HW1 7361   2.843   0.376   2.953
 2154SOL    HW2 7362   2.970   0.452   3.024
 2155SOL     OW 7363   3.979   0.588   0.767
 2155SOL    HW1 7364   4.036   0.624   0.693
 2155SOL    HW2 7365   4.010   0.624   0.855
 2156SOL     OW 7366   5.297   1.931   4.995
 2156SOL    HW1 7367   5.213   1.985   4.985
 2156SOL    HW2 7368   5.313   1.879   4.911
 2157SOL     OW 7369   3.840   6.349   4.137
 2157SOL    HW1 7370   3.895   6.333   4.055
 2157SOL    HW2 7371   3.886   6.417   4.195
 2158SOL     OW 7372   3.594   6.739   0.767
 2158SOL    HW1 7373   3.569   6.746   0.670
 2158SOL    HW2 7374   3.687   6.701   0.774
 2159SOL     OW 7375   0.659   1.121   5.753
 2159SOL    HW1 7376   0.716   1.046   5.718
 2159SOL    HW2 7377   0.563   1.104   5.730
 2160SOL     OW 7378   5.610   0.411   0.380
 2160SOL    HW1 7379   5.607   0.345   0.454
 2160SOL    HW2 7380   5.518   0.445   0.362
 2161SOL     OW 7381   1.356   2.578   1.285
 2161SOL    HW1 7382   1.269   2.563   1.239
 2161SOL    HW2 7383   1.391   2.669   1.262
 2162SOL     OW 7384   1.604   6.504   1.527
 2162SOL    HW1 7385   1.664   6.564   1.579
 2162SOL    HW2 7386   1.549   6.448   1.589
 2163SOL     OW 7387   1.936   2.807   3.054
 2163SOL    HW1 7388   1.887   2.823   2.968
 2163SOL    HW2 7389   2.023   2.762   3.034
 2164SOL     OW 7390   2.260   2.807   2.680
 2164SOL    HW1 7391   2.306   2.797   2.592
 2164SOL    HW2 7392   2.210   2.893   2.683
 2165SOL     OW 7393   6.750   1.424   4.167
 2165SOL    HW1 7394   6.737   1.516   4.130
 2165SOL    HW2 7395   6.721   1.422   4.262
 2166SOL     OW 7396   0.167   4.036   2.651
 2166SOL    HW1 7397   0.114   3.972   2.707
 2166SOL    HW2 7398   0.145   4.022   2.555
 2167SOL     OW 7399   2.389   1.617   2.698
 2167SOL    HW1 7400   2.377   1.646   2.603
 2167SOL    HW2 7401   2.416   1.696   2.753
 2168SOL     OW 7402   1.704   1.758   3.338
 2168SOL    HW1 7403   1.614   1.791   3.310
 2168SOL    HW2 7404   1.701   1.732   3.435
 2169SOL     OW 7405   0.532   0.191   1.310
 2169SOL    HW1 7406   0.436   0.216   1.298
 2169SOL    HW2 7407   0.584   0.217   1.228
 2170SOL     OW 7408   1.282   4.068   5.874
 2170SOL    HW1 7409   1.284   4.167   5.865
 2170SOL    HW2 7410   1.371   4.035   5.903
 2171SOL     OW 7411   6.792   5.875   1.354
 2171SOL    HW1 7412   6.707   5.918   1.383
 2171SOL    HW2 7413   6.870   5.924   1.393
 2172SOL     OW 7414   1.636   1.493   5.318
 2172SOL    HW1 7415   1.682   1.581   5.330
 2172SOL    HW2 7416   1.655   1.434   5.397
 2173SOL     OW 7417   5.746   0.724   5.484
 2173SOL    HW1 7418   5.816   0.789   5.512
 2173SOL    HW2 7419   5.691   0.764   5.410
 2174SOL     OW 7420   5.521   0.481   5.868
 2174SOL    HW1 7421   5.431   0.496   5.908
 2174SOL    HW2 7422   5.535   0.545   5.792
 2175SOL     OW 7423   2.706   4.004   5.273
 2175SOL    HW1 7424   2.700   3.981   5.370
 2175SOL    HW2 7425   2.629   3.963   5.224
 2176SOL     OW 7426   5.408   2.265   2.487
 2176SOL    HW1 7427   5.457   2.293   2.570
 2176SOL    HW2 7428   5.367   2.176   2.502
 2177SOL     OW 7429   0.320   0.799   4.936
 2177SOL    HW1 7430   0.416   0.771   4.932
 2177SOL    HW2 7431   0.261   0.719   4.922
 2178SOL     OW 7432   0.937   2.086   2.925
 2178SOL    HW1 7433   0.883   2.029   2.864
 2178SOL    HW2 7434   0.878   2.150   2.973
 2179SOL     OW 7435   1.716   4.457   6.158
 2179SOL    HW1 7436   1.736   4.385   6.091
 2179SOL    HW2 7437   1.797   4.514   6.170
 2180SOL     OW 7438   0.758   6.043   2.862
 2180SOL    HW1 7439   0.847   6.085   2.847
 2180SOL    HW2 7440   0.736   6.044   2.959
 2181SOL     OW 7441   3.414   4.929   4.787
 2181SOL    HW1 7442   3.377   4.942   4.880
 2181SOL    HW2 7443   3.338   4.923   4.722
 2182SOL     OW 7444   6.970   6.696   2.605
 2182SOL    HW1 7445   0.044   6.697   2.629
 2182SOL    HW2 7446   6.943   6.605   2.573
 2183SOL     OW 7447   3.447   3.394   6.208
 2183SOL    HW1 7448   3.360   3.355   6.237
 2183SOL    HW2 7449   3.432   3.449   6.126
 2184SOL     OW 7450   6.697   1.448   0.243
 2184SOL    HW1 7451   6.654   1.483   0.326
 2184SOL    HW2 7452   6.715   1.350   0.254
 2185SOL     OW 7453   1.155   0.339   6.578
 2185SOL    HW1 7454   1.140   0.399   6.656
 2185SOL    HW2 7455   1.076   0.342   6.518
 2186SOL     OW 7456   6.930   5.522   5.453
 2186SOL    HW1 7457   6.875   5.602   5.431
 2186SOL    HW2 7458   6.926   5.457   5.377
 2187SOL     OW 7459   6.902   5.719   1.945
 2187SOL    HW1 7460   6.948   5.699   2.031
 2187SOL    HW2 7461   6.900   5.636   1.888
 2188SOL     OW 7462   2.887   0.821   0.790
 2188SOL    HW1 7463   2.851   0.776   0.872
 2188SOL    HW2 7464   2.832   0.794   0.711
 2189SOL     OW 7465   2.259   1.493   1.561
 2189SOL    HW1 7466   2.245   1.584   1.601
 2189SOL    HW2 7467   2.178   1.467   1.508
 2190SOL     OW 7468   6.541   4.071   1.913
 2190SOL    HW1 7469   6.467   4.041   1.973
 2190SOL    HW2 7470   6.576   3.992   1.862
 2191SOL     OW 7471   2.788   0.375   6.530
 2191SOL    HW1 7472   2.850   0.324   6.589
 2191SOL    HW2 7473   2.702   0.325   6.520
 2192SOL     OW 7474   5.369   1.921   1.960
 2192SOL    HW1 7475   5.354   1.996   1.895
 2192SOL    HW2 7476   5.299   1.850   1.946
 2193SOL     OW 7477   1.640   6.681   5.784
 2193SOL    HW1 7478   1.683   6.757   5.832
 2193SOL    HW2 7479   1.566   6.644   5.840
 2194SOL     OW 7480   0.676   4.308   6.019
 2194SOL    HW1 7481   0.647   4.220   6.055
 2194SOL    HW2 7482   0.775   4.306   6.000
 2195SOL     OW 7483   0.545   3.358   4.837
 2195SOL    HW1 7484   0.579   3.279   4.889
 2195SOL    HW2 7485   0.549   3.337   4.739
 2196SOL     OW 7486   2.848   0.258   6.850
 2196SOL    HW1 7487   2.838   0.320   6.928
 2196SOL    HW2 7488   2.857   0.164   6.882
 2197SOL     OW 7489   3.654   5.473   5.674
 2197SOL    HW1 7490   3.557   5.490   5.691
 2197SOL    HW2 7491   3.707   5.498   5.755
 2198SOL     OW 7492   0.745   0.676   7.022
 2198SOL    HW1 7493   0.804   0.608   0.043
 2198SOL    HW2 7494   0.798   0.726   6.953
 2199SOL     OW 7495   4.016   6.468   4.790
 2199SOL    HW1 7496   4.022   6.374   4.825
 2199SOL    HW2 7497   4.032   6.532   4.865
 2200SOL     OW 7498   2.524   2.144   3.888
 2200SOL    HW1 7499   2.514   2.115   3.793
 2200SOL    HW2 7500   2.450   2.107   3.943
 2201SOL     OW 7501   6.028   3.875   4.890
 2201SOL    HW1 7502   6.048   3.794   4.835
 2201SOL    HW2 7503   6.029   3.956   4.832
 2202SOL     OW 7504   3.337   0.073   1.955
 2202SOL    HW1 7505   3.370   0.167   1.948
 2202SOL    HW2 7506   3.246   0.068   1.914
 2203SOL     OW 7507   2.366   4.703   1.175
 2203SOL    HW1 7508   2.302   4.645   1.225
 2203SOL    HW2 7509   2.460   4.679   1.199
 2204SOL     OW 7510   6.089   3.319   0.577
 2204SOL    HW1 7511   6.004   3.354   0.538
 2204SOL    HW2 7512   6.089   3.219   0.572
 2205SOL     OW 7513   0.144   5.275   0.840
 2205SOL    HW1 7514   0.198   5.318   0.912
 2205SOL    HW2 7515   0.135   5.177   0.859
 2206SOL     OW 7516   3.916   2.254   5.883
 2206SOL    HW1 7517   4.001   2.306   5.870
 2206SOL    HW2 7518   3.855   2.270   5.806
 2207SOL     OW 7519   4.868   5.705   0.732
 2207SOL    HW1 7520   4.879   5.771   0.658
 2207SOL    HW2 7521   4.771   5.686   0.746
 2208SOL     OW 7522   6.513   6.518   3.818
 2208SOL    HW1 7523   6.602   6.561   3.836
 2208SOL    HW2 7524   6.524   6.446   3.750
 2209SOL     OW 7525   2.788   5.787   4.184
 2209SOL    HW1 7526   2.764   5.713   4.121
 2209SOL    HW2 7527   2.708   5.814   4.237
 2210SOL     OW 7528   4.605   0.203   1.484
 2210SOL    HW1 7529   4.559   0.114   1.478
 2210SOL    HW2 7530   4.612   0.243   1.392
 2211SOL     OW 7531   1.032   1.565   1.129
 2211SOL    HW1 7532   1.105   1.615   1.175
 2211SOL    HW2 7533   1.070   1.486   1.081
 2212SOL     OW 7534   3.121   5.722   7.013
 2212SOL    HW1 7535   3.133   5.754   6.919
 2212SOL    HW2 7536   3.103   5.623   7.012
 2213SOL     OW 7537   3.363   2.053   4.922
 2213SOL    HW1 7538   3.303   2.132   4.905
 2213SOL    HW2 7539   3.439   2.082   4.981
 2214SOL     OW 7540   4.302   4.150   6.851
 2214SOL    HW1 7541   4.282   4.054   6.873
 2214SOL    HW2 7542   4.270   4.208   6.926
 2215SOL     OW 7543   3.947   0.064   6.750
 2215SOL    HW1 7544   3.992   0.014   6.823
 2215SOL    HW2 7545   4.010   0.076   6.673
 2216SOL     OW 7546   1.023   6.778   6.568
 2216SOL    HW1 7547   0.971   6.845   6.622
 2216SOL    HW2 7548   0.977   6.689   6.571
 2217SOL     OW 7549   4.398   0.834   3.781
 2217SOL    HW1 7550   4.315   0.791   3.745
 2217SOL    HW2 7551   4.395   0.834   3.881
 2218SOL     OW 7552   0.490   6.114   5.744
 2218SOL    HW1 7553   0.407   6.059   5.755
 2218SOL    HW2 7554   0.527   6.099   5.652
 2219SOL     OW 7555   5.605   0.945   1.252
 2219SOL    HW1 7556   5.612   1.030   1.201
 2219SOL    HW2 7557   5.545   0.882   1.203
 2220SOL     OW 7558   0.382   6.007   4.594
 2220SOL    HW1 7559   0.468   6.030   4.549
 2220SOL    HW2 7560   0.398   5.986   4.690
 2221SOL     OW 7561   6.636   1.046   4.019
 2221SOL    HW1 7562   6.554   1.008   4.063
 2221SOL    HW2 7563   6.710   1.052   4.086
 2222SOL     OW 7564   5.051   0.367   2.307
 2222SOL    HW1 7565   4.955   0.348   2.327
 2222SOL    HW2 7566   5.109   0.316   2.370
 2223SOL     OW 7567   0.402   6.251   5.435
 2223SOL    HW1 7568   0.407   6.339   5.481
 2223SOL    HW2 7569   0.492   6.228   5.397
 2224SOL     OW 7570   5.757   3.828   0.617
 2224SOL    HW1 7571   5.840   3.832   0.562
 2224SOL    HW2 7572   5.762   3.896   0.690
 2225SOL     OW 7573   6.687   6.293   2.320
 2225SOL    HW1 7574   6.768   6.286   2.262
 2225SOL    HW2 7575   6.667   6.204   2.362
 2226SOL     OW 7576   2.646   4.831   0.123
 2226SOL    HW1 7577   2.740   4.796   0.113
 2226SOL    HW2 7578   2.633   4.910   0.063
 2227SOL     OW 7579   3.831   2.003   1.971
 2227SOL    HW1 7580   3.769   1.948   1.915
 2227SOL    HW2 7581   3.781   2.082   2.008
 2228SOL     OW 7582   5.587   5.564   6.770
 2228SOL    HW1 7583   5.617   5.634   6.706
 2228SOL    HW2 7584   5.524   5.604   6.836
 2229SOL     OW 7585   3.307   3.217   3.584
 2229SOL    HW1 7586   3.404   3.212   3.564
 2229SOL    HW2 7587   3.266   3.126   3.576
 2230SOL     OW 7588   5.873   0.143   6.836
 2230SOL    HW1 7589   5.947   0.147   6.769
 2230SOL    HW2 7590   5.785   0.150   6.789
 2231SOL     OW 7591   1.228   6.840   6.410
 2231SOL    HW1 7592   1.254   6.767   6.346
 2231SOL    HW2 7593   1.155   6.807   6.471
 2232SOL     OW 7594   1.555   0.877   5.064
 2232SOL    HW1 7595   1.576   0.865   4.967
 2232SOL    HW2 7596   1.463   0.842   5.084
 2233SOL     OW 7597   3.290   4.925   0.997
 2233SOL    HW1 7598   3.228   4.999   1.023
 2233SOL    HW2 7599   3.275   4.902   0.900
 2234SOL     OW 7600   4.995   1.833   1.587
 2234SOL    HW1 7601   4.898   1.851   1.603
 2234SOL    HW2 7602   5.029   1.894   1.515
 2235SOL     OW 7603   0.896   1.962   3.180
 2235SOL    HW1 7604   0.926   2.028   3.111
 2235SOL    HW2 7605   0.970   1.897   3.198
 2236SOL     OW 7606   2.291   5.009   5.359
 2236SOL    HW1 7607   2.208   5.032   5.411
 2236SOL    HW2 7608   2.270   4.938   5.292
 2237SOL     OW 7609   6.091   5.168   5.639
 2237SOL    HW1 7610   6.144   5.238   5.592
 2237SOL    HW2 7611   6.096   5.182   5.738
 2238SOL     OW 7612   6.028   3.635   1.651
 2238SOL    HW1 7613   6.065   3.574   1.720
 2238SOL    HW2 7614   5.966   3.701   1.694
 2239SOL     OW 7615   4.848   6.541   3.043
 2239SOL    HW1 7616   4.827   6.607   3.115
 2239SOL    HW2 7617   4.915   6.580   2.980
 2240SOL     OW 7618   4.850   5.211   2.580
 2240SOL    HW1 7619   4.800   5.125   2.591
 2240SOL    HW2 7620   4.891   5.238   2.667
 2241SOL     OW 7621   0.590   1.471   2.173
 2241SOL    HW1 7622   0.648   1.533   2.121
 2241SOL    HW2 7623   0.642   1.431   2.248
 2242SOL     OW 7624   5.325   2.659   3.536
 2242SOL    HW1 7625   5.341   2.567   3.503
 2242SOL    HW2 7626   5.347   2.725   3.464
 2243SOL     OW 7627   2.023   6.829   0.892
 2243SOL    HW1 7628   1.958   6.843   0.966
 2243SOL    HW2 7629   2.049   6.732   0.887
 2244SOL     OW 7630   2.428   0.911   0.525
 2244SOL    HW1 7631   2.526   0.898   0.534
 2244SOL    HW2 7632   2.385   0.825   0.496
 2245SOL     OW 7633   0.112   0.466   6.908
 2245SOL    HW1 7634   0.068   0.392   6.856
 2245SOL    HW2 7635   0.109   0.445   7.005
 2246SOL     OW 7636   2.868   1.601   5.141
 2246SOL    HW1 7637   2.948   1.660   5.153
 2246SOL    HW2 7638   2.790   1.640   5.191
 2247SOL     OW 7639   3.254   3.143   2.735
 2247SOL    HW1 7640   3.242   3.224   2.792
 2247SOL    HW2 7641   3.261   3.170   2.639
 2248SOL     OW 7642   4.717   4.078   5.376
 2248SOL    HW1 7643   4.644   4.092   5.309
 2248SOL    HW2 7644   4.732   3.980   5.388
 2249SOL     OW 7645   1.189   6.399   3.638
 2249SOL    HW1 7646   1.135   6.445   3.568
 2249SOL    HW2 7647   1.279   6.442   3.645
 2250SOL     OW 7648   4.500   5.295   6.173
 2250SOL    HW1 7649   4.534   5.321   6.263
 2250SOL    HW2 7650   4.519   5.368   6.108
 2251SOL     OW 7651   5.758   6.204   5.497
 2251SOL    HW1 7652   5.848   6.244   5.478
 2251SOL    HW2 7653   5.743   6.201   5.596
 2252SOL     OW 7654   4.243   1.966   2.284
 2252SOL    HW1 7655   4.159   2.009   2.251
 2252SOL    HW2 7656   4.315   2.035   2.290
 2253SOL     OW 7657   0.421   3.619   1.177
 2253SOL    HW1 7658   0.512   3.661   1.182
 2253SOL    HW2 7659   0.358   3.671   1.235
 2254SOL     OW 7660   3.819   4.041   2.456
 2254SOL    HW1 7661   3.762   4.119   2.482
 2254SOL    HW2 7662   3.856   3.997   2.538
 2255SOL     OW 7663   3.112   3.092   6.189
 2255SOL    HW1 7664   3.017   3.080   6.161
 2255SOL    HW2 7665   3.163   3.139   6.118
 2256SOL     OW 7666   5.219   0.119   1.243
 2256SOL    HW1 7667   5.126   0.152   1.229
 2256SOL    HW2 7668   5.280   0.195   1.266
 2257SOL     OW 7669   7.009   1.316   5.107
 2257SOL    HW1 7670   6.978   1.305   5.013
 2257SOL    HW2 7671   6.938   1.363   5.160
 2258SOL     OW 7672   2.717   5.547   4.042
 2258SOL    HW1 7673   2.624   5.575   4.020
 2258SOL    HW2 7674   2.749   5.481   3.975
 2259SOL     OW 7675   5.971   2.165   4.802
 2259SOL    HW1 7676   5.910   2.220   4.858
 2259SOL    HW2 7677   5.942   2.170   4.706
 2260SOL     OW 7678   0.767   4.005   1.396
 2260SOL    HW1 7679   0.766   4.042   1.303
 2260SOL    HW2 7680   0.835   3.932   1.402
 2261SOL     OW 7681   5.367   3.892   6.634
 2261SOL    HW1 7682   5.279   3.864   6.671
 2261SOL    HW2 7683   5.372   3.868   6.537
 2262SOL     OW 7684   6.554   0.339   4.787
 2262SOL    HW1 7685   6.622   0.412   4.790
 2262SOL    HW2 7686   6.591   0.260   4.738
 2263SOL     OW 7687   2.310   4.325   6.434
 2263SOL    HW1 7688   2.255   4.392   6.484
 2263SOL    HW2 7689   2.368   4.275   6.499
 2264SOL     OW 7690   2.877   6.981   5.774
 2264SOL    HW1 7691   2.953   0.021   5.757
 2264SOL    HW2 7692   2.796   0.010   5.801
 2265SOL     OW 7693   0.390   6.476   4.482
 2265SOL    HW1 7694   0.380   6.565   4.526
 2265SOL    HW2 7695   0.327   6.469   4.405
 2266SOL     OW 7696   3.918   2.758   6.737
 2266SOL    HW1 7697   3.880   2.668   6.719
 2266SOL    HW2 7698   3.932   2.806   6.650
 2267SOL     OW 7699   4.794   2.365   4.331
 2267SOL    HW1 7700   4.716   2.302   4.336
 2267SOL    HW2 7701   4.767   2.453   4.372
 2268SOL     OW 7702   1.075   5.454   4.898
 2268SOL    HW1 7703   1.134   5.524   4.937
 2268SOL    HW2 7704   1.027   5.407   4.972
 2269SOL     OW 7705   1.861   2.425   5.307
 2269SOL    HW1 7706   1.892   2.330   5.302
 2269SOL    HW2 7707   1.923   2.478   5.365
 2270SOL     OW 7708   4.971   1.935   6.010
 2270SOL    HW1 7709   4.946   1.921   5.914
 2270SOL    HW2 7710   4.967   2.032   6.032
 2271SOL     OW 7711   4.833   5.589   5.721
 2271SOL    HW1 7712   4.797   5.502   5.754
 2271SOL    HW2 7713   4.857   5.581   5.625
 2272SOL     OW 7714   5.596   1.464   6.197
 2272SOL    HW1 7715   5.615   1.374   6.236
 2272SOL    HW2 7716   5.530   1.512   6.254
 2273SOL     OW 7717   0.846   2.491   2.854
 2273SOL    HW1 7718   0.868   2.438   2.772
 2273SOL    HW2 7719   0.930   2.518   2.900
 2274SOL     OW 7720   0.251   1.676   0.180
 2274SOL    HW1 7721   0.305   1.742   0.232
 2274SOL    HW2 7722   0.303   1.644   0.101
 2275SOL     OW 7723   5.522   4.920   3.071
 2275SOL    HW1 7724   5.536   4.986   3.145
 2275SOL    HW2 7725   5.436   4.872   3.084
 2276SOL     OW 7726   1.589   2.162   1.165
 2276SOL    HW1 7727   1.631   2.139   1.077
 2276SOL    HW2 7728   1.491   2.177   1.153
 2277SOL     OW 7729   3.700   3.490   3.389
 2277SOL    HW1 7730   3.663   3.539   3.467
 2277SOL    HW2 7731   3.673   3.536   3.304
 2278SOL     OW 7732   0.785   2.774   4.152
 2278SOL    HW1 7733   0.798   2.851   4.214
 2278SOL    HW2 7734   0.839   2.696   4.183
 2279SOL     OW 7735   0.659   6.071   5.520
 2279SOL    HW1 7736   0.625   5.986   5.480
 2279SOL    HW2 7737   0.695   6.130   5.448
 2280SOL     OW 7738   4.747   1.673   5.876
 2280SOL    HW1 7739   4.796   1.634   5.954
 2280SOL    HW2 7740   4.791   1.758   5.847
 2281SOL     OW 7741   6.002   6.520   2.734
 2281SOL    HW1 7742   6.093   6.558   2.716
 2281SOL    HW2 7743   5.932   6.582   2.697
 2282SOL     OW 7744   4.139   6.535   5.186
 2282SOL    HW1 7745   4.069   6.547   5.115
 2282SOL    HW2 7746   4.155   6.622   5.232
 2283SOL     OW 7747   0.192   0.374   3.807
 2283SOL    HW1 7748   0.285   0.390   3.774
 2283SOL    HW2 7749   0.129   0.439   3.764
 2284SOL     OW 7750   0.874   2.510   6.996
 2284SOL    HW1 7751   0.937   2.565   6.941
 2284SOL    HW2 7752   0.839   2.567   0.048
 2285SOL     OW 7753   1.902   4.255   6.258
 2285SOL    HW1 7754   1.975   4.242   6.324
 2285SOL    HW2 7755   1.937   4.239   6.166
 2286SOL     OW 7756   4.701   5.426   3.446
 2286SOL    HW1 7757   4.635   5.456   3.377
 2286SOL    HW2 7758   4.661   5.353   3.501
 2287SOL     OW 7759   1.844   1.235   3.271
 2287SOL    HW1 7760   1.824   1.322   3.316
 2287SOL    HW2 7761   1.761   1.180   3.267
 2288SOL     OW 7762   0.143   6.161   2.763
 2288SOL    HW1 7763   0.074   6.163   2.691
 2288SOL    HW2 7764   0.106   6.117   2.844
 2289SOL     OW 7765   0.518   5.381   1.415
 2289SOL    HW1 7766   0.467   5.315   1.470
 2289SOL    HW2 7767   0.461   5.413   1.339
 2290SOL     OW 7768   0.593   5.904   0.484
 2290SOL    HW1 7769   0.628   5.955   0.406
 2290SOL    HW2 7770   0.588   5.807   0.461
 2291SOL     OW 7771   2.404   1.845   6.696
 2291SOL    HW1 7772   2.345   1.791   6.755
 2291SOL    HW2 7773   2.398   1.942   6.721
 2292SOL     OW 7774   1.040   1.370   5.099
 2292SOL    HW1 7775   0.982   1.450   5.116
 2292SOL    HW2 7776   1.013   1.326   5.013
 2293SOL     OW 7777   5.433   4.509   2.654
 2293SOL    HW1 7778   5.362   4.441   2.636
 2293SOL    HW2 7779   5.440   4.571   2.575
 2294SOL     OW 7780   3.374   6.449   6.612
 2294SOL    HW1 7781   3.349   6.507   6.535
 2294SOL    HW2 7782   3.329   6.360   6.603
 2295SOL     OW 7783   0.539   2.366   1.376
 2295SOL    HW1 7784   0.496   2.340   1.289
 2295SOL    HW2 7785   0.555   2.285   1.431
 2296SOL     OW 7786   2.797   6.727   0.277
 2296SOL    HW1 7787   2.855   6.661   0.324
 2296SOL    HW2 7788   2.725   6.758   0.338
 2297SOL     OW 7789   4.350   6.030   5.625
 2297SOL    HW1 7790   4.441   6.045   5.586
 2297SOL    HW2 7791   4.321   6.112   5.673
 2298SOL     OW 7792   3.810   3.071   6.773
 2298SOL    HW1 7793   3.836   3.016   6.694
 2298SOL    HW2 7794   3.880   3.140   6.790
 2299SOL     OW 7795   4.583   5.906   0.404
 2299SOL    HW1 7796   4.533   5.875   0.485
 2299SOL    HW2 7797   4.602   6.004   0.413
 2300SOL     OW 7798   1.586   4.870   1.377
 2300SOL    HW1 7799   1.668   4.921   1.404
 2300SOL    HW2 7800   1.535   4.923   1.309
 2301SOL     OW 7801   3.883   3.641   1.951
 2301SOL    HW1 7802   3.948   3.592   2.008
 2301SOL    HW2 7803   3.918   3.733   1.931
 2302SOL     OW 7804   2.621   6.010   2.881
 2302SOL    HW1 7805   2.544   6.025   2.943
 2302SOL    HW2 7806   2.694   5.962   2.929
 2303SOL     OW 7807   0.845   3.060   4.533
 2303SOL    HW1 7808   0.924   3.119   4.547
 2303SOL    HW2 7809   0.858   2.975   4.584
 2304SOL     OW 7810   2.465   1.041   3.805
 2304SOL    HW1 7811   2.423   0.964   3.854
 2304SOL    HW2 7812   2.404   1.120   3.809
 2305SOL     OW 7813   3.938   5.425   1.992
 2305SOL    HW1 7814   3.868   5.360   1.961
 2305SOL    HW2 7815   4.029   5.386   1.979
 2306SOL     OW 7816   0.942   3.541   0.914
 2306SOL    HW1 7817   0.950   3.494   0.826
 2306SOL    HW2 7818   0.885   3.487   0.975
 2307SOL     OW 7819   0.476   2.627   2.585
 2307SOL    HW1 7820   0.556   2.671   2.544
 2307SOL    HW2 7821   0.448   2.550   2.528
 2308SOL     OW 7822   0.348   0.104   0.337
 2308SOL    HW1 7823   0.283   0.029   0.320
 2308SOL    HW2 7824   0.337   0.174   0.266
 2309SOL     OW 7825   3.604   5.048   6.264
 2309SOL    HW1 7826   3.590   4.996   6.179
 2309SOL    HW2 7827   3.688   5.102   6.256
 2310SOL     OW 7828   5.557   1.055   2.133
 2310SOL    HW1 7829   5.462   1.087   2.132
 2310SOL    HW2 7830   5.558   0.956   2.120
 2311SOL     OW 7831   2.915   0.193   2.830
 2311SOL    HW1 7832   2.882   0.102   2.856
 2311SOL    HW2 7833   2.866   0.224   2.748
 2312SOL     OW 7834   3.124   1.170   2.823
 2312SOL    HW1 7835   3.168   1.234   2.886
 2312SOL    HW2 7836   3.025   1.183   2.827
 2313SOL     OW 7837   5.184   3.838   1.676
 2313SOL    HW1 7838   5.258   3.775   1.656
 2313SOL    HW2 7839   5.203   3.887   1.761
 2314SOL     OW 7840   6.198   0.227   2.965
 2314SOL    HW1 7841   6.249   0.257   2.885
 2314SOL    HW2 7842   6.103   0.210   2.939
 2315SOL     OW 7843   4.210   5.606   5.304
 2315SOL    HW1 7844   4.217   5.586   5.402
 2315SOL    HW2 7845   4.300   5.633   5.269
 2316SOL     OW 7846   3.093   1.640   6.149
 2316SOL    HW1 7847   3.081   1.613   6.245
 2316SOL    HW2 7848   3.177   1.692   6.140
 2317SOL     OW 7849   6.575   5.914   3.689
 2317SOL    HW1 7850   6.633   5.834   3.676
 2317SOL    HW2 7851   6.480   5.890   3.671
 2318SOL     OW 7852   1.762   4.880   4.905
 2318SOL    HW1 7853   1.771   4.800   4.963
 2318SOL    HW2 7854   1.812   4.957   4.946
 2319SOL     OW 7855   2.280   5.017   3.847
 2319SOL    HW1 7856   2.367   5.049   3.808
 2319SOL    HW2 7857   2.236   4.954   3.783
 2320SOL     OW 7858   1.574   2.912   5.310
 2320SOL    HW1 7859   1.658   2.898   5.257
 2320SOL    HW2 7860   1.525   2.825   5.317
 2321SOL     OW 7861   2.750   5.200   5.941
 2321SOL    HW1 7862   2.793   5.113   5.915
 2321SOL    HW2 7863   2.666   5.182   5.991
 2322SOL     OW 7864   0.769   3.671   2.062
 2322SOL    HW1 7865   0.831   3.611   2.010
 2322SOL    HW2 7866   0.757   3.757   2.012
 2323SOL     OW 7867   2.359   4.892   1.532
 2323SOL    HW1 7868   2.363   4.990   1.552
 2323SOL    HW2 7869   2.382   4.877   1.436
 2324SOL     OW 7870   6.920   5.515   1.780
 2324SOL    HW1 7871   7.004   5.528   1.728
 2324SOL    HW2 7872   6.861   5.450   1.733
 2325SOL     OW 7873   6.962   5.074   1.649
 2325SOL    HW1 7874   6.996   5.045   1.560
 2325SOL    HW2 7875   0.015   5.110   1.704
 2326SOL     OW 7876   1.092   0.732   6.329
 2326SOL    HW1 7877   1.064   0.677   6.408
 2326SOL    HW2 7878   1.146   0.810   6.361
 2327SOL     OW 7879   6.762   0.785   2.840
 2327SOL    HW1 7880   6.787   0.778   2.937
 2327SOL    HW2 7881   6.827   0.845   2.794
 2328SOL     OW 7882   2.431   2.419   2.549
 2328SOL    HW1 7883   2.511   2.366   2.577
 2328SOL    HW2 7884   2.399   2.474   2.626
 2329SOL     OW 7885   0.825   5.745   3.247
 2329SOL    HW1 7886   0.904   5.806   3.252
 2329SOL    HW2 7887   0.742   5.797   3.265
 2330SOL     OW 7888   6.516   2.427   0.418
 2330SOL    HW1 7889   6.462   2.349   0.448
 2330SOL    HW2 7890   6.614   2.404   0.423
 2331SOL     OW 7891   3.975   6.242   0.235
 2331SOL    HW1 7892   4.059   6.257   0.181
 2331SOL    HW2 7893   3.997   6.193   0.319
 2332SOL     OW 7894   5.260   6.136   6.326
 2332SOL    HW1 7895   5.195   6.065   6.301
 2332SOL    HW2 7896   5.351   6.111   6.295
 2333SOL     OW 7897   0.258   4.946   2.431
 2333SOL    HW1 7898   0.350   4.958   2.469
 2333SOL    HW2 7899   0.197   5.015   2.470
 2334SOL     OW 7900   2.818   0.902   5.801
 2334SOL    HW1 7901   2.889   0.892   5.731
 2334SOL    HW2 7902   2.852   0.866   5.888
 2335SOL     OW 7903   5.872   1.416   3.295
 2335SOL    HW1 7904   5.956   1.404   3.347
 2335SOL    HW2 7905   5.828   1.502   3.322
 2336SOL     OW 7906   1.910   1.648   2.639
 2336SOL    HW1 7907   1.854   1.567   2.659
 2336SOL    HW2 7908   1.962   1.633   2.554
 2337SOL     OW 7909   4.304   1.731   1.394
 2337SOL    HW1 7910   4.349   1.810   1.434
 2337SOL    HW2 7911   4.209   1.727   1.425
 2338SOL     OW 7912   0.192   4.295   4.266
 2338SOL    HW1 7913   0.180   4.374   4.206
 2338SOL    HW2 7914   0.176   4.211   4.215
 2339SOL     OW 7915   3.873   3.109   2.886
 2339SOL    HW1 7916   3.919   3.045   2.824
 2339SOL    HW2 7917   3.848   3.061   2.970
 2340SOL     OW 7918   1.785   5.819   6.599
 2340SOL    HW1 7919   1.805   5.879   6.522
 2340SOL    HW2 7920   1.707   5.855   6.651
 2341SOL     OW 7921   2.518   4.534   3.639
 2341SOL    HW1 7922   2.510   4.434   3.641
 2341SOL    HW2 7923   2.538   4.568   3.731
 2342SOL     OW 7924   2.642   6.990   3.891
 2342SOL    HW1 7925   2.631   6.942   3.977
 2342SOL    HW2 7926   2.727   0.019   3.891
 2343SOL     OW 7927   1.586   6.526   2.420
 2343SOL    HW1 7928   1.648   6.603   2.438
 2343SOL    HW2 7929   1.601   6.455   2.489
 2344SOL     OW 7930   5.774   4.236   1.036
 2344SOL    HW1 7931   5.839   4.290   0.982
 2344SOL    HW2 7932   5.687   4.232   0.988
 2345SOL     OW 7933   2.696   5.909   5.001
 2345SOL    HW1 7934   2.755   5.830   5.017
 2345SOL    HW2 7935   2.751   5.993   4.998
 2346SOL     OW 7936   4.050   3.901   6.374
 2346SOL    HW1 7937   3.994   3.974   6.336
 2346SOL    HW2 7938   3.994   3.844   6.435
 2347SOL     OW 7939   0.959   2.540   1.742
 2347SOL    HW1 7940   0.884   2.476   1.761
 2347SOL    HW2 7941   1.006   2.562   1.827
 2348SOL     OW 7942   0.704   5.138   2.971
 2348SOL    HW1 7943   0.733   5.221   2.922
 2348SOL    HW2 7944   0.607   5.147   2.996
 2349SOL     OW 7945   0.315   4.705   6.476
 2349SOL    HW1 7946   0.353   4.796   6.459
 2349SOL    HW2 7947   0.226   4.714   6.521
 2350SOL     OW 7948   6.438   4.185   6.162
 2350SOL    HW1 7949   6.500   4.242   6.217
 2350SOL    HW2 7950   6.423   4.099   6.210
 2351SOL     OW 7951   2.527   4.483   3.255
 2351SOL    HW1 7952   2.464   4.428   3.309
 2351SOL    HW2 7953   2.586   4.537   3.316
 2352SOL     OW 7954   0.309   3.275   3.537
 2352SOL    HW1 7955   0.219   3.250   3.501
 2352SOL    HW2 7956   0.365   3.193   3.548
 2353SOL     OW 7957   3.634   5.902   5.132
 2353SOL    HW1 7958   3.561   5.933   5.070
 2353SOL    HW2 7959   3.713   5.874   5.078
 2354SOL     OW 7960   2.682   1.675   4.032
 2354SOL    HW1 7961   2.610   1.733   3.994
 2354SOL    HW2 7962   2.641   1.598   4.079
 2355SOL     OW 7963   2.042   5.846   4.857
 2355SOL    HW1 7964   2.112   5.778   4.875
 2355SOL    HW2 7965   2.014   5.842   4.761
 2356SOL     OW 7966   7.019   3.306   6.885
 2356SOL    HW1 7967   6.950   3.251   6.839
 2356SOL    HW2 7968   0.056   3.348   6.817
 2357SOL     OW 7969   2.941   6.930   2.318
 2357SOL    HW1 7970   3.033   6.959   2.344
 2357SOL    HW2 7971   2.875   7.001   2.342
 2358SOL     OW 7972   3.636   4.300   6.470
 2358SOL    HW1 7973   3.594   4.210   6.482
 2358SOL    HW2 7974   3.733   4.295   6.495
 2359SOL     OW 7975   1.195   0.463   5.067
 2359SOL    HW1 7976   1.218   0.535   5.132
 2359SOL    HW2 7977   1.148   0.389   5.114
 2360SOL     OW 7978   6.516   3.292   0.366
 2360SOL    HW1 7979   6.449   3.323   0.433
 2360SOL    HW2 7980   6.603   3.275   0.413
 2361SOL     OW 7981   3.888   1.556   6.075
 2361SOL    HW1 7982   3.985   1.533   6.078
 2361SOL    HW2 7983   3.869   1.613   5.995
 2362SOL     OW 7984   3.555   5.093   3.495
 2362SOL    HW1 7985   3.490   5.042   3.552
 2362SOL    HW2 7986   3.537   5.074   3.399
 2363SOL     OW 7987   3.738   1.596   3.890
 2363SOL    HW1 7988   3.656   1.649   3.869
 2363SOL    HW2 7989   3.714   1.499   3.898
 2364SOL     OW 7990   1.234   1.944   1.186
 2364SOL    HW1 7991   1.212   1.857   1.229
 2364SOL    HW2 7992   1.153   1.980   1.140
 2365SOL     OW 7993   5.644   2.133   6.588
 2365SOL    HW1 7994   5.714   2.170   6.527
 2365SOL    HW2 7995   5.679   2.129   6.681
 2366SOL     OW 7996   3.996   5.057   1.091
 2366SOL    HW1 7997   3.984   4.959   1.102
 2366SOL    HW2 7998   3.922   5.094   1.036
 2367SOL     OW 7999   2.036   3.304   6.836
 2367SOL    HW1 8000   2.008   3.208   6.836
 2367SOL    HW2 8001   2.122   3.314   6.785
 2368SOL     OW 8002   6.078   6.584   3.918
 2368SOL    HW1 8003   6.031   6.659   3.964
 2368SOL    HW2 8004   6.013   6.512   3.894
 2369SOL     OW 8005   2.086   0.142   3.822
 2369SOL    HW1 8006   2.021   0.096   3.761
 2369SOL    HW2 8007   2.045   0.152   3.912
 2370SOL     OW 8008   5.606   2.544   6.956
 2370SOL    HW1 8009   5.666   2.581   6.884
 2370SOL    HW2 8010   5.532   2.609   6.974
 2371SOL     OW 8011   3.011   0.108   1.425
 2371SOL    HW1 8012   3.017   0.008   1.425
 2371SOL    HW2 8013   3.069   0.145   1.353
 2372SOL     OW 8014   6.568   3.068   2.033
 2372SOL    HW1 8015   6.558   3.165   2.058
 2372SOL    HW2 8016   6.486   3.038   1.984
 2373SOL     OW 8017   2.101   3.523   6.404
 2373SOL    HW1 8018   2.058   3.488   6.321
 2373SOL    HW2 8019   2.033   3.528   6.477
 2374SOL     OW 8020   6.281   2.208   4.779
 2374SOL    HW1 8021   6.323   2.177   4.693
 2374SOL    HW2 8022   6.184   2.183   4.779
 2375SOL     OW 8023   3.408   5.598   4.887
 2375SOL    HW1 8024   3.501   5.576   4.859
 2375SOL    HW2 8025   3.347   5.590   4.808
 2376SOL     OW 8026   6.166   3.105   3.917
 2376SOL    HW1 8027   6.084   3.158   3.940
 2376SOL    HW2 8028   6.235   3.118   3.989
 2377SOL     OW 8029   3.099   3.192   4.134
 2377SOL    HW1 8030   3.095   3.136   4.051
 2377SOL    HW2 8031   3.079   3.287   4.111
 2378SOL     OW 8032   5.353   2.667   6.621
 2378SOL    HW1 8033   5.417   2.595   6.593
 2378SOL    HW2 8034   5.296   2.633   6.696
 2379SOL     OW 8035   6.259   0.357   0.697
 2379SOL    HW1 8036   6.254   0.457   0.691
 2379SOL    HW2 8037   6.265   0.330   0.793
 2380SOL     OW 8038   5.775   2.525   1.407
 2380SOL    HW1 8039   5.813   2.457   1.344
 2380SOL    HW2 8040   5.849   2.578   1.448
 2381SOL     OW 8041   1.785   6.364   3.046
 2381SOL    HW1 8042   1.739   6.301   2.983
 2381SOL    HW2 8043   1.824   6.312   3.122
 2382SOL     OW 8044   2.227   3.267   5.128
 2382SOL    HW1 8045   2.262   3.299   5.216
 2382SOL    HW2 8046   2.280   3.189   5.096
 2383SOL     OW 8047   6.608   6.044   1.437
 2383SOL    HW1 8048   6.528   6.089   1.397
 2383SOL    HW2 8049   6.587   6.015   1.530
 2384SOL     OW 8050   4.743   1.945   1.650
 2384SOL    HW1 8051   4.758   2.043   1.663
 2384SOL    HW2 8052   4.694   1.907   1.728
 2385SOL     OW 8053   0.608   1.526   6.689
 2385SOL    HW1 8054   0.641   1.485   6.774
 2385SOL    HW2 8055   0.657   1.612   6.672
 2386SOL     OW 8056   5.405   5.653   4.319
 2386SOL    HW1 8057   5.411   5.554   4.301
 2386SOL    HW2 8058   5.484   5.682   4.372
 2387SOL     OW 8059   1.984   1.133   4.022
 2387SOL    HW1 8060   1.917   1.105   3.954
 2387SOL    HW2 8061   1.942   1.198   4.085
 2388SOL     OW 8062   6.362   2.160   3.888
 2388SOL    HW1 8063   6.306   2.079   3.906
 2388SOL    HW2 8064   6.385   2.203   3.975
 2389SOL     OW 8065   4.187   5.015   3.121
 2389SOL    HW1 8066   4.236   5.014   3.208
 2389SOL    HW2 8067   4.089   5.024   3.137
 2390SOL     OW 8068   3.286   3.871   2.366
 2390SOL    HW1 8069   3.292   3.902   2.271
 2390SOL    HW2 8070   3.351   3.924   2.422
 2391SOL     OW 8071   4.415   5.192   5.866
 2391SOL    HW1 8072   4.392   5.101   5.832
 2391SOL    HW2 8073   4.341   5.226   5.924
 2392SOL     OW 8074   3.048   0.478   7.019
 2392SOL    HW1 8075   2.956   0.515   7.003
 2392SOL    HW2 8076   3.069   0.482   0.094
 2393SOL     OW 8077   4.173   4.678   5.971
 2393SOL    HW1 8078   4.207   4.588   5.998
 2393SOL    HW2 8079   4.174   4.685   5.871
 2394SOL     OW 8080   0.680   4.177   4.752
 2394SOL    HW1 8081   0.698   4.263   4.706
 2394SOL    HW2 8082   0.663   4.106   4.684
 2395SOL     OW 8083   3.920   6.538   6.272
 2395SOL    HW1 8084   3.849   6.475   6.242
 2395SOL    HW2 8085   3.965   6.502   6.354
 2396SOL     OW 8086   4.220   4.682   0.195
 2396SOL    HW1 8087   4.244   4.691   0.292
 2396SOL    HW2 8088   4.122   4.669   0.186
 2397SOL     OW 8089   0.630   3.945   4.590
 2397SOL    HW1 8090   0.580   3.860   4.608
 2397SOL    HW2 8091   0.715   3.924   4.541
 2398SOL     OW 8092   4.462   4.467   5.713
 2398SOL    HW1 8093   4.368   4.443   5.689
 2398SOL    HW2 8094   4.492   4.411   5.790
 2399SOL     OW 8095   4.852   2.240   1.606
 2399SOL    HW1 8096   4.849   2.333   1.644
 2399SOL    HW2 8097   4.947   2.210   1.600
 2400SOL     OW 8098   2.480   5.121   0.931
 2400SOL    HW1 8099   2.548   5.192   0.951
 2400SOL    HW2 8100   2.442   5.137   0.840
 2401SOL     OW 8101   6.389   5.956   6.464
 2401SOL    HW1 8102   6.325   5.918   6.397
 2401SOL    HW2 8103   6.347   6.035   6.509
 2402SOL     OW 8104   0.218   6.971   4.350
 2402SOL    HW1 8105   0.181   0.040   4.363
 2402SOL    HW2 8106   0.143   6.904   4.351
 2403SOL     OW 8107   0.634   2.614   5.310
 2403SOL    HW1 8108   0.721   2.574   5.280
 2403SOL    HW2 8109   0.638   2.631   5.409
 2404SOL     OW 8110   1.728   0.560   0.445
 2404SOL    HW1 8111   1.675   0.497   0.500
 2404SOL    HW2 8112   1.669   0.600   0.374
 2405SOL     OW 8113   2.865   3.739   1.752
 2405SOL    HW1 8114   2.896   3.644   1.757
 2405SOL    HW2 8115   2.765   3.741   1.758
 2406SOL     OW 8116   4.754   1.432   0.627
 2406SOL    HW1 8117   4.732   1.430   0.725
 2406SOL    HW2 8118   4.802   1.517   0.605
 2407SOL     OW 8119   5.385   1.078   3.211
 2407SOL    HW1 8120   5.446   0.999   3.199
 2407SOL    HW2 8121   5.296   1.057   3.171
 2408SOL     OW 8122   4.782   4.290   2.093
 2408SOL    HW1 8123   4.792   4.385   2.062
 2408SOL    HW2 8124   4.690   4.258   2.072
 2409SOL     OW 8125   1.922   3.863   0.465
 2409SOL    HW1 8126   1.881   3.786   0.514
 2409SOL    HW2 8127   1.867   3.945   0.480
 2410SOL     OW 8128   3.523   3.136   2.984
 2410SOL    HW1 8129   3.520   3.227   3.027
 2410SOL    HW2 8130   3.499   3.144   2.887
 2411SOL     OW 8131   5.616   6.917   4.956
 2411SOL    HW1 8132   5.617   7.016   4.965
 2411SOL    HW2 8133   5.703   6.885   4.919
 2412SOL     OW 8134   5.005   3.719   0.998
 2412SOL    HW1 8135   5.042   3.663   0.924
 2412SOL    HW2 8136   4.954   3.661   1.062
 2413SOL     OW 8137   5.246   0.110   1.972
 2413SOL    HW1 8138   5.150   0.083   1.967
 2413SOL    HW2 8139   5.254   0.205   1.940
 2414SOL     OW 8140   5.155   3.256   3.919
 2414SOL    HW1 8141   5.058   3.265   3.943
 2414SOL    HW2 8142   5.167   3.277   3.822
 2415SOL     OW 8143   4.682   1.122   3.639
 2415SOL    HW1 8144   4.583   1.125   3.630
 2415SOL    HW2 8145   4.714   1.202   3.689
 2416SOL     OW 8146   4.766   1.427   5.769
 2416SOL    HW1 8147   4.813   1.376   5.841
 2416SOL    HW2 8148   4.754   1.522   5.799
 2417SOL     OW 8149   3.141   3.033   4.385
 2417SOL    HW1 8150   3.178   3.047   4.293
 2417SOL    HW2 8151   3.081   2.954   4.386
 2418SOL     OW 8152   4.161   3.380   2.939
 2418SOL    HW1 8153   4.132   3.288   2.965
 2418SOL    HW2 8154   4.158   3.389   2.840
 2419SOL     OW 8155   0.433   0.150   2.718
 2419SOL    HW1 8156   0.466   0.244   2.706
 2419SOL    HW2 8157   0.511   0.087   2.711
 2420SOL     OW 8158   2.176   0.007   1.610
 2420SOL    HW1 8159   2.097   0.044   1.561
 2420SOL    HW2 8160   2.260   0.034   1.563
 2421SOL     OW 8161   2.224   2.161   4.527
 2421SOL    HW1 8162   2.280   2.242   4.540
 2421SOL    HW2 8163   2.201   2.122   4.616
 2422SOL     OW 8164   4.708   1.664   1.023
 2422SOL    HW1 8165   4.730   1.582   0.971
 2422SOL    HW2 8166   4.644   1.641   1.097
 2423SOL     OW 8167   1.820   5.479   2.695
 2423SOL    HW1 8168   1.836   5.502   2.791
 2423SOL    HW2 8169   1.887   5.410   2.666
 2424SOL     OW 8170   5.263   0.315   0.586
 2424SOL    HW1 8171   5.327   0.389   0.607
 2424SOL    HW2 8172   5.297   0.261   0.509
 2425SOL     OW 8173   6.642   0.153   4.586
 2425SOL    HW1 8174   6.611   0.078   4.527
 2425SOL    HW2 8175   6.739   0.142   4.607
 2426SOL     OW 8176   2.323   4.971   4.109
 2426SOL    HW1 8177   2.399   5.029   4.138
 2426SOL    HW2 8178   2.303   4.988   4.013
 2427SOL     OW 8179   6.203   6.950   6.054
 2427SOL    HW1 8180   6.212   0.011   6.000
 2427SOL    HW2 8181   6.117   6.904   6.032
 2428SOL     OW 8182   6.921   0.802   0.468
 2428SOL    HW1 8183   6.884   0.734   0.531
 2428SOL    HW2 8184   7.013   0.827   0.496
 2429SOL     OW 8185   4.859   6.120   1.798
 2429SOL    HW1 8186   4.842   6.146   1.894
 2429SOL    HW2 8187   4.779   6.070   1.763
 2430SOL     OW 8188   5.798   0.915   2.571
 2430SOL    HW1 8189   5.825   0.976   2.646
 2430SOL    HW2 8190   5.815   0.820   2.597
 2431SOL     OW 8191   3.898   0.540   2.041
 2431SOL    HW1 8192   3.815   0.586   2.008
 2431SOL    HW2 8193   3.881   0.502   2.132
 2432SOL     OW 8194   2.449   6.293   2.148
 2432SOL    HW1 8195   2.377   6.321   2.212
 2432SOL    HW2 8196   2.538   6.325   2.183
 2433SOL     OW 8197   3.674   0.257   0.365
 2433SOL    HW1 8198   3.663   0.258   0.464
 2433SOL    HW2 8199   3.759   0.304   0.341
 2434SOL     OW 8200   4.315   2.912   6.153
 2434SOL    HW1 8201   4.253   2.891   6.078
 2434SOL    HW2 8202   4.397   2.856   6.145
 2435SOL     OW 8203   5.755   5.835   5.024
 2435SOL    HW1 8204   5.707   5.794   4.947
 2435SOL    HW2 8205   5.744   5.777   5.105
 2436SOL     OW 8206   2.847   5.837   0.238
 2436SOL    HW1 8207   2.942   5.860   0.257
 2436SOL    HW2 8208   2.814   5.892   0.161
 2437SOL     OW 8209   0.340   0.241   6.223
 2437SOL    HW1 8210   0.328   0.326   6.274
 2437SOL    HW2 8211   0.256   0.219   6.172
 2438SOL     OW 8212   2.995   2.934   1.139
 2438SOL    HW1 8213   2.924   2.987   1.185
 2438SOL    HW2 8214   2.968   2.838   1.136
 2439SOL     OW 8215   6.176   4.486   4.730
 2439SOL    HW1 8216   6.250   4.428   4.763
 2439SOL    HW2 8217   6.134   4.534   4.807
 2440SOL     OW 8218   5.892   4.901   6.300
 2440SOL    HW1 8219   5.935   4.883   6.389
 2440SOL    HW2 8220   5.795   4.920   6.314
 2441SOL     OW 8221   6.087   2.559   0.948
 2441SOL    HW1 8222   6.008   2.580   1.004
 2441SOL    HW2 8223   6.150   2.500   0.998
 2442SOL     OW 8224   6.937   3.504   4.862
 2442SOL    HW1 8225   6.929   3.530   4.766
 2442SOL    HW2 8226   6.863   3.442   4.886
 2443SOL     OW 8227   2.966   4.867   5.935
 2443SOL    HW1 8228   2.919   4.878   6.023
 2443SOL    HW2 8229   3.061   4.896   5.945
 2444SOL     OW 8230   3.034   3.299   5.262
 2444SOL    HW1 8231   2.954   3.303   5.203
 2444SOL    HW2 8232   3.045   3.206   5.298
 2445SOL     OW 8233   0.626   0.251   0.601
 2445SOL    HW1 8234   0.578   0.272   0.516
 2445SOL    HW2 8235   0.601   0.160   0.632
 2446SOL     OW 8236   5.450   3.564   6.102
 2446SOL    HW1 8237   5.514   3.567   6.179
 2446SOL    HW2 8238   5.500   3.536   6.019
 2447SOL     OW 8239   0.381   2.308   6.524
 2447SOL    HW1 8240   0.325   2.369   6.468
 2447SOL    HW2 8241   0.338   2.295   6.613
 2448SOL     OW 8242   0.531   0.362   4.302
 2448SOL    HW1 8243   0.460   0.382   4.370
 2448SOL    HW2 8244   0.618   0.401   4.331
 2449SOL     OW 8245   0.301   2.387   4.924
 2449SOL    HW1 8246   0.325   2.290   4.922
 2449SOL    HW2 8247   0.351   2.432   4.998
 2450SOL     OW 8248   1.988   3.137   2.146
 2450SOL    HW1 8249   1.971   3.081   2.227
 2450SOL    HW2 8250   2.011   3.230   2.175
 2451SOL     OW 8251   2.425   6.598   4.384
 2451SOL    HW1 8252   2.406   6.529   4.454
 2451SOL    HW2 8253   2.516   6.635   4.398
 2452SOL     OW 8254   1.792   2.487   4.561
 2452SOL    HW1 8255   1.838   2.400   4.539
 2452SOL    HW2 8256   1.855   2.563   4.544
 2453SOL     OW 8257   0.169   3.459   1.477
 2453SOL    HW1 8258   0.257   3.415   1.498
 2453SOL    HW2 8259   0.098   3.423   1.537
 2454SOL     OW 8260   2.241   0.404   2.310
 2454SOL    HW1 8261   2.254   0.375   2.215
 2454SOL    HW2 8262   2.177   0.480   2.314
 2455SOL     OW 8263   4.945   4.170   0.682
 2455SOL    HW1 8264   4.906   4.129   0.765
 2455SOL    HW2 8265   5.013   4.108   0.643
 2456SOL     OW 8266   3.243   6.616   1.214
 2456SOL    HW1 8267   3.306   6.575   1.281
 2456SOL    HW2 8268   3.290   6.692   1.167
 2457SOL     OW 8269   6.140   6.406   1.196
 2457SOL    HW1 8270   6.043   6.382   1.190
 2457SOL    HW2 8271   6.193   6.324   1.220
 2458SOL     OW 8272   0.437   5.919   2.771
 2458SOL    HW1 8273   0.521   5.923   2.717
 2458SOL    HW2 8274   0.411   5.824   2.787
 2459SOL     OW 8275   0.998   0.677   0.681
 2459SOL    HW1 8276   0.907   0.639   0.662
 2459SOL    HW2 8277   1.059   0.604   0.713
 2460SOL     OW 8278   3.803   5.320   1.585
 2460SOL    HW1 8279   3.772   5.293   1.494
 2460SOL    HW2 8280   3.726   5.358   1.636
 2461SOL     OW 8281   4.953   0.933   3.293
 2461SOL    HW1 8282   5.013   0.876   3.349
 2461SOL    HW2 8283   4.862   0.891   3.288
 2462SOL     OW 8284   2.837   4.549   6.380
 2462SOL    HW1 8285   2.894   4.627   6.405
 2462SOL    HW2 8286   2.802   4.561   6.287
 2463SOL     OW 8287   0.179   2.064   4.265
 2463SOL    HW1 8288   0.231   2.016   4.337
 2463SOL    HW2 8289   0.081   2.057   4.284
 2464SOL     OW 8290   1.510   3.457   1.242
 2464SOL    HW1 8291   1.592   3.511   1.227
 2464SOL    HW2 8292   1.503   3.388   1.170
 2465SOL     OW 8293   5.857   4.905   2.593
 2465SOL    HW1 8294   5.846   4.878   2.688
 2465SOL    HW2 8295   5.932   4.854   2.552
 2466SOL     OW 8296   3.803   1.569   2.175
 2466SOL    HW1 8297   3.732   1.578   2.105
 2466SOL    HW2 8298   3.878   1.632   2.155
 2467SOL     OW 8299   6.700   1.471   4.923
 2467SOL    HW1 8300   6.727   1.556   4.968
 2467SOL    HW2 8301   6.652   1.412   4.989
 2468SOL     OW 8302   6.904   3.796   0.505
 2468SOL    HW1 8303   6.863   3.886   0.490
 2468SOL    HW2 8304   6.991   3.790   0.456
 2469SOL     OW 8305   3.180   2.927   5.830
 2469SOL    HW1 8306   3.205   2.939   5.734
 2469SOL    HW2 8307   3.123   3.005   5.860
 2470SOL     OW 8308   5.919   2.869   0.785
 2470SOL    HW1 8309   5.916   2.838   0.880
 2470SOL    HW2 8310   5.836   2.840   0.738
 2471SOL     OW 8311   0.432   0.990   3.502
 2471SOL    HW1 8312   0.487   0.920   3.547
 2471SOL    HW2 8313   0.348   0.949   3.468
 2472SOL     OW 8314   5.836   1.907   3.865
 2472SOL    HW1 8315   5.740   1.901   3.893
 2472SOL    HW2 8316   5.861   1.825   3.814
 2473SOL     OW 8317   0.570   6.633   5.347
 2473SOL    HW1 8318   0.551   6.597   5.439
 2473SOL    HW2 8319   0.561   6.733   5.349
 2474SOL     OW 8320   5.867   5.780   4.642
 2474SOL    HW1 8321   5.806   5.767   4.720
 2474SOL    HW2 8322   5.932   5.853   4.663
 2475SOL     OW 8323   4.544   2.194   6.216
 2475SOL    HW1 8324   4.467   2.209   6.279
 2475SOL    HW2 8325   4.621   2.156   6.266
 2476SOL     OW 8326   0.660   1.733   3.341
 2476SOL    HW1 8327   0.683   1.830   3.348
 2476SOL    HW2 8328   0.671   1.691   3.431
 2477SOL     OW 8329   4.522   5.142   2.450
 2477SOL    HW1 8330   4.553   5.189   2.367
 2477SOL    HW2 8331   4.436   5.183   2.481
 2478SOL     OW 8332   6.604   7.006   3.442
 2478SOL    HW1 8333   6.575   0.079   3.436
 2478SOL    HW2 8334   6.700   6.999   3.415
 2479SOL     OW 8335   0.389   2.174   6.833
 2479SOL    HW1 8336   0.362   2.125   6.916
 2479SOL    HW2 8337   0.392   2.272   6.852
 2480SOL     OW 8338   0.699   5.241   1.926
 2480SOL    HW1 8339   0.710   5.141   1.926
 2480SOL    HW2 8340   0.746   5.280   1.847
 2481SOL     OW 8341   3.772   4.926   2.532
 2481SOL    HW1 8342   3.834   4.857   2.569
 2481SOL    HW2 8343   3.789   4.937   2.434
 2482SOL     OW 8344   4.595   2.582   4.002
 2482SOL    HW1 8345   4.502   2.577   4.037
 2482SOL    HW2 8346   4.651   2.639   4.063
 2483SOL     OW 8347   0.579   2.902   6.747
 2483SOL    HW1 8348   0.527   2.986   6.757
 2483SOL    HW2 8349   0.652   2.915   6.680
 2484SOL     OW 8350   3.855   3.408   6.433
 2484SOL    HW1 8351   3.945   3.365   6.425
 2484SOL    HW2 8352   3.820   3.394   6.525
 2485SOL     OW 8353   0.886   5.544   0.845
 2485SOL    HW1 8354   0.900   5.525   0.748
 2485SOL    HW2 8355   0.957   5.497   0.898
 2486SOL     OW 8356   0.599   5.429   3.343
 2486SOL    HW1 8357   0.662   5.453   3.268
 2486SOL    HW2 8358   0.593   5.330   3.350
 2487SOL     OW 8359   3.289   1.582   1.412
 2487SOL    HW1 8360   3.251   1.674   1.423
 2487SOL    HW2 8361   3.323   1.550   1.501
 2488SOL     OW 8362   2.880   6.585   6.333
 2488SOL    HW1 8363   2.858   6.681   6.316
 2488SOL    HW2 8364   2.886   6.569   6.431
 2489SOL     OW 8365   6.725   6.221   4.403
 2489SOL    HW1 8366   6.810   6.185   4.366
 2489SOL    HW2 8367   6.744   6.301   4.459
 2490SOL     OW 8368   5.440   3.057   1.855
 2490SOL    HW1 8369   5.420   3.106   1.770
 2490SOL    HW2 8370   5.485   3.118   1.919
 2491SOL     OW 8371   0.006   4.286   2.631
 2491SOL    HW1 8372   6.938   4.246   2.645
 2491SOL    HW2 8373   0.076   4.217   2.651
 2492SOL     OW 8374   4.424   1.535   5.922
 2492SOL    HW1 8375   4.467   1.492   5.842
 2492SOL    HW2 8376   4.422   1.634   5.909
 2493SOL     OW 8377   6.667   1.321   4.676
 2493SOL    HW1 8378   6.737   1.251   4.688
 2493SOL    HW2 8379   6.679   1.392   4.746
 2494SOL     OW 8380   4.306   4.166   1.162
 2494SOL    HW1 8381   4.246   4.234   1.121
 2494SOL    HW2 8382   4.360   4.208   1.235
 2495SOL     OW 8383   6.472   1.069   3.144
 2495SOL    HW1 8384   6.527   1.033   3.070
 2495SOL    HW2 8385   6.529   1.083   3.225
 2496SOL     OW 8386   1.626   5.471   6.755
 2496SOL    HW1 8387   1.560   5.539   6.723
 2496SOL    HW2 8388   1.687   5.445   6.680
 2497SOL     OW 8389   5.444   0.254   0.216
 2497SOL    HW1 8390   5.514   0.208   0.271
 2497SOL    HW2 8391   5.397   0.188   0.158
 2498SOL     OW 8392   0.543   2.998   5.016
 2498SOL    HW1 8393   0.509   2.926   4.956
 2498SOL    HW2 8394   0.466   3.042   5.062
 2499SOL     OW 8395   4.792   0.329   0.400
 2499SOL    HW1 8396   4.887   0.357   0.385
 2499SOL    HW2 8397   4.739   0.406   0.435
 2500SOL     OW 8398   4.170   3.703   6.615
 2500SOL    HW1 8399   4.208   3.710   6.523
 2500SOL    HW2 8400   4.070   3.705   6.610
 2501SOL     OW 8401   6.018   4.751   0.845
 2501SOL    HW1 8402   6.096   4.759   0.783
 2501SOL    HW2 8403   6.036   4.681   0.914
 2502SOL     OW 8404   0.778   6.794   2.839
 2502SOL    HW1 8405   0.774   6.724   2.768
 2502SOL    HW2 8406   0.862   6.847   2.828
 2503SOL     OW 8407   5.215   0.253   4.555
 2503SOL    HW1 8408   5.169   0.165   4.539
 2503SOL    HW2 8409   5.290   0.264   4.490
 2504SOL     OW 8410   2.148   4.028   2.881
 2504SOL    HW1 8411   2.240   3.989   2.878
 2504SOL    HW2 8412   2.126   4.066   2.791
 2505SOL     OW 8413   5.240   4.060   4.609
 2505SOL    HW1 8414   5.204   4.125   4.542
 2505SOL    HW2 8415   5.230   4.097   4.701
 2506SOL     OW 8416   1.169   1.411   0.925
 2506SOL    HW1 8417   1.125   1.354   0.855
 2506SOL    HW2 8418   1.177   1.504   0.891
 2507SOL     OW 8419   6.673   5.979   0.198
 2507SOL    HW1 8420   6.599   6.013   0.141
 2507SOL    HW2 8421   6.740   6.052   0.213
 2508SOL     OW 8422   2.365   2.453   1.742
 2508SOL    HW1 8423   2.426   2.530   1.762
 2508SOL    HW2 8424   2.373   2.384   1.813
 2509SOL     OW 8425   5.202   1.357   3.512
 2509SOL    HW1 8426   5.242   1.392   3.428
 2509SOL    HW2 8427   5.123   1.413   3.537
 2510SOL     OW 8428   4.235   6.057   2.555
 2510SOL    HW1 8429   4.158   6.012   2.599
 2510SOL    HW2 8430   4.315   6.055   2.616
 2511SOL     OW 8431   0.855   6.725   3.546
 2511SOL    HW1 8432   0.881   6.783   3.468
 2511SOL    HW2 8433   0.759   6.740   3.568
 2512SOL     OW 8434   6.000   2.886   3.857
 2512SOL    HW1 8435   6.092   2.925   3.864
 2512SOL    HW2 8436   5.954   2.894   3.945
 2513SOL     OW 8437   0.334   4.632   1.097
 2513SOL    HW1 8438   0.287   4.572   1.031
 2513SOL    HW2 8439   0.285   4.718   1.104
 2514SOL     OW 8440   0.335   2.856   3.216
 2514SOL    HW1 8441   0.390   2.882   3.137
 2514SOL    HW2 8442   0.320   2.936   3.274
 2515SOL     OW 8443   1.070   4.661   0.483
 2515SOL    HW1 8444   1.055   4.610   0.398
 2515SOL    HW2 8445   1.148   4.621   0.532
 2516SOL     OW 8446   4.946   6.257   4.323
 2516SOL    HW1 8447   4.979   6.341   4.280
 2516SOL    HW2 8448   4.847   6.262   4.334
 2517SOL     OW 8449   2.458   5.583   0.934
 2517SOL    HW1 8450   2.365   5.553   0.912
 2517SOL    HW2 8451   2.455   5.661   0.996
 2518SOL     OW 8452   1.906   3.044   6.752
 2518SOL    HW1 8453   1.819   3.016   6.794
 2518SOL    HW2 8454   1.976   2.976   6.772
 2519SOL     OW 8455   5.912   4.137   5.190
 2519SOL    HW1 8456   5.973   4.163   5.115
 2519SOL    HW2 8457   5.941   4.050   5.228
 2520SOL     OW 8458   3.170   5.351   1.969
 2520SOL    HW1 8459   3.178   5.429   2.030
 2520SOL    HW2 8460   3.101   5.287   2.003
 2521SOL     OW 8461   5.660   6.888   6.076
 2521SOL    HW1 8462   5.565   6.860   6.087
 2521SOL    HW2 8463   5.676   6.973   6.126
 2522SOL     OW 8464   2.743   4.682   4.314
 2522SOL    HW1 8465   2.662   4.739   4.302
 2522SOL    HW2 8466   2.767   4.679   4.411
 2523SOL     OW 8467   1.160   2.605   5.729
 2523SOL    HW1 8468   1.084   2.550   5.695
 2523SOL    HW2 8469   1.145   2.625   5.826
 2524SOL     OW 8470   1.442   6.896   4.631
 2524SOL    HW1 8471   1.450   6.796   4.627
 2524SOL    HW2 8472   1.525   6.934   4.672
 2525SOL     OW 8473   1.967   4.424   2.243
 2525SOL    HW1 8474   2.010   4.380   2.164
 2525SOL    HW2 8475   2.018   4.400   2.326
 2526SOL     OW 8476   1.490   2.642   4.923
 2526SOL    HW1 8477   1.563   2.635   4.991
 2526SOL    HW2 8478   1.528   2.677   4.837
 2527SOL     OW 8479   6.773   0.283   3.892
 2527SOL    HW1 8480   6.746   0.191   3.920
 2527SOL    HW2 8481   6.768   0.345   3.971
 2528SOL     OW 8482   6.005   5.265   0.017
 2528SOL    HW1 8483   5.985   5.233   0.109
 2528SOL    HW2 8484   6.077   5.334   0.020
 2529SOL     OW 8485   5.169   3.921   4.969
 2529SOL    HW1 8486   5.154   4.020   4.967
 2529SOL    HW2 8487   5.081   3.874   4.964
 2530SOL     OW 8488   0.755   6.451   3.669
 2530SOL    HW1 8489   0.765   6.545   3.635
 2530SOL    HW2 8490   0.658   6.429   3.676
 2531SOL     OW 8491   5.140   1.315   6.921
 2531SOL    HW1 8492   5.227   1.363   6.922
 2531SOL    HW2 8493   5.136   1.252   6.999
 2532SOL     OW 8494   0.420   4.832   6.106
 2532SOL    HW1 8495   0.492   4.766   6.128
 2532SOL    HW2 8496   0.460   4.922   6.091
 2533SOL     OW 8497   5.831   7.009   5.744
 2533SOL    HW1 8498   5.862   0.081   5.753
 2533SOL    HW2 8499   5.844   6.978   5.650
 2534SOL     OW 8500   0.180   1.998   2.997
 2534SOL    HW1 8501   0.275   1.992   3.028
 2534SOL    HW2 8502   0.119   1.992   3.076
 2535SOL     OW 8503   2.269   1.537   3.211
 2535SOL    HW1 8504   2.355   1.587   3.222
 2535SOL    HW2 8505   2.212   1.551   3.292
 2536SOL     OW 8506   0.516   0.476   3.944
 2536SOL    HW1 8507   0.462   0.541   3.890
 2536SOL    HW2 8508   0.559   0.523   4.020
 2537SOL     OW 8509   3.963   5.910   1.808
 2537SOL    HW1 8510   3.918   5.987   1.855
 2537SOL    HW2 8511   3.995   5.844   1.876
 2538SOL     OW 8512   0.700   4.749   4.898
 2538SOL    HW1 8513   0.631   4.783   4.963
 2538SOL    HW2 8514   0.654   4.695   4.828
 2539SOL     OW 8515   2.290   0.542   5.254
 2539SOL    HW1 8516   2.229   0.493   5.318
 2539SOL    HW2 8517   2.309   0.633   5.290
 2540SOL     OW 8518   5.334   1.925   2.458
 2540SOL    HW1 8519   5.418   1.882   2.490
 2540SOL    HW2 8520   5.259   1.901   2.520
 2541SOL     OW 8521   0.477   1.043   6.040
 2541SOL    HW1 8522   0.552   1.109   6.034
 2541SOL    HW2 8523   0.514   0.951   6.043
 2542SOL     OW 8524   3.579   2.123   3.675
 2542SOL    HW1 8525   3.532   2.141   3.761
 2542SOL    HW2 8526   3.672   2.160   3.680
 2543SOL     OW 8527   6.715   1.750   4.346
 2543SOL    HW1 8528   6.623   1.715   4.332
 2543SOL    HW2 8529   6.745   1.731   4.439
 2544SOL     OW 8530   6.945   6.351   2.007
 2544SOL    HW1 8531   6.971   6.396   1.921
 2544SOL    HW2 8532   7.017   6.364   2.075
 2545SOL     OW 8533   6.395   1.859   0.226
 2545SOL    HW1 8534   6.390   1.955   0.200
 2545SOL    HW2 8535   6.413   1.850   0.324
 2546SOL     OW 8536   6.311   3.178   2.145
 2546SOL    HW1 8537   6.360   3.118   2.208
 2546SOL    HW2 8538   6.256   3.122   2.082
 2547SOL     OW 8539   5.728   3.899   1.163
 2547SOL    HW1 8540   5.718   3.816   1.217
 2547SOL    HW2 8541   5.646   3.956   1.173
 2548SOL     OW 8542   6.279   0.809   5.571
 2548SOL    HW1 8543   6.224   0.889   5.594
 2548SOL    HW2 8544   6.363   0.810   5.626
 2549SOL     OW 8545   2.639   4.873   0.926
 2549SOL    HW1 8546   2.566   4.806   0.937
 2549SOL    HW2 8547   2.603   4.965   0.945
 2550SOL     OW 8548   3.709   6.325   0.599
 2550SOL    HW1 8549   3.772   6.364   0.532
 2550SOL    HW2 8550   3.626   6.294   0.552
 2551SOL     OW 8551   3.731   4.705   1.310
 2551SOL    HW1 8552   3.782   4.636   1.362
 2551SOL    HW2 8553   3.640   4.670   1.290
 2552SOL     OW 8554   2.340   4.318   1.943
 2552SOL    HW1 8555   2.399   4.391   1.909
 2552SOL    HW2 8556   2.358   4.234   1.892
 2553SOL     OW 8557   4.738   1.236   0.070
 2553SOL    HW1 8558   4.810   1.277   0.125
 2553SOL    HW2 8559   4.757   1.138   0.059
 2554SOL     OW 8560   1.293   5.265   0.922
 2554SOL    HW1 8561   1.287   5.298   1.016
 2554SOL    HW2 8562   1.214   5.297   0.871
 2555SOL     OW 8563   6.876   6.758   5.414
 2555SOL    HW1 8564   6.863   6.667   5.454
 2555SOL    HW2 8565   6.843   6.758   5.320
 2556SOL     OW 8566   4.311   0.161   0.868
 2556SOL    HW1 8567   4.357   0.164   0.957
 2556SOL    HW2 8568   4.257   0.077   0.862
 2557SOL     OW 8569   3.127   0.772   6.743
 2557SOL    HW1 8570   3.080   0.694   6.702
 2557SOL    HW2 8571   3.202   0.740   6.801
 2558SOL     OW 8572   5.329   1.624   1.568
 2558SOL    HW1 8573   5.382   1.547   1.602
 2558SOL    HW2 8574   5.286   1.599   1.481
 2559SOL     OW 8575   0.031   5.497   2.747
 2559SOL    HW1 8576   0.049   5.426   2.814
 2559SOL    HW2 8577   0.084   5.579   2.769
 2560SOL     OW 8578   4.943   2.237   2.290
 2560SOL    HW1 8579   5.029   2.189   2.307
 2560SOL    HW2 8580   4.950   2.331   2.323
 2561SOL     OW 8581   2.792   0.169   4.352
 2561SOL    HW1 8582   2.710   0.149   4.298
 2561SOL    HW2 8583   2.766   0.185   4.447
 2562SOL     OW 8584   1.375   6.687   5.234
 2562SOL    HW1 8585   1.472   6.698   5.211
 2562SOL    HW2 8586   1.367   6.656   5.329
 2563SOL     OW 8587   3.479   2.968   6.614
 2563SOL    HW1 8588   3.534   3.033   6.561
 2563SOL    HW2 8589   3.515   2.876   6.599
 2564SOL     OW 8590   1.494   2.192   6.859
 2564SOL    HW1 8591   1.433   2.167   6.934
 2564SOL    HW2 8592   1.584   2.151   6.874
 2565SOL     OW 8593   0.730   0.591   0.646
 2565SOL    HW1 8594   0.650   0.539   0.676
 2565SOL    HW2 8595   0.726   0.606   0.548
 2566SOL     OW 8596   2.886   1.164   0.894
 2566SOL    HW1 8597   2.910   1.067   0.887
 2566SOL    HW2 8598   2.906   1.196   0.987
 2567SOL     OW 8599   1.487   0.922   6.304
 2567SOL    HW1 8600   1.502   0.927   6.206
 2567SOL    HW2 8601   1.524   0.836   6.340
 2568SOL     OW 8602   2.160   5.386   1.294
 2568SOL    HW1 8603   2.178   5.301   1.344
 2568SOL    HW2 8604   2.236   5.450   1.307
 2569SOL     OW 8605   1.620   6.820   0.073
 2569SOL    HW1 8606   1.686   6.781   0.137
 2569SOL    HW2 8607   1.596   6.913   0.102
 2570SOL     OW 8608   0.650   6.080   4.393
 2570SOL    HW1 8609   0.730   6.138   4.377
 2570SOL    HW2 8610   0.661   5.994   4.342
 2571SOL     OW 8611   3.251   3.793   3.289
 2571SOL    HW1 8612   3.268   3.882   3.246
 2571SOL    HW2 8613   3.161   3.793   3.332
 2572SOL     OW 8614   2.526   4.841   2.561
 2572SOL    HW1 8615   2.608   4.784   2.559
 2572SOL    HW2 8616   2.480   4.828   2.649
 2573SOL     OW 8617   6.581   1.141   3.365
 2573SOL    HW1 8618   6.540   1.172   3.450
 2573SOL    HW2 8619   6.661   1.198   3.344
 2574SOL     OW 8620   0.924   3.464   1.914
 2574SOL    HW1 8621   0.886   3.387   1.864
 2574SOL    HW2 8622   0.996   3.508   1.860
 2575SOL     OW 8623   4.888   3.519   5.604
 2575SOL    HW1 8624   4.961   3.557   5.661
 2575SOL    HW2 8625   4.926   3.448   5.545
 2576SOL     OW 8626   1.097   0.068   3.295
 2576SOL    HW1 8627   1.157   0.147   3.309
 2576SOL    HW2 8628   1.101   0.008   3.375
 2577SOL     OW 8629   1.845   4.995   1.443
 2577SOL    HW1 8630   1.773   5.022   1.508
 2577SOL    HW2 8631   1.934   4.998   1.489
 2578SOL     OW 8632   4.536   1.808   4.890
 2578SOL    HW1 8633   4.567   1.766   4.804
 2578SOL    HW2 8634   4.436   1.804   4.894
 2579SOL     OW 8635   0.139   1.298   6.465
 2579SOL    HW1 8636   0.133   1.382   6.411
 2579SOL    HW2 8637   0.232   1.289   6.502
 2580SOL     OW 8638   1.435   1.169   5.604
 2580SOL    HW1 8639   1.365   1.234   5.632
 2580SOL    HW2 8640   1.427   1.151   5.506
 2581SOL     OW 8641   6.528   6.723   4.928
 2581SOL    HW1 8642   6.466   6.645   4.927
 2581SOL    HW2 8643   6.477   6.807   4.942
 2582SOL     OW 8644   0.196   5.137   2.614
 2582SOL    HW1 8645   0.140   5.197   2.672
 2582SOL    HW2 8646   0.229   5.189   2.536
 2583SOL     OW 8647   2.397   1.159   6.307
 2583SOL    HW1 8648   2.383   1.079   6.249
 2583SOL    HW2 8649   2.424   1.129   6.399
 2584SOL     OW 8650   4.800   0.555   2.638
 2584SOL    HW1 8651   4.858   0.487   2.594
 2584SOL    HW2 8652   4.705   0.539   2.612
 2585SOL     OW 8653   4.012   1.387   2.153
 2585SOL    HW1 8654   3.914   1.405   2.152
 2585SOL    HW2 8655   4.054   1.423   2.070
 2586SOL     OW 8656   6.984   1.543   4.291
 2586SOL    HW1 8657   6.967   1.451   4.254
 2586SOL    HW2 8658   7.020   1.536   4.384
 2587SOL     OW 8659   6.401   5.880   2.538
 2587SOL    HW1 8660   6.355   5.844   2.619
 2587SOL    HW2 8661   6.400   5.811   2.466
 2588SOL     OW 8662   4.273   7.012   2.303
 2588SOL    HW1 8663   4.202   0.060   2.309
 2588SOL    HW2 8664   4.280   6.979   2.209
 2589SOL     OW 8665   5.178   6.144   1.128
 2589SOL    HW1 8666   5.112   6.084   1.083
 2589SOL    HW2 8667   5.208   6.215   1.064
 2590SOL     OW 8668   2.954   6.413   3.139
 2590SOL    HW1 8669   2.932   6.448   3.230
 2590SOL    HW2 8670   2.934   6.482   3.070
 2591SOL     OW 8671   6.314   0.382   1.245
 2591SOL    HW1 8672   6.317   0.282   1.236
 2591SOL    HW2 8673   6.219   0.413   1.245
 2592SOL     OW 8674   3.197   4.968   1.571
 2592SOL    HW1 8675   3.239   4.910   1.501
 2592SOL    HW2 8676   3.154   4.910   1.640
 2593SOL     OW 8677   3.696   6.915   2.671
 2593SOL    HW1 8678   3.625   6.882   2.609
 2593SOL    HW2 8679   3.765   6.843   2.683
 2594SOL     OW 8680   1.097   5.953   6.917
 2594SOL    HW1 8681   1.132   6.007   6.840
 2594SOL    HW2 8682   1.161   5.878   6.936
 2595SOL     OW 8683   6.869   2.239   4.027
 2595SOL    HW1 8684   6.929   2.279   4.096
 2595SOL    HW2 8685   6.875   2.293   3.943
 2596SOL     OW 8686   4.118   2.204   1.226
 2596SOL    HW1 8687   4.115   2.207   1.126
 2596SOL    HW2 8688   4.200   2.250   1.259
 2597SOL     OW 8689   2.253   2.525   6.405
 2597SOL    HW1 8690   2.209   2.546   6.317
 2597SOL    HW2 8691   2.297   2.608   6.440
 2598SOL     OW 8692   6.462   1.202   2.693
 2598SOL    HW1 8693   6.492   1.109   2.674
 2598SOL    HW2 8694   6.537   1.265   2.674
 2599SOL     OW 8695   4.476   5.144   6.680
 2599SOL    HW1 8696   4.450   5.060   6.633
 2599SOL    HW2 8697   4.554   5.126   6.740
 2600SOL     OW 8698   6.992   2.493   4.118
 2600SOL    HW1 8699   6.996   2.459   4.212
 2600SOL    HW2 8700   6.909   2.547   4.106
 2601SOL     OW 8701   3.818   3.469   4.644
 2601SOL    HW1 8702   3.721   3.458   4.668
 2601SOL    HW2 8703   3.836   3.426   4.556
 2602SOL     OW 8704   6.289   5.725   6.094
 2602SOL    HW1 8705   6.345   5.804   6.068
 2602SOL    HW2 8706   6.290   5.658   6.020
 2603SOL     OW 8707   1.828   2.354   6.734
 2603SOL    HW1 8708   1.745   2.385   6.781
 2603SOL    HW2 8709   1.901   2.340   6.801
 2604SOL     OW 8710   5.806   1.509   0.438
 2604SOL    HW1 8711   5.732   1.564   0.476
 2604SOL    HW2 8712   5.850   1.457   0.512
 2605SOL     OW 8713   5.608   3.292   4.094
 2605SOL    HW1 8714   5.612   3.213   4.155
 2605SOL    HW2 8715   5.665   3.365   4.130
 2606SOL     OW 8716   6.890   4.406   1.387
 2606SOL    HW1 8717   6.876   4.310   1.364
 2606SOL    HW2 8718   6.988   4.423   1.400
 2607SOL     OW 8719   1.179   1.733   4.221
 2607SOL    HW1 8720   1.143   1.823   4.200
 2607SOL    HW2 8721   1.170   1.715   4.319
 2608SOL     OW 8722   5.060   6.975   0.626
 2608SOL    HW1 8723   5.085   0.039   0.669
 2608SOL    HW2 8724   5.005   6.921   0.690
 2609SOL     OW 8725   0.516   3.092   3.574
 2609SOL    HW1 8726   0.516   2.995   3.601
 2609SOL    HW2 8727   0.610   3.125   3.569
 2610SOL     OW 8728   5.672   5.675   4.440
 2610SOL    HW1 8729   5.695   5.753   4.497
 2610SOL    HW2 8730   5.668   5.592   4.496
 2611SOL     OW 8731   2.960   5.399   2.195
 2611SOL    HW1 8732   2.956   5.404   2.295
 2611SOL    HW2 8733   3.042   5.446   2.163
 2612SOL     OW 8734   0.246   0.169   5.437
 2612SOL    HW1 8735   0.284   0.260   5.418
 2612SOL    HW2 8736   0.203   0.132   5.355
 2613SOL     OW 8737   3.348   0.851   0.706
 2613SOL    HW1 8738   3.374   0.945   0.731
 2613SOL    HW2 8739   3.312   0.850   0.613
 2614SOL     OW 8740   6.247   6.154   6.616
 2614SOL    HW1 8741   6.232   6.060   6.648
 2614SOL    HW2 8742   6.278   6.211   6.692
 2615SOL     OW 8743   5.737   4.467   1.877
 2615SOL    HW1 8744   5.823   4.451   1.828
 2615SOL    HW2 8745   5.660   4.453   1.814
 2616SOL     OW 8746   4.107   3.672   2.237
 2616SOL    HW1 8747   4.165   3.749   2.210
 2616SOL    HW2 8748   4.068   3.689   2.328
 2617SOL     OW 8749   3.115   0.493   1.255
 2617SOL    HW1 8750   3.083   0.572   1.308
 2617SOL    HW2 8751   3.036   0.440   1.225
 2618SOL     OW 8752   1.380   6.730   0.237
 2618SOL    HW1 8753   1.310   6.659   0.237
 2618SOL    HW2 8754   1.384   6.772   0.146
 2619SOL     OW 8755   5.883   2.045   1.280
 2619SOL    HW1 8756   5.968   2.077   1.322
 2619SOL    HW2 8757   5.873   1.947   1.296
 2620SOL     OW 8758   1.323   5.389   3.967
 2620SOL    HW1 8759   1.238   5.399   4.019
 2620SOL    HW2 8760   1.400   5.426   4.020
 2621SOL     OW 8761   0.691   5.129   3.655
 2621SOL    HW1 8762   0.648   5.039   3.656
 2621SOL    HW2 8763   0.750   5.137   3.574
 2622SOL     OW 8764   2.312   2.639   6.132
 2622SOL    HW1 8765   2.291   2.673   6.040
 2622SOL    HW2 8766   2.406   2.662   6.156
 2623SOL     OW 8767   3.009   0.557   6.569
 2623SOL    HW1 8768   2.998   0.472   6.621
 2623SOL    HW2 8769   2.920   0.584   6.531
 2624SOL     OW 8770   6.527   1.854   3.920
 2624SOL    HW1 8771   6.598   1.908   3.966
 2624SOL    HW2 8772   6.448   1.912   3.903
 2625SOL     OW 8773   4.103   6.840   5.512
 2625SOL    HW1 8774   4.048   6.923   5.506
 2625SOL    HW2 8775   4.114   6.800   5.421
 2626SOL     OW 8776   2.316   0.224   2.696
 2626SOL    HW1 8777   2.348   0.312   2.732
 2626SOL    HW2 8778   2.218   0.215   2.711
 2627SOL     OW 8779   0.484   1.389   4.642
 2627SOL    HW1 8780   0.462   1.380   4.739
 2627SOL    HW2 8781   0.531   1.476   4.626
 2628SOL     OW 8782   3.705   6.017   6.492
 2628SOL    HW1 8783   3.655   6.097   6.526
 2628SOL    HW2 8784   3.780   5.994   6.554
 2629SOL     OW 8785   3.218   3.876   0.932
 2629SOL    HW1 8786   3.127   3.833   0.935
 2629SOL    HW2 8787   3.212   3.962   0.882
 2630SOL     OW 8788   2.623   2.387   2.103
 2630SOL    HW1 8789   2.713   2.346   2.085
 2630SOL    HW2 8790   2.554   2.340   2.049
 2631SOL     OW 8791   4.222   6.244   4.758
 2631SOL    HW1 8792   4.310   6.263   4.801
 2631SOL    HW2 8793   4.231   6.250   4.659
 2632SOL     OW 8794   5.327   1.025   1.044
 2632SOL    HW1 8795   5.235   1.023   1.083
 2632SOL    HW2 8796   5.328   1.089   0.967
 2633SOL     OW 8797   6.589   2.964   6.746
 2633SOL    HW1 8798   6.523   2.893   6.770
 2633SOL    HW2 8799   6.540   3.049   6.725
 2634SOL     OW 8800   3.307   5.374   1.587
 2634SOL    HW1 8801   3.311   5.392   1.489
 2634SOL    HW2 8802   3.224   5.416   1.626
 2635SOL     OW 8803   5.891   4.904   3.312
 2635SOL    HW1 8804   5.978   4.889   3.266
 2635SOL    HW2 8805   5.820   4.850   3.267
 2636SOL     OW 8806   5.748   6.547   4.780
 2636SOL    HW1 8807   5.820   6.520   4.716
 2636SOL    HW2 8808   5.698   6.466   4.809
 2637SOL     OW 8809   5.281   6.683   2.298
 2637SOL    HW1 8810   5.333   6.719   2.376
 2637SOL    HW2 8811   5.291   6.744   2.220
 2638SOL     OW 8812   5.372   5.479   0.703
 2638SOL    HW1 8813   5.374   5.455   0.606
 2638SOL    HW2 8814   5.337   5.572   0.714
 2639SOL     OW 8815   6.750   6.540   6.577
 2639SOL    HW1 8816   6.688   6.516   6.502
 2639SOL    HW2 8817   6.794   6.456   6.611
 2640SOL     OW 8818   6.062   6.827   6.744
 2640SOL    HW1 8819   6.126   6.873   6.806
 2640SOL    HW2 8820   6.015   6.895   6.688
 2641SOL     OW 8821   6.070   4.989   0.312
 2641SOL    HW1 8822   6.003   5.062   0.306
 2641SOL    HW2 8823   6.032   4.905   0.272
 2642SOL     OW 8824   6.710   0.463   4.093
 2642SOL    HW1 8825   6.792   0.503   4.133
 2642SOL    HW2 8826   6.647   0.436   4.166
 2643SOL     OW 8827   1.508   0.907   1.933
 2643SOL    HW1 8828   1.482   0.832   1.871
 2643SOL    HW2 8829   1.492   0.994   1.887
 2644SOL     OW 8830   0.013   5.594   5.899
 2644SOL    HW1 8831   7.022   5.585   5.998
 2644SOL    HW2 8832   0.016   5.503   5.857
 2645SOL     OW 8833   6.186   5.860   6.302
 2645SOL    HW1 8834   6.091   5.893   6.302
 2645SOL    HW2 8835   6.205   5.813   6.216
 2646SOL     OW 8836   6.469   6.343   0.130
 2646SOL    HW1 8837   6.395   6.410   0.130
 2646SOL    HW2 8838   6.431   6.251   0.139
 2647SOL     OW 8839   3.427   3.220   0.564
 2647SOL    HW1 8840   3.462   3.303   0.521
 2647SOL    HW2 8841   3.415   3.235   0.662
 2648SOL     OW 8842   4.034   0.745   3.905
 2648SOL    HW1 8843   4.059   0.831   3.951
 2648SOL    HW2 8844   4.090   0.733   3.823
 2649SOL     OW 8845   3.617   2.971   5.188
 2649SOL    HW1 8846   3.710   2.976   5.151
 2649SOL    HW2 8847   3.554   2.944   5.115
 2650SOL     OW 8848   6.716   6.752   2.509
 2650SOL    HW1 8849   6.722   6.837   2.458
 2650SOL    HW2 8850   6.805   6.728   2.547
 2651SOL     OW 8851   0.218   0.133   3.290
 2651SOL    HW1 8852   0.304   0.176   3.318
 2651SOL    HW2 8853   0.192   0.064   3.357
 2652SOL     OW 8854   3.623   2.878   2.954
 2652SOL    HW1 8855   3.616   2.978   2.963
 2652SOL    HW2 8856   3.577   2.849   2.871
 2653SOL     OW 8857   6.436   5.305   0.269
 2653SOL    HW1 8858   6.492   5.223   0.278
 2653SOL    HW2 8859   6.366   5.305   0.340
 2654SOL     OW 8860   6.086   1.550   5.964
 2654SOL    HW1 8861   6.153   1.490   5.920
 2654SOL    HW2 8862   6.045   1.504   6.042
 2655SOL     OW 8863   4.582   5.932   4.858
 2655SOL    HW1 8864   4.505   5.910   4.918
 2655SOL    HW2 8865   4.618   6.023   4.882
 2656SOL     OW 8866   5.548   3.572   4.343
 2656SOL    HW1 8867   5.613   3.521   4.287
 2656SOL    HW2 8868   5.591   3.657   4.375
 2657SOL     OW 8869   3.258   2.411   5.861
 2657SOL    HW1 8870   3.240   2.508   5.872
 2657SOL    HW2 8871   3.191   2.358   5.915
 2658SOL     OW 8872   6.235   4.436   5.228
 2658SOL    HW1 8873   6.185   4.463   5.145
 2658SOL    HW2 8874   6.292   4.513   5.258
 2659SOL     OW 8875   6.922   1.786   2.888
 2659SOL    HW1 8876   6.827   1.768   2.862
 2659SOL    HW2 8877   6.946   1.729   2.966
 2660SOL     OW 8878   6.762   2.243   2.594
 2660SOL    HW1 8879   6.846   2.295   2.574
 2660SOL    HW2 8880   6.760   2.161   2.537
 2661SOL     OW 8881   3.734   6.371   2.276
 2661SOL    HW1 8882   3.676   6.348   2.197
 2661SOL    HW2 8883   3.811   6.307   2.279
 2662SOL     OW 8884   3.650   0.484   3.296
 2662SOL    HW1 8885   3.594   0.468   3.377
 2662SOL    HW2 8886   3.594   0.468   3.214
 2663SOL     OW 8887   0.772   4.491   2.994
 2663SOL    HW1 8888   0.830   4.417   3.028
 2663SOL    HW2 8889   0.716   4.527   3.068
 2664SOL     OW 8890   4.156   4.062   1.771
 2664SOL    HW1 8891   4.142   4.119   1.689
 2664SOL    HW2 8892   4.250   4.073   1.803
 2665SOL     OW 8893   4.720   0.729   4.590
 2665SOL    HW1 8894   4.801   0.754   4.537
 2665SOL    HW2 8895   4.639   0.735   4.532
 2666SOL     OW 8896   4.536   6.142   1.854
 2666SOL    HW1 8897   4.561   6.047   1.833
 2666SOL    HW2 8898   4.470   6.143   1.930
 2667SOL     OW 8899   1.303   4.908   3.780
 2667SOL    HW1 8900   1.367   4.844   3.820
 2667SOL    HW2 8901   1.348   4.996   3.765
 2668SOL     OW 8902   6.301   2.553   6.009
 2668SOL    HW1 8903   6.277   2.476   5.949
 2668SOL    HW2 8904   6.344   2.625   5.956
 2669SOL     OW 8905   4.054   5.498   5.561
 2669SOL    HW1 8906   4.115   5.420   5.547
 2669SOL    HW2 8907   4.055   5.525   5.657
 2670SOL     OW 8908   2.113   0.004   5.581
 2670SOL    HW1 8909   2.097   0.047   5.492
 2670SOL    HW2 8910   2.040   0.029   5.644
 2671SOL     OW 8911   3.776   4.308   6.061
 2671SOL    HW1 8912   3.685   4.270   6.079
 2671SOL    HW2 8913   3.766   4.398   6.019
 2672SOL     OW 8914   1.078   4.176   0.512
 2672SOL    HW1 8915   1.167   4.216   0.533
 2672SOL    HW2 8916   1.006   4.233   0.552
 2673SOL     OW 8917   4.319   2.425   4.001
 2673SOL    HW1 8918   4.232   2.377   4.006
 2673SOL    HW2 8919   4.361   2.409   3.911
 2674SOL     OW 8920   6.222   5.390   5.492
 2674SOL    HW1 8921   6.197   5.327   5.418
 2674SOL    HW2 8922   6.156   5.465   5.495
 2675SOL     OW 8923   0.583   4.281   4.996
 2675SOL    HW1 8924   0.617   4.238   4.912
 2675SOL    HW2 8925   0.485   4.297   4.987
 2676SOL     OW 8926   4.728   0.575   2.210
 2676SOL    HW1 8927   4.676   0.489   2.218
 2676SOL    HW2 8928   4.825   0.554   2.203
 2677SOL     OW 8929   2.735   4.655   2.811
 2677SOL    HW1 8930   2.802   4.703   2.868
 2677SOL    HW2 8931   2.660   4.623   2.869
 2678SOL     OW 8932   0.071   6.374   6.340
 2678SOL    HW1 8933   0.072   6.276   6.362
 2678SOL    HW2 8934   0.035   6.387   6.248
 2679SOL     OW 8935   3.089   5.190   1.390
 2679SOL    HW1 8936   3.144   5.173   1.471
 2679SOL    HW2 8937   3.096   5.286   1.364
 2680SOL     OW 8938   1.395   2.355   1.741
 2680SOL    HW1 8939   1.491   2.375   1.761
 2680SOL    HW2 8940   1.358   2.293   1.810
 2681SOL     OW 8941   1.892   1.527   3.067
 2681SOL    HW1 8942   1.940   1.611   3.094
 2681SOL    HW2 8943   1.959   1.454   3.052
 2682SOL     OW 8944   6.238   2.399   3.795
 2682SOL    HW1 8945   6.287   2.312   3.800
 2682SOL    HW2 8946   6.146   2.382   3.759
 2683SOL     OW 8947   2.127   0.221   1.954
 2683SOL    HW1 8948   2.210   0.259   1.995
 2683SOL    HW2 8949   2.051   0.285   1.969
 2684SOL     OW 8950   2.628   5.455   2.923
 2684SOL    HW1 8951   2.594   5.390   2.991
 2684SOL    HW2 8952   2.607   5.548   2.953
 2685SOL     OW 8953   5.793   5.892   5.542
 2685SOL    HW1 8954   5.830   5.855   5.627
 2685SOL    HW2 8955   5.865   5.943   5.494
 2686SOL     OW 8956   0.919   2.831   4.670
 2686SOL    HW1 8957   0.985   2.765   4.633
 2686SOL    HW2 8958   0.893   2.803   4.762
 2687SOL     OW 8959   4.748   4.798   3.286
 2687SOL    HW1 8960   4.753   4.723   3.351
 2687SOL    HW2 8961   4.765   4.884   3.333
 2688SOL     OW 8962   4.101   4.995   5.747
 2688SOL    HW1 8963   4.033   5.037   5.687
 2688SOL    HW2 8964   4.191   5.002   5.705
 2689SOL     OW 8965   0.291   3.039   3.804
 2689SOL    HW1 8966   0.206   3.068   3.760
 2689SOL    HW2 8967   0.366   3.100   3.777
 2690SOL     OW 8968   3.612   2.859   3.260
 2690SOL    HW1 8969   3.548   2.805   3.314
 2690SOL    HW2 8970   3.599   2.839   3.163
 2691SOL     OW 8971   1.648   5.601   1.376
 2691SOL    HW1 8972   1.658   5.651   1.462
 2691SOL    HW2 8973   1.715   5.527   1.371
 2692SOL     OW 8974   0.127   5.425   3.011
 2692SOL    HW1 8975   0.219   5.463   3.023
 2692SOL    HW2 8976   0.106   5.365   3.088
 2693SOL     OW 8977   1.706   3.600   3.000
 2693SOL    HW1 8978   1.800   3.629   2.978
 2693SOL    HW2 8979   1.675   3.649   3.081
 2694SOL     OW 8980   2.252   1.013   2.997
 2694SOL    HW1 8981   2.315   1.037   2.923
 2694SOL    HW2 8982   2.163   1.057   2.981
 2695SOL     OW 8983   4.056   2.162   3.000
 2695SOL    HW1 8984   4.047   2.062   3.005
 2695SOL    HW2 8985   4.054   2.200   3.092
 2696SOL     OW 8986   4.156   3.581   4.998
 2696SOL    HW1 8987   4.221   3.547   5.066
 2696SOL    HW2 8988   4.098   3.650   5.039
 2697SOL     OW 8989   2.325   2.051   4.037
 2697SOL    HW1 8990   2.260   2.021   3.968
 2697SOL    HW2 8991   2.277   2.106   4.106
 2698SOL     OW 8992   2.277   3.309   6.692
 2698SOL    HW1 8993   2.343   3.249   6.738
 2698SOL    HW2 8994   2.287   3.299   6.593
 2699SOL     OW 8995   2.808   5.597   2.732
 2699SOL    HW1 8996   2.778   5.559   2.819
 2699SOL    HW2 8997   2.798   5.527   2.661
 2700SOL     OW 8998   1.411   4.330   3.082
 2700SOL    HW1 8999   1.463   4.415   3.077
 2700SOL    HW2 9000   1.457   4.259   3.029
 2701SOL     OW 9001   3.485   0.389   5.841
 2701SOL    HW1 9002   3.570   0.345   5.813
 2701SOL    HW2 9003   3.478   0.389   5.941
 2702SOL     OW 9004   6.966   6.781   2.887
 2702SOL    HW1 9005   6.994   6.867   2.930
 2702SOL    HW2 9006   0.022   6.737   2.845
 2703SOL     OW 9007   1.620   1.662   3.576
 2703SOL    HW1 9008   1.563   1.725   3.628
 2703SOL    HW2 9009   1.572   1.575   3.565
 2704SOL     OW 9010   1.559   6.368   0.410
 2704SOL    HW1 9011   1.485   6.338   0.350
 2704SOL    HW2 9012   1.545   6.330   0.501
 2705SOL     OW 9013   0.404   4.509   2.404
 2705SOL    HW1 9014   0.328   4.556   2.449
 2705SOL    HW2 9015   0.404   4.413   2.429
 2706SOL     OW 9016   6.805   2.540   2.008
 2706SOL    HW1 9017   6.849   2.489   1.934
 2706SOL    HW2 9018   6.755   2.618   1.969
 2707SOL     OW 9019   2.327   1.478   6.068
 2707SOL    HW1 9020   2.253   1.522   6.119
 2707SOL    HW2 9021   2.408   1.471   6.127
 2708SOL     OW 9022   2.194   3.987   0.533
 2708SOL    HW1 9023   2.202   3.982   0.633
 2708SOL    HW2 9024   2.142   3.907   0.500
 2709SOL     OW 9025   3.920   6.968   1.441
 2709SOL    HW1 9026   3.983   6.906   1.488
 2709SOL    HW2 9027   3.838   6.981   1.498
 2710SOL     OW 9028   6.258   4.483   2.311
 2710SOL    HW1 9029   6.338   4.522   2.266
 2710SOL    HW2 9030   6.178   4.494   2.253
 2711SOL     OW 9031   1.011   6.503   1.889
 2711SOL    HW1 9032   0.924   6.480   1.933
 2711SOL    HW2 9033   0.994   6.534   1.796
 2712SOL     OW 9034   3.405   5.197   2.414
 2712SOL    HW1 9035   3.424   5.107   2.452
 2712SOL    HW2 9036   3.342   5.189   2.337
 2713SOL     OW 9037   2.144   2.318   4.839
 2713SOL    HW1 9038   2.045   2.300   4.847
 2713SOL    HW2 9039   2.194   2.232   4.840
 2714SOL     OW 9040   5.488   6.827   5.819
 2714SOL    HW1 9041   5.428   6.754   5.788
 2714SOL    HW2 9042   5.512   6.812   5.915
 2715SOL     OW 9043   6.612   0.189   0.538
 2715SOL    HW1 9044   6.572   0.174   0.448
 2715SOL    HW2 9045   6.674   0.267   0.535
 2716SOL     OW 9046   0.174   6.689   2.744
 2716SOL    HW1 9047   0.265   6.732   2.739
 2716SOL    HW2 9048   0.179   6.606   2.799
 2717SOL     OW 9049   1.216   0.750   2.678
 2717SOL    HW1 9050   1.134   0.793   2.715
 2717SOL    HW2 9051   1.203   0.732   2.580
 2718SOL     OW 9052   1.051   4.644   3.150
 2718SOL    HW1 9053   0.956   4.675   3.141
 2718SOL    HW2 9054   1.094   4.645   3.060
 2719SOL     OW 9055   4.247   4.680   2.999
 2719SOL    HW1 9056   4.203   4.613   3.059
 2719SOL    HW2 9057   4.206   4.674   2.908
 2720SOL     OW 9058   0.219   5.924   3.888
 2720SOL    HW1 9059   0.294   5.977   3.927
 2720SOL    HW2 9060   0.241   5.899   3.794
 2721SOL     OW 9061   4.837   6.894   5.013
 2721SOL    HW1 9062   4.933   6.869   5.027
 2721SOL    HW2 9063   4.820   6.906   4.915
 2722SOL     OW 9064   1.396   5.663   1.260
 2722SOL    HW1 9065   1.476   5.617   1.298
 2722SOL    HW2 9066   1.415   5.691   1.166
 2723SOL     OW 9067   1.562   1.654   5.079
 2723SOL    HW1 9068   1.496   1.720   5.117
 2723SOL    HW2 9069   1.592   1.593   5.152
 2724SOL     OW 9070   3.355   5.868   6.518
 2724SOL    HW1 9071   3.386   5.780   6.484
 2724SOL    HW2 9072   3.423   5.906   6.581
 2725SOL     OW 9073   2.947   4.782   3.618
 2725SOL    HW1 9074   2.983   4.823   3.702
 2725SOL    HW2 9075   2.970   4.841   3.540
 2726SOL     OW 9076   4.882   6.437   2.384
 2726SOL    HW1 9077   4.944   6.515   2.383
 2726SOL    HW2 9078   4.895   6.383   2.301
 2727SOL     OW 9079   1.918   5.540   2.958
 2727SOL    HW1 9080   2.010   5.550   2.918
 2727SOL    HW2 9081   1.926   5.507   3.052
 2728SOL     OW 9082   3.370   6.683   5.351
 2728SOL    HW1 9083   3.420   6.600   5.376
 2728SOL    HW2 9084   3.315   6.714   5.428
 2729SOL     OW 9085   6.563   5.037   2.649
 2729SOL    HW1 9086   6.485   5.017   2.709
 2729SOL    HW2 9087   6.634   4.968   2.665
 2730SOL     OW 9088   1.376   4.427   1.313
 2730SOL    HW1 9089   1.435   4.435   1.233
 2730SOL    HW2 9090   1.358   4.519   1.350
 2731SOL     OW 9091   2.891   3.798   1.426
 2731SOL    HW1 9092   2.887   3.855   1.343
 2731SOL    HW2 9093   2.986   3.786   1.454
 2732SOL     OW 9094   5.210   2.737   4.143
 2732SOL    HW1 9095   5.247   2.827   4.165
 2732SOL    HW2 9096   5.179   2.692   4.226
 2733SOL     OW 9097   2.160   0.780   5.750
 2733SOL    HW1 9098   2.228   0.823   5.691
 2733SOL    HW2 9099   2.109   0.712   5.698
 2734SOL     OW 9100   2.200   6.779   3.748
 2734SOL    HW1 9101   2.115   6.755   3.702
 2734SOL    HW2 9102   2.214   6.719   3.827
 2735SOL     OW 9103   2.245   4.939   1.210
 2735SOL    HW1 9104   2.288   4.849   1.210
 2735SOL    HW2 9105   2.264   4.984   1.123
 2736SOL     OW 9106   3.455   6.919   6.642
 2736SOL    HW1 9107   3.532   6.868   6.679
 2736SOL    HW2 9108   3.451   7.010   6.684
 2737SOL     OW 9109   4.146   3.415   5.370
 2737SOL    HW1 9110   4.202   3.413   5.453
 2737SOL    HW2 9111   4.190   3.473   5.301
 2738SOL     OW 9112   5.959   4.342   4.372
 2738SOL    HW1 9113   6.052   4.368   4.344
 2738SOL    HW2 9114   5.904   4.326   4.291
 2739SOL     OW 9115   5.423   3.528   0.734
 2739SOL    HW1 9116   5.432   3.618   0.777
 2739SOL    HW2 9117   5.474   3.460   0.787
 2740SOL     OW 9118   6.361   2.680   2.918
 2740SOL    HW1 9119   6.293   2.754   2.915
 2740SOL    HW2 9120   6.447   2.712   2.879
 2741SOL     OW 9121   1.390   2.523   5.194
 2741SOL    HW1 9122   1.402   2.539   5.096
 2741SOL    HW2 9123   1.327   2.447   5.207
 2742SOL     OW 9124   2.884   6.462   5.359
 2742SOL    HW1 9125   2.915   6.496   5.448
 2742SOL    HW2 9126   2.888   6.537   5.292
 2743SOL     OW 9127   6.122   4.451   0.414
 2743SOL    HW1 9128   6.028   4.484   0.403
 2743SOL    HW2 9129   6.124   4.352   0.400
 2744SOL     OW 9130   4.190   0.286   0.014
 2744SOL    HW1 9131   4.231   0.375   0.033
 2744SOL    HW2 9132   4.183   0.234   0.100
 2745SOL     OW 9133   2.028   5.614   1.206
 2745SOL    HW1 9134   2.034   5.516   1.225
 2745SOL    HW2 9135   2.044   5.665   1.291
 2746SOL     OW 9136   1.124   2.392   6.715
 2746SOL    HW1 9137   1.211   2.421   6.755
 2746SOL    HW2 9138   1.127   2.404   6.616
 2747SOL     OW 9139   5.383   5.665   3.857
 2747SOL    HW1 9140   5.354   5.671   3.762
 2747SOL    HW2 9141   5.307   5.688   3.917
 2748SOL     OW 9142   4.117   1.037   4.640
 2748SOL    HW1 9143   4.094   0.942   4.618
 2748SOL    HW2 9144   4.213   1.054   4.616
 2749SOL     OW 9145   5.434   4.131   3.771
 2749SOL    HW1 9146   5.488   4.050   3.792
 2749SOL    HW2 9147   5.337   4.109   3.776
 2750SOL     OW 9148   0.306   6.106   1.146
 2750SOL    HW1 9149   0.368   6.184   1.135
 2750SOL    HW2 9150   0.219   6.126   1.101
 2751SOL     OW 9151   1.603   0.038   0.180
 2751SOL    HW1 9152   1.556   0.102   0.119
 2751SOL    HW2 9153   1.681   0.084   0.222
 2752SOL     OW 9154   6.668   6.201   5.690
 2752SOL    HW1 9155   6.662   6.266   5.614
 2752SOL    HW2 9156   6.651   6.109   5.656
 2753SOL     OW 9157   3.003   5.046   5.303
 2753SOL    HW1 9158   3.022   4.969   5.242
 2753SOL    HW2 9159   3.083   5.063   5.360
 2754SOL     OW 9160   0.743   5.850   4.215
 2754SOL    HW1 9161   0.710   5.823   4.124
 2754SOL    HW2 9162   0.752   5.768   4.272
 2755SOL     OW 9163   3.811   5.994   2.369
 2755SOL    HW1 9164   3.744   5.992   2.295
 2755SOL    HW2 9165   3.888   5.935   2.347
 2756SOL     OW 9166   0.095   3.028   5.329
 2756SOL    HW1 9167   0.121   3.123   5.348
 2756SOL    HW2 9168   0.167   2.985   5.274
 2757SOL     OW 9169   4.497   3.645   6.814
 2757SOL    HW1 9170   4.477   3.694   6.899
 2757SOL    HW2 9171   4.592   3.614   6.815
 2758SOL     OW 9172   0.415   6.990   1.796
 2758SOL    HW1 9173   0.443   7.011   1.702
 2758SOL    HW2 9174   0.317   7.010   1.806
 2759SOL     OW 9175   3.574   3.413   5.361
 2759SOL    HW1 9176   3.555   3.482   5.291
 2759SOL    HW2 9177   3.518   3.332   5.344
 2760SOL     OW 9178   5.912   5.834   2.535
 2760SOL    HW1 9179   5.840   5.896   2.502
 2760SOL    HW2 9180   5.995   5.848   2.481
 2761SOL     OW 9181   1.623   3.214   3.124
 2761SOL    HW1 9182   1.599   3.294   3.179
 2761SOL    HW2 9183   1.682   3.154   3.178
 2762SOL     OW 9184   3.458   1.697   0.794
 2762SOL    HW1 9185   3.411   1.628   0.738
 2762SOL    HW2 9186   3.417   1.698   0.885
 2763SOL     OW 9187   6.154   1.649   3.880
 2763SOL    HW1 9188   6.174   1.661   3.977
 2763SOL    HW2 9189   6.197   1.565   3.847
 2764SOL     OW 9190   0.321   3.031   2.763
 2764SOL    HW1 9191   0.236   3.075   2.734
 2764SOL    HW2 9192   0.398   3.095   2.752
 2765SOL     OW 9193   5.591   6.555   5.962
 2765SOL    HW1 9194   5.675   6.578   5.914
 2765SOL    HW2 9195   5.611   6.537   6.058
 2766SOL     OW 9196   4.547   0.076   6.980
 2766SOL    HW1 9197   4.584   0.099   0.047
 2766SOL    HW2 9198   4.604   0.006   6.938
 2767SOL     OW 9199   0.862   5.574   6.557
 2767SOL    HW1 9200   0.806   5.574   6.474
 2767SOL    HW2 9201   0.836   5.498   6.616
 2768SOL     OW 9202   3.919   6.846   1.168
 2768SOL    HW1 9203   3.820   6.834   1.160
 2768SOL    HW2 9204   3.939   6.913   1.240
 2769SOL     OW 9205   1.233   4.954   5.648
 2769SOL    HW1 9206   1.164   4.927   5.580
 2769SOL    HW2 9207   1.208   5.041   5.688
 2770SOL     OW 9208   2.267   6.943   0.932
 2770SOL    HW1 9209   2.252   0.019   0.942
 2770SOL    HW2 9210   2.182   6.899   0.903
 2771SOL     OW 9211   4.262   0.239   5.395
 2771SOL    HW1 9212   4.286   0.156   5.344
 2771SOL    HW2 9213   4.342   0.272   5.446
 2772SOL     OW 9214   4.582   1.432   3.713
 2772SOL    HW1 9215   4.677   1.403   3.725
 2772SOL    HW2 9216   4.567   1.460   3.619
 2773SOL     OW 9217   6.572   2.682   5.111
 2773SOL    HW1 9218   6.527   2.698   5.199
 2773SOL    HW2 9219   6.579   2.768   5.061
 2774SOL     OW 9220   5.871   1.466   3.754
 2774SOL    HW1 9221   5.965   1.444   3.727
 2774SOL    HW2 9222   5.848   1.557   3.719
 2775SOL     OW 9223   6.976   3.440   4.186
 2775SOL    HW1 9224   0.037   3.489   4.161
 2775SOL    HW2 9225   6.914   3.503   4.235
 2776SOL     OW 9226   4.669   4.257   6.110
 2776SOL    HW1 9227   4.703   4.304   6.029
 2776SOL    HW2 9228   4.712   4.295   6.191
 2777SOL     OW 9229   2.250   2.273   6.548
 2777SOL    HW1 9230   2.242   2.356   6.492
 2777SOL    HW2 9231   2.185   2.205   6.515
 2778SOL     OW 9232   2.948   0.446   5.974
 2778SOL    HW1 9233   2.921   0.465   6.069
 2778SOL    HW2 9234   3.037   0.487   5.956
 2779SOL     OW 9235   5.008   0.911   1.879
 2779SOL    HW1 9236   4.946   0.920   1.801
 2779SOL    HW2 9237   5.019   1.000   1.924
 2780SOL     OW 9238   6.809   1.108   4.744
 2780SOL    HW1 9239   6.900   1.149   4.755
 2780SOL    HW2 9240   6.768   1.093   4.833
 2781SOL     OW 9241   6.084   1.105   3.372
 2781SOL    HW1 9242   6.161   1.169   3.374
 2781SOL    HW2 9243   6.047   1.100   3.279
 2782SOL     OW 9244   5.524   1.101   6.005
 2782SOL    HW1 9245   5.591   1.042   6.051
 2782SOL    HW2 9246   5.444   1.047   5.978
 2783SOL     OW 9247   5.850   3.360   1.801
 2783SOL    HW1 9248   5.846   3.289   1.872
 2783SOL    HW2 9249   5.806   3.326   1.718
 2784SOL     OW 9250   0.649   3.157   1.327
 2784SOL    HW1 9251   0.576   3.128   1.266
 2784SOL    HW2 9252   0.708   3.079   1.349
 2785SOL     OW 9253   5.777   3.569   2.722
 2785SOL    HW1 9254   5.731   3.508   2.788
 2785SOL    HW2 9255   5.761   3.535   2.630
 2786SOL     OW 9256   1.404   6.218   0.186
 2786SOL    HW1 9257   1.358   6.148   0.240
 2786SOL    HW2 9258   1.336   6.277   0.142
 2787SOL     OW 9259   0.657   5.747   6.700
 2787SOL    HW1 9260   0.737   5.689   6.692
 2787SOL    HW2 9261   0.675   5.835   6.657
 2788SOL     OW 9262   2.327   6.822   6.717
 2788SOL    HW1 9263   2.369   6.761   6.783
 2788SOL    HW2 9264   2.366   6.807   6.626
 2789SOL     OW 9265   1.403   2.274   4.563
 2789SOL    HW1 9266   1.368   2.338   4.631
 2789SOL    HW2 9267   1.349   2.190   4.565
 2790SOL     OW 9268   0.356   5.854   1.742
 2790SOL    HW1 9269   0.265   5.816   1.761
 2790SOL    HW2 9270   0.347   5.949   1.712
 2791SOL     OW 9271   1.075   3.189   4.551
 2791SOL    HW1 9272   1.101   3.267   4.495
 2791SOL    HW2 9273   1.098   3.207   4.647
 2792SOL     OW 9274   3.238   1.262   6.071
 2792SOL    HW1 9275   3.236   1.164   6.093
 2792SOL    HW2 9276   3.152   1.304   6.100
 2793SOL     OW 9277   3.663   3.922   0.420
 2793SOL    HW1 9278   3.569   3.907   0.388
 2793SOL    HW2 9279   3.683   4.020   0.420
 2794SOL     OW 9280   1.761   2.466   0.236
 2794SOL    HW1 9281   1.806   2.542   0.283
 2794SOL    HW2 9282   1.805   2.380   0.262
 2795SOL     OW 9283   1.630   6.427   1.135
 2795SOL    HW1 9284   1.724   6.393   1.136
 2795SOL    HW2 9285   1.613   6.481   1.218
 2796SOL     OW 9286   1.977   6.193   6.878
 2796SOL    HW1 9287   1.878   6.181   6.871
 2796SOL    HW2 9288   2.022   6.106   6.860
 2797SOL     OW 9289   4.859   4.154   3.784
 2797SOL    HW1 9290   4.845   4.056   3.800
 2797SOL    HW2 9291   4.800   4.206   3.846
 2798SOL     OW 9292   5.438   1.408   1.707
 2798SOL    HW1 9293   5.474   1.332   1.652
 2798SOL    HW2 9294   5.485   1.410   1.795
 2799SOL     OW 9295   3.667   6.341   4.868
 2799SOL    HW1 9296   3.671   6.241   4.863
 2799SOL    HW2 9297   3.659   6.368   4.964
 2800SOL     OW 9298   4.822   0.541   6.261
 2800SOL    HW1 9299   4.792   0.625   6.215
 2800SOL    HW2 9300   4.782   0.538   6.353
 2801SOL     OW 9301   6.876   4.656   3.724
 2801SOL    HW1 9302   6.866   4.636   3.821
 2801SOL    HW2 9303   6.912   4.576   3.676
 2802SOL     OW 9304   1.423   5.296   4.648
 2802SOL    HW1 9305   1.366   5.272   4.569
 2802SOL    HW2 9306   1.514   5.257   4.636
 2803SOL     OW 9307   3.273   2.819   6.986
 2803SOL    HW1 9308   3.200   2.824   0.032
 2803SOL    HW2 9309   3.278   2.727   6.949
 2804SOL     OW 9310   6.604   2.803   3.506
 2804SOL    HW1 9311   6.569   2.814   3.413
 2804SOL    HW2 9312   6.528   2.782   3.568
 2805SOL     OW 9313   4.059   4.882   0.610
 2805SOL    HW1 9314   3.981   4.877   0.547
 2805SOL    HW2 9315   4.053   4.808   0.677
 2806SOL     OW 9316   0.424   3.274   5.254
 2806SOL    HW1 9317   0.333   3.250   5.289
 2806SOL    HW2 9318   0.423   3.369   5.223
 2807SOL     OW 9319   4.375   0.913   4.034
 2807SOL    HW1 9320   4.429   0.996   4.049
 2807SOL    HW2 9321   4.279   0.932   4.055
 2808SOL     OW 9322   1.132   5.828   6.021
 2808SOL    HW1 9323   1.182   5.772   5.954
 2808SOL    HW2 9324   1.057   5.874   5.975
 2809SOL     OW 9325   0.323   6.115   2.081
 2809SOL    HW1 9326   0.400   6.074   2.032
 2809SOL    HW2 9327   0.312   6.068   2.169
 2810SOL     OW 9328   1.387   6.353   2.942
 2810SOL    HW1 9329   1.479   6.335   2.908
 2810SOL    HW2 9330   1.367   6.451   2.934
 2811SOL     OW 9331   1.132   1.163   0.798
 2811SOL    HW1 9332   1.093   1.128   0.714
 2811SOL    HW2 9333   1.115   1.099   0.873
 2812SOL     OW 9334   1.234   1.742   0.544
 2812SOL    HW1 9335   1.262   1.675   0.475
 2812SOL    HW2 9336   1.196   1.823   0.498
 2813SOL     OW 9337   0.805   3.349   1.237
 2813SOL    HW1 9338   0.764   3.405   1.165
 2813SOL    HW2 9339   0.738   3.285   1.272
 2814SOL     OW 9340   2.381   4.413   0.002
 2814SOL    HW1 9341   2.403   4.506   0.032
 2814SOL    HW2 9342   2.401   4.349   0.076
 2815SOL     OW 9343   6.765   5.605   4.513
 2815SOL    HW1 9344   6.781   5.694   4.469
 2815SOL    HW2 9345   6.850   5.573   4.554
 2816SOL     OW 9346   0.855   5.072   4.535
 2816SOL    HW1 9347   0.780   5.014   4.504
 2816SOL    HW2 9348   0.919   5.017   4.589
 2817SOL     OW 9349   3.162   0.917   2.320
 2817SOL    HW1 9350   3.187   0.982   2.249
 2817SOL    HW2 9351   3.198   0.948   2.408
 2818SOL     OW 9352   1.225   0.490   0.120
 2818SOL    HW1 9353   1.276   0.485   0.206
 2818SOL    HW2 9354   1.141   0.435   0.129
 2819SOL     OW 9355   0.683   0.299   6.789
 2819SOL    HW1 9356   0.696   0.327   6.694
 2819SOL    HW2 9357   0.610   0.353   6.830
 2820SOL     OW 9358   1.709   1.983   6.802
 2820SOL    HW1 9359   1.669   1.897   6.832
 2820SOL    HW2 9360   1.768   2.020   6.874
 2821SOL     OW 9361   3.137   2.910   6.389
 2821SOL    HW1 9362   3.123   2.960   6.303
 2821SOL    HW2 9363   3.171   2.973   6.459
 2822SOL     OW 9364   4.628   2.969   0.804
 2822SOL    HW1 9365   4.565   2.967   0.881
 2822SOL    HW2 9366   4.707   3.024   0.827
 2823SOL     OW 9367   4.984   3.698   1.903
 2823SOL    HW1 9368   5.056   3.698   1.833
 2823SOL    HW2 9369   4.998   3.775   1.965
 2824SOL     OW 9370   0.809   4.593   5.406
 2824SOL    HW1 9371   0.814   4.504   5.360
 2824SOL    HW2 9372   0.806   4.665   5.337
 2825SOL     OW 9373   5.159   1.661   5.784
 2825SOL    HW1 9374   5.142   1.741   5.726
 2825SOL    HW2 9375   5.224   1.686   5.856
 2826SOL     OW 9376   2.916   2.983   0.051
 2826SOL    HW1 9377   2.849   2.947   0.116
 2826SOL    HW2 9378   2.931   3.080   0.068
 2827SOL     OW 9379   5.744   1.870   6.560
 2827SOL    HW1 9380   5.670   1.814   6.522
 2827SOL    HW2 9381   5.714   1.965   6.567
 2828SOL     OW 9382   1.688   3.901   0.741
 2828SOL    HW1 9383   1.594   3.932   0.758
 2828SOL    HW2 9384   1.733   3.964   0.678
 2829SOL     OW 9385   3.513   3.549   1.774
 2829SOL    HW1 9386   3.594   3.527   1.720
 2829SOL    HW2 9387   3.503   3.482   1.848
 2830SOL     OW 9388   3.330   5.603   4.625
 2830SOL    HW1 9389   3.350   5.692   4.585
 2830SOL    HW2 9390   3.231   5.585   4.618
 2831SOL     OW 9391   0.043   1.728   1.929
 2831SOL    HW1 9392   0.116   1.660   1.936
 2831SOL    HW2 9393   6.987   1.689   1.881
 2832SOL     OW 9394   0.780   3.563   2.308
 2832SOL    HW1 9395   0.779   3.617   2.223
 2832SOL    HW2 9396   0.688   3.527   2.326
 2833SOL     OW 9397   0.049   2.538   2.298
 2833SOL    HW1 9398   0.111   2.501   2.229
 2833SOL    HW2 9399   0.101   2.569   2.377
 2834SOL     OW 9400   3.715   0.060   4.333
 2834SOL    HW1 9401   3.814   0.057   4.324
 2834SOL    HW2 9402   3.690   0.095   4.423
 2835SOL     OW 9403   6.665   0.868   6.822
 2835SOL    HW1 9404   6.603   0.946   6.813
 2835SOL    HW2 9405   6.759   0.899   6.807
 2836SOL     OW 9406   3.115   5.481   2.742
 2836SOL    HW1 9407   3.201   5.496   2.791
 2836SOL    HW2 9408   3.133   5.483   2.644
 2837SOL     OW 9409   5.113   4.633   1.978
 2837SOL    HW1 9410   5.163   4.618   2.064
 2837SOL    HW2 9411   5.015   4.630   1.995
 2838SOL     OW 9412   6.669   4.011   6.065
 2838SOL    HW1 9413   6.637   4.097   6.105
 2838SOL    HW2 9414   6.632   4.001   5.973
 2839SOL     OW 9415   5.822   2.821   5.610
 2839SOL    HW1 9416   5.757   2.754   5.645
 2839SOL    HW2 9417   5.915   2.786   5.622
 2840SOL     OW 9418   5.936   6.517   4.582
 2840SOL    HW1 9419   5.999   6.586   4.547
 2840SOL    HW2 9420   5.942   6.434   4.525
 2841SOL     OW 9421   5.436   4.240   2.282
 2841SOL    HW1 9422   5.471   4.321   2.235
 2841SOL    HW2 9423   5.445   4.160   2.222
 2842SOL     OW 9424   0.633   6.739   3.720
 2842SOL    HW1 9425   0.536   6.721   3.739
 2842SOL    HW2 9426   0.686   6.726   3.804
 2843SOL     OW 9427   2.261   2.852   3.787
 2843SOL    HW1 9428   2.171   2.809   3.777
 2843SOL    HW2 9429   2.332   2.782   3.777
 2844SOL     OW 9430   5.492   3.249   1.072
 2844SOL    HW1 9431   5.568   3.314   1.080
 2844SOL    HW2 9432   5.526   3.157   1.092
 2845SOL     OW 9433   3.025   1.975   1.673
 2845SOL    HW1 9434   3.077   2.055   1.704
 2845SOL    HW2 9435   2.970   1.941   1.749
 2846SOL     OW 9436   6.057   6.993   6.980
 2846SOL    HW1 9437   6.138   7.020   6.928
 2846SOL    HW2 9438   5.975   0.003   6.934
 2847SOL     OW 9439   4.868   5.136   0.966
 2847SOL    HW1 9440   4.810   5.055   0.963
 2847SOL    HW2 9441   4.812   5.218   0.969
 2848SOL     OW 9442   0.818   4.473   5.704
 2848SOL    HW1 9443   0.843   4.492   5.609
 2848SOL    HW2 9444   0.792   4.558   5.750
 2849SOL     OW 9445   5.066   1.110   1.685
 2849SOL    HW1 9446   5.127   1.032   1.692
 2849SOL    HW2 9447   5.115   1.189   1.647
 2850SOL     OW 9448   1.194   0.647   2.034
 2850SOL    HW1 9449   1.097   0.659   2.054
 2850SOL    HW2 9450   1.209   0.653   1.936
 2851SOL     OW 9451   3.254   2.877   1.474
 2851SOL    HW1 9452   3.220   2.934   1.549
 2851SOL    HW2 9453   3.242   2.926   1.387
 2852SOL     OW 9454   0.220   5.644   5.407
 2852SOL    HW1 9455   0.139   5.589   5.428
 2852SOL    HW2 9456   0.215   5.732   5.455
 2853SOL     OW 9457   0.124   4.689   5.231
 2853SOL    HW1 9458   0.196   4.754   5.206
 2853SOL    HW2 9459   0.159   4.595   5.225
 2854SOL     OW 9460   2.827   0.476   5.737
 2854SOL    HW1 9461   2.873   0.487   5.826
 2854SOL    HW2 9462   2.882   0.520   5.666
 2855SOL     OW 9463   2.298   1.380   4.532
 2855SOL    HW1 9464   2.291   1.454   4.465
 2855SOL    HW2 9465   2.220   1.383   4.593
 2856SOL     OW 9466   0.361   5.415   4.551
 2856SOL    HW1 9467   0.450   5.451   4.522
 2856SOL    HW2 9468   0.348   5.325   4.510
 2857SOL     OW 9469   6.638   4.219   1.145
 2857SOL    HW1 9470   6.675   4.186   1.232
 2857SOL    HW2 9471   6.610   4.315   1.155
 2858SOL     OW 9472   5.295   4.148   2.967
 2858SOL    HW1 9473   5.204   4.158   2.927
 2858SOL    HW2 9474   5.355   4.221   2.933
 2859SOL     OW 9475   6.184   5.054   1.957
 2859SOL    HW1 9476   6.176   5.154   1.961
 2859SOL    HW2 9477   6.106   5.015   1.908
 2860SOL     OW 9478   1.360   0.261   3.065
 2860SOL    HW1 9479   1.267   0.290   3.045
 2860SOL    HW2 9480   1.411   0.249   2.980
 2861SOL     OW 9481   5.073   4.412   5.914
 2861SOL    HW1 9482   5.039   4.505   5.933
 2861SOL    HW2 9483   5.173   4.410   5.922
 2862SOL     OW 9484   4.611   1.328   0.419
 2862SOL    HW1 9485   4.652   1.376   0.496
 2862SOL    HW2 9486   4.672   1.253   0.391
 2863SOL     OW 9487   6.174   2.426   5.492
 2863SOL    HW1 9488   6.124   2.355   5.541
 2863SOL    HW2 9489   6.158   2.417   5.394
 2864SOL     OW 9490   4.026   4.174   0.806
 2864SOL    HW1 9491   4.009   4.122   0.723
 2864SOL    HW2 9492   4.053   4.112   0.880
 2865SOL     OW 9493   5.549   5.315   5.478
 2865SOL    HW1 9494   5.551   5.413   5.493
 2865SOL    HW2 9495   5.516   5.269   5.560
 2866SOL     OW 9496   3.735   4.925   0.696
 2866SOL    HW1 9497   3.777   4.919   0.605
 2866SOL    HW2 9498   3.730   4.834   0.737
 2867SOL     OW 9499   6.208   6.329   3.181
 2867SOL    HW1 9500   6.239   6.385   3.257
 2867SOL    HW2 9501   6.181   6.388   3.105
 2868SOL     OW 9502   0.456   0.198   5.684
 2868SOL    HW1 9503   0.397   0.148   5.621
 2868SOL    HW2 9504   0.542   0.149   5.695
 2869SOL     OW 9505   6.213   4.459   4.260
 2869SOL    HW1 9506   6.264   4.458   4.346
 2869SOL    HW2 9507   6.193   4.553   4.234
 2870SOL     OW 9508   0.563   1.227   1.924
 2870SOL    HW1 9509   0.508   1.287   1.981
 2870SOL    HW2 9510   0.507   1.150   1.893
 2871SOL     OW 9511   4.800   1.125   3.152
 2871SOL    HW1 9512   4.876   1.109   3.215
 2871SOL    HW2 9513   4.801   1.055   3.080
 2872SOL     OW 9514   2.728   2.028   2.668
 2872SOL    HW1 9515   2.684   2.062   2.751
 2872SOL    HW2 9516   2.662   1.976   2.614
 2873SOL     OW 9517   1.567   0.159   1.749
 2873SOL    HW1 9518   1.570   0.092   1.675
 2873SOL    HW2 9519   1.491   0.137   1.811
 2874SOL     OW 9520   2.222   1.064   3.570
 2874SOL    HW1 9521   2.284   1.143   3.561
 2874SOL    HW2 9522   2.132   1.088   3.536
 2875SOL     OW 9523   2.310   0.204   3.208
 2875SOL    HW1 9524   2.401   0.180   3.240
 2875SOL    HW2 9525   2.301   0.304   3.204
 2876SOL     OW 9526   1.343   6.179   0.994
 2876SOL    HW1 9527   1.284   6.223   1.062
 2876SOL    HW2 9528   1.364   6.245   0.922
 2877SOL     OW 9529   1.995   2.624   5.443
 2877SOL    HW1 9530   1.955   2.713   5.421
 2877SOL    HW2 9531   2.072   2.637   5.505
 2878SOL     OW 9532   3.943   3.084   4.445
 2878SOL    HW1 9533   3.978   3.143   4.372
 2878SOL    HW2 9534   4.002   3.093   4.526
 2879SOL     OW 9535   5.346   5.040   6.898
 2879SOL    HW1 9536   5.415   5.056   6.969
 2879SOL    HW2 9537   5.391   5.011   6.814
 2880SOL     OW 9538   1.886   1.612   3.678
 2880SOL    HW1 9539   1.913   1.516   3.686
 2880SOL    HW2 9540   1.787   1.617   3.666
 2881SOL     OW 9541   5.361   4.866   0.936
 2881SOL    HW1 9542   5.407   4.887   1.023
 2881SOL    HW2 9543   5.274   4.913   0.932
 2882SOL     OW 9544   4.571   6.279   0.210
 2882SOL    HW1 9545   4.587   6.262   0.113
 2882SOL    HW2 9546   4.609   6.204   0.264
 2883SOL     OW 9547   5.397   6.529   4.026
 2883SOL    HW1 9548   5.306   6.565   4.005
 2883SOL    HW2 9549   5.451   6.600   4.072
 2884SOL     OW 9550   6.342   5.752   3.608
 2884SOL    HW1 9551   6.266   5.716   3.554
 2884SOL    HW2 9552   6.399   5.676   3.640
 2885SOL     OW 9553   0.868   3.037   3.835
 2885SOL    HW1 9554   0.902   3.030   3.929
 2885SOL    HW2 9555   0.859   2.946   3.795
 2886SOL     OW 9556   2.129   4.527   5.514
 2886SOL    HW1 9557   2.054   4.552   5.576
 2886SOL    HW2 9558   2.167   4.439   5.542
 2887SOL     OW 9559   6.908   6.097   2.600
 2887SOL    HW1 9560   6.950   6.117   2.511
 2887SOL    HW2 9561   6.849   6.174   2.626
 2888SOL     OW 9562   5.056   6.675   6.744
 2888SOL    HW1 9563   5.128   6.692   6.676
 2888SOL    HW2 9564   4.967   6.689   6.701
 2889SOL     OW 9565   4.246   6.272   4.116
 2889SOL    HW1 9566   4.311   6.249   4.188
 2889SOL    HW2 9567   4.153   6.263   4.151
 2890SOL     OW 9568   1.195   2.514   0.464
 2890SOL    HW1 9569   1.197   2.607   0.498
 2890SOL    HW2 9570   1.265   2.502   0.393
 2891SOL     OW 9571   0.683   1.914   5.383
 2891SOL    HW1 9572   0.766   1.965   5.362
 2891SOL    HW2 9573   0.613   1.975   5.419
 2892SOL     OW 9574   5.277   4.601   1.762
 2892SOL    HW1 9575   5.223   4.603   1.846
 2892SOL    HW2 9576   5.217   4.617   1.683
 2893SOL     OW 9577   6.688   5.506   5.142
 2893SOL    HW1 9578   6.727   5.546   5.225
 2893SOL    HW2 9579   6.735   5.420   5.121
 2894SOL     OW 9580   2.145   5.336   0.966
 2894SOL    HW1 9581   2.183   5.372   1.051
 2894SOL    HW2 9582   2.202   5.367   0.889
 2895SOL     OW 9583   4.428   6.967   5.977
 2895SOL    HW1 9584   4.444   6.881   5.929
 2895SOL    HW2 9585   4.479   0.018   5.932
 2896SOL     OW 9586   6.093   0.389   4.942
 2896SOL    HW1 9587   6.080   0.325   5.018
 2896SOL    HW2 9588   6.178   0.368   4.894
 2897SOL     OW 9589   3.259   4.860   3.138
 2897SOL    HW1 9590   3.254   4.836   3.041
 2897SOL    HW2 9591   3.175   4.833   3.183
 2898SOL     OW 9592   5.226   1.961   3.176
 2898SOL    HW1 9593   5.314   1.952   3.129
 2898SOL    HW2 9594   5.204   2.058   3.188
 2899SOL     OW 9595   6.779   3.208   0.412
 2899SOL    HW1 9596   6.780   3.111   0.391
 2899SOL    HW2 9597   6.836   3.225   0.493
 2900SOL     OW 9598   2.469   2.389   6.272
 2900SOL    HW1 9599   2.468   2.424   6.178
 2900SOL    HW2 9600   2.383   2.411   6.317
 2901SOL     OW 9601   0.976   3.988   2.438
 2901SOL    HW1 9602   0.945   3.918   2.374
 2901SOL    HW2 9603   1.023   3.944   2.515
 2902SOL     OW 9604   5.985   5.436   3.598
 2902SOL    HW1 9605   5.961   5.532   3.581
 2902SOL    HW2 9606   6.000   5.423   3.696
 2903SOL     OW 9607   6.513   4.526   0.438
 2903SOL    HW1 9608   6.498   4.436   0.478
 2903SOL    HW2 9609   6.504   4.521   0.339
 2904SOL     OW 9610   2.810   4.770   4.591
 2904SOL    HW1 9611   2.883   4.767   4.659
 2904SOL    HW2 9612   2.832   4.838   4.521
 2905SOL     OW 9613   1.879   5.368   1.130
 2905SOL    HW1 9614   1.850   5.273   1.130
 2905SOL    HW2 9615   1.962   5.378   1.075
 2906SOL     OW 9616   6.312   6.258   5.585
 2906SOL    HW1 9617   6.315   6.316   5.503
 2906SOL    HW2 9618   6.320   6.162   5.558
 2907SOL     OW 9619   0.689   1.245   5.174
 2907SOL    HW1 9620   0.760   1.293   5.225
 2907SOL    HW2 9621   0.635   1.189   5.237
 2908SOL     OW 9622   3.876   0.309   3.331
 2908SOL    HW1 9623   3.920   0.262   3.254
 2908SOL    HW2 9624   3.816   0.381   3.295
 2909SOL     OW 9625   0.072   7.012   1.459
 2909SOL    HW1 9626   0.064   0.070   1.517
 2909SOL    HW2 9627   0.121   0.013   1.375
 2910SOL     OW 9628   0.785   1.207   4.254
 2910SOL    HW1 9629   0.716   1.142   4.221
 2910SOL    HW2 9630   0.780   1.290   4.200
 2911SOL     OW 9631   0.570   4.365   5.623
 2911SOL    HW1 9632   0.647   4.401   5.676
 2911SOL    HW2 9633   0.516   4.304   5.681
 2912SOL     OW 9634   0.837   1.260   1.887
 2912SOL    HW1 9635   0.857   1.185   1.823
 2912SOL    HW2 9636   0.740   1.259   1.909
 2913SOL     OW 9637   1.646   6.717   3.323
 2913SOL    HW1 9638   1.731   6.768   3.304
 2913SOL    HW2 9639   1.625   6.659   3.244
 2914SOL     OW 9640   4.043   4.813   1.235
 2914SOL    HW1 9641   3.995   4.727   1.219
 2914SOL    HW2 9642   3.994   4.867   1.303
 2915SOL     OW 9643   2.593   0.497   4.098
 2915SOL    HW1 9644   2.598   0.415   4.042
 2915SOL    HW2 9645   2.665   0.561   4.070
 2916SOL     OW 9646   1.158   5.471   0.115
 2916SOL    HW1 9647   1.060   5.478   0.136
 2916SOL    HW2 9648   1.172   5.484   0.017
 2917SOL     OW 9649   2.427   0.067   2.510
 2917SOL    HW1 9650   2.483   7.017   2.550
 2917SOL    HW2 9651   2.375   0.112   2.582
 2918SOL     OW 9652   5.188   2.820   1.537
 2918SOL    HW1 9653   5.141   2.844   1.452
 2918SOL    HW2 9654   5.241   2.736   1.523
 2919SOL     OW 9655   0.099   6.277   4.728
 2919SOL    HW1 9656   0.124   6.181   4.714
 2919SOL    HW2 9657   0.141   6.311   4.812
 2920SOL     OW 9658   2.881   2.256   1.537
 2920SOL    HW1 9659   2.940   2.336   1.542
 2920SOL    HW2 9660   2.936   2.174   1.553
 2921SOL     OW 9661   0.823   6.184   3.607
 2921SOL    HW1 9662   0.888   6.211   3.535
 2921SOL    HW2 9663   0.792   6.265   3.656
 2922SOL     OW 9664   3.722   4.932   3.790
 2922SOL    HW1 9665   3.797   4.946   3.725
 2922SOL    HW2 9666   3.651   4.876   3.746
 2923SOL     OW 9667   0.767   5.286   4.677
 2923SOL    HW1 9668   0.837   5.357   4.684
 2923SOL    HW2 9669   0.801   5.211   4.621
 2924SOL     OW 9670   5.327   2.013   6.288
 2924SOL    HW1 9671   5.292   2.093   6.238
 2924SOL    HW2 9672   5.301   1.930   6.239
 2925SOL     OW 9673   5.417   6.784   4.733
 2925SOL    HW1 9674   5.482   6.742   4.798
 2925SOL    HW2 9675   5.400   6.879   4.760
 2926SOL     OW 9676   6.782   2.300   4.509
 2926SOL    HW1 9677   6.732   2.330   4.590
 2926SOL    HW2 9678   6.728   2.322   4.427
 2927SOL     OW 9679   1.406   2.314   2.391
 2927SOL    HW1 9680   1.455   2.357   2.315
 2927SOL    HW2 9681   1.471   2.264   2.448
 2928SOL     OW 9682   5.659   2.879   6.903
 2928SOL    HW1 9683   5.699   2.864   6.994
 2928SOL    HW2 9684   5.671   2.796   6.848
 2929SOL     OW 9685   2.115   2.040   3.830
 2929SOL    HW1 9686   2.074   2.130   3.844
 2929SOL    HW2 9687   2.105   2.014   3.734
 2930SOL     OW 9688   0.327   3.719   4.333
 2930SOL    HW1 9689   0.289   3.729   4.426
 2930SOL    HW2 9690   0.380   3.801   4.310
 2931SOL     OW 9691   5.804   4.822   5.654
 2931SOL    HW1 9692   5.751   4.740   5.674
 2931SOL    HW2 9693   5.805   4.881   5.734
 2932SOL     OW 9694   6.155   5.039   1.147
 2932SOL    HW1 9695   6.178   4.944   1.168
 2932SOL    HW2 9696   6.133   5.088   1.232
 2933SOL     OW 9697   1.284   6.984   0.335
 2933SOL    HW1 9698   1.339   6.905   0.308
 2933SOL    HW2 9699   1.236   6.963   0.420
 2934SOL     OW 9700   4.606   5.034   2.014
 2934SOL    HW1 9701   4.685   5.034   1.954
 2934SOL    HW2 9702   4.569   4.942   2.022
 2935SOL     OW 9703   0.727   2.528   5.889
 2935SOL    HW1 9704   0.760   2.617   5.856
 2935SOL    HW2 9705   0.799   2.460   5.880
 2936SOL     OW 9706   4.876   6.979   2.376
 2936SOL    HW1 9707   4.971   7.002   2.352
 2936SOL    HW2 9708   4.866   6.879   2.380
 2937SOL     OW 9709   5.977   3.769   3.050
 2937SOL    HW1 9710   5.884   3.775   3.015
 2937SOL    HW2 9711   6.018   3.861   3.052
 2938SOL     OW 9712   0.552   5.321   6.913
 2938SOL    HW1 9713   0.496   5.374   6.850
 2938SOL    HW2 9714   0.509   5.232   6.931
 2939SOL     OW 9715   6.986   5.996   1.496
 2939SOL    HW1 9716   6.923   6.072   1.484
 2939SOL    HW2 9717   6.987   5.968   1.592
 2940SOL     OW 9718   4.830   6.386   3.985
 2940SOL    HW1 9719   4.790   6.420   3.900
 2940SOL    HW2 9720   4.868   6.295   3.971
 2941SOL     OW 9721   2.438   4.843   2.850
 2941SOL    HW1 9722   2.344   4.844   2.815
 2941SOL    HW2 9723   2.459   4.753   2.888
 2942SOL     OW 9724   3.618   2.046   1.732
 2942SOL    HW1 9725   3.654   2.112   1.798
 2942SOL    HW2 9726   3.647   2.073   1.640
 2943SOL     OW 9727   5.888   3.431   3.399
 2943SOL    HW1 9728   5.874   3.417   3.497
 2943SOL    HW2 9729   5.870   3.346   3.350
 2944SOL     OW 9730   1.601   5.712   2.402
 2944SOL    HW1 9731   1.578   5.614   2.407
 2944SOL    HW2 9732   1.557   5.752   2.322
 2945SOL     OW 9733   5.574   3.663   1.691
 2945SOL    HW1 9734   5.560   3.756   1.656
 2945SOL    HW2 9735   5.500   3.604   1.660
 2946SOL     OW 9736   3.669   2.907   4.150
 2946SOL    HW1 9737   3.743   2.942   4.092
 2946SOL    HW2 9738   3.701   2.902   4.245
 2947SOL     OW 9739   6.249   5.153   0.675
 2947SOL    HW1 9740   6.210   5.182   0.763
 2947SOL    HW2 9741   6.223   5.059   0.656
 2948SOL     OW 9742   0.282   3.752   1.793
 2948SOL    HW1 9743   0.289   3.803   1.879
 2948SOL    HW2 9744   0.344   3.792   1.725
 2949SOL     OW 9745   1.974   6.288   0.651
 2949SOL    HW1 9746   2.018   6.378   0.647
 2949SOL    HW2 9747   1.953   6.257   0.558
 2950SOL     OW 9748   6.006   5.915   2.303
 2950SOL    HW1 9749   6.014   6.003   2.350
 2950SOL    HW2 9750   6.024   5.927   2.206
 2951SOL     OW 9751   1.193   1.697   1.313
 2951SOL    HW1 9752   1.287   1.693   1.348
 2951SOL    HW2 9753   1.132   1.730   1.385
 2952SOL     OW 9754   0.265   2.094   5.124
 2952SOL    HW1 9755   0.193   2.051   5.071
 2952SOL    HW2 9756   0.347   2.106   5.067
 2953SOL     OW 9757   1.607   5.319   3.211
 2953SOL    HW1 9758   1.532   5.384   3.202
 2953SOL    HW2 9759   1.654   5.334   3.298
 2954SOL     OW 9760   0.636   4.624   6.096
 2954SOL    HW1 9761   0.627   4.526   6.076
 2954SOL    HW2 9762   0.686   4.636   6.181
 2955SOL     OW 9763   1.653   4.782   6.073
 2955SOL    HW1 9764   1.662   4.701   6.015
 2955SOL    HW2 9765   1.575   4.836   6.042
 2956SOL     OW 9766   5.534   4.341   4.406
 2956SOL    HW1 9767   5.467   4.338   4.332
 2956SOL    HW2 9768   5.491   4.378   4.488
 2957SOL     OW 9769   2.336   5.567   1.749
 2957SOL    HW1 9770   2.386   5.588   1.833
 2957SOL    HW2 9771   2.372   5.483   1.710
 2958SOL     OW 9772   1.654   3.824   2.021
 2958SOL    HW1 9773   1.639   3.759   2.095
 2958SOL    HW2 9774   1.566   3.863   1.992
 2959SOL     OW 9775   0.371   3.587   3.946
 2959SOL    HW1 9776   0.299   3.656   3.953
 2959SOL    HW2 9777   0.380   3.540   4.034
 2960SOL     OW 9778   4.738   6.368   0.809
 2960SOL    HW1 9779   4.664   6.393   0.871
 2960SOL    HW2 9780   4.783   6.285   0.842
 2961SOL     OW 9781   5.492   2.374   1.760
 2961SOL    HW1 9782   5.490   2.370   1.860
 2961SOL    HW2 9783   5.562   2.439   1.730
 2962SOL     OW 9784   0.145   0.105   3.788
 2962SOL    HW1 9785   0.191   0.194   3.792
 2962SOL    HW2 9786   0.176   0.055   3.707
 2963SOL     OW 9787   1.404   0.300   5.208
 2963SOL    HW1 9788   1.311   0.314   5.242
 2963SOL    HW2 9789   1.451   0.388   5.204
 2964SOL     OW 9790   1.626   0.634   6.342
 2964SOL    HW1 9791   1.660   0.552   6.387
 2964SOL    HW2 9792   1.683   0.713   6.367
 2965SOL     OW 9793   5.769   0.095   6.158
 2965SOL    HW1 9794   5.741   0.132   6.069
 2965SOL    HW2 9795   5.858   0.132   6.183
 2966SOL     OW 9796   3.125   5.205   2.849
 2966SOL    HW1 9797   3.117   5.155   2.762
 2966SOL    HW2 9798   3.104   5.301   2.834
 2967SOL     OW 9799   6.104   6.769   5.209
 2967SOL    HW1 9800   6.057   6.708   5.273
 2967SOL    HW2 9801   6.036   6.822   5.158
 2968SOL     OW 9802   0.959   3.942   1.118
 2968SOL    HW1 9803   0.973   3.886   1.200
 2968SOL    HW2 9804   0.881   3.905   1.066
 2969SOL     OW 9805   4.524   2.515   4.773
 2969SOL    HW1 9806   4.526   2.446   4.846
 2969SOL    HW2 9807   4.442   2.504   4.718
 2970SOL     OW 9808   2.839   2.746   5.920
 2970SOL    HW1 9809   2.805   2.825   5.970
 2970SOL    HW2 9810   2.830   2.664   5.977
 2971SOL     OW 9811   4.910   3.325   6.786
 2971SOL    HW1 9812   4.994   3.275   6.806
 2971SOL    HW2 9813   4.907   3.408   6.842
 2972SOL     OW 9814   6.955   5.664   6.174
 2972SOL    HW1 9815   0.016   5.614   6.195
 2972SOL    HW2 9816   6.943   5.738   6.240
 2973SOL     OW 9817   5.700   1.194   4.514
 2973SOL    HW1 9818   5.732   1.285   4.487
 2973SOL    HW2 9819   5.771   1.148   4.567
 2974SOL     OW 9820   4.812   6.558   2.078
 2974SOL    HW1 9821   4.870   6.479   2.096
 2974SOL    HW2 9822   4.847   6.607   1.999
 2975SOL     OW 9823   6.509   3.696   4.731
 2975SOL    HW1 9824   6.591   3.744   4.700
 2975SOL    HW2 9825   6.502   3.704   4.830
 2976SOL     OW 9826   3.567   1.058   1.352
 2976SOL    HW1 9827   3.590   1.155   1.362
 2976SOL    HW2 9828   3.467   1.048   1.349
 2977SOL     OW 9829   1.230   0.651   1.781
 2977SOL    HW1 9830   1.274   0.736   1.751
 2977SOL    HW2 9831   1.167   0.620   1.710
 2978SOL     OW 9832   3.420   5.340   6.817
 2978SOL    HW1 9833   3.487   5.309   6.750
 2978SOL    HW2 9834   3.333   5.359   6.771
 2979SOL     OW 9835   2.856   1.121   4.912
 2979SOL    HW1 9836   2.769   1.154   4.877
 2979SOL    HW2 9837   2.906   1.196   4.955
 2980SOL     OW 9838   3.460   3.422   4.054
 2980SOL    HW1 9839   3.405   3.402   3.973
 2980SOL    HW2 9840   3.402   3.424   4.134
 2981SOL     OW 9841   2.727   1.445   1.333
 2981SOL    HW1 9842   2.658   1.419   1.401
 2981SOL    HW2 9843   2.810   1.475   1.380
 2982SOL     OW 9844   1.632   0.920   1.203
 2982SOL    HW1 9845   1.657   0.829   1.170
 2982SOL    HW2 9846   1.642   0.986   1.128
 2983SOL     OW 9847   6.463   3.662   5.758
 2983SOL    HW1 9848   6.427   3.752   5.781
 2983SOL    HW2 9849   6.516   3.626   5.835
 2984SOL     OW 9850   0.137   6.275   1.350
 2984SOL    HW1 9851   0.174   6.208   1.286
 2984SOL    HW2 9852   0.209   6.302   1.415
 2985SOL     OW 9853   6.228   0.462   6.538
 2985SOL    HW1 9854   6.214   0.553   6.577
 2985SOL    HW2 9855   6.151   0.439   6.479
 2986SOL     OW 9856   3.602   3.330   1.967
 2986SOL    HW1 9857   3.609   3.271   2.047
 2986SOL    HW2 9858   3.683   3.318   1.910
 2987SOL     OW 9859   2.414   5.666   4.526
 2987SOL    HW1 9860   2.469   5.694   4.447
 2987SOL    HW2 9861   2.466   5.601   4.582
 2988SOL     OW 9862   6.736   1.975   5.779
 2988SOL    HW1 9863   6.725   2.073   5.793
 2988SOL    HW2 9864   6.820   1.944   5.824
 2989SOL     OW 9865   5.785   3.573   4.720
 2989SOL    HW1 9866   5.708   3.522   4.680
 2989SOL    HW2 9867   5.754   3.620   4.802
 2990SOL     OW 9868   5.787   1.918   5.347
 2990SOL    HW1 9869   5.859   1.916   5.416
 2990SOL    HW2 9870   5.747   2.010   5.343
 2991SOL     OW 9871   0.089   3.185   0.185
 2991SOL    HW1 9872   7.019   3.183   0.147
 2991SOL    HW2 9873   0.086   3.164   0.282
 2992SOL     OW 9874   0.800   3.899   4.863
 2992SOL    HW1 9875   0.771   3.977   4.808
 2992SOL    HW2 9876   0.811   3.818   4.804
 2993SOL     OW 9877   3.457   4.776   1.161
 2993SOL    HW1 9878   3.396   4.829   1.103
 2993SOL    HW2 9879   3.424   4.778   1.256
 2994SOL     OW 9880   3.084   5.176   4.692
 2994SOL    HW1 9881   2.985   5.163   4.696
 2994SOL    HW2 9882   3.129   5.087   4.690
 2995SOL     OW 9883   4.532   0.602   1.890
 2995SOL    HW1 9884   4.630   0.586   1.885
 2995SOL    HW2 9885   4.506   0.668   1.819
 2996SOL     OW 9886   6.898   1.192   4.051
 2996SOL    HW1 9887   6.840   1.273   4.048
 2996SOL    HW2 9888   6.899   1.154   4.143
 2997SOL     OW 9889   4.881   6.125   4.076
 2997SOL    HW1 9890   4.920   6.194   4.137
 2997SOL    HW2 9891   4.785   6.110   4.099
 2998SOL     OW 9892   2.535   0.713   1.691
 2998SOL    HW1 9893   2.454   0.731   1.748
 2998SOL    HW2 9894   2.506   0.694   1.598
 2999SOL     OW 9895   2.072   4.278   0.949
 2999SOL    HW1 9896   2.096   4.375   0.951
 2999SOL    HW2 9897   2.120   4.229   1.022
 3000SOL     OW 9898   2.019   4.081   5.298
 3000SOL    HW1 9899   2.071   4.149   5.245
 3000SOL    HW2 9900   2.065   3.993   5.293
 3001SOL     OW 9901   4.144   0.755   6.591
 3001SOL    HW1 9902   4.202   0.793   6.519
 3001SOL    HW2 9903   4.064   0.813   6.603
 3002SOL     OW 9904   1.621   2.099   2.080
 3002SOL    HW1 9905   1.668   2.184   2.102
 3002SOL    HW2 9906   1.559   2.075   2.155
 3003SOL     OW 9907   1.593   6.074   1.057
 3003SOL    HW1 9908   1.654   6.124   0.996
 3003SOL    HW2 9909   1.500   6.075   1.020
 3004SOL     OW 9910   2.972   6.711   3.772
 3004SOL    HW1 9911   2.884   6.754   3.757
 3004SOL    HW2 9912   2.999   6.660   3.690
 3005SOL     OW 9913   2.670   1.806   0.819
 3005SOL    HW1 9914   2.739   1.864   0.861
 3005SOL    HW2 9915   2.677   1.713   0.856
 3006SOL     OW 9916   5.481   1.644   5.884
 3006SOL    HW1 9917   5.466   1.622   5.981
 3006SOL    HW2 9918   5.510   1.562   5.835
 3007SOL     OW 9919   6.163   5.345   6.410
 3007SOL    HW1 9920   6.129   5.266   6.358
 3007SOL    HW2 9921   6.263   5.338   6.419
 3008SOL     OW 9922   4.742   4.129   5.664
 3008SOL    HW1 9923   4.679   4.191   5.619
 3008SOL    HW2 9924   4.802   4.086   5.596
 3009SOL     OW 9925   5.619   3.230   2.117
 3009SOL    HW1 9926   5.554   3.297   2.080
 3009SOL    HW2 9927   5.682   3.276   2.180
 3010SOL     OW 9928   4.804   5.042   1.820
 3010SOL    HW1 9929   4.876   4.999   1.874
 3010SOL    HW2 9930   4.844   5.106   1.755
 3011SOL     OW 9931   5.928   6.999   0.509
 3011SOL    HW1 9932   5.927   0.014   0.416
 3011SOL    HW2 9933   6.019   7.012   0.549
 3012SOL     OW 9934   1.894   1.601   4.715
 3012SOL    HW1 9935   1.871   1.672   4.781
 3012SOL    HW2 9936   1.813   1.547   4.694
 3013SOL     OW 9937   0.869   4.982   5.752
 3013SOL    HW1 9938   0.861   4.882   5.750
 3013SOL    HW2 9939   0.920   5.009   5.834
 3014SOL     OW 9940   4.687   0.218   6.714
 3014SOL    HW1 9941   4.712   0.147   6.780
 3014SOL    HW2 9942   4.719   0.307   6.748
 3015SOL     OW 9943   2.573   0.489   5.926
 3015SOL    HW1 9944   2.638   0.488   5.850
 3015SOL    HW2 9945   2.615   0.448   6.007
 3016SOL     OW 9946   2.244   0.570   4.215
 3016SOL    HW1 9947   2.160   0.610   4.252
 3016SOL    HW2 9948   2.308   0.643   4.190
 3017SOL     OW 9949   1.377   5.720   0.589
 3017SOL    HW1 9950   1.332   5.643   0.545
 3017SOL    HW2 9951   1.349   5.726   0.685
 3018SOL     OW 9952   3.286   1.791   2.050
 3018SOL    HW1 9953   3.231   1.792   2.133
 3018SOL    HW2 9954   3.373   1.838   2.067
 3019SOL     OW 9955   1.757   6.862   5.944
 3019SOL    HW1 9956   1.678   6.916   5.971
 3019SOL    HW2 9957   1.840   6.918   5.951
 3020SOL     OW 9958   5.219   4.657   6.870
 3020SOL    HW1 9959   5.143   4.619   6.923
 3020SOL    HW2 9960   5.230   4.754   6.892
 3021SOL     OW 9961   4.868   0.183   4.480
 3021SOL    HW1 9962   4.850   0.173   4.578
 3021SOL    HW2 9963   4.922   0.105   4.448
 3022SOL     OW 9964   4.048   6.580   3.940
 3022SOL    HW1 9965   4.069   6.670   3.902
 3022SOL    HW2 9966   4.104   6.565   4.022
 3023SOL     OW 9967   5.618   4.433   5.055
 3023SOL    HW1 9968   5.606   4.404   4.960
 3023SOL    HW2 9969   5.638   4.354   5.112
 3024SOL     OW 9970   0.167   0.900   0.058
 3024SOL    HW1 9971   0.130   0.867   6.993
 3024SOL    HW2 9972   0.232   0.833   0.093
 3025SOL     OW 9973   4.238   5.205   0.753
 3025SOL    HW1 9974   4.217   5.180   0.847
 3025SOL    HW2 9975   4.157   5.193   0.696
 3026SOL     OW 9976   0.665   0.437   2.396
 3026SOL    HW1 9977   0.678   0.347   2.356
 3026SOL    HW2 9978   0.755   0.479   2.412
 3027SOL     OW 9979   4.196   6.999   0.597
 3027SOL    HW1 9980   4.279   6.991   0.542
 3027SOL    HW2 9981   4.211   6.959   0.687
 3028SOL     OW 9982   3.688   3.537   4.161
 3028SOL    HW1 9983   3.609   3.488   4.126
 3028SOL    HW2 9984   3.671   3.636   4.156
 3029SOL     OW 9985   6.708   3.356   4.928
 3029SOL    HW1 9986   6.715   3.283   4.860
 3029SOL    HW2 9987   6.612   3.381   4.941
 3030SOL     OW 9988   1.468   2.899   6.578
 3030SOL    HW1 9989   1.432   2.962   6.647
 3030SOL    HW2 9990   1.566   2.891   6.589
 3031SOL     OW 9991   0.679   5.586   1.023
 3031SOL    HW1 9992   0.601   5.558   0.967
 3031SOL    HW2 9993   0.764   5.566   0.975
 3032SOL     OW 9994   2.406   6.707   3.532
 3032SOL    HW1 9995   2.358   6.765   3.598
 3032SOL    HW2 9996   2.502   6.736   3.526
 3033SOL     OW 9997   1.438   1.396   6.224
 3033SOL    HW1 9998   1.488   1.457   6.285
 3033SOL    HW2 9999   1.497   1.370   6.147
 3034SOL     OW10000   5.305   3.151   3.527
 3034SOL    HW110001   5.337   3.063   3.561
 3034SOL    HW210002   5.256   3.138   3.441
 3035SOL     OW10003   0.080   3.529   6.713
 3035SOL    HW110004   0.146   3.513   6.786
 3035SOL    HW210005   0.099   3.617   6.670
 3036SOL     OW10006   3.458   2.643   5.634
 3036SOL    HW110007   3.421   2.665   5.544
 3036SOL    HW210008   3.388   2.658   5.704
 3037SOL     OW10009   1.005   5.192   6.832
 3037SOL    HW110010   1.081   5.152   6.780
 3037SOL    HW210011   0.942   5.120   6.861
 3038SOL     OW10012   5.855   5.230   6.045
 3038SOL    HW110013   5.881   5.239   6.140
 3038SOL    HW210014   5.799   5.309   6.018
 3039SOL     OW10015   5.593   3.840   5.888
 3039SOL    HW110016   5.498   3.811   5.887
 3039SOL    HW210017   5.607   3.912   5.821
 3040SOL     OW10018   4.217   6.224   5.752
 3040SOL    HW110019   4.209   6.207   5.851
 3040SOL    HW210020   4.128   6.253   5.717
 3041SOL     OW10021   1.343   5.174   6.167
 3041SOL    HW110022   1.290   5.256   6.145
 3041SOL    HW210023   1.336   5.155   6.265
 3042SOL     OW10024   0.145   4.782   4.021
 3042SOL    HW110025   0.165   4.797   3.924
 3042SOL    HW210026   0.101   4.863   4.059
 3043SOL     OW10027   2.919   4.517   1.605
 3043SOL    HW110028   2.895   4.514   1.702
 3043SOL    HW210029   3.012   4.482   1.593
 3044SOL     OW10030   3.857   3.418   4.374
 3044SOL    HW110031   3.905   3.342   4.329
 3044SOL    HW210032   3.789   3.456   4.311
 3045SOL     OW10033   5.458   1.410   2.177
 3045SOL    HW110034   5.549   1.373   2.194
 3045SOL    HW210035   5.390   1.349   2.219
 3046SOL     OW10036   5.822   6.318   1.537
 3046SOL    HW110037   5.826   6.409   1.496
 3046SOL    HW210038   5.826   6.326   1.637
 3047SOL     OW10039   6.194   1.386   4.135
 3047SOL    HW110040   6.134   1.314   4.169
 3047SOL    HW210041   6.284   1.348   4.116
 3048SOL     OW10042   4.390   4.832   1.831
 3048SOL    HW110043   4.474   4.790   1.867
 3048SOL    HW210044   4.327   4.761   1.801
 3049SOL     OW10045   0.867   2.203   2.384
 3049SOL    HW110046   0.880   2.293   2.343
 3049SOL    HW210047   0.947   2.180   2.440
 3050SOL     OW10048   3.088   2.164   6.227
 3050SOL    HW110049   3.069   2.215   6.312
 3050SOL    HW210050   3.134   2.079   6.249
 3051SOL     OW10051   2.282   5.013   5.949
 3051SOL    HW110052   2.276   5.041   5.853
 3051SOL    HW210053   2.230   5.076   6.006
 3052SOL     OW10054   6.738   6.719   3.855
 3052SOL    HW110055   6.716   6.796   3.795
 3052SOL    HW210056   6.694   6.733   3.944
 3053SOL     OW10057   0.672   4.297   6.939
 3053SOL    HW110058   0.624   4.321   6.855
 3053SOL    HW210059   0.632   4.213   6.977
 3054SOL     OW10060   5.541   6.970   2.617
 3054SOL    HW110061   5.624   6.951   2.670
 3054SOL    HW210062   5.562   0.010   2.543
 3055SOL     OW10063   5.436   6.294   0.467
 3055SOL    HW110064   5.532   6.273   0.484
 3055SOL    HW210065   5.428   6.366   0.399
 3056SOL     OW10066   4.336   1.505   0.140
 3056SOL    HW110067   4.413   1.487   0.079
 3056SOL    HW210068   4.370   1.538   0.228
 3057SOL     OW10069   6.096   3.975   3.399
 3057SOL    HW110070   6.097   4.027   3.484
 3057SOL    HW210071   6.044   3.891   3.412
 3058SOL     OW10072   0.192   5.622   6.288
 3058SOL    HW110073   0.238   5.579   6.365
 3058SOL    HW210074   0.251   5.618   6.207
 3059SOL     OW10075   1.237   2.469   2.117
 3059SOL    HW110076   1.330   2.435   2.107
 3059SOL    HW210077   1.176   2.393   2.139
 3060SOL     OW10078   5.696   4.030   3.907
 3060SOL    HW110079   5.653   4.103   3.960
 3060SOL    HW210080   5.625   3.969   3.871
 3061SOL     OW10081   5.514   6.893   3.339
 3061SOL    HW110082   5.525   6.801   3.377
 3061SOL    HW210083   5.526   6.961   3.412
 3062SOL     OW10084   4.088   5.142   1.321
 3062SOL    HW110085   4.051   5.125   1.229
 3062SOL    HW210086   4.016   5.128   1.389
 3063SOL     OW10087   6.755   4.718   1.264
 3063SOL    HW110088   6.731   4.623   1.244
 3063SOL    HW210089   6.707   4.748   1.346
 3064SOL     OW10090   4.458   2.036   6.554
 3064SOL    HW110091   4.447   1.959   6.617
 3064SOL    HW210092   4.495   2.115   6.603
 3065SOL     OW10093   5.864   1.306   6.414
 3065SOL    HW110094   5.889   1.228   6.473
 3065SOL    HW210095   5.822   1.377   6.470
 3066SOL     OW10096   5.362   6.988   5.415
 3066SOL    HW110097   5.440   6.933   5.446
 3066SOL    HW210098   5.311   7.021   5.495
 3067SOL     OW10099   1.365   1.844   4.615
 3067SOL    HW110100   1.458   1.841   4.578
 3067SOL    HW210101   1.367   1.816   4.711
 3068SOL     OW10102   6.213   0.083   0.632
 3068SOL    HW110103   6.224   0.180   0.654
 3068SOL    HW210104   6.196   0.032   0.717
 3069SOL     OW10105   5.313   6.272   4.156
 3069SOL    HW110106   5.281   6.300   4.246
 3069SOL    HW210107   5.369   6.345   4.116
 3070SOL     OW10108   2.575   1.256   1.150
 3070SOL    HW110109   2.620   1.279   1.063
 3070SOL    HW210110   2.624   1.299   1.225
 3071SOL     OW10111   6.055   4.519   5.025
 3071SOL    HW110112   6.030   4.425   5.006
 3071SOL    HW210113   5.980   4.580   4.999
 3072SOL     OW10114   1.918   6.591   5.886
 3072SOL    HW110115   1.990   6.659   5.880
 3072SOL    HW210116   1.853   6.604   5.811
 3073SOL     OW10117   0.077   5.809   2.276
 3073SOL    HW110118   0.171   5.819   2.241
 3073SOL    HW210119   0.042   5.719   2.252
 3074SOL     OW10120   3.336   2.768   1.814
 3074SOL    HW110121   3.378   2.746   1.726
 3074SOL    HW210122   3.240   2.793   1.799
 3075SOL     OW10123   3.992   5.087   1.879
 3075SOL    HW110124   4.025   5.107   1.787
 3075SOL    HW210125   3.904   5.040   1.873
 3076SOL     OW10126   1.012   1.091   4.374
 3076SOL    HW110127   0.940   1.127   4.316
 3076SOL    HW210128   1.010   0.991   4.371
 3077SOL     OW10129   6.758   3.464   1.550
 3077SOL    HW110130   6.786   3.458   1.454
 3077SOL    HW210131   6.667   3.502   1.557
 3078SOL     OW10132   0.075   3.778   2.178
 3078SOL    HW110133   0.105   3.684   2.196
 3078SOL    HW210134   0.028   3.814   2.259
 3079SOL     OW10135   1.736   4.315   4.227
 3079SOL    HW110136   1.824   4.319   4.273
 3079SOL    HW210137   1.667   4.280   4.290
 3080SOL     OW10138   4.206   5.024   1.679
 3080SOL    HW110139   4.245   5.101   1.629
 3080SOL    HW210140   4.201   4.944   1.620
 3081SOL     OW10141   2.420   3.580   5.834
 3081SOL    HW110142   2.361   3.661   5.836
 3081SOL    HW210143   2.374   3.504   5.880
 3082SOL     OW10144   5.252   4.187   4.876
 3082SOL    HW110145   5.337   4.142   4.904
 3082SOL    HW210146   5.232   4.262   4.939
 3083SOL     OW10147   3.533   5.767   2.068
 3083SOL    HW110148   3.573   5.719   1.990
 3083SOL    HW210149   3.452   5.717   2.100
 3084SOL     OW10150   6.915   5.362   3.556
 3084SOL    HW110151   6.971   5.436   3.519
 3084SOL    HW210152   6.973   5.300   3.610
 3085SOL     OW10153   5.785   5.446   0.043
 3085SOL    HW110154   5.704   5.396   0.012
 3085SOL    HW210155   5.864   5.385   0.043
 3086SOL     OW10156   6.053   6.252   6.455
 3086SOL    HW110157   6.031   6.348   6.438
 3086SOL    HW210158   6.124   6.246   6.525
 3087SOL     OW10159   3.156   0.033   2.427
 3087SOL    HW110160   3.153   0.104   2.497
 3087SOL    HW210161   3.232   6.993   2.446
 3088SOL     OW10162   2.168   3.850   5.260
 3088SOL    HW110163   2.201   3.786   5.329
 3088SOL    HW210164   2.239   3.917   5.239
 3089SOL     OW10165   4.216   5.578   6.066
 3089SOL    HW110166   4.179   5.545   5.980
 3089SOL    HW210167   4.165   5.658   6.096
 3090SOL     OW10168   0.415   2.670   2.239
 3090SOL    HW110169   0.336   2.709   2.191
 3090SOL    HW210170   0.497   2.719   2.211
 3091SOL     OW10171   1.118   2.814   0.134
 3091SOL    HW110172   1.093   2.783   0.042
 3091SOL    HW210173   1.035   2.824   0.189
 3092SOL     OW10174   6.151   1.401   2.298
 3092SOL    HW110175   6.204   1.324   2.263
 3092SOL    HW210176   6.068   1.366   2.343
 3093SOL     OW10177   6.414   5.071   6.467
 3093SOL    HW110178   6.372   5.038   6.551
 3093SOL    HW210179   6.360   5.042   6.388
 3094SOL     OW10180   2.159   1.273   6.306
 3094SOL    HW110181   2.109   1.260   6.221
 3094SOL    HW210182   2.250   1.233   6.298
 3095SOL     OW10183   1.501   3.842   4.838
 3095SOL    HW110184   1.440   3.763   4.844
 3095SOL    HW210185   1.575   3.823   4.774
 3096SOL     OW10186   1.564   3.669   3.926
 3096SOL    HW110187   1.635   3.708   3.985
 3096SOL    HW210188   1.497   3.622   3.982
 3097SOL     OW10189   5.517   3.097   5.055
 3097SOL    HW110190   5.534   3.005   5.091
 3097SOL    HW210191   5.574   3.112   4.974
 3098SOL     OW10192   1.963   3.055   2.412
 3098SOL    HW110193   1.947   3.154   2.420
 3098SOL    HW210194   1.881   3.006   2.442
 3099SOL     OW10195   0.498   0.084   5.205
 3099SOL    HW110196   0.496   7.009   5.225
 3099SOL    HW210197   0.495   0.136   5.291
 3100SOL     OW10198   5.456   4.793   1.903
 3100SOL    HW110199   5.467   4.884   1.864
 3100SOL    HW210200   5.389   4.741   1.849
 3101SOL     OW10201   5.205   0.148   4.997
 3101SOL    HW110202   5.250   0.215   5.058
 3101SOL    HW210203   5.256   0.062   5.000
 3102SOL     OW10204   6.008   4.850   1.848
 3102SOL    HW110205   5.930   4.911   1.862
 3102SOL    HW210206   5.991   4.763   1.895
 3103SOL     OW10207   2.157   2.292   1.647
 3103SOL    HW110208   2.218   2.369   1.627
 3103SOL    HW210209   2.196   2.208   1.610
 3104SOL     OW10210   5.628   2.535   5.125
 3104SOL    HW110211   5.564   2.482   5.069
 3104SOL    HW210212   5.601   2.529   5.221
 3105SOL     OW10213   5.289   3.826   0.521
 3105SOL    HW110214   5.387   3.830   0.503
 3105SOL    HW210215   5.267   3.742   0.571
 3106SOL     OW10216   5.413   1.727   5.340
 3106SOL    HW110217   5.364   1.650   5.380
 3106SOL    HW210218   5.401   1.726   5.240
 3107SOL     OW10219   3.630   2.096   5.018
 3107SOL    HW110220   3.602   2.151   5.097
 3107SOL    HW210221   3.730   2.093   5.014
 3108SOL     OW10222   2.096   3.873   3.435
 3108SOL    HW110223   2.021   3.811   3.456
 3108SOL    HW210224   2.093   3.897   3.338
 3109SOL     OW10225   6.809   6.391   3.279
 3109SOL    HW110226   6.823   6.292   3.275
 3109SOL    HW210227   6.896   6.436   3.299
 3110SOL     OW10228   1.058   5.431   3.564
 3110SOL    HW110229   1.049   5.342   3.608
 3110SOL    HW210230   0.969   5.476   3.560
 3111SOL     OW10231   6.213   3.941   3.945
 3111SOL    HW110232   6.296   3.982   3.907
 3111SOL    HW210233   6.133   3.989   3.910
 3112SOL     OW10234   4.089   0.831   0.179
 3112SOL    HW110235   3.993   0.860   0.183
 3112SOL    HW210236   4.148   0.912   0.178
 3113SOL     OW10237   1.543   6.819   3.568
 3113SOL    HW110238   1.472   6.886   3.547
 3113SOL    HW210239   1.571   6.773   3.483
 3114SOL     OW10240   4.654   6.758   6.094
 3114SOL    HW110241   4.677   6.673   6.048
 3114SOL    HW210242   4.555   6.761   6.111
 3115SOL     OW10243   4.892   5.531   5.061
 3115SOL    HW110244   4.983   5.557   5.030
 3115SOL    HW210245   4.870   5.440   5.027
 3116SOL     OW10246   0.772   1.440   6.154
 3116SOL    HW110247   0.828   1.432   6.072
 3116SOL    HW210248   0.798   1.522   6.205
 3117SOL     OW10249   4.098   0.131   1.302
 3117SOL    HW110250   4.024   0.106   1.239
 3117SOL    HW210251   4.095   0.072   1.382
 3118SOL     OW10252   1.404   1.887   3.609
 3118SOL    HW110253   1.438   1.875   3.702
 3118SOL    HW210254   1.454   1.962   3.565
 3119SOL     OW10255   5.129   5.660   4.339
 3119SOL    HW110256   5.228   5.651   4.348
 3119SOL    HW210257   5.107   5.728   4.270
 3120SOL     OW10258   2.276   5.308   6.702
 3120SOL    HW110259   2.345   5.268   6.763
 3120SOL    HW210260   2.290   5.407   6.697
 3121SOL     OW10261   4.291   2.390   4.272
 3121SOL    HW110262   4.222   2.317   4.272
 3121SOL    HW210263   4.296   2.431   4.180
 3122SOL     OW10264   5.535   4.986   5.974
 3122SOL    HW110265   5.519   5.083   5.995
 3122SOL    HW210266   5.625   4.975   5.933
 3123SOL     OW10267   1.777   1.892   3.104
 3123SOL    HW110268   1.763   1.814   3.166
 3123SOL    HW210269   1.860   1.877   3.051
 3124SOL     OW10270   4.386   0.049   5.238
 3124SOL    HW110271   4.484   0.061   5.222
 3124SOL    HW210272   4.335   0.073   5.156
 3125SOL     OW10273   1.638   1.363   6.038
 3125SOL    HW110274   1.630   1.359   5.938
 3125SOL    HW210275   1.669   1.455   6.065
 3126SOL     OW10276   5.013   4.641   5.709
 3126SOL    HW110277   5.047   4.636   5.803
 3126SOL    HW210278   5.089   4.622   5.646
 3127SOL     OW10279   6.903   1.764   4.980
 3127SOL    HW110280   6.878   1.696   5.050
 3127SOL    HW210281   6.867   1.853   5.006
 3128SOL     OW10282   3.156   0.095   0.488
 3128SOL    HW110283   3.236   0.080   0.546
 3128SOL    HW210284   3.073   0.083   0.542
 3129SOL     OW10285   4.553   4.038   0.202
 3129SOL    HW110286   4.589   4.082   0.120
 3129SOL    HW210287   4.454   4.046   0.203
 3130SOL     OW10288   0.361   5.970   2.301
 3130SOL    HW110289   0.458   5.987   2.319
 3130SOL    HW210290   0.308   5.990   2.383
 3131SOL     OW10291   6.518   3.956   3.060
 3131SOL    HW110292   6.592   3.905   3.104
 3131SOL    HW210293   6.529   3.952   2.960
 3132SOL     OW10294   4.950   3.848   0.372
 3132SOL    HW110295   4.855   3.850   0.341
 3132SOL    HW210296   4.998   3.771   0.330
 3133SOL     OW10297   5.387   0.114   4.370
 3133SOL    HW110298   5.359   0.033   4.318
 3133SOL    HW210299   5.484   0.131   4.354
 3134SOL     OW10300   5.602   4.837   2.543
 3134SOL    HW110301   5.554   4.907   2.595
 3134SOL    HW210302   5.700   4.840   2.565
 3135SOL     OW10303   3.618   6.159   6.793
 3135SOL    HW110304   3.580   6.075   6.831
 3135SOL    HW210305   3.707   6.140   6.752
 3136SOL     OW10306   6.148   0.500   3.301
 3136SOL    HW110307   6.082   0.566   3.266
 3136SOL    HW210308   6.237   0.513   3.257
 3137SOL     OW10309   4.160   5.837   0.106
 3137SOL    HW110310   4.116   5.821   0.017
 3137SOL    HW210311   4.259   5.844   0.093
 3138SOL     OW10312   6.532   6.348   5.175
 3138SOL    HW110313   6.576   6.433   5.201
 3138SOL    HW210314   6.434   6.352   5.198
 3139SOL     OW10315   2.178   5.115   1.414
 3139SOL    HW110316   2.175   5.040   1.348
 3139SOL    HW210317   2.132   5.086   1.498
 3140SOL     OW10318   6.320   5.816   0.049
 3140SOL    HW110319   6.271   5.763   0.118
 3140SOL    HW210320   6.378   5.755   7.017
 3141SOL     OW10321   5.985   1.575   6.706
 3141SOL    HW110322   5.983   1.621   6.618
 3141SOL    HW210323   6.047   1.623   6.768
 3142SOL     OW10324   4.661   0.809   3.721
 3142SOL    HW110325   4.561   0.810   3.727
 3142SOL    HW210326   4.692   0.885   3.665
 3143SOL     OW10327   6.749   1.582   1.295
 3143SOL    HW110328   6.656   1.560   1.324
 3143SOL    HW210329   6.750   1.600   1.197
 3144SOL     OW10330   3.420   4.527   0.278
 3144SOL    HW110331   3.388   4.486   0.363
 3144SOL    HW210332   3.348   4.584   0.240
 3145SOL     OW10333   0.408   5.585   0.167
 3145SOL    HW110334   0.440   5.656   0.104
 3145SOL    HW210335   0.309   5.590   0.175
 3146SOL     OW10336   6.777   1.976   4.630
 3146SOL    HW110337   6.797   2.016   4.720
 3146SOL    HW210338   6.685   2.002   4.602
 3147SOL     OW10339   3.954   0.108   0.158
 3147SOL    HW110340   3.891   0.186   0.166
 3147SOL    HW210341   4.033   0.123   0.218
 3148SOL     OW10342   6.854   4.709   1.695
 3148SOL    HW110343   6.772   4.730   1.641
 3148SOL    HW210344   6.867   4.610   1.697
 3149SOL     OW10345   3.545   2.852   0.159
 3149SOL    HW110346   3.504   2.870   0.248
 3149SOL    HW210347   3.515   2.921   0.093
 3150SOL     OW10348   0.118   0.056   5.946
 3150SOL    HW110349   0.055   0.080   6.021
 3150SOL    HW210350   0.070   0.061   5.859
 3151SOL     OW10351   6.890   0.916   5.584
 3151SOL    HW110352   6.881   1.015   5.572
 3151SOL    HW210353   6.976   0.885   5.544
 3152SOL     OW10354   2.098   2.402   5.763
 3152SOL    HW110355   2.173   2.354   5.809
 3152SOL    HW210356   2.013   2.390   5.814
 3153SOL     OW10357   5.271   5.649   2.026
 3153SOL    HW110358   5.312   5.730   2.067
 3153SOL    HW210359   5.301   5.568   2.076
 3154SOL     OW10360   4.084   1.753   0.711
 3154SOL    HW110361   4.170   1.792   0.677
 3154SOL    HW210362   4.091   1.653   0.711
 3155SOL     OW10363   0.815   4.967   6.829
 3155SOL    HW110364   0.723   4.952   6.793
 3155SOL    HW210365   0.876   4.894   6.797
 3156SOL     OW10366   4.554   4.563   0.988
 3156SOL    HW110367   4.548   4.581   0.890
 3156SOL    HW210368   4.610   4.482   1.004
 3157SOL     OW10369   1.052   0.780   4.835
 3157SOL    HW110370   1.085   0.857   4.888
 3157SOL    HW210371   1.079   0.694   4.880
 3158SOL     OW10372   2.386   0.877   5.595
 3158SOL    HW110373   2.394   0.976   5.602
 3158SOL    HW210374   2.461   0.834   5.645
 3159SOL     OW10375   4.942   6.994   1.373
 3159SOL    HW110376   5.024   6.938   1.364
 3159SOL    HW210377   4.956   0.041   1.444
 3160SOL     OW10378   1.891   0.899   5.383
 3160SOL    HW110379   1.917   0.995   5.399
 3160SOL    HW210380   1.869   0.887   5.287
 3161SOL     OW10381   1.733   2.938   2.085
 3161SOL    HW110382   1.718   2.918   2.182
 3161SOL    HW210383   1.796   2.870   2.047
 3162SOL     OW10384   1.288   5.502   1.768
 3162SOL    HW110385   1.307   5.600   1.777
 3162SOL    HW210386   1.190   5.486   1.784
 3163SOL     OW10387   4.588   4.347   0.284
 3163SOL    HW110388   4.595   4.316   0.189
 3163SOL    HW210389   4.664   4.308   0.337
 3164SOL     OW10390   2.388   6.816   4.817
 3164SOL    HW110391   2.435   6.753   4.878
 3164SOL    HW210392   2.440   6.825   4.732
 3165SOL     OW10393   1.224   5.911   6.262
 3165SOL    HW110394   1.199   5.899   6.166
 3165SOL    HW210395   1.276   5.996   6.272
 3166SOL     OW10396   4.402   1.345   5.029
 3166SOL    HW110397   4.352   1.312   4.949
 3166SOL    HW210398   4.483   1.396   4.999
 3167SOL     OW10399   5.900   3.010   1.261
 3167SOL    HW110400   5.986   2.991   1.308
 3167SOL    HW210401   5.903   3.103   1.223
 3168SOL     OW10402   4.800   1.128   0.386
 3168SOL    HW110403   4.872   1.192   0.415
 3168SOL    HW210404   4.842   1.041   0.359
 3169SOL     OW10405   1.389   3.899   1.947
 3169SOL    HW110406   1.337   3.818   1.977
 3169SOL    HW210407   1.325   3.969   1.917
 3170SOL     OW10408   2.148   3.980   3.676
 3170SOL    HW110409   2.059   3.969   3.721
 3170SOL    HW210410   2.147   3.932   3.588
 3171SOL     OW10411   5.317   1.650   4.427
 3171SOL    HW110412   5.365   1.731   4.460
 3171SOL    HW210413   5.237   1.678   4.374
 3172SOL     OW10414   5.743   4.334   1.572
 3172SOL    HW110415   5.825   4.370   1.616
 3172SOL    HW210416   5.665   4.392   1.595
 3173SOL     OW10417   5.173   2.334   0.330
 3173SOL    HW110418   5.094   2.377   0.373
 3173SOL    HW210419   5.182   2.240   0.362
 3174SOL     OW10420   3.433   2.456   6.606
 3174SOL    HW110421   3.489   2.419   6.681
 3174SOL    HW210422   3.392   2.380   6.555
 3175SOL     OW10423   5.565   6.850   5.523
 3175SOL    HW110424   5.564   6.890   5.615
 3175SOL    HW210425   5.606   6.759   5.527
 3176SOL     OW10426   0.036   5.126   3.606
 3176SOL    HW110427   0.020   5.031   3.577
 3176SOL    HW210428   0.027   5.132   3.705
 3177SOL     OW10429   5.317   2.985   3.907
 3177SOL    HW110430   5.223   2.963   3.934
 3177SOL    HW210431   5.327   2.976   3.808
 3178SOL     OW10432   0.847   0.851   2.237
 3178SOL    HW110433   0.758   0.896   2.239
 3178SOL    HW210434   0.917   0.916   2.208
 3179SOL     OW10435   0.729   2.461   2.276
 3179SOL    HW110436   0.720   2.546   2.224
 3179SOL    HW210437   0.769   2.480   2.365
 3180SOL     OW10438   0.175   6.238   6.830
 3180SOL    HW110439   0.151   6.306   6.899
 3180SOL    HW210440   0.096   6.179   6.814
 3181SOL     OW10441   0.810   6.448   5.837
 3181SOL    HW110442   0.737   6.477   5.776
 3181SOL    HW210443   0.898   6.460   5.792
 3182SOL     OW10444   2.014   0.231   1.045
 3182SOL    HW110445   1.976   0.322   1.028
 3182SOL    HW210446   2.059   0.229   1.134
 3183SOL     OW10447   4.069   3.415   1.014
 3183SOL    HW110448   4.103   3.386   1.103
 3183SOL    HW210449   3.970   3.413   1.013
 3184SOL     OW10450   6.265   1.650   4.231
 3184SOL    HW110451   6.200   1.575   4.223
 3184SOL    HW210452   6.320   1.638   4.313
 3185SOL     OW10453   0.863   6.093   6.875
 3185SOL    HW110454   0.844   6.121   6.780
 3185SOL    HW210455   0.952   6.050   6.880
 3186SOL     OW10456   0.172   2.802   6.554
 3186SOL    HW110457   0.229   2.855   6.616
 3186SOL    HW210458   0.200   2.706   6.557
 3187SOL     OW10459   5.426   6.768   2.529
 3187SOL    HW110460   5.478   6.847   2.563
 3187SOL    HW210461   5.401   6.709   2.607
 3188SOL     OW10462   1.978   6.533   0.755
 3188SOL    HW110463   1.950   6.595   0.681
 3188SOL    HW210464   1.915   6.543   0.832
 3189SOL     OW10465   3.194   1.548   5.663
 3189SOL    HW110466   3.197   1.636   5.616
 3189SOL    HW210467   3.151   1.559   5.753
 3190SOL     OW10468   6.003   6.485   4.287
 3190SOL    HW110469   6.002   6.584   4.274
 3190SOL    HW210470   5.912   6.448   4.265
 3191SOL     OW10471   3.718   5.653   1.848
 3191SOL    HW110472   3.664   5.603   1.780
 3191SOL    HW210473   3.800   5.600   1.871
 3192SOL     OW10474   5.426   0.896   2.929
 3192SOL    HW110475   5.335   0.854   2.927
 3192SOL    HW210476   5.446   0.938   2.841
 3193SOL     OW10477   3.399   6.313   4.756
 3193SOL    HW110478   3.339   6.393   4.753
 3193SOL    HW210479   3.490   6.341   4.788
 3194SOL     OW10480   1.612   0.153   6.400
 3194SOL    HW110481   1.673   0.108   6.464
 3194SOL    HW210482   1.536   0.092   6.378
 3195SOL     OW10483   1.153   0.478   1.110
 3195SOL    HW110484   1.234   0.472   1.167
 3195SOL    HW210485   1.091   0.548   1.146
 3196SOL     OW10486   5.759   6.971   2.783
 3196SOL    HW110487   5.791   6.991   2.876
 3196SOL    HW210488   5.819   7.015   2.717
 3197SOL     OW10489   2.690   0.640   6.182
 3197SOL    HW110490   2.603   0.613   6.224
 3197SOL    HW210491   2.764   0.585   6.220
 3198SOL     OW10492   5.646   2.499   3.767
 3198SOL    HW110493   5.628   2.596   3.751
 3198SOL    HW210494   5.673   2.485   3.862
 3199SOL     OW10495   4.999   3.545   3.075
 3199SOL    HW110496   4.990   3.498   3.163
 3199SOL    HW210497   5.095   3.567   3.059
 3200SOL     OW10498   5.782   3.469   4.241
 3200SOL    HW110499   5.826   3.509   4.321
 3200SOL    HW210500   5.850   3.450   4.171
 3201SOL     OW10501   6.140   4.173   2.167
 3201SOL    HW110502   6.137   4.101   2.236
 3201SOL    HW210503   6.189   4.140   2.086
 3202SOL     OW10504   2.730   3.507   6.683
 3202SOL    HW110505   2.755   3.426   6.629
 3202SOL    HW210506   2.784   3.585   6.653
 3203SOL     OW10507   3.229   6.600   2.024
 3203SOL    HW110508   3.200   6.578   1.930
 3203SOL    HW210509   3.319   6.644   2.022
 3204SOL     OW10510   3.790   0.806   4.066
 3204SOL    HW110511   3.733   0.887   4.052
 3204SOL    HW210512   3.872   0.813   4.008
 3205SOL     OW10513   4.996   3.211   5.859
 3205SOL    HW110514   4.965   3.130   5.810
 3205SOL    HW210515   4.920   3.274   5.873
 3206SOL     OW10516   2.599   4.151   1.304
 3206SOL    HW110517   2.647   4.223   1.354
 3206SOL    HW210518   2.598   4.067   1.360
 3207SOL     OW10519   2.263   5.341   4.395
 3207SOL    HW110520   2.337   5.393   4.354
 3207SOL    HW210521   2.240   5.263   4.336
 3208SOL     OW10522   6.265   4.847   6.294
 3208SOL    HW110523   6.351   4.797   6.298
 3208SOL    HW210524   6.202   4.799   6.233
 3209SOL     OW10525   4.931   6.485   6.544
 3209SOL    HW110526   4.893   6.400   6.506
 3209SOL    HW210527   5.022   6.468   6.580
 3210SOL     OW10528   5.093   5.722   1.706
 3210SOL    HW110529   5.003   5.732   1.748
 3210SOL    HW210530   5.123   5.627   1.714
 3211SOL     OW10531   1.938   6.400   6.172
 3211SOL    HW110532   1.848   6.437   6.151
 3211SOL    HW210533   1.965   6.334   6.101
 3212SOL     OW10534   2.755   6.550   3.318
 3212SOL    HW110535   2.702   6.566   3.235
 3212SOL    HW210536   2.791   6.637   3.352
 3213SOL     OW10537   1.338   6.871   6.126
 3213SOL    HW110538   1.279   6.941   6.167
 3213SOL    HW210539   1.349   6.795   6.190
 3214SOL     OW10540   4.181   0.504   2.698
 3214SOL    HW110541   4.106   0.525   2.636
 3214SOL    HW210542   4.158   0.537   2.790
 3215SOL     OW10543   2.242   3.107   1.653
 3215SOL    HW110544   2.285   3.024   1.618
 3215SOL    HW210545   2.225   3.097   1.751
 3216SOL     OW10546   5.834   4.944   1.236
 3216SOL    HW110547   5.877   4.945   1.145
 3216SOL    HW210548   5.887   5.002   1.298
 3217SOL     OW10549   7.015   5.834   2.629
 3217SOL    HW110550   7.008   5.779   2.546
 3217SOL    HW210551   6.980   5.926   2.611
 3218SOL     OW10552   5.647   1.298   2.566
 3218SOL    HW110553   5.738   1.277   2.602
 3218SOL    HW210554   5.626   1.235   2.491
 3219SOL     OW10555   6.273   1.816   4.884
 3219SOL    HW110556   6.259   1.750   4.811
 3219SOL    HW210557   6.188   1.866   4.901
 3220SOL     OW10558   0.026   4.301   5.620
 3220SOL    HW110559   0.048   4.393   5.588
 3220SOL    HW210560   6.952   4.282   5.602
 3221SOL     OW10561   3.549   1.729   2.268
 3221SOL    HW110562   3.505   1.658   2.213
 3221SOL    HW210563   3.634   1.694   2.305
 3222SOL     OW10564   3.048   1.099   3.292
 3222SOL    HW110565   3.133   1.085   3.241
 3222SOL    HW210566   2.970   1.071   3.236
 3223SOL     OW10567   1.431   5.117   0.421
 3223SOL    HW110568   1.402   5.174   0.344
 3223SOL    HW210569   1.361   5.047   0.437
 3224SOL     OW10570   4.400   1.935   4.095
 3224SOL    HW110571   4.334   1.863   4.118
 3224SOL    HW210572   4.370   2.021   4.135
 3225SOL     OW10573   4.706   1.053   4.693
 3225SOL    HW110574   4.763   1.088   4.768
 3225SOL    HW210575   4.726   0.956   4.679
 3226SOL     OW10576   6.003   0.727   0.502
 3226SOL    HW110577   5.928   0.768   0.555
 3226SOL    HW210578   6.000   0.762   0.408
 3227SOL     OW10579   5.569   4.478   5.346
 3227SOL    HW110580   5.507   4.399   5.342
 3227SOL    HW210581   5.663   4.447   5.341
 3228SOL     OW10582   2.872   4.558   0.628
 3228SOL    HW110583   2.773   4.545   0.633
 3228SOL    HW210584   2.910   4.559   0.721
 3229SOL     OW10585   1.805   2.049   0.640
 3229SOL    HW110586   1.867   2.040   0.562
 3229SOL    HW210587   1.843   2.112   0.707
 3230SOL     OW10588   3.156   6.024   5.414
 3230SOL    HW110589   3.161   6.123   5.396
 3230SOL    HW210590   3.109   6.008   5.500
 3231SOL     OW10591   1.758   2.130   3.011
 3231SOL    HW110592   1.759   2.040   3.053
 3231SOL    HW210593   1.682   2.184   3.048
 3232SOL     OW10594   3.568   4.914   4.076
 3232SOL    HW110595   3.593   4.869   3.990
 3232SOL    HW210596   3.525   5.002   4.056
 3233SOL     OW10597   1.409   0.200   0.028
 3233SOL    HW110598   1.424   0.261   6.972
 3233SOL    HW210599   1.322   0.224   0.072
 3234SOL     OW10600   2.912   3.430   0.760
 3234SOL    HW110601   2.839   3.480   0.714
 3234SOL    HW210602   2.989   3.418   0.698
 3235SOL     OW10603   0.444   0.708   3.302
 3235SOL    HW110604   0.394   0.621   3.310
 3235SOL    HW210605   0.510   0.715   3.378
 3236SOL     OW10606   4.870   0.892   0.265
 3236SOL    HW110607   4.968   0.871   0.270
 3236SOL    HW210608   4.823   0.847   0.341
 3237SOL     OW10609   5.908   1.551   5.446
 3237SOL    HW110610   5.894   1.515   5.539
 3237SOL    HW210611   5.821   1.585   5.411
 3238SOL     OW10612   6.361   4.709   1.485
 3238SOL    HW110613   6.280   4.757   1.519
 3238SOL    HW210614   6.347   4.685   1.389
 3239SOL     OW10615   6.970   0.614   5.154
 3239SOL    HW110616   6.898   0.569   5.207
 3239SOL    HW210617   6.932   0.694   5.108
 3240SOL     OW10618   6.919   0.720   0.203
 3240SOL    HW110619   6.929   0.731   0.302
 3240SOL    HW210620   6.835   0.763   0.173
 3241SOL     OW10621   6.783   3.138   5.416
 3241SOL    HW110622   6.695   3.184   5.407
 3241SOL    HW210623   6.795   3.109   5.511
 3242SOL     OW10624   6.745   3.861   4.667
 3242SOL    HW110625   6.765   3.874   4.570
 3242SOL    HW210626   6.823   3.818   4.712
 3243SOL     OW10627   5.858   4.566   4.165
 3243SOL    HW110628   5.843   4.481   4.215
 3243SOL    HW210629   5.919   4.550   4.088
 3244SOL     OW10630   4.906   6.649   0.272
 3244SOL    HW110631   4.872   6.716   0.206
 3244SOL    HW210632   4.962   6.694   0.341
 3245SOL     OW10633   3.576   6.929   4.957
 3245SOL    HW110634   3.578   6.850   4.896
 3245SOL    HW210635   3.488   6.932   5.005
 3246SOL     OW10636   6.784   0.183   2.701
 3246SOL    HW110637   6.861   0.244   2.684
 3246SOL    HW210638   6.808   0.090   2.673
 3247SOL     OW10639   1.311   4.181   3.595
 3247SOL    HW110640   1.221   4.212   3.626
 3247SOL    HW210641   1.314   4.180   3.495
 3248SOL     OW10642   5.324   2.339   3.427
 3248SOL    HW110643   5.257   2.365   3.497
 3248SOL    HW210644   5.416   2.354   3.462
 3249SOL     OW10645   3.209   2.967   3.524
 3249SOL    HW110646   3.202   2.971   3.425
 3249SOL    HW210647   3.299   2.933   3.550
 3250SOL     OW10648   4.547   5.715   2.893
 3250SOL    HW110649   4.449   5.717   2.909
 3250SOL    HW210650   4.566   5.731   2.796
 3251SOL     OW10651   2.987   2.191   2.497
 3251SOL    HW110652   2.953   2.115   2.552
 3251SOL    HW210653   2.936   2.196   2.411
 3252SOL     OW10654   1.848   1.495   3.364
 3252SOL    HW110655   1.787   1.572   3.344
 3252SOL    HW210656   1.943   1.525   3.352
 3253SOL     OW10657   6.260   2.923   0.075
 3253SOL    HW110658   6.207   3.008   0.066
 3253SOL    HW210659   6.265   2.877   7.009
 3254SOL     OW10660   6.706   6.514   1.523
 3254SOL    HW110661   6.639   6.509   1.596
 3254SOL    HW210662   6.741   6.607   1.515
 3255SOL     OW10663   3.968   6.123   1.622
 3255SOL    HW110664   4.025   6.173   1.687
 3255SOL    HW210665   3.961   6.027   1.650
 3256SOL     OW10666   5.203   2.554   0.904
 3256SOL    HW110667   5.172   2.537   0.997
 3256SOL    HW210668   5.292   2.511   0.890
 3257SOL     OW10669   2.962   1.543   2.753
 3257SOL    HW110670   3.014   1.627   2.772
 3257SOL    HW210671   2.864   1.563   2.761
 3258SOL     OW10672   1.316   5.534   4.384
 3258SOL    HW110673   1.395   5.481   4.354
 3258SOL    HW210674   1.233   5.480   4.369
 3259SOL     OW10675   5.424   3.898   4.168
 3259SOL    HW110676   5.428   3.816   4.112
 3259SOL    HW210677   5.469   3.881   4.256
 3260SOL     OW10678   1.504   4.784   3.266
 3260SOL    HW110679   1.552   4.697   3.260
 3260SOL    HW210680   1.437   4.780   3.341
 3261SOL     OW10681   5.637   0.290   4.305
 3261SOL    HW110682   5.717   0.343   4.334
 3261SOL    HW210683   5.668   0.203   4.265
 3262SOL     OW10684   3.031   1.548   3.499
 3262SOL    HW110685   2.969   1.506   3.566
 3262SOL    HW210686   3.020   1.503   3.410
 3263SOL     OW10687   6.812   0.993   1.935
 3263SOL    HW110688   6.811   0.928   1.859
 3263SOL    HW210689   6.906   1.023   1.953
 3264SOL     OW10690   1.679   4.924   0.081
 3264SOL    HW110691   1.749   4.987   0.046
 3264SOL    HW210692   1.654   4.950   0.174
 3265SOL     OW10693   0.035   5.463   6.567
 3265SOL    HW110694   6.991   5.421   6.505
 3265SOL    HW210695   0.113   5.401   6.578
 3266SOL     OW10696   3.593   4.868   6.063
 3266SOL    HW110697   3.537   4.811   6.003
 3266SOL    HW210698   3.666   4.910   6.010
 3267SOL     OW10699   3.843   6.653   0.809
 3267SOL    HW110700   3.895   6.625   0.728
 3267SOL    HW210701   3.905   6.695   0.875
 3268SOL     OW10702   5.799   5.016   1.978
 3268SOL    HW110703   5.725   4.963   2.018
 3268SOL    HW210704   5.824   5.091   2.039
 3269SOL     OW10705   1.595   4.972   1.884
 3269SOL    HW110706   1.513   4.961   1.941
 3269SOL    HW210707   1.596   5.065   1.847
 3270SOL     OW10708   1.032   2.845   5.639
 3270SOL    HW110709   1.052   2.908   5.714
 3270SOL    HW210710   1.097   2.768   5.642
 3271SOL     OW10711   0.968   3.788   1.333
 3271SOL    HW110712   1.004   3.695   1.325
 3271SOL    HW210713   1.018   3.837   1.404
 3272SOL     OW10714   4.389   5.843   0.596
 3272SOL    HW110715   4.313   5.908   0.589
 3272SOL    HW210716   4.354   5.750   0.585
 3273SOL     OW10717   3.905   3.762   6.591
 3273SOL    HW110718   3.856   3.827   6.648
 3273SOL    HW210719   3.844   3.726   6.520
 3274SOL     OW10720   5.377   6.966   1.815
 3274SOL    HW110721   5.333   0.014   1.871
 3274SOL    HW210722   5.465   7.000   1.782
 3275SOL     OW10723   4.893   0.552   1.613
 3275SOL    HW110724   4.868   0.614   1.688
 3275SOL    HW210725   4.877   0.458   1.641
 3276SOL     OW10726   5.775   6.072   6.804
 3276SOL    HW110727   5.753   6.019   6.886
 3276SOL    HW210728   5.874   6.077   6.793
 3277SOL     OW10729   3.069   1.835   2.235
 3277SOL    HW110730   3.097   1.930   2.246
 3277SOL    HW210731   2.972   1.830   2.214
 3278SOL     OW10732   5.667   0.652   6.078
 3278SOL    HW110733   5.716   0.590   6.139
 3278SOL    HW210734   5.573   0.620   6.066
 3279SOL     OW10735   3.857   0.378   1.764
 3279SOL    HW110736   3.918   0.320   1.709
 3279SOL    HW210737   3.862   0.349   1.860
 3280SOL     OW10738   6.648   3.394   4.309
 3280SOL    HW110739   6.556   3.410   4.345
 3280SOL    HW210740   6.696   3.481   4.300
 3281SOL     OW10741   6.318   2.735   1.615
 3281SOL    HW110742   6.328   2.824   1.571
 3281SOL    HW210743   6.348   2.663   1.552
 3282SOL     OW10744   0.123   5.105   5.232
 3282SOL    HW110745   0.125   5.147   5.323
 3282SOL    HW210746   0.119   5.176   5.162
 3283SOL     OW10747   3.317   2.134   0.095
 3283SOL    HW110748   3.332   2.232   0.107
 3283SOL    HW210749   3.376   2.083   0.158
 3284SOL     OW10750   2.094   6.900   4.791
 3284SOL    HW110751   2.066   6.882   4.697
 3284SOL    HW210752   2.185   6.862   4.807
 3285SOL     OW10753   3.586   2.102   4.401
 3285SOL    HW110754   3.508   2.098   4.339
 3285SOL    HW210755   3.565   2.052   4.485
 3286SOL     OW10756   1.462   2.413   2.796
 3286SOL    HW110757   1.521   2.342   2.757
 3286SOL    HW210758   1.463   2.493   2.737
 3287SOL     OW10759   2.418   0.474   0.632
 3287SOL    HW110760   2.399   0.438   0.724
 3287SOL    HW210761   2.422   0.398   0.567
 3288SOL     OW10762   2.303   5.737   2.141
 3288SOL    HW110763   2.228   5.797   2.112
 3288SOL    HW210764   2.349   5.776   2.220
 3289SOL     OW10765   4.389   0.503   6.607
 3289SOL    HW110766   4.362   0.567   6.535
 3289SOL    HW210767   4.317   0.435   6.619
 3290SOL     OW10768   0.460   5.474   0.823
 3290SOL    HW110769   0.427   5.524   0.743
 3290SOL    HW210770   0.535   5.414   0.796
 3291SOL     OW10771   5.106   6.786   5.082
 3291SOL    HW110772   5.147   6.696   5.093
 3291SOL    HW210773   5.177   6.856   5.093
 3292SOL     OW10774   0.294   2.009   0.389
 3292SOL    HW110775   0.200   2.026   0.358
 3292SOL    HW210776   0.344   1.961   0.317
 3293SOL     OW10777   6.205   4.927   3.193
 3293SOL    HW110778   6.207   5.026   3.179
 3293SOL    HW210779   6.190   4.881   3.105
 3294SOL     OW10780   5.109   2.736   5.145
 3294SOL    HW110781   5.024   2.732   5.092
 3294SOL    HW210782   5.186   2.715   5.085
 3295SOL     OW10783   0.940   2.441   2.617
 3295SOL    HW110784   0.982   2.531   2.618
 3295SOL    HW210785   1.009   2.372   2.594
 3296SOL     OW10786   1.997   1.021   5.911
 3296SOL    HW110787   2.013   0.931   5.871
 3296SOL    HW210788   1.962   1.011   6.004
 3297SOL     OW10789   4.086   1.115   5.427
 3297SOL    HW110790   3.989   1.090   5.431
 3297SOL    HW210791   4.106   1.182   5.498
 3298SOL     OW10792   3.906   3.650   5.737
 3298SOL    HW110793   3.878   3.583   5.669
 3298SOL    HW210794   3.928   3.603   5.823
 3299SOL     OW10795   2.567   5.865   3.893
 3299SOL    HW110796   2.509   5.789   3.923
 3299SOL    HW210797   2.596   5.918   3.972
 3300SOL     OW10798   2.207   0.598   3.927
 3300SOL    HW110799   2.224   0.551   4.013
 3300SOL    HW210800   2.260   0.683   3.925
 3301SOL     OW10801   1.110   1.325   3.193
 3301SOL    HW110802   1.113   1.229   3.222
 3301SOL    HW210803   1.112   1.385   3.273
 3302SOL     OW10804   1.363   5.244   5.150
 3302SOL    HW110805   1.401   5.152   5.159
 3302SOL    HW210806   1.315   5.252   5.063
 3303SOL     OW10807   3.406   3.321   6.844
 3303SOL    HW110808   3.336   3.352   6.908
 3303SOL    HW210809   3.484   3.285   6.894
 3304SOL     OW10810   1.980   4.108   0.301
 3304SOL    HW110811   1.892   4.106   0.254
 3304SOL    HW210812   2.001   4.018   0.338
 3305SOL     OW10813   3.276   2.510   0.552
 3305SOL    HW110814   3.232   2.596   0.525
 3305SOL    HW210815   3.281   2.450   0.473
 3306SOL     OW10816   2.286   0.522   0.039
 3306SOL    HW110817   2.305   0.595   0.104
 3306SOL    HW210818   2.372   0.493   7.018
 3307SOL     OW10819   1.688   6.102   4.886
 3307SOL    HW110820   1.678   6.143   4.795
 3307SOL    HW210821   1.632   6.019   4.891
 3308SOL     OW10822   4.366   4.420   1.470
 3308SOL    HW110823   4.425   4.410   1.390
 3308SOL    HW210824   4.281   4.467   1.445
 3309SOL     OW10825   5.247   3.288   3.241
 3309SOL    HW110826   5.158   3.333   3.242
 3309SOL    HW210827   5.320   3.356   3.231
 3310SOL     OW10828   6.153   4.720   5.801
 3310SOL    HW110829   6.098   4.760   5.728
 3310SOL    HW210830   6.092   4.691   5.876
 3311SOL     OW10831   2.479   3.923   0.055
 3311SOL    HW110832   2.566   3.895   0.095
 3311SOL    HW210833   2.408   3.922   0.125
 3312SOL     OW10834   4.723   2.864   6.640
 3312SOL    HW110835   4.626   2.871   6.618
 3312SOL    HW210836   4.774   2.844   6.556
 3313SOL     OW10837   6.970   0.520   4.199
 3313SOL    HW110838   7.020   0.463   4.134
 3313SOL    HW210839   6.971   0.477   4.289
 3314SOL     OW10840   3.905   5.686   2.506
 3314SOL    HW110841   3.969   5.755   2.541
 3314SOL    HW210842   3.922   5.671   2.409
 3315SOL     OW10843   0.683   5.512   4.539
 3315SOL    HW110844   0.721   5.559   4.460
 3315SOL    HW210845   0.722   5.421   4.547
 3316SOL     OW10846   4.375   2.357   7.012
 3316SOL    HW110847   4.411   2.372   0.082
 3316SOL    HW210848   4.417   2.423   6.949
 3317SOL     OW10849   5.168   2.818   1.834
 3317SOL    HW110850   5.181   2.828   1.736
 3317SOL    HW210851   5.071   2.809   1.854
 3318SOL     OW10852   3.004   3.092   0.613
 3318SOL    HW110853   3.003   3.088   0.713
 3318SOL    HW210854   3.034   3.004   0.577
 3319SOL     OW10855   6.827   5.769   3.864
 3319SOL    HW110856   6.838   5.726   3.774
 3319SOL    HW210857   6.855   5.865   3.858
 3320SOL     OW10858   5.983   6.189   2.093
 3320SOL    HW110859   6.009   6.239   2.011
 3320SOL    HW210860   6.043   6.110   2.104
 3321SOL     OW10861   4.841   2.223   0.205
 3321SOL    HW110862   4.909   2.150   0.208
 3321SOL    HW210863   4.852   2.275   0.120
 3322SOL     OW10864   6.075   3.045   0.548
 3322SOL    HW110865   6.161   2.995   0.561
 3322SOL    HW210866   6.001   2.996   0.595
 3323SOL     OW10867   1.799   1.872   1.468
 3323SOL    HW110868   1.733   1.947   1.456
 3323SOL    HW210869   1.761   1.804   1.530
 3324SOL     OW10870   5.329   5.603   5.367
 3324SOL    HW110871   5.331   5.512   5.326
 3324SOL    HW210872   5.396   5.608   5.441
 3325SOL     OW10873   2.556   4.615   5.167
 3325SOL    HW110874   2.631   4.591   5.106
 3325SOL    HW210875   2.582   4.694   5.222
 3326SOL     OW10876   3.502   1.997   2.865
 3326SOL    HW110877   3.418   2.029   2.909
 3326SOL    HW210878   3.479   1.946   2.782
 3327SOL     OW10879   0.614   5.605   6.023
 3327SOL    HW110880   0.665   5.550   5.957
 3327SOL    HW210881   0.651   5.698   6.026
 3328SOL     OW10882   4.741   2.632   5.416
 3328SOL    HW110883   4.703   2.691   5.345
 3328SOL    HW210884   4.667   2.603   5.478
 3329SOL     OW10885   6.441   6.012   5.798
 3329SOL    HW110886   6.538   6.016   5.777
 3329SOL    HW210887   6.418   6.084   5.864
 3330SOL     OW10888   6.859   3.779   3.216
 3330SOL    HW110889   6.846   3.785   3.315
 3330SOL    HW210890   6.954   3.756   3.197
 3331SOL     OW10891   2.307   3.576   0.068
 3331SOL    HW110892   2.245   3.650   0.044
 3331SOL    HW210893   2.282   3.493   0.017
 3332SOL     OW10894   6.660   4.155   1.603
 3332SOL    HW110895   6.742   4.161   1.661
 3332SOL    HW210896   6.603   4.236   1.618
 3333SOL     OW10897   3.425   5.466   6.503
 3333SOL    HW110898   3.331   5.443   6.528
 3333SOL    HW210899   3.485   5.391   6.530
 3334SOL     OW10900   1.709   3.719   1.728
 3334SOL    HW110901   1.705   3.674   1.817
 3334SOL    HW210902   1.802   3.752   1.712
 3335SOL     OW10903   5.994   4.116   4.736
 3335SOL    HW110904   5.920   4.149   4.677
 3335SOL    HW210905   6.075   4.098   4.680
 3336SOL     OW10906   2.906   5.629   6.220
 3336SOL    HW110907   2.961   5.708   6.193
 3336SOL    HW210908   2.855   5.596   6.140
 3337SOL     OW10909   3.656   1.884   0.909
 3337SOL    HW110910   3.676   1.863   1.004
 3337SOL    HW210911   3.611   1.806   0.866
 3338SOL     OW10912   6.775   4.563   0.557
 3338SOL    HW110913   6.765   4.581   0.654
 3338SOL    HW210914   6.685   4.547   0.516
 3339SOL     OW10915   0.681   5.977   6.565
 3339SOL    HW110916   0.745   6.054   6.561
 3339SOL    HW210917   0.597   6.002   6.517
 3340SOL     OW10918   3.946   0.221   2.004
 3340SOL    HW110919   3.926   0.190   2.097
 3340SOL    HW210920   4.028   0.278   2.005
 3341SOL     OW10921   0.577   6.949   1.467
 3341SOL    HW110922   0.636   7.004   1.526
 3341SOL    HW210923   0.548   7.003   1.388
 3342SOL     OW10924   2.616   0.538   4.988
 3342SOL    HW110925   2.575   0.626   4.964
 3342SOL    HW210926   2.610   0.477   4.910
 3343SOL     OW10927   6.686   2.440   1.421
 3343SOL    HW110928   6.692   2.391   1.334
 3343SOL    HW210929   6.759   2.509   1.425
 3344SOL     OW10930   6.959   3.340   6.016
 3344SOL    HW110931   6.912   3.379   5.936
 3344SOL    HW210932   6.918   3.252   6.039
 3345SOL     OW10933   2.936   3.127   5.859
 3345SOL    HW110934   2.936   3.119   5.759
 3345SOL    HW210935   2.930   3.223   5.885
 3346SOL     OW10936   1.593   5.640   2.670
 3346SOL    HW110937   1.682   5.594   2.664
 3346SOL    HW210938   1.576   5.690   2.585
 3347SOL     OW10939   6.377   3.960   4.545
 3347SOL    HW110940   6.333   3.872   4.561
 3347SOL    HW210941   6.307   4.030   4.533
 3348SOL     OW10942   3.735   4.128   2.728
 3348SOL    HW110943   3.654   4.070   2.723
 3348SOL    HW210944   3.816   4.076   2.704
 3349SOL     OW10945   6.015   3.966   6.035
 3349SOL    HW110946   6.103   3.920   6.025
 3349SOL    HW210947   6.011   4.045   5.974
 3350SOL     OW10948   1.566   2.201   0.547
 3350SOL    HW110949   1.630   2.126   0.563
 3350SOL    HW210950   1.575   2.269   0.620
 3351SOL     OW10951   5.428   2.116   0.526
 3351SOL    HW110952   5.497   2.176   0.567
 3351SOL    HW210953   5.445   2.108   0.428
 3352SOL     OW10954   0.611   3.513   0.044
 3352SOL    HW110955   0.525   3.518   0.096
 3352SOL    HW210956   0.688   3.520   0.107
 3353SOL     OW10957   1.707   6.552   6.081
 3353SOL    HW110958   1.765   6.594   6.011
 3353SOL    HW210959   1.616   6.535   6.043
 3354SOL     OW10960   1.477   1.227   2.194
 3354SOL    HW110961   1.421   1.302   2.158
 3354SOL    HW210962   1.425   1.141   2.188
 3355SOL     OW10963   6.909   1.548   3.045
 3355SOL    HW110964   6.830   1.576   3.099
 3355SOL    HW210965   6.893   1.456   3.008
 3356SOL     OW10966   2.260   3.809   5.797
 3356SOL    HW110967   2.162   3.788   5.790
 3356SOL    HW210968   2.295   3.833   5.706
 3357SOL     OW10969   2.087   5.270   2.342
 3357SOL    HW110970   2.106   5.365   2.318
 3357SOL    HW210971   2.148   5.210   2.290
 3358SOL     OW10972   6.807   4.313   3.185
 3358SOL    HW110973   6.855   4.236   3.228
 3358SOL    HW210974   6.766   4.370   3.255
 3359SOL     OW10975   1.466   1.212   1.878
 3359SOL    HW110976   1.391   1.274   1.902
 3359SOL    HW210977   1.538   1.218   1.947
 3360SOL     OW10978   1.707   0.473   6.049
 3360SOL    HW110979   1.630   0.527   6.015
 3360SOL    HW210980   1.734   0.507   6.139
 3361SOL     OW10981   4.834   0.579   2.935
 3361SOL    HW110982   4.856   0.508   2.868
 3361SOL    HW210983   4.857   0.546   3.027
 3362SOL     OW10984   2.193   1.287   5.527
 3362SOL    HW110985   2.287   1.260   5.547
 3362SOL    HW210986   2.170   1.371   5.576
 3363SOL     OW10987   0.367   1.514   6.360
 3363SOL    HW110988   0.415   1.469   6.284
 3363SOL    HW210989   0.375   1.458   6.443
 3364SOL     OW10990   1.947   4.608   6.168
 3364SOL    HW110991   1.999   4.536   6.215
 3364SOL    HW210992   1.979   4.698   6.198
 3365SOL     OW10993   5.999   1.952   5.514
 3365SOL    HW110994   6.066   1.936   5.441
 3365SOL    HW210995   6.009   2.045   5.550
 3366SOL     OW10996   5.223   1.338   6.538
 3366SOL    HW110997   5.196   1.390   6.618
 3366SOL    HW210998   5.322   1.323   6.540
 3367SOL     OW10999   1.647   0.326   2.130
 3367SOL    HW111000   1.691   0.388   2.195
 3367SOL    HW211001   1.563   0.368   2.096
 3368SOL     OW11002   6.265   0.804   5.905
 3368SOL    HW111003   6.208   0.845   5.834
 3368SOL    HW211004   6.360   0.832   5.892
 3369SOL     OW11005   3.573   6.367   5.767
 3369SOL    HW111006   3.661   6.384   5.723
 3369SOL    HW211007   3.553   6.441   5.831
 3370SOL     OW11008   4.906   0.200   5.144
 3370SOL    HW111009   4.942   0.194   5.051
 3370SOL    HW211010   4.942   0.283   5.188
 3371SOL     OW11011   6.833   4.991   1.271
 3371SOL    HW111012   6.827   4.896   1.240
 3371SOL    HW211013   6.915   5.003   1.328
 3372SOL     OW11014   0.521   2.144   2.843
 3372SOL    HW111015   0.572   2.190   2.770
 3372SOL    HW211016   0.508   2.047   2.819
 3373SOL     OW11017   0.665   2.122   6.169
 3373SOL    HW111018   0.617   2.090   6.252
 3373SOL    HW211019   0.599   2.162   6.106
 3374SOL     OW11020   3.611   5.361   5.289
 3374SOL    HW111021   3.703   5.324   5.278
 3374SOL    HW211022   3.616   5.459   5.310
 3375SOL     OW11023   4.039   3.840   4.880
 3375SOL    HW111024   4.008   3.777   4.809
 3375SOL    HW211025   4.114   3.896   4.844
 3376SOL     OW11026   2.905   3.235   2.027
 3376SOL    HW111027   2.872   3.327   2.048
 3376SOL    HW211028   2.891   3.175   2.106
 3377SOL     OW11029   2.849   5.472   5.478
 3377SOL    HW111030   2.887   5.442   5.390
 3377SOL    HW211031   2.866   5.403   5.548
 3378SOL     OW11032   0.694   0.928   1.145
 3378SOL    HW111033   0.747   0.884   1.217
 3378SOL    HW211034   0.753   0.944   1.066
 3379SOL     OW11035   0.903   4.751   6.446
 3379SOL    HW111036   0.827   4.686   6.444
 3379SOL    HW211037   0.962   4.736   6.367
 3380SOL     OW11038   0.868   3.819   5.758
 3380SOL    HW111039   0.817   3.779   5.834
 3380SOL    HW211040   0.810   3.884   5.710
 3381SOL     OW11041   3.384   3.302   0.843
 3381SOL    HW111042   3.347   3.364   0.774
 3381SOL    HW211043   3.483   3.318   0.853
 3382SOL     OW11044   6.688   6.606   6.820
 3382SOL    HW111045   6.736   6.578   6.737
 3382SOL    HW211046   6.737   6.681   6.863
 3383SOL     OW11047   0.193   4.230   2.843
 3383SOL    HW111048   0.282   4.265   2.873
 3383SOL    HW211049   0.204   4.180   2.757
 3384SOL     OW11050   3.494   2.885   4.609
 3384SOL    HW111051   3.423   2.954   4.621
 3384SOL    HW211052   3.485   2.842   4.519
 3385SOL     OW11053   6.391   3.950   3.585
 3385SOL    HW111054   6.434   3.913   3.667
 3385SOL    HW211055   6.461   3.981   3.521
 3386SOL     OW11056   6.254   3.844   5.060
 3386SOL    HW111057   6.163   3.849   5.019
 3386SOL    HW211058   6.261   3.761   5.116
 3387SOL     OW11059   2.938   2.051   3.229
 3387SOL    HW111060   3.027   2.072   3.269
 3387SOL    HW211061   2.866   2.095   3.283
 3388SOL     OW11062   5.208   2.827   2.116
 3388SOL    HW111063   5.221   2.903   2.180
 3388SOL    HW211064   5.213   2.861   2.022
 3389SOL     OW11065   5.113   4.582   3.004
 3389SOL    HW111066   5.135   4.494   3.046
 3389SOL    HW211067   5.029   4.618   3.045
 3390SOL     OW11068   4.890   2.759   5.907
 3390SOL    HW111069   4.917   2.829   5.842
 3390SOL    HW211070   4.884   2.799   5.999
 3391SOL     OW11071   3.764   2.067   4.151
 3391SOL    HW111072   3.729   2.065   4.244
 3391SOL    HW211073   3.696   2.028   4.089
 3392SOL     OW11074   4.861   6.198   3.540
 3392SOL    HW111075   4.900   6.132   3.476
 3392SOL    HW211076   4.849   6.155   3.629
 3393SOL     OW11077   6.578   0.595   0.185
 3393SOL    HW111078   6.558   0.614   0.281
 3393SOL    HW211079   6.612   0.678   0.141
 3394SOL     OW11080   5.681   1.535   1.367
 3394SOL    HW111081   5.610   1.465   1.367
 3394SOL    HW211082   5.654   1.611   1.307
 3395SOL     OW11083   1.331   3.630   4.865
 3395SOL    HW111084   1.343   3.550   4.807
 3395SOL    HW211085   1.348   3.606   4.960
 3396SOL     OW11086   0.100   3.872   4.301
 3396SOL    HW111087   0.189   3.825   4.304
 3396SOL    HW211088   0.107   3.953   4.244
 3397SOL     OW11089   2.938   6.324   5.744
 3397SOL    HW111090   2.856   6.281   5.706
 3397SOL    HW211091   2.994   6.255   5.790
 3398SOL     OW11092   0.122   0.232   4.337
 3398SOL    HW111093   0.126   0.274   4.247
 3398SOL    HW211094   0.060   0.285   4.396
 3399SOL     OW11095   4.461   5.255   4.603
 3399SOL    HW111096   4.474   5.324   4.674
 3399SOL    HW211097   4.365   5.249   4.579
 3400SOL     OW11098   4.428   2.573   6.398
 3400SOL    HW111099   4.483   2.515   6.458
 3400SOL    HW211100   4.332   2.569   6.427
 3401SOL     OW11101   6.269   4.794   6.816
 3401SOL    HW111102   6.181   4.804   6.862
 3401SOL    HW211103   6.254   4.769   6.720
 3402SOL     OW11104   4.920   5.665   2.461
 3402SOL    HW111105   4.992   5.605   2.428
 3402SOL    HW211106   4.850   5.611   2.508
 3403SOL     OW11107   2.900   1.940   4.994
 3403SOL    HW111108   2.915   2.023   4.942
 3403SOL    HW211109   2.939   1.862   4.946
 3404SOL     OW11110   4.418   0.787   0.960
 3404SOL    HW111111   4.491   0.718   0.961
 3404SOL    HW211112   4.388   0.804   1.054
 3405SOL     OW11113   5.985   3.748   0.916
 3405SOL    HW111114   6.002   3.668   0.859
 3405SOL    HW211115   5.962   3.719   1.009
 3406SOL     OW11116   1.600   4.499   1.838
 3406SOL    HW111117   1.673   4.484   1.905
 3406SOL    HW211118   1.512   4.501   1.884
 3407SOL     OW11119   1.264   5.320   2.323
 3407SOL    HW111120   1.203   5.303   2.402
 3407SOL    HW211121   1.210   5.355   2.247
 3408SOL     OW11122   5.270   3.574   3.059
 3408SOL    HW111123   5.250   3.625   2.975
 3408SOL    HW211124   5.278   3.476   3.037
 3409SOL     OW11125   2.903   0.868   5.499
 3409SOL    HW111126   2.973   0.926   5.459
 3409SOL    HW211127   2.813   0.901   5.473
 3410SOL     OW11128   6.779   0.395   6.843
 3410SOL    HW111129   6.710   0.323   6.847
 3410SOL    HW211130   6.804   0.423   6.936
 3411SOL     OW11131   4.857   2.558   1.923
 3411SOL    HW111132   4.900   2.575   2.012
 3411SOL    HW211133   4.830   2.462   1.917
 3412SOL     OW11134   3.941   4.536   6.754
 3412SOL    HW111135   3.937   4.556   6.657
 3412SOL    HW211136   4.011   4.594   6.797
 3413SOL     OW11137   4.147   2.182   2.462
 3413SOL    HW111138   4.077   2.159   2.530
 3413SOL    HW211139   4.108   2.172   2.370
 3414SOL     OW11140   3.828   1.697   5.832
 3414SOL    HW111141   3.749   1.748   5.865
 3414SOL    HW211142   3.900   1.761   5.804
 3415SOL     OW11143   6.956   5.248   4.302
 3415SOL    HW111144   6.879   5.185   4.294
 3415SOL    HW211145   6.935   5.334   4.255
 3416SOL     OW11146   2.069   4.765   5.366
 3416SOL    HW111147   2.031   4.816   5.443
 3416SOL    HW211148   2.060   4.667   5.384
 3417SOL     OW11149   5.835   0.495   1.704
 3417SOL    HW111150   5.870   0.413   1.658
 3417SOL    HW211151   5.739   0.482   1.727
 3418SOL     OW11152   3.007   1.150   6.450
 3418SOL    HW111153   3.012   1.050   6.457
 3418SOL    HW211154   3.094   1.189   6.481
 3419SOL     OW11155   4.584   3.618   0.305
 3419SOL    HW111156   4.535   3.663   0.380
 3419SOL    HW211157   4.574   3.519   0.313
 3420SOL     OW11158   4.066   2.185   4.284
 3420SOL    HW111159   3.983   2.179   4.341
 3420SOL    HW211160   4.040   2.187   4.188
 3421SOL     OW11161   0.412   6.159   4.263
 3421SOL    HW111162   0.494   6.151   4.320
 3421SOL    HW211163   0.399   6.254   4.236
 3422SOL     OW11164   3.419   1.525   2.160
 3422SOL    HW111165   3.334   1.564   2.125
 3422SOL    HW211166   3.466   1.475   2.087
 3423SOL     OW11167   2.820   1.060   1.349
 3423SOL    HW111168   2.815   0.967   1.312
 3423SOL    HW211169   2.851   1.056   1.444
 3424SOL     OW11170   3.826   1.181   2.840
 3424SOL    HW111171   3.822   1.280   2.855
 3424SOL    HW211172   3.917   1.148   2.861
 3425SOL     OW11173   4.644   4.527   1.916
 3425SOL    HW111174   4.684   4.506   1.826
 3425SOL    HW211175   4.584   4.453   1.944
 3426SOL     OW11176   4.427   3.476   0.586
 3426SOL    HW111177   4.352   3.433   0.536
 3426SOL    HW211178   4.422   3.575   0.576
 3427SOL     OW11179   0.479   1.804   0.240
 3427SOL    HW111180   0.569   1.844   0.262
 3427SOL    HW211181   0.486   1.752   0.156
 3428SOL     OW11182   4.584   4.478   3.197
 3428SOL    HW111183   4.580   4.391   3.149
 3428SOL    HW211184   4.665   4.480   3.256
 3429SOL     OW11185   0.332   3.351   6.706
 3429SOL    HW111186   0.246   3.299   6.708
 3429SOL    HW211187   0.346   3.387   6.613
 3430SOL     OW11188   1.180   6.360   0.067
 3430SOL    HW111189   1.136   6.414   7.017
 3430SOL    HW211190   1.123   6.280   0.088
 3431SOL     OW11191   0.910   6.277   0.464
 3431SOL    HW111192   0.850   6.285   0.385
 3431SOL    HW211193   0.869   6.215   0.531
 3432SOL     OW11194   3.141   1.873   6.761
 3432SOL    HW111195   3.188   1.808   6.701
 3432SOL    HW211196   3.204   1.946   6.787
 3433SOL     OW11197   3.975   0.787   4.971
 3433SOL    HW111198   4.041   0.718   4.941
 3433SOL    HW211199   3.882   0.757   4.948
 3434SOL     OW11200   4.359   1.919   2.863
 3434SOL    HW111201   4.338   1.846   2.799
 3434SOL    HW211202   4.389   2.000   2.812
 3435SOL     OW11203   0.357   1.096   0.056
 3435SOL    HW111204   0.441   1.070   0.008
 3435SOL    HW211205   0.286   1.029   0.036
 3436SOL     OW11206   4.049   6.875   3.295
 3436SOL    HW111207   3.995   6.860   3.213
 3436SOL    HW211208   3.991   6.865   3.376
 3437SOL     OW11209   3.988   0.082   6.127
 3437SOL    HW111210   4.000   7.012   6.090
 3437SOL    HW211211   4.039   0.147   6.071
 3438SOL     OW11212   1.515   3.887   6.659
 3438SOL    HW111213   1.484   3.819   6.593
 3438SOL    HW211214   1.558   3.963   6.611
 3439SOL     OW11215   2.965   6.174   3.637
 3439SOL    HW111216   2.891   6.166   3.570
 3439SOL    HW211217   2.937   6.130   3.723
 3440SOL     OW11218   4.712   1.861   0.765
 3440SOL    HW111219   4.811   1.868   0.781
 3440SOL    HW211220   4.677   1.780   0.813
 3441SOL     OW11221   3.128   0.373   4.035
 3441SOL    HW111222   3.198   0.302   4.029
 3441SOL    HW211223   3.091   0.377   4.128
 3442SOL     OW11224   1.994   4.798   3.268
 3442SOL    HW111225   2.070   4.856   3.238
 3442SOL    HW211226   1.914   4.816   3.211
 3443SOL     OW11227   5.877   0.904   4.074
 3443SOL    HW111228   5.847   0.866   4.161
 3443SOL    HW211229   5.865   0.837   4.002
 3444SOL     OW11230   4.320   5.553   0.547
 3444SOL    HW111231   4.338   5.456   0.526
 3444SOL    HW211232   4.296   5.601   0.462
 3445SOL     OW11233   6.330   4.416   4.520
 3445SOL    HW111234   6.273   4.473   4.580
 3445SOL    HW211235   6.423   4.413   4.555
 3446SOL     OW11236   3.477   6.482   2.771
 3446SOL    HW111237   3.498   6.457   2.677
 3446SOL    HW211238   3.520   6.570   2.793
 3447SOL     OW11239   5.610   4.975   6.296
 3447SOL    HW111240   5.567   5.057   6.258
 3447SOL    HW211241   5.549   4.897   6.285
 3448SOL     OW11242   3.679   2.297   0.991
 3448SOL    HW111243   3.622   2.235   0.937
 3448SOL    HW211244   3.737   2.351   0.931
 3449SOL     OW11245   5.864   6.438   3.796
 3449SOL    HW111246   5.772   6.470   3.818
 3449SOL    HW211247   5.879   6.447   3.697
 3450SOL     OW11248   1.440   1.689   1.459
 3450SOL    HW111249   1.450   1.773   1.512
 3450SOL    HW211250   1.514   1.626   1.481
 3451SOL     OW11251   0.906   5.208   4.293
 3451SOL    HW111252   0.888   5.171   4.385
 3451SOL    HW211253   0.821   5.244   4.256
 3452SOL     OW11254   6.131   1.726   6.953
 3452SOL    HW111255   6.124   1.680   0.019
 3452SOL    HW211256   6.088   1.816   6.958
 3453SOL     OW11257   6.122   5.659   5.733
 3453SOL    HW111258   6.044   5.713   5.765
 3453SOL    HW211259   6.155   5.601   5.808
 3454SOL     OW11260   0.410   0.727   0.387
 3454SOL    HW111261   0.463   0.808   0.413
 3454SOL    HW211262   0.411   0.716   0.288
 3455SOL     OW11263   1.852   2.681   4.866
 3455SOL    HW111264   1.814   2.589   4.860
 3455SOL    HW211265   1.946   2.676   4.901
 3456SOL     OW11266   6.434   0.184   1.562
 3456SOL    HW111267   6.492   0.155   1.637
 3456SOL    HW211268   6.430   0.284   1.559
 3457SOL     OW11269   2.155   5.215   3.590
 3457SOL    HW111270   2.255   5.209   3.591
 3457SOL    HW211271   2.121   5.199   3.683
 3458SOL     OW11272   5.200   5.848   1.166
 3458SOL    HW111273   5.245   5.929   1.202
 3458SOL    HW211274   5.225   5.836   1.069
 3459SOL     OW11275   6.213   6.903   3.548
 3459SOL    HW111276   6.254   6.822   3.590
 3459SOL    HW211277   6.120   6.916   3.584
 3460SOL     OW11278   4.160   3.366   6.588
 3460SOL    HW111279   4.232   3.336   6.651
 3460SOL    HW211280   4.185   3.455   6.549
 3461SOL     OW11281   3.276   5.603   2.426
 3461SOL    HW111282   3.287   5.702   2.418
 3461SOL    HW211283   3.328   5.570   2.506
 3462SOL     OW11284   4.847   3.226   3.271
 3462SOL    HW111285   4.878   3.134   3.246
 3462SOL    HW211286   4.747   3.226   3.280
 3463SOL     OW11287   2.217   2.883   1.065
 3463SOL    HW111288   2.312   2.897   1.040
 3463SOL    HW211289   2.209   2.882   1.165
 3464SOL     OW11290   4.501   2.519   6.832
 3464SOL    HW111291   4.422   2.561   6.786
 3464SOL    HW211292   4.570   2.589   6.850
 3465SOL     OW11293   1.802   3.531   2.014
 3465SOL    HW111294   1.896   3.556   2.036
 3465SOL    HW211295   1.801   3.458   1.947
 3466SOL     OW11296   6.074   4.634   3.965
 3466SOL    HW111297   6.083   4.685   4.050
 3466SOL    HW211298   6.123   4.682   3.892
 3467SOL     OW11299   3.037   2.645   1.390
 3467SOL    HW111300   3.109   2.577   1.403
 3467SOL    HW211301   3.010   2.647   1.294
 3468SOL     OW11302   3.733   1.597   1.046
 3468SOL    HW111303   3.668   1.562   1.114
 3468SOL    HW211304   3.762   1.689   1.073
 3469SOL     OW11305   3.894   5.783   5.556
 3469SOL    HW111306   3.867   5.706   5.499
 3469SOL    HW211307   3.988   5.771   5.586
 3470SOL     OW11308   1.011   3.136   1.670
 3470SOL    HW111309   1.042   3.231   1.675
 3470SOL    HW211310   1.035   3.097   1.581
 3471SOL     OW11311   5.183   3.019   4.369
 3471SOL    HW111312   5.231   3.067   4.296
 3471SOL    HW211313   5.087   3.007   4.344
 3472SOL     OW11314   4.264   1.645   3.348
 3472SOL    HW111315   4.205   1.700   3.406
 3472SOL    HW211316   4.223   1.637   3.257
 3473SOL     OW11317   0.082   4.321   1.770
 3473SOL    HW111318   0.175   4.356   1.782
 3473SOL    HW211319   0.031   4.329   1.856
 3474SOL     OW11320   5.779   4.989   3.790
 3474SOL    HW111321   5.794   4.949   3.881
 3474SOL    HW211322   5.832   4.938   3.723
 3475SOL     OW11323   6.826   4.228   4.117
 3475SOL    HW111324   6.757   4.182   4.174
 3475SOL    HW211325   6.896   4.162   4.091
 3476SOL     OW11326   1.417   1.202   3.599
 3476SOL    HW111327   1.351   1.172   3.668
 3476SOL    HW211328   1.510   1.195   3.636
 3477SOL     OW11329   0.517   4.144   2.312
 3477SOL    HW111330   0.504   4.046   2.324
 3477SOL    HW211331   0.532   4.186   2.402
 3478SOL     OW11332   2.256   1.087   0.946
 3478SOL    HW111333   2.282   1.178   0.978
 3478SOL    HW211334   2.225   1.032   1.023
 3479SOL     OW11335   1.497   4.627   4.524
 3479SOL    HW111336   1.580   4.681   4.517
 3479SOL    HW211337   1.511   4.538   4.481
 3480SOL     OW11338   1.371   4.595   0.020
 3480SOL    HW111339   1.311   4.624   6.968
 3480SOL    HW211340   1.465   4.587   7.009
 3481SOL     OW11341   6.148   0.809   4.950
 3481SOL    HW111342   6.060   0.838   4.913
 3481SOL    HW211343   6.222   0.856   4.902
 3482SOL     OW11344   5.951   3.900   5.322
 3482SOL    HW111345   5.921   3.835   5.252
 3482SOL    HW211346   6.046   3.880   5.348
 3483SOL     OW11347   5.519   2.942   4.545
 3483SOL    HW111348   5.452   3.015   4.532
 3483SOL    HW211349   5.481   2.855   4.514
 3484SOL     OW11350   2.005   3.584   5.352
 3484SOL    HW111351   1.971   3.618   5.440
 3484SOL    HW211352   2.103   3.568   5.358
 3485SOL     OW11353   6.697   2.850   6.503
 3485SOL    HW111354   6.684   2.874   6.600
 3485SOL    HW211355   6.674   2.928   6.446
 3486SOL     OW11356   2.025   6.753   5.122
 3486SOL    HW111357   2.004   6.780   5.028
 3486SOL    HW211358   1.977   6.814   5.185
 3487SOL     OW11359   4.962   1.589   6.604
 3487SOL    HW111360   5.048   1.639   6.597
 3487SOL    HW211361   4.973   1.513   6.668
 3488SOL     OW11362   5.648   0.541   4.922
 3488SOL    HW111363   5.572   0.553   4.859
 3488SOL    HW211364   5.681   0.446   4.917
 3489SOL     OW11365   2.966   6.525   0.402
 3489SOL    HW111366   2.995   6.523   0.498
 3489SOL    HW211367   3.037   6.487   0.344
 3490SOL     OW11368   3.559   6.334   7.008
 3490SOL    HW111369   3.573   6.274   6.929
 3490SOL    HW211370   3.536   6.426   6.977
 3491SOL     OW11371   4.720   4.675   6.115
 3491SOL    HW111372   4.662   4.611   6.166
 3491SOL    HW211373   4.814   4.669   6.151
 3492SOL     OW11374   5.868   4.556   2.543
 3492SOL    HW111375   5.867   4.619   2.466
 3492SOL    HW211376   5.774   4.524   2.561
 3493SOL     OW11377   6.300   3.130   5.214
 3493SOL    HW111378   6.325   3.203   5.278
 3493SOL    HW211379   6.236   3.067   5.259
 3494SOL     OW11380   4.106   1.603   1.951
 3494SOL    HW111381   4.195   1.620   1.995
 3494SOL    HW211382   4.120   1.580   1.855
 3495SOL     OW11383   0.881   2.718   2.370
 3495SOL    HW111384   0.809   2.743   2.435
 3495SOL    HW211385   0.966   2.765   2.394
 3496SOL     OW11386   5.553   5.131   1.310
 3496SOL    HW111387   5.510   5.219   1.331
 3496SOL    HW211388   5.651   5.136   1.328
 3497SOL     OW11389   3.457   6.719   2.521
 3497SOL    HW111390   3.475   6.624   2.498
 3497SOL    HW211391   3.365   6.727   2.559
 3498SOL     OW11392   2.114   2.629   1.605
 3498SOL    HW111393   2.157   2.720   1.605
 3498SOL    HW211394   2.173   2.565   1.654
 3499SOL     OW11395   6.485   5.472   5.507
 3499SOL    HW111396   6.522   5.520   5.587
 3499SOL    HW211397   6.389   5.451   5.524
 3500SOL     OW11398   1.741   2.023   4.426
 3500SOL    HW111399   1.700   2.112   4.404
 3500SOL    HW211400   1.815   2.004   4.361
 3501SOL     OW11401   1.604   0.217   5.497
 3501SOL    HW111402   1.613   0.156   5.419
 3501SOL    HW211403   1.590   0.163   5.580
 3502SOL     OW11404   4.737   2.773   2.118
 3502SOL    HW111405   4.748   2.870   2.098
 3502SOL    HW211406   4.825   2.727   2.114
 3503SOL     OW11407   6.168   5.919   6.816
 3503SOL    HW111408   6.119   5.843   6.773
 3503SOL    HW211409   6.215   5.885   6.897
 3504SOL     OW11410   1.147   0.875   0.839
 3504SOL    HW111411   1.092   0.831   0.768
 3504SOL    HW211412   1.210   0.808   0.878
 3505SOL     OW11413   5.320   4.623   6.613
 3505SOL    HW111414   5.264   4.621   6.530
 3505SOL    HW211415   5.261   4.633   6.693
 3506SOL     OW11416   5.093   4.590   4.749
 3506SOL    HW111417   5.133   4.528   4.816
 3506SOL    HW211418   5.130   4.682   4.762
 3507SOL     OW11419   3.042   6.888   0.357
 3507SOL    HW111420   3.093   6.962   0.400
 3507SOL    HW211421   3.106   6.822   0.317
 3508SOL     OW11422   2.995   2.256   5.555
 3508SOL    HW111423   3.055   2.333   5.574
 3508SOL    HW211424   2.988   2.243   5.456
 3509SOL     OW11425   3.904   5.642   6.641
 3509SOL    HW111426   3.895   5.546   6.613
 3509SOL    HW211427   3.814   5.679   6.663
 3510SOL     OW11428   3.028   1.320   0.748
 3510SOL    HW111429   2.981   1.234   0.770
 3510SOL    HW211430   2.961   1.394   0.742
 3511SOL     OW11431   2.583   4.416   1.674
 3511SOL    HW111432   2.672   4.461   1.666
 3511SOL    HW211433   2.595   4.316   1.669
 3512SOL     OW11434   0.231   5.016   6.419
 3512SOL    HW111435   0.199   5.068   6.498
 3512SOL    HW211436   0.323   5.046   6.395
 3513SOL     OW11437   5.728   1.920   0.524
 3513SOL    HW111438   5.815   1.964   0.542
 3513SOL    HW211439   5.684   1.964   0.445
 3514SOL     OW11440   4.117   1.597   2.574
 3514SOL    HW111441   4.050   1.667   2.598
 3514SOL    HW211442   4.167   1.626   2.492
 3515SOL     OW11443   6.311   5.830   4.310
 3515SOL    HW111444   6.257   5.915   4.307
 3515SOL    HW211445   6.369   5.825   4.228
 3516SOL     OW11446   4.555   0.497   1.524
 3516SOL    HW111447   4.541   0.524   1.429
 3516SOL    HW211448   4.561   0.397   1.529
 3517SOL     OW11449   6.039   0.501   0.949
 3517SOL    HW111450   6.053   0.424   0.886
 3517SOL    HW211451   5.946   0.534   0.941
 3518SOL     OW11452   5.024   1.291   5.189
 3518SOL    HW111453   4.943   1.324   5.239
 3518SOL    HW211454   5.104   1.298   5.248
 3519SOL     OW11455   3.494   0.624   0.790
 3519SOL    HW111456   3.424   0.555   0.771
 3519SOL    HW211457   3.467   0.711   0.749
 3520SOL     OW11458   2.550   6.402   4.889
 3520SOL    HW111459   2.592   6.353   4.965
 3520SOL    HW211460   2.451   6.409   4.904
 3521SOL     OW11461   2.282   3.142   0.782
 3521SOL    HW111462   2.337   3.210   0.734
 3521SOL    HW211463   2.342   3.067   0.813
 3522SOL     OW11464   0.144   5.878   6.560
 3522SOL    HW111465   0.224   5.931   6.588
 3522SOL    HW211466   0.122   5.811   6.630
 3523SOL     OW11467   1.929   5.238   6.585
 3523SOL    HW111468   1.934   5.336   6.603
 3523SOL    HW211469   1.884   5.222   6.497
 3524SOL     OW11470   5.214   1.205   2.889
 3524SOL    HW111471   5.202   1.137   2.962
 3524SOL    HW211472   5.311   1.209   2.864
 3525SOL     OW11473   6.297   4.349   3.568
 3525SOL    HW111474   6.235   4.390   3.500
 3525SOL    HW211475   6.317   4.415   3.640
 3526SOL     OW11476   0.654   6.597   3.335
 3526SOL    HW111477   0.643   6.505   3.372
 3526SOL    HW211478   0.564   6.635   3.312
 3527SOL     OW11479   0.175   2.648   5.574
 3527SOL    HW111480   0.120   2.731   5.570
 3527SOL    HW211481   0.114   2.568   5.578
 3528SOL     OW11482   2.322   6.214   4.748
 3528SOL    HW111483   2.375   6.141   4.791
 3528SOL    HW211484   2.257   6.175   4.683
 3529SOL     OW11485   4.314   4.942   1.250
 3529SOL    HW111486   4.234   4.917   1.305
 3529SOL    HW211487   4.294   5.025   1.199
 3530SOL     OW11488   0.094   0.542   1.873
 3530SOL    HW111489   0.133   0.582   1.790
 3530SOL    HW211490   0.165   0.490   1.920
 3531SOL     OW11491   5.232   2.192   7.001
 3531SOL    HW111492   5.180   2.249   6.938
 3531SOL    HW211493   5.321   2.235   7.020
 3532SOL     OW11494   2.130   1.683   1.718
 3532SOL    HW111495   2.065   1.649   1.786
 3532SOL    HW211496   2.083   1.694   1.630
 3533SOL     OW11497   0.959   1.328   2.950
 3533SOL    HW111498   0.922   1.420   2.935
 3533SOL    HW211499   1.000   1.323   3.041
 3534SOL     OW11500   0.032   1.108   1.109
 3534SOL    HW111501   0.105   1.086   1.172
 3534SOL    HW211502   0.070   1.149   1.026
 3535SOL     OW11503   2.892   5.759   4.587
 3535SOL    HW111504   2.933   5.787   4.500
 3535SOL    HW211505   2.839   5.835   4.625
 3536SOL     OW11506   3.748   2.110   2.841
 3536SOL    HW111507   3.666   2.053   2.853
 3536SOL    HW211508   3.721   2.206   2.836
 3537SOL     OW11509   1.683   5.915   2.911
 3537SOL    HW111510   1.614   5.843   2.923
 3537SOL    HW211511   1.773   5.874   2.897
 3538SOL     OW11512   3.290   5.586   3.667
 3538SOL    HW111513   3.205   5.638   3.678
 3538SOL    HW211514   3.297   5.518   3.740
 3539SOL     OW11515   3.514   3.875   4.396
 3539SOL    HW111516   3.591   3.859   4.457
 3539SOL    HW211517   3.442   3.808   4.414
 3540SOL     OW11518   1.832   1.880   3.744
 3540SOL    HW111519   1.854   1.800   3.688
 3540SOL    HW211520   1.902   1.891   3.815
 3541SOL     OW11521   3.151   4.110   5.092
 3541SOL    HW111522   3.237   4.060   5.081
 3541SOL    HW211523   3.088   4.085   5.019
 3542SOL     OW11524   0.398   5.450   1.778
 3542SOL    HW111525   0.428   5.364   1.737
 3542SOL    HW211526   0.334   5.496   1.716
 3543SOL     OW11527   6.334   2.492   4.748
 3543SOL    HW111528   6.290   2.580   4.765
 3543SOL    HW211529   6.274   2.419   4.781
 3544SOL     OW11530   2.208   5.389   6.432
 3544SOL    HW111531   2.210   5.348   6.524
 3544SOL    HW211532   2.227   5.487   6.439
 3545SOL     OW11533   3.675   5.507   6.958
 3545SOL    HW111534   3.611   5.431   6.953
 3545SOL    HW211535   3.766   5.476   6.932
 3546SOL     OW11536   6.133   4.811   2.940
 3546SOL    HW111537   6.049   4.824   2.888
 3546SOL    HW211538   6.193   4.748   2.890
 3547SOL     OW11539   5.157   4.849   4.021
 3547SOL    HW111540   5.152   4.886   4.114
 3547SOL    HW211541   5.131   4.919   3.955
 3548SOL     OW11542   4.723   2.988   5.433
 3548SOL    HW111543   4.819   2.973   5.408
 3548SOL    HW211544   4.664   2.953   5.360
 3549SOL     OW11545   5.969   4.127   2.611
 3549SOL    HW111546   6.041   4.184   2.571
 3549SOL    HW211547   6.007   4.074   2.687
 3550SOL     OW11548   5.806   2.463   2.413
 3550SOL    HW111549   5.741   2.496   2.344
 3550SOL    HW211550   5.779   2.496   2.503
 3551SOL     OW11551   2.620   6.653   3.112
 3551SOL    HW111552   2.524   6.646   3.083
 3551SOL    HW211553   2.631   6.733   3.171
 3552SOL     OW11554   6.469   4.725   3.029
 3552SOL    HW111555   6.425   4.728   2.939
 3552SOL    HW211556   6.505   4.815   3.051
 3553SOL     OW11557   6.136   1.809   2.873
 3553SOL    HW111558   6.182   1.897   2.884
 3553SOL    HW211559   6.140   1.758   2.960
 3554SOL     OW11560   3.897   5.359   6.624
 3554SOL    HW111561   3.967   5.353   6.695
 3554SOL    HW211562   3.842   5.276   6.625
 3555SOL     OW11563   1.144   2.957   3.376
 3555SOL    HW111564   1.111   3.032   3.320
 3555SOL    HW211565   1.135   2.980   3.473
 3556SOL     OW11566   3.829   0.453   6.446
 3556SOL    HW111567   3.916   0.455   6.497
 3556SOL    HW211568   3.792   0.361   6.447
 3557SOL     OW11569   0.676   0.398   5.147
 3557SOL    HW111570   0.664   0.311   5.196
 3557SOL    HW211571   0.755   0.391   5.086
 3558SOL     OW11572   0.148   5.608   1.364
 3558SOL    HW111573   0.244   5.583   1.354
 3558SOL    HW211574   0.095   5.568   1.289
 3559SOL     OW11575   0.776   1.197   5.512
 3559SOL    HW111576   0.821   1.285   5.501
 3559SOL    HW211577   0.721   1.197   5.596
 3560SOL     OW11578   0.028   6.260   1.666
 3560SOL    HW111579   6.955   6.228   1.670
 3560SOL    HW211580   0.033   6.353   1.701
 3561SOL     OW11581   4.484   4.991   4.559
 3561SOL    HW111582   4.562   4.954   4.609
 3561SOL    HW211583   4.478   5.090   4.574
 3562SOL     OW11584   4.545   1.838   3.095
 3562SOL    HW111585   4.463   1.855   3.040
 3562SOL    HW211586   4.564   1.740   3.099
 3563SOL     OW11587   4.550   0.572   1.230
 3563SOL    HW111588   4.570   0.576   1.132
 3563SOL    HW211589   4.467   0.624   1.248
 3564SOL     OW11590   0.108   4.380   3.289
 3564SOL    HW111591   0.088   4.284   3.271
 3564SOL    HW211592   0.123   4.428   3.203
 3565SOL     OW11593   1.787   0.386   5.282
 3565SOL    HW111594   1.704   0.438   5.301
 3565SOL    HW211595   1.864   0.425   5.333
 3566SOL     OW11596   0.487   3.897   5.632
 3566SOL    HW111597   0.509   3.939   5.720
 3566SOL    HW211598   0.494   3.797   5.639
 3567SOL     OW11599   0.204   2.863   0.802
 3567SOL    HW111600   0.187   2.839   0.898
 3567SOL    HW211601   0.136   2.930   0.772
 3568SOL     OW11602   5.456   3.419   3.564
 3568SOL    HW111603   5.401   3.343   3.529
 3568SOL    HW211604   5.498   3.393   3.651
 3569SOL     OW11605   3.576   3.264   3.752
 3569SOL    HW111606   3.663   3.313   3.759
 3569SOL    HW211607   3.564   3.230   3.659
 3570SOL     OW11608   0.403   2.543   5.700
 3570SOL    HW111609   0.358   2.528   5.788
 3570SOL    HW211610   0.353   2.613   5.648
 3571SOL     OW11611   2.201   6.570   5.178
 3571SOL    HW111612   2.127   6.629   5.147
 3571SOL    HW211613   2.236   6.516   5.101
 3572SOL     OW11614   4.921   4.873   2.272
 3572SOL    HW111615   5.020   4.883   2.275
 3572SOL    HW211616   4.893   4.848   2.179
 3573SOL     OW11617   0.265   3.927   3.148
 3573SOL    HW111618   0.281   3.867   3.070
 3573SOL    HW211619   0.333   3.907   3.219
 3574SOL     OW11620   2.392   1.665   5.470
 3574SOL    HW111621   2.411   1.685   5.374
 3574SOL    HW211622   2.444   1.585   5.499
 3575SOL     OW11623   5.564   6.983   0.100
 3575SOL    HW111624   5.633   0.029   0.078
 3575SOL    HW211625   5.601   6.892   0.083
 3576SOL     OW11626   1.161   2.424   1.132
 3576SOL    HW111627   1.127   2.330   1.131
 3576SOL    HW211628   1.115   2.476   1.060
 3577SOL     OW11629   2.236   3.149   5.620
 3577SOL    HW111630   2.208   3.053   5.611
 3577SOL    HW211631   2.323   3.163   5.574
 3578SOL     OW11632   3.530   3.076   6.233
 3578SOL    HW111633   3.623   3.111   6.241
 3578SOL    HW211634   3.491   3.062   6.324
 3579SOL     OW11635   0.782   3.291   1.741
 3579SOL    HW111636   0.837   3.239   1.675
 3579SOL    HW211637   0.687   3.262   1.736
 3580SOL     OW11638   0.761   4.237   1.818
 3580SOL    HW111639   0.746   4.198   1.727
 3580SOL    HW211640   0.673   4.249   1.864
 3581SOL     OW11641   1.453   0.242   2.784
 3581SOL    HW111642   1.374   0.303   2.771
 3581SOL    HW211643   1.460   0.180   2.706
 3582SOL     OW11644   3.983   4.985   6.335
 3582SOL    HW111645   4.012   4.941   6.249
 3582SOL    HW211646   3.938   5.072   6.314
 3583SOL     OW11647   1.038   4.895   0.911
 3583SOL    HW111648   0.973   4.904   0.836
 3583SOL    HW211649   0.989   4.870   0.994
 3584SOL     OW11650   6.216   4.876   4.956
 3584SOL    HW111651   6.294   4.814   4.965
 3584SOL    HW211652   6.199   4.894   4.859
 3585SOL     OW11653   3.188   1.436   2.951
 3585SOL    HW111654   3.109   1.463   2.896
 3585SOL    HW211655   3.266   1.494   2.927
 3586SOL     OW11656   0.050   2.450   5.325
 3586SOL    HW111657   6.995   2.404   5.282
 3586SOL    HW211658   0.052   2.546   5.297
 3587SOL     OW11659   2.939   0.002   6.628
 3587SOL    HW111660   2.973   0.096   6.630
 3587SOL    HW211661   2.843   0.002   6.598
 3588SOL     OW11662   6.145   4.977   4.712
 3588SOL    HW111663   6.196   4.937   4.636
 3588SOL    HW211664   6.139   5.076   4.700
 3589SOL     OW11665   0.265   0.659   5.754
 3589SOL    HW111666   0.361   0.688   5.751
 3589SOL    HW211667   0.260   0.567   5.795
 3590SOL     OW11668   6.732   5.323   0.130
 3590SOL    HW111669   6.734   5.383   0.210
 3590SOL    HW211670   6.747   5.377   0.047
 3591SOL     OW11671   6.105   1.108   6.697
 3591SOL    HW111672   6.107   1.190   6.753
 3591SOL    HW211673   6.068   1.032   6.751
 3592SOL     OW11674   1.701   6.118   1.680
 3592SOL    HW111675   1.738   6.198   1.632
 3592SOL    HW211676   1.697   6.041   1.616
 3593SOL     OW11677   4.147   3.004   5.399
 3593SOL    HW111678   4.218   2.939   5.372
 3593SOL    HW211679   4.087   2.961   5.467
 3594SOL     OW11680   4.417   4.787   4.945
 3594SOL    HW111681   4.402   4.689   4.962
 3594SOL    HW211682   4.471   4.798   4.862
 3595SOL     OW11683   5.025   6.011   4.445
 3595SOL    HW111684   5.009   6.100   4.402
 3595SOL    HW211685   4.943   5.984   4.496
 3596SOL     OW11686   4.058   2.204   3.535
 3596SOL    HW111687   4.130   2.236   3.597
 3596SOL    HW211688   4.057   2.104   3.534
 3597SOL     OW11689   2.963   3.347   5.608
 3597SOL    HW111690   2.968   3.371   5.705
 3597SOL    HW211691   2.971   3.430   5.553
 3598SOL     OW11692   1.153   6.006   5.092
 3598SOL    HW111693   1.103   6.083   5.055
 3598SOL    HW211694   1.155   5.931   5.025
 3599SOL     OW11695   3.257   1.146   5.053
 3599SOL    HW111696   3.253   1.092   5.137
 3599SOL    HW211697   3.349   1.182   5.040
 3600SOL     OW11698   3.265   3.424   0.015
 3600SOL    HW111699   3.253   3.511   0.064
 3600SOL    HW211700   3.239   3.349   0.075
 3601SOL     OW11701   4.394   0.960   4.949
 3601SOL    HW111702   4.306   0.984   4.908
 3601SOL    HW211703   4.390   0.865   4.981
 3602SOL     OW11704   2.231   1.726   1.227
 3602SOL    HW111705   2.190   1.644   1.186
 3602SOL    HW211706   2.174   1.758   1.303
 3603SOL     OW11707   2.605   0.673   5.424
 3603SOL    HW111708   2.574   0.586   5.459
 3603SOL    HW211709   2.565   0.748   5.478
 3604SOL     OW11710   0.126   0.645   3.496
 3604SOL    HW111711   0.106   0.556   3.456
 3604SOL    HW211712   0.041   0.693   3.517
 3605SOL     OW11713   1.364   6.519   4.057
 3605SOL    HW111714   1.331   6.610   4.083
 3605SOL    HW211715   1.419   6.527   3.973
 3606SOL     OW11716   2.522   0.177   2.268
 3606SOL    HW111717   2.492   0.267   2.301
 3606SOL    HW211718   2.479   0.105   2.322
 3607SOL     OW11719   5.913   1.900   3.191
 3607SOL    HW111720   5.855   1.862   3.119
 3607SOL    HW211721   5.871   1.883   3.280
 3608SOL     OW11722   2.663   2.000   5.870
 3608SOL    HW111723   2.758   2.032   5.866
 3608SOL    HW211724   2.616   2.024   5.785
 3609SOL     OW11725   3.176   0.769   4.650
 3609SOL    HW111726   3.264   0.764   4.604
 3609SOL    HW211727   3.183   0.831   4.728
 3610SOL     OW11728   1.616   0.625   5.332
 3610SOL    HW111729   1.675   0.691   5.286
 3610SOL    HW211730   1.550   0.588   5.266
 3611SOL     OW11731   5.298   4.743   3.120
 3611SOL    HW111732   5.235   4.773   3.191
 3611SOL    HW211733   5.249   4.688   3.052
 3612SOL     OW11734   6.122   1.035   0.105
 3612SOL    HW111735   6.097   1.109   0.167
 3612SOL    HW211736   6.056   1.030   0.030
 3613SOL     OW11737   4.391   6.503   2.243
 3613SOL    HW111738   4.304   6.503   2.193
 3613SOL    HW211739   4.384   6.563   2.323
 3614SOL     OW11740   3.739   5.750   6.860
 3614SOL    HW111741   3.691   5.663   6.870
 3614SOL    HW211742   3.747   5.794   6.949
 3615SOL     OW11743   6.041   2.196   5.641
 3615SOL    HW111744   6.081   2.175   5.730
 3615SOL    HW211745   5.943   2.176   5.643
 3616SOL     OW11746   1.208   2.188   0.257
 3616SOL    HW111747   1.119   2.232   0.243
 3616SOL    HW211748   1.240   2.205   0.351
 3617SOL     OW11749   3.754   6.014   5.617
 3617SOL    HW111750   3.663   6.021   5.576
 3617SOL    HW211751   3.795   5.926   5.591
 3618SOL     OW11752   1.031   5.054   3.882
 3618SOL    HW111753   1.042   5.046   3.981
 3618SOL    HW211754   1.005   4.965   3.844
 3619SOL     OW11755   5.942   3.209   2.003
 3619SOL    HW111756   5.905   3.116   2.001
 3619SOL    HW211757   5.942   3.243   2.096
 3620SOL     OW11758   5.649   5.714   4.816
 3620SOL    HW111759   5.600   5.627   4.812
 3620SOL    HW211760   5.584   5.790   4.808
 3621SOL     OW11761   3.943   3.350   3.373
 3621SOL    HW111762   3.944   3.251   3.389
 3621SOL    HW211763   3.849   3.381   3.361
 3622SOL     OW11764   1.398   6.052   5.997
 3622SOL    HW111765   1.323   6.114   6.021
 3622SOL    HW211766   1.418   6.061   5.899
 3623SOL     OW11767   0.967   5.715   6.221
 3623SOL    HW111768   1.026   5.756   6.152
 3623SOL    HW211769   0.925   5.786   6.277
 3624SOL     OW11770   2.672   2.514   1.441
 3624SOL    HW111771   2.742   2.514   1.513
 3624SOL    HW211772   2.679   2.430   1.388
 3625SOL     OW11773   6.925   2.627   0.728
 3625SOL    HW111774   6.878   2.539   0.716
 3625SOL    HW211775   7.015   2.624   0.685
 3626SOL     OW11776   2.049   3.128   5.292
 3626SOL    HW111777   1.961   3.174   5.297
 3626SOL    HW211778   2.109   3.176   5.228
 3627SOL     OW11779   3.518   1.944   2.062
 3627SOL    HW111780   3.553   2.037   2.051
 3627SOL    HW211781   3.555   1.904   2.146
 3628SOL     OW11782   6.485   1.974   1.434
 3628SOL    HW111783   6.418   1.919   1.384
 3628SOL    HW211784   6.575   1.963   1.393
 3629SOL     OW11785   1.164   1.505   4.706
 3629SOL    HW111786   1.086   1.542   4.757
 3629SOL    HW211787   1.171   1.551   4.617
 3630SOL     OW11788   6.723   1.946   1.297
 3630SOL    HW111789   6.742   1.847   1.295
 3630SOL    HW211790   6.804   1.996   1.267
 3631SOL     OW11791   2.032   6.837   2.137
 3631SOL    HW111792   2.044   6.834   2.236
 3631SOL    HW211793   2.005   6.930   2.110
 3632SOL     OW11794   4.780   3.865   1.689
 3632SOL    HW111795   4.875   3.841   1.672
 3632SOL    HW211796   4.741   3.803   1.757
 3633SOL     OW11797   3.672   4.494   0.137
 3633SOL    HW111798   3.671   4.464   0.041
 3633SOL    HW211799   3.578   4.511   0.167
 3634SOL     OW11800   3.169   5.434   6.661
 3634SOL    HW111801   3.087   5.489   6.654
 3634SOL    HW211802   3.164   5.357   6.597
 3635SOL     OW11803   1.445   5.820   2.184
 3635SOL    HW111804   1.400   5.865   2.261
 3635SOL    HW211805   1.455   5.885   2.109
 3636SOL     OW11806   0.472   5.146   6.345
 3636SOL    HW111807   0.493   5.225   6.287
 3636SOL    HW211808   0.547   5.080   6.338
 3637SOL     OW11809   6.168   3.273   0.226
 3637SOL    HW111810   6.229   3.238   0.297
 3637SOL    HW211811   6.083   3.220   0.226
 3638SOL     OW11812   6.917   3.375   3.344
 3638SOL    HW111813   6.856   3.295   3.343
 3638SOL    HW211814   6.960   3.385   3.255
 3639SOL     OW11815   4.028   3.531   3.567
 3639SOL    HW111816   4.013   3.619   3.523
 3639SOL    HW211817   4.014   3.457   3.501
 3640SOL     OW11818   4.608   1.939   1.924
 3640SOL    HW111819   4.627   2.017   1.983
 3640SOL    HW211820   4.529   1.889   1.960
 3641SOL     OW11821   6.154   4.295   2.505
 3641SOL    HW111822   6.218   4.256   2.571
 3641SOL    HW211823   6.199   4.369   2.454
 3642SOL     OW11824   5.262   3.081   5.894
 3642SOL    HW111825   5.261   3.026   5.978
 3642SOL    HW211826   5.189   3.149   5.899
 3643SOL     OW11827   4.132   5.771   4.572
 3643SOL    HW111828   4.097   5.703   4.637
 3643SOL    HW211829   4.060   5.835   4.548
 3644SOL     OW11830   2.837   0.331   1.737
 3644SOL    HW111831   2.801   0.424   1.729
 3644SOL    HW211832   2.920   0.323   1.682
 3645SOL     OW11833   1.414   4.213   3.340
 3645SOL    HW111834   1.370   4.291   3.295
 3645SOL    HW211835   1.388   4.128   3.294
 3646SOL     OW11836   1.450   4.816   5.681
 3646SOL    HW111837   1.511   4.838   5.605
 3646SOL    HW211838   1.364   4.866   5.671
 3647SOL     OW11839   2.219   0.051   6.638
 3647SOL    HW111840   2.240   6.989   6.688
 3647SOL    HW211841   2.272   0.127   6.677
 3648SOL     OW11842   4.545   5.537   3.248
 3648SOL    HW111843   4.544   5.631   3.214
 3648SOL    HW211844   4.464   5.521   3.305
 3649SOL     OW11845   5.999   2.319   0.375
 3649SOL    HW111846   5.911   2.350   0.338
 3649SOL    HW211847   6.053   2.398   0.403
 3650SOL     OW11848   5.504   5.907   6.327
 3650SOL    HW111849   5.469   5.841   6.394
 3650SOL    HW211850   5.491   5.872   6.235
 3651SOL     OW11851   1.040   2.107   5.877
 3651SOL    HW111852   1.077   2.115   5.970
 3651SOL    HW211853   1.113   2.081   5.814
 3652SOL     OW11854   4.394   1.757   1.776
 3652SOL    HW111855   4.398   1.801   1.687
 3652SOL    HW211856   4.379   1.827   1.847
 3653SOL     OW11857   1.825   1.857   0.889
 3653SOL    HW111858   1.880   1.785   0.848
 3653SOL    HW211859   1.798   1.829   0.982
 3654SOL     OW11860   4.331   6.503   1.789
 3654SOL    HW111861   4.381   6.487   1.704
 3654SOL    HW211862   4.395   6.520   1.864
 3655SOL     OW11863   0.926   1.073   4.002
 3655SOL    HW111864   0.909   0.999   4.067
 3655SOL    HW211865   1.009   1.053   3.950
 3656SOL     OW11866   0.256   0.072   1.260
 3656SOL    HW111867   0.238   0.114   1.171
 3656SOL    HW211868   0.282   6.999   1.247
 3657SOL     OW11869   5.939   5.448   6.246
 3657SOL    HW111870   5.932   5.548   6.240
 3657SOL    HW211871   6.014   5.424   6.308
 3658SOL     OW11872   1.899   4.530   5.670
 3658SOL    HW111873   1.964   4.537   5.745
 3658SOL    HW211874   1.808   4.556   5.703
 3659SOL     OW11875   0.460   2.637   6.419
 3659SOL    HW111876   0.419   2.723   6.388
 3659SOL    HW211877   0.474   2.640   6.518
 3660SOL     OW11878   4.829   5.473   6.101
 3660SOL    HW111879   4.883   5.556   6.115
 3660SOL    HW211880   4.880   5.410   6.042
 3661SOL     OW11881   0.233   1.481   4.516
 3661SOL    HW111882   0.324   1.476   4.556
 3661SOL    HW211883   0.238   1.523   4.425
 3662SOL     OW11884   3.222   1.770   5.504
 3662SOL    HW111885   3.194   1.864   5.486
 3662SOL    HW211886   3.317   1.768   5.535
 3663SOL     OW11887   2.461   2.400   6.695
 3663SOL    HW111888   2.389   2.361   6.638
 3663SOL    HW211889   2.549   2.360   6.669
 3664SOL     OW11890   3.335   2.010   1.089
 3664SOL    HW111891   3.279   2.092   1.107
 3664SOL    HW211892   3.329   1.986   0.993
 3665SOL     OW11893   0.352   5.547   6.057
 3665SOL    HW111894   0.344   5.462   6.006
 3665SOL    HW211895   0.443   5.586   6.043
 3666SOL     OW11896   2.164   3.236   4.557
 3666SOL    HW111897   2.175   3.307   4.627
 3666SOL    HW211898   2.140   3.149   4.600
 3667SOL     OW11899   1.690   6.809   1.068
 3667SOL    HW111900   1.767   6.856   1.111
 3667SOL    HW211901   1.619   6.793   1.137
 3668SOL     OW11902   6.561   1.042   0.804
 3668SOL    HW111903   6.649   1.074   0.771
 3668SOL    HW211904   6.504   1.120   0.827
 3669SOL     OW11905   0.811   0.955   3.511
 3669SOL    HW111906   0.773   0.971   3.420
 3669SOL    HW211907   0.755   1.004   3.579
 3670SOL     OW11908   2.717   0.141   1.467
 3670SOL    HW111909   2.810   0.125   1.436
 3670SOL    HW211910   2.715   0.221   1.527
 3671SOL     OW11911   6.965   0.794   4.520
 3671SOL    HW111912   0.000   0.876   4.516
 3671SOL    HW211913   6.873   0.819   4.548
 3672SOL     OW11914   3.472   0.211   3.885
 3672SOL    HW111915   3.571   0.208   3.871
 3672SOL    HW211916   3.439   0.305   3.875
 3673SOL     OW11917   3.618   0.175   1.320
 3673SOL    HW111918   3.563   0.225   1.253
 3673SOL    HW211919   3.665   0.100   1.273
 3674SOL     OW11920   0.321   4.763   0.018
 3674SOL    HW111921   0.269   4.740   0.100
 3674SOL    HW211922   0.271   4.833   6.988
 3675SOL     OW11923   0.755   0.698   3.933
 3675SOL    HW111924   0.721   0.661   4.019
 3675SOL    HW211925   0.750   0.628   3.862
 3676SOL     OW11926   3.443   1.251   4.822
 3676SOL    HW111927   3.493   1.194   4.888
 3676SOL    HW211928   3.404   1.193   4.751
 3677SOL     OW11929   1.365   1.180   4.646
 3677SOL    HW111930   1.299   1.124   4.597
 3677SOL    HW211931   1.367   1.153   4.743
 3678SOL     OW11932   1.377   0.845   3.620
 3678SOL    HW111933   1.437   0.852   3.699
 3678SOL    HW211934   1.351   0.937   3.590
 3679SOL     OW11935   3.821   0.438   2.288
 3679SOL    HW111936   3.823   0.340   2.266
 3679SOL    HW211937   3.890   0.457   2.358
 3680SOL     OW11938   3.150   1.907   4.617
 3680SOL    HW111939   3.222   1.856   4.666
 3680SOL    HW211940   3.186   1.938   4.530
 3681SOL     OW11941   0.938   6.407   4.083
 3681SOL    HW111942   0.977   6.425   3.993
 3681SOL    HW211943   0.845   6.441   4.087
 3682SOL     OW11944   5.335   1.919   0.715
 3682SOL    HW111945   5.386   1.933   0.800
 3682SOL    HW211946   5.367   1.984   0.646
 3683SOL     OW11947   6.553   1.563   0.439
 3683SOL    HW111948   6.501   1.646   0.460
 3683SOL    HW211949   6.577   1.517   0.524
 3684SOL     OW11950   2.665   6.360   5.242
 3684SOL    HW111951   2.688   6.312   5.157
 3684SOL    HW211952   2.749   6.388   5.288
 3685SOL     OW11953   1.660   6.124   4.599
 3685SOL    HW111954   1.594   6.056   4.631
 3685SOL    HW211955   1.627   6.163   4.513
 3686SOL     OW11956   0.187   3.752   0.880
 3686SOL    HW111957   0.225   3.673   0.831
 3686SOL    HW211958   0.137   3.721   0.961
 3687SOL     OW11959   6.196   4.169   4.513
 3687SOL    HW111960   6.185   4.127   4.423
 3687SOL    HW211961   6.224   4.265   4.501
 3688SOL     OW11962   6.415   2.500   1.486
 3688SOL    HW111963   6.505   2.485   1.445
 3688SOL    HW211964   6.394   2.424   1.547
 3689SOL     OW11965   0.925   0.376   6.424
 3689SOL    HW111966   0.969   0.349   6.338
 3689SOL    HW211967   0.828   0.353   6.421
 3690SOL     OW11968   5.537   5.380   1.682
 3690SOL    HW111969   5.538   5.441   1.762
 3690SOL    HW211970   5.624   5.331   1.677
 3691SOL     OW11971   1.669   2.739   0.612
 3691SOL    HW111972   1.650   2.733   0.514
 3691SOL    HW211973   1.601   2.687   0.662
 3692SOL     OW11974   0.958   2.930   5.177
 3692SOL    HW111975   0.872   2.909   5.131
 3692SOL    HW211976   0.939   2.957   5.272
 3693SOL     OW11977   0.700   1.509   2.731
 3693SOL    HW111978   0.612   1.557   2.733
 3693SOL    HW211979   0.686   1.414   2.704
 3694SOL     OW11980   6.451   0.223   3.112
 3694SOL    HW111981   6.528   0.208   3.050
 3694SOL    HW211982   6.367   0.188   3.069
 3695SOL     OW11983   5.929   3.750   3.388
 3695SOL    HW111984   5.929   3.705   3.477
 3695SOL    HW211985   5.839   3.788   3.369
 3696SOL     OW11986   4.179   0.784   4.481
 3696SOL    HW111987   4.119   0.730   4.540
 3696SOL    HW211988   4.128   0.816   4.402
 3697SOL     OW11989   6.494   6.290   3.113
 3697SOL    HW111990   6.400   6.256   3.103
 3697SOL    HW211991   6.491   6.384   3.147
 3698SOL     OW11992   1.771   0.456   3.180
 3698SOL    HW111993   1.819   0.404   3.251
 3698SOL    HW211994   1.819   0.543   3.164
 3699SOL     OW11995   2.650   2.430   3.204
 3699SOL    HW111996   2.565   2.389   3.172
 3699SOL    HW211997   2.668   2.514   3.153
 3700SOL     OW11998   1.053   5.077   4.958
 3700SOL    HW111999   1.118   5.152   4.969
 3700SOL    HW212000   1.057   5.043   4.864
 3701SOL     OW12001   0.420   0.918   2.573
 3701SOL    HW112002   0.491   0.849   2.582
 3701SOL    HW212003   0.450   0.989   2.509
 3702SOL     OW12004   6.282   3.656   3.672
 3702SOL    HW112005   6.270   3.711   3.590
 3702SOL    HW212006   6.218   3.687   3.742
 3703SOL     OW12007   1.461   1.458   3.518
 3703SOL    HW112008   1.453   1.458   3.418
 3703SOL    HW212009   1.472   1.364   3.550
 3704SOL     OW12010   6.129   0.942   0.636
 3704SOL    HW112011   6.177   0.867   0.680
 3704SOL    HW212012   6.054   0.906   0.580
 3705SOL     OW12013   5.709   4.213   3.625
 3705SOL    HW112014   5.676   4.308   3.628
 3705SOL    HW212015   5.653   4.156   3.685
 3706SOL     OW12016   1.337   4.812   6.248
 3706SOL    HW112017   1.365   4.818   6.152
 3706SOL    HW212018   1.357   4.898   6.294
 3707SOL     OW12019   1.159   4.873   3.322
 3707SOL    HW112020   1.140   4.811   3.246
 3707SOL    HW212021   1.217   4.826   3.390
 3708SOL     OW12022   1.913   6.368   1.159
 3708SOL    HW112023   2.010   6.384   1.180
 3708SOL    HW212024   1.899   6.271   1.140
 3709SOL     OW12025   1.029   1.134   1.687
 3709SOL    HW112026   1.060   1.205   1.750
 3709SOL    HW212027   1.099   1.117   1.618
 3710SOL     OW12028   1.173   3.879   4.996
 3710SOL    HW112029   1.173   3.978   5.007
 3710SOL    HW212030   1.263   3.843   5.020
 3711SOL     OW12031   1.353   5.685   4.640
 3711SOL    HW112032   1.376   5.644   4.552
 3711SOL    HW212033   1.394   5.630   4.714
 3712SOL     OW12034   2.797   5.490   4.493
 3712SOL    HW112035   2.874   5.552   4.505
 3712SOL    HW212036   2.742   5.488   4.577
 3713SOL     OW12037   5.898   0.824   4.832
 3713SOL    HW112038   5.932   0.741   4.787
 3713SOL    HW212039   5.827   0.799   4.898
 3714SOL     OW12040   0.433   4.039   0.440
 3714SOL    HW112041   0.393   3.987   0.516
 3714SOL    HW212042   0.361   4.086   0.390
 3715SOL     OW12043   5.906   4.821   3.610
 3715SOL    HW112044   6.000   4.842   3.636
 3715SOL    HW212045   5.894   4.837   3.512
 3716SOL     OW12046   5.467   5.930   4.930
 3716SOL    HW112047   5.465   5.874   5.013
 3716SOL    HW212048   5.381   5.918   4.880
 3717SOL     OW12049   4.407   0.831   0.460
 3717SOL    HW112050   4.391   0.777   0.377
 3717SOL    HW212051   4.429   0.925   0.435
 3718SOL     OW12052   6.087   6.520   6.436
 3718SOL    HW112053   6.019   6.593   6.441
 3718SOL    HW212054   6.176   6.557   6.464
 3719SOL     OW12055   3.258   4.152   0.359
 3719SOL    HW112056   3.194   4.217   0.401
 3719SOL    HW212057   3.315   4.112   0.430
 3720SOL     OW12058   0.399   2.991   1.244
 3720SOL    HW112059   0.389   3.013   1.341
 3720SOL    HW212060   0.325   3.035   1.193
 3721SOL     OW12061   6.461   0.394   5.718
 3721SOL    HW112062   6.489   0.319   5.777
 3721SOL    HW212063   6.384   0.442   5.759
 3722SOL     OW12064   5.633   6.329   2.153
 3722SOL    HW112065   5.603   6.283   2.237
 3722SOL    HW212066   5.664   6.261   2.087
 3723SOL     OW12067   4.827   3.689   6.506
 3723SOL    HW112068   4.791   3.781   6.491
 3723SOL    HW212069   4.905   3.673   6.446
 3724SOL     OW12070   0.449   3.969   4.286
 3724SOL    HW112071   0.482   4.040   4.224
 3724SOL    HW212072   0.445   4.006   4.379
 3725SOL     OW12073   1.479   6.265   0.646
 3725SOL    HW112074   1.525   6.179   0.666
 3725SOL    HW212075   1.502   6.332   0.717
 3726SOL     OW12076   5.999   4.169   5.857
 3726SOL    HW112077   5.985   4.132   5.765
 3726SOL    HW212078   6.084   4.220   5.860
 3727SOL     OW12079   6.745   2.666   4.198
 3727SOL    HW112080   6.659   2.677   4.149
 3727SOL    HW212081   6.752   2.737   4.269
 3728SOL     OW12082   2.761   4.279   0.857
 3728SOL    HW112083   2.771   4.200   0.796
 3728SOL    HW212084   2.667   4.286   0.889
 3729SOL     OW12085   0.243   0.393   5.824
 3729SOL    HW112086   0.292   0.308   5.805
 3729SOL    HW212087   0.154   0.391   5.778
 3730SOL     OW12088   4.830   5.283   4.923
 3730SOL    HW112089   4.864   5.253   4.834
 3730SOL    HW212090   4.791   5.205   4.971
 3731SOL     OW12091   0.295   1.897   0.635
 3731SOL    HW112092   0.388   1.862   0.638
 3731SOL    HW212093   0.277   1.936   0.545
 3732SOL     OW12094   3.872   3.077   0.052
 3732SOL    HW112095   3.914   3.050   0.138
 3732SOL    HW212096   3.861   2.997   7.015
 3733SOL     OW12097   1.374   0.151   3.743
 3733SOL    HW112098   1.317   0.169   3.824
 3733SOL    HW212099   1.403   0.238   3.703
 3734SOL     OW12100   3.793   0.376   1.375
 3734SOL    HW112101   3.819   0.384   1.278
 3734SOL    HW212102   3.714   0.314   1.383
 3735SOL     OW12103   4.789   0.088   2.670
 3735SOL    HW112104   4.788   0.050   2.577
 3735SOL    HW212105   4.703   0.136   2.687
 3736SOL     OW12106   0.120   1.343   6.940
 3736SOL    HW112107   0.072   1.311   6.858
 3736SOL    HW212108   0.053   1.368   7.010
 3737SOL     OW12109   6.170   2.159   2.667
 3737SOL    HW112110   6.093   2.181   2.608
 3737SOL    HW212111   6.234   2.100   2.616
 3738SOL     OW12112   0.319   0.533   1.384
 3738SOL    HW112113   0.256   0.610   1.401
 3738SOL    HW212114   0.281   0.450   1.425
 3739SOL     OW12115   3.345   3.791   6.513
 3739SOL    HW112116   3.409   3.753   6.579
 3739SOL    HW212117   3.300   3.718   6.462
 3740SOL     OW12118   4.993   5.620   6.772
 3740SOL    HW112119   4.928   5.691   6.744
 3740SOL    HW212120   4.994   5.613   6.872
 3741SOL     OW12121   5.456   3.374   0.156
 3741SOL    HW112122   5.453   3.422   0.068
 3741SOL    HW212123   5.372   3.323   0.169
 3742SOL     OW12124   4.396   5.657   1.202
 3742SOL    HW112125   4.389   5.746   1.246
 3742SOL    HW212126   4.357   5.662   1.110
 3743SOL     OW12127   3.752   4.164   0.862
 3743SOL    HW112128   3.836   4.215   0.844
 3743SOL    HW212129   3.758   4.074   0.818
 3744SOL     OW12130   6.517   6.750   2.715
 3744SOL    HW112131   6.557   6.756   2.624
 3744SOL    HW212132   6.589   6.727   2.782
 3745SOL     OW12133   4.734   2.786   2.523
 3745SOL    HW112134   4.651   2.786   2.466
 3745SOL    HW212135   4.815   2.789   2.464
 3746SOL     OW12136   6.367   0.695   4.671
 3746SOL    HW112137   6.291   0.677   4.609
 3746SOL    HW212138   6.414   0.610   4.692
 3747SOL     OW12139   3.293   5.843   5.262
 3747SOL    HW112140   3.239   5.902   5.321
 3747SOL    HW212141   3.373   5.811   5.312
 3748SOL     OW12142   4.980   2.290   3.897
 3748SOL    HW112143   5.033   2.349   3.958
 3748SOL    HW212144   4.939   2.216   3.949
 3749SOL     OW12145   6.632   6.022   2.402
 3749SOL    HW112146   6.706   5.957   2.385
 3749SOL    HW212147   6.566   5.983   2.465
 3750SOL     OW12148   5.466   3.926   1.252
 3750SOL    HW112149   5.421   3.979   1.181
 3750SOL    HW212150   5.398   3.898   1.321
 3751SOL     OW12151   1.051   4.309   1.892
 3751SOL    HW112152   1.068   4.383   1.957
 3751SOL    HW212153   0.954   4.283   1.895
 3752SOL     OW12154   0.499   6.185   6.150
 3752SOL    HW112155   0.457   6.111   6.097
 3752SOL    HW212156   0.449   6.270   6.134
 3753SOL     OW12157   6.710   1.068   5.018
 3753SOL    HW112158   6.645   0.999   5.049
 3753SOL    HW212159   6.689   1.156   5.061
 3754SOL     OW12160   6.647   5.990   1.695
 3754SOL    HW112161   6.734   5.941   1.690
 3754SOL    HW212162   6.646   6.046   1.778
 3755SOL     OW12163   5.075   2.743   2.574
 3755SOL    HW112164   5.082   2.673   2.503
 3755SOL    HW212165   5.039   2.827   2.535
 3756SOL     OW12166   3.210   0.360   6.833
 3756SOL    HW112167   3.141   0.398   6.895
 3756SOL    HW212168   3.282   0.317   6.887
 3757SOL     OW12169   3.712   4.697   6.853
 3757SOL    HW112170   3.627   4.650   6.878
 3757SOL    HW212171   3.790   4.637   6.874
 3758SOL     OW12172   0.244   0.348   2.834
 3758SOL    HW112173   0.304   0.291   2.777
 3758SOL    HW212174   0.297   0.423   2.873
 3759SOL     OW12175   5.061   5.040   0.725
 3759SOL    HW112176   5.071   5.060   0.823
 3759SOL    HW212177   4.972   5.073   0.693
 3760SOL     OW12178   2.301   2.163   5.579
 3760SOL    HW112179   2.382   2.111   5.604
 3760SOL    HW212180   2.326   2.258   5.562
 3761SOL     OW12181   0.242   6.432   4.253
 3761SOL    HW112182   0.298   6.466   4.178
 3761SOL    HW212183   0.145   6.438   4.227
 3762SOL     OW12184   0.415   3.981   6.515
 3762SOL    HW112185   0.379   4.060   6.565
 3762SOL    HW212186   0.383   3.985   6.420
 3763SOL     OW12187   6.452   3.972   5.645
 3763SOL    HW112188   6.412   3.960   5.735
 3763SOL    HW212189   6.528   3.908   5.633
 3764SOL     OW12190   2.570   6.941   4.334
 3764SOL    HW112191   2.558   0.001   4.279
 3764SOL    HW212192   2.593   6.864   4.275
 3765SOL     OW12193   6.432   1.666   3.527
 3765SOL    HW112194   6.420   1.637   3.622
 3765SOL    HW212195   6.529   1.665   3.504
 3766SOL     OW12196   1.361   0.200   4.904
 3766SOL    HW112197   1.460   0.185   4.907
 3766SOL    HW212198   1.339   0.285   4.952
 3767SOL     OW12199   1.339   4.300   0.529
 3767SOL    HW112200   1.438   4.288   0.534
 3767SOL    HW212201   1.315   4.394   0.557
 3768SOL     OW12202   4.313   6.689   0.980
 3768SOL    HW112203   4.373   6.749   1.033
 3768SOL    HW212204   4.233   6.665   1.034
 3769SOL     OW12205   4.564   6.541   4.806
 3769SOL    HW112206   4.621   6.603   4.752
 3769SOL    HW212207   4.501   6.594   4.862
 3770SOL     OW12208   2.204   1.676   0.372
 3770SOL    HW112209   2.175   1.597   0.426
 3770SOL    HW212210   2.239   1.747   0.433
 3771SOL     OW12211   4.679   1.286   5.035
 3771SOL    HW112212   4.719   1.292   5.127
 3771SOL    HW212213   4.596   1.230   5.039
 3772SOL     OW12214   4.689   0.963   2.567
 3772SOL    HW112215   4.764   0.903   2.594
 3772SOL    HW212216   4.716   1.059   2.581
 3773SOL     OW12217   6.755   2.143   0.191
 3773SOL    HW112218   6.824   2.168   0.124
 3773SOL    HW212219   6.704   2.063   0.158
 3774SOL     OW12220   1.140   2.217   2.179
 3774SOL    HW112221   1.062   2.162   2.208
 3774SOL    HW212222   1.209   2.219   2.251
 3775SOL     OW12223   5.746   3.162   3.657
 3775SOL    HW112224   5.803   3.081   3.644
 3775SOL    HW212225   5.682   3.171   3.581
 3776SOL     OW12226   2.826   2.929   6.798
 3776SOL    HW112227   2.839   2.893   6.890
 3776SOL    HW212228   2.770   3.012   6.802
 3777SOL     OW12229   1.642   3.977   3.418
 3777SOL    HW112230   1.685   4.021   3.496
 3777SOL    HW212231   1.665   4.027   3.334
 3778SOL     OW12232   2.337   6.727   1.783
 3778SOL    HW112233   2.361   6.809   1.835
 3778SOL    HW212234   2.420   6.676   1.761
 3779SOL     OW12235   2.868   5.079   6.958
 3779SOL    HW112236   2.836   5.050   6.868
 3779SOL    HW212237   2.958   5.039   6.976
 3780SOL     OW12238   2.619   0.067   4.852
 3780SOL    HW112239   2.609   0.016   4.767
 3780SOL    HW212240   2.700   0.125   4.847
 3781SOL     OW12241   2.783   5.175   4.644
 3781SOL    HW112242   2.736   5.136   4.722
 3781SOL    HW212243   2.770   5.274   4.643
 3782SOL     OW12244   2.262   1.503   2.921
 3782SOL    HW112245   2.302   1.550   2.842
 3782SOL    HW212246   2.277   1.559   3.003
 3783SOL     OW12247   4.986   6.122   5.551
 3783SOL    HW112248   4.948   6.205   5.511
 3783SOL    HW212249   4.915   6.073   5.601
 3784SOL     OW12250   4.758   1.786   3.609
 3784SOL    HW112251   4.792   1.735   3.687
 3784SOL    HW212252   4.832   1.842   3.570
 3785SOL     OW12253   1.557   1.799   1.974
 3785SOL    HW112254   1.599   1.856   1.903
 3785SOL    HW212255   1.538   1.856   2.054
 3786SOL     OW12256   3.321   5.682   2.900
 3786SOL    HW112257   3.312   5.674   2.999
 3786SOL    HW212258   3.257   5.750   2.866
 3787SOL     OW12259   3.942   1.213   4.549
 3787SOL    HW112260   3.995   1.143   4.596
 3787SOL    HW212261   3.866   1.170   4.501
 3788SOL     OW12262   6.093   3.609   2.114
 3788SOL    HW112263   5.999   3.605   2.147
 3788SOL    HW212264   6.134   3.696   2.142
 3789SOL     OW12265   1.136   5.221   2.648
 3789SOL    HW112266   1.233   5.207   2.627
 3789SOL    HW212267   1.123   5.217   2.747
 3790SOL     OW12268   2.209   3.032   3.559
 3790SOL    HW112269   2.290   2.984   3.591
 3790SOL    HW212270   2.211   3.127   3.591
 3791SOL     OW12271   5.881   0.204   2.407
 3791SOL    HW112272   5.831   0.273   2.460
 3791SOL    HW212273   5.978   0.227   2.404
 3792SOL     OW12274   0.125   6.891   6.542
 3792SOL    HW112275   0.221   6.920   6.545
 3792SOL    HW212276   0.117   6.805   6.492
 3793SOL     OW12277   1.854   6.563   2.859
 3793SOL    HW112278   1.841   6.481   2.914
 3793SOL    HW212279   1.923   6.621   2.902
 3794SOL     OW12280   4.069   6.315   2.453
 3794SOL    HW112281   4.060   6.412   2.434
 3794SOL    HW212282   4.156   6.299   2.501
 3795SOL     OW12283   4.673   0.297   0.961
 3795SOL    HW112284   4.637   0.309   0.868
 3795SOL    HW212285   4.766   0.261   0.955
 3796SOL     OW12286   1.748   2.784   1.027
 3796SOL    HW112287   1.739   2.757   0.932
 3796SOL    HW212288   1.668   2.838   1.055
 3797SOL     OW12289   0.282   5.633   2.420
 3797SOL    HW112290   0.186   5.611   2.433
 3797SOL    HW212291   0.298   5.661   2.325
 3798SOL     OW12292   1.032   4.368   1.469
 3798SOL    HW112293   0.933   4.382   1.461
 3798SOL    HW212294   1.075   4.377   1.379
 3799SOL     OW12295   1.148   0.276   5.288
 3799SOL    HW112296   1.171   0.329   5.370
 3799SOL    HW212297   1.089   0.200   5.313
 3800SOL     OW12298   5.371   2.176   5.152
 3800SOL    HW112299   5.302   2.225   5.205
 3800SOL    HW212300   5.329   2.099   5.105
 3801SOL     OW12301   0.088   0.043   6.861
 3801SOL    HW112302   0.120   0.076   6.950
 3801SOL    HW212303   0.047   0.119   6.810
 3802SOL     OW12304   1.308   2.358   5.989
 3802SOL    HW112305   1.385   2.354   6.052
 3802SOL    HW212306   1.232   2.305   6.026
 3803SOL     OW12307   3.590   1.203   1.091
 3803SOL    HW112308   3.636   1.115   1.081
 3803SOL    HW212309   3.619   1.247   1.176
 3804SOL     OW12310   4.585   2.857   5.223
 3804SOL    HW112311   4.603   2.782   5.158
 3804SOL    HW212312   4.495   2.843   5.265
 3805SOL     OW12313   2.176   3.766   1.352
 3805SOL    HW112314   2.219   3.834   1.412
 3805SOL    HW212315   2.104   3.719   1.403
 3806SOL     OW12316   3.275   1.479   0.715
 3806SOL    HW112317   3.257   1.538   0.636
 3806SOL    HW212318   3.200   1.414   0.725
 3807SOL     OW12319   1.482   0.050   3.213
 3807SOL    HW112320   1.573   0.029   3.178
 3807SOL    HW212321   1.439   0.119   3.154
 3808SOL     OW12322   3.221   0.337   0.373
 3808SOL    HW112323   3.217   0.246   0.414
 3808SOL    HW212324   3.140   0.351   0.316
 3809SOL     OW12325   4.536   0.274   6.478
 3809SOL    HW112326   4.452   0.327   6.482
 3809SOL    HW212327   4.551   0.229   6.567
 3810SOL     OW12328   2.645   2.931   5.729
 3810SOL    HW112329   2.623   2.920   5.826
 3810SOL    HW212330   2.733   2.977   5.719
 3811SOL     OW12331   0.261   0.649   6.384
 3811SOL    HW112332   0.254   0.639   6.285
 3811SOL    HW212333   0.246   0.561   6.428
 3812SOL     OW12334   5.224   1.515   5.438
 3812SOL    HW112335   5.265   1.480   5.522
 3812SOL    HW212336   5.127   1.534   5.453
 3813SOL     OW12337   3.933   4.773   1.872
 3813SOL    HW112338   3.883   4.802   1.790
 3813SOL    HW212339   3.871   4.773   1.950
 3814SOL     OW12340   1.721   6.766   2.481
 3814SOL    HW112341   1.737   6.838   2.413
 3814SOL    HW212342   1.798   6.764   2.545
 3815SOL     OW12343   5.371   1.903   1.512
 3815SOL    HW112344   5.345   1.811   1.543
 3815SOL    HW212345   5.379   1.903   1.412
 3816SOL     OW12346   0.432   6.419   1.190
 3816SOL    HW112347   0.456   6.393   1.097
 3816SOL    HW212348   0.516   6.430   1.244
 3817SOL     OW12349   4.875   1.380   5.547
 3817SOL    HW112350   4.962   1.333   5.555
 3817SOL    HW212351   4.839   1.400   5.638
 3818SOL     OW12352   4.696   5.449   2.849
 3818SOL    HW112353   4.647   5.510   2.911
 3818SOL    HW212354   4.635   5.376   2.817
 3819SOL     OW12355   5.683   4.511   6.187
 3819SOL    HW112356   5.752   4.496   6.117
 3819SOL    HW212357   5.616   4.436   6.183
 3820SOL     OW12358   5.093   5.906   4.213
 3820SOL    HW112359   5.020   5.958   4.258
 3820SOL    HW212360   5.165   5.969   4.183
 3821SOL     OW12361   0.705   4.120   1.173
 3821SOL    HW112362   0.687   4.127   1.075
 3821SOL    HW212363   0.745   4.206   1.205
 3822SOL     OW12364   1.350   4.677   1.864
 3822SOL    HW112365   1.391   4.705   1.777
 3822SOL    HW212366   1.335   4.578   1.864
 3823SOL     OW12367   2.552   2.747   5.546
 3823SOL    HW112368   2.460   2.777   5.522
 3823SOL    HW212369   2.588   2.803   5.620
 3824SOL     OW12370   6.613   2.406   6.530
 3824SOL    HW112371   6.597   2.399   6.629
 3824SOL    HW212372   6.580   2.323   6.485
 3825SOL     OW12373   6.283   6.521   6.054
 3825SOL    HW112374   6.291   6.597   6.119
 3825SOL    HW212375   6.187   6.507   6.030
 3826SOL     OW12376   6.510   2.267   0.787
 3826SOL    HW112377   6.535   2.170   0.790
 3826SOL    HW212378   6.462   2.286   0.701
 3827SOL     OW12379   5.330   2.634   1.222
 3827SOL    HW112380   5.356   2.625   1.318
 3827SOL    HW212381   5.261   2.565   1.200
 3828SOL     OW12382   3.947   1.215   1.419
 3828SOL    HW112383   3.951   1.218   1.519
 3828SOL    HW212384   4.008   1.284   1.381
 3829SOL     OW12385   0.750   5.545   3.773
 3829SOL    HW112386   0.734   5.451   3.803
 3829SOL    HW212387   0.794   5.543   3.683
 3830SOL     OW12388   3.197   0.703   5.274
 3830SOL    HW112389   3.241   0.792   5.287
 3830SOL    HW212390   3.104   0.716   5.240
 3831SOL     OW12391   4.533   2.146   2.291
 3831SOL    HW112392   4.504   2.242   2.287
 3831SOL    HW212393   4.573   2.127   2.381
 3832SOL     OW12394   5.155   7.022   2.251
 3832SOL    HW112395   5.117   0.038   2.167
 3832SOL    HW212396   5.225   6.954   2.228
 3833SOL     OW12397   1.793   6.185   0.860
 3833SOL    HW112398   1.850   6.238   0.797
 3833SOL    HW212399   1.727   6.131   0.809
 3834SOL     OW12400   2.667   2.191   0.730
 3834SOL    HW112401   2.643   2.257   0.658
 3834SOL    HW212402   2.767   2.184   0.736
 3835SOL     OW12403   3.626   5.855   3.973
 3835SOL    HW112404   3.717   5.892   3.955
 3835SOL    HW212405   3.630   5.755   3.974
 3836SOL     OW12406   1.714   3.203   5.339
 3836SOL    HW112407   1.768   3.235   5.262
 3836SOL    HW212408   1.658   3.125   5.310
 3837SOL     OW12409   3.167   3.757   0.054
 3837SOL    HW112410   3.114   3.706   7.009
 3837SOL    HW212411   3.108   3.787   0.129
 3838SOL     OW12412   5.939   3.129   5.335
 3838SOL    HW112413   5.962   3.115   5.432
 3838SOL    HW212414   5.903   3.222   5.323
 3839SOL     OW12415   7.003   6.396   6.057
 3839SOL    HW112416   6.905   6.378   6.049
 3839SOL    HW212417   0.003   6.478   6.005
 3840SOL     OW12418   2.754   0.817   3.368
 3840SOL    HW112419   2.708   0.728   3.362
 3840SOL    HW212420   2.703   0.876   3.432
 3841SOL     OW12421   1.008   3.706   4.850
 3841SOL    HW112422   1.104   3.680   4.852
 3841SOL    HW212423   0.993   3.783   4.912
 3842SOL     OW12424   1.744   4.837   6.359
 3842SOL    HW112425   1.729   4.796   6.449
 3842SOL    HW212426   1.696   4.785   6.290
 3843SOL     OW12427   5.531   3.881   0.458
 3843SOL    HW112428   5.603   3.881   0.528
 3843SOL    HW212429   5.546   3.956   0.394
 3844SOL     OW12430   2.618   3.988   6.097
 3844SOL    HW112431   2.633   4.079   6.136
 3844SOL    HW212432   2.525   3.958   6.118
 3845SOL     OW12433   3.003   3.162   3.404
 3845SOL    HW112434   3.056   3.104   3.341
 3845SOL    HW212435   2.991   3.114   3.491
 3846SOL     OW12436   0.167   4.079   4.120
 3846SOL    HW112437   0.090   4.040   4.069
 3846SOL    HW212438   0.252   4.036   4.090
 3847SOL     OW12439   0.737   6.944   0.619
 3847SOL    HW112440   0.658   6.926   0.562
 3847SOL    HW212441   0.814   6.888   0.589
 3848SOL     OW12442   2.715   5.335   1.342
 3848SOL    HW112443   2.743   5.244   1.370
 3848SOL    HW212444   2.781   5.402   1.376
 3849SOL     OW12445   2.224   1.818   5.910
 3849SOL    HW112446   2.296   1.835   5.843
 3849SOL    HW212447   2.185   1.727   5.895
 3850SOL     OW12448   2.290   4.087   1.087
 3850SOL    HW112449   2.301   4.164   1.151
 3850SOL    HW212450   2.372   4.031   1.088
 3851SOL     OW12451   2.144   2.920   1.370
 3851SOL    HW112452   2.200   2.901   1.450
 3851SOL    HW212453   2.152   3.017   1.346
 3852SOL     OW12454   4.649   0.792   5.521
 3852SOL    HW112455   4.603   0.862   5.466
 3852SOL    HW212456   4.703   0.836   5.593
 3853SOL     OW12457   1.481   2.960   1.911
 3853SOL    HW112458   1.569   2.956   1.958
 3853SOL    HW212459   1.465   2.875   1.861
 3854SOL     OW12460   1.757   3.318   5.030
 3854SOL    HW112461   1.719   3.388   4.970
 3854SOL    HW212462   1.833   3.357   5.083
 3855SOL     OW12463   6.885   2.055   5.111
 3855SOL    HW112464   6.835   1.987   5.165
 3855SOL    HW212465   6.834   2.075   5.027
 3856SOL     OW12466   0.524   6.584   5.603
 3856SOL    HW112467   0.557   6.671   5.639
 3856SOL    HW212468   0.528   6.514   5.675
 3857SOL     OW12469   1.036   0.029   6.826
 3857SOL    HW112470   1.061   6.976   6.886
 3857SOL    HW212471   1.092   0.025   6.743
 3858SOL     OW12472   2.593   5.047   6.976
 3858SOL    HW112473   2.678   5.093   6.949
 3858SOL    HW212474   2.516   5.110   6.966
 3859SOL     OW12475   6.494   2.856   1.210
 3859SOL    HW112476   6.516   2.765   1.173
 3859SOL    HW212477   6.415   2.893   1.161
 3860SOL     OW12478   2.049   6.369   5.305
 3860SOL    HW112479   2.057   6.292   5.241
 3860SOL    HW212480   2.081   6.453   5.261
 3861SOL     OW12481   4.187   4.332   7.000
 3861SOL    HW112482   4.206   4.353   0.073
 3861SOL    HW212483   4.186   4.417   6.947
 3862SOL     OW12484   0.568   5.577   5.698
 3862SOL    HW112485   0.547   5.481   5.710
 3862SOL    HW212486   0.489   5.625   5.659
 3863SOL     OW12487   2.902   3.599   0.339
 3863SOL    HW112488   2.840   3.540   0.287
 3863SOL    HW212489   2.908   3.689   0.295
 3864SOL     OW12490   2.974   1.407   0.080
 3864SOL    HW112491   2.891   1.419   0.024
 3864SOL    HW212492   3.003   1.496   0.116
 3865SOL     OW12493   4.152   0.741   2.403
 3865SOL    HW112494   4.149   0.766   2.500
 3865SOL    HW212495   4.131   0.822   2.347
 3866SOL     OW12496   3.330   6.497   6.327
 3866SOL    HW112497   3.368   6.405   6.325
 3866SOL    HW212498   3.390   6.559   6.275
 3867SOL     OW12499   1.972   4.224   3.136
 3867SOL    HW112500   1.942   4.319   3.144
 3867SOL    HW212501   2.070   4.219   3.154
 3868SOL     OW12502   2.811   5.147   2.668
 3868SOL    HW112503   2.906   5.124   2.646
 3868SOL    HW212504   2.794   5.243   2.646
 3869SOL     OW12505   0.828   1.499   3.719
 3869SOL    HW112506   0.795   1.412   3.754
 3869SOL    HW212507   0.923   1.512   3.748
 3870SOL     OW12508   4.201   4.113   0.528
 3870SOL    HW112509   4.180   4.206   0.499
 3870SOL    HW212510   4.261   4.115   0.608
 3871SOL     OW12511   3.298   1.370   4.526
 3871SOL    HW112512   3.304   1.291   4.587
 3871SOL    HW212513   3.215   1.422   4.548
 3872SOL     OW12514   4.274   4.063   0.271
 3872SOL    HW112515   4.237   4.093   0.359
 3872SOL    HW212516   4.209   4.001   0.227
 3873SOL     OW12517   4.980   4.889   1.966
 3873SOL    HW112518   5.021   4.799   1.954
 3873SOL    HW212519   5.051   4.959   1.956
 3874SOL     OW12520   4.832   6.157   6.153
 3874SOL    HW112521   4.899   6.114   6.093
 3874SOL    HW212522   4.772   6.217   6.100
 3875SOL     OW12523   2.332   4.232   0.271
 3875SOL    HW112524   2.237   4.252   0.296
 3875SOL    HW212525   2.388   4.228   0.354
 3876SOL     OW12526   5.630   3.964   2.231
 3876SOL    HW112527   5.709   4.008   2.275
 3876SOL    HW212528   5.639   3.865   2.238
 3877SOL     OW12529   4.812   1.737   1.972
 3877SOL    HW112530   4.843   1.830   1.955
 3877SOL    HW212531   4.888   1.682   2.007
 3878SOL     OW12532   4.520   5.959   4.369
 3878SOL    HW112533   4.485   5.946   4.462
 3878SOL    HW212534   4.517   5.872   4.319
 3879SOL     OW12535   2.555   5.707   1.221
 3879SOL    HW112536   2.654   5.700   1.207
 3879SOL    HW212537   2.521   5.788   1.173
 3880SOL     OW12538   5.502   1.857   4.205
 3880SOL    HW112539   5.560   1.904   4.139
 3880SOL    HW212540   5.418   1.825   4.159
 3881SOL     OW12541   0.929   5.242   0.728
 3881SOL    HW112542   0.957   5.191   0.810
 3881SOL    HW212543   0.999   5.232   0.657
 3882SOL     OW12544   0.516   5.761   0.014
 3882SOL    HW112545   0.583   5.834   0.028
 3882SOL    HW212546   0.525   5.726   6.943
 3883SOL     OW12547   3.143   2.415   6.752
 3883SOL    HW112548   3.191   2.385   6.669
 3883SOL    HW212549   3.055   2.455   6.727
 3884SOL     OW12550   2.017   4.983   5.540
 3884SOL    HW112551   2.087   5.035   5.587
 3884SOL    HW212552   1.977   5.038   5.467
 3885SOL     OW12553   0.149   1.726   4.901
 3885SOL    HW112554   0.142   1.755   4.806
 3885SOL    HW212555   0.070   1.761   4.953
 3886SOL     OW12556   0.113   6.502   5.333
 3886SOL    HW112557   0.114   6.410   5.294
 3886SOL    HW212558   0.136   6.496   5.431
 3887SOL     OW12559   5.930   3.193   4.630
 3887SOL    HW112560   5.850   3.143   4.663
 3887SOL    HW212561   5.942   3.276   4.685
 3888SOL     OW12562   5.943   2.284   2.202
 3888SOL    HW112563   5.963   2.371   2.246
 3888SOL    HW212564   6.022   2.256   2.147
 3889SOL     OW12565   6.512   5.781   6.634
 3889SOL    HW112566   6.465   5.829   6.559
 3889SOL    HW212567   6.449   5.716   6.676
 3890SOL     OW12568   6.666   3.368   2.964
 3890SOL    HW112569   6.661   3.275   2.926
 3890SOL    HW212570   6.581   3.417   2.945
 3891SOL     OW12571   4.955   5.302   5.908
 3891SOL    HW112572   4.897   5.311   5.827
 3891SOL    HW212573   4.958   5.207   5.938
 3892SOL     OW12574   5.807   5.675   4.181
 3892SOL    HW112575   5.770   5.656   4.272
 3892SOL    HW212576   5.881   5.611   4.160
 3893SOL     OW12577   2.811   6.526   4.212
 3893SOL    HW112578   2.894   6.543   4.158
 3893SOL    HW212579   2.781   6.431   4.196
 3894SOL     OW12580   5.372   5.353   6.706
 3894SOL    HW112581   5.442   5.425   6.714
 3894SOL    HW212582   5.316   5.351   6.789
 3895SOL     OW12583   2.062   2.028   5.838
 3895SOL    HW112584   2.122   2.062   5.766
 3895SOL    HW212585   2.098   1.942   5.875
 3896SOL     OW12586   6.245   3.397   7.004
 3896SOL    HW112587   6.198   3.482   6.979
 3896SOL    HW212588   6.206   3.361   0.066
 3897SOL     OW12589   3.280   6.544   3.196
 3897SOL    HW112590   3.341   6.616   3.230
 3897SOL    HW212591   3.314   6.510   3.108
 3898SOL     OW12592   3.066   3.325   4.412
 3898SOL    HW112593   3.058   3.234   4.374
 3898SOL    HW212594   3.136   3.326   4.483
 3899SOL     OW12595   4.188   2.002   5.824
 3899SOL    HW112596   4.184   2.086   5.879
 3899SOL    HW212597   4.208   1.924   5.884
 3900SOL     OW12598   0.325   2.775   3.956
 3900SOL    HW112599   0.244   2.794   4.010
 3900SOL    HW212600   0.372   2.860   3.934
 3901SOL     OW12601   2.761   5.018   5.429
 3901SOL    HW112602   2.851   5.016   5.386
 3901SOL    HW212603   2.770   5.046   5.525
 3902SOL     OW12604   4.496   4.883   3.192
 3902SOL    HW112605   4.459   4.832   3.269
 3902SOL    HW212606   4.596   4.876   3.192
 3903SOL     OW12607   3.920   3.503   5.979
 3903SOL    HW112608   4.008   3.458   5.993
 3903SOL    HW212609   3.854   3.469   6.045
 3904SOL     OW12610   2.283   0.009   0.360
 3904SOL    HW112611   2.238   6.942   0.370
 3904SOL    HW212612   2.218   0.082   0.381
 3905SOL     OW12613   5.148   0.086   6.234
 3905SOL    HW112614   5.050   0.070   6.222
 3905SOL    HW212615   5.163   0.148   6.311
 3906SOL     OW12616   6.791   6.424   4.552
 3906SOL    HW112617   6.748   6.471   4.630
 3906SOL    HW212618   6.889   6.444   4.552
 3907SOL     OW12619   0.579   1.754   4.833
 3907SOL    HW112620   0.493   1.711   4.862
 3907SOL    HW212621   0.561   1.847   4.802
 3908SOL     OW12622   1.988   1.236   4.425
 3908SOL    HW112623   2.067   1.242   4.486
 3908SOL    HW212624   1.944   1.146   4.437
 3909SOL     OW12625   5.382   3.494   1.607
 3909SOL    HW112626   5.368   3.395   1.605
 3909SOL    HW212627   5.304   3.540   1.564
 3910SOL     OW12628   2.514   2.872   1.125
 3910SOL    HW112629   2.510   2.846   1.222
 3910SOL    HW212630   2.587   2.939   1.111
 3911SOL     OW12631   0.101   1.086   1.452
 3911SOL    HW112632   0.123   1.172   1.498
 3911SOL    HW212633   0.169   1.067   1.382
 3912SOL     OW12634   4.733   3.838   0.212
 3912SOL    HW112635   4.697   3.745   0.220
 3912SOL    HW212636   4.658   3.904   0.217
 3913SOL     OW12637   4.043   5.430   1.630
 3913SOL    HW112638   4.049   5.520   1.587
 3913SOL    HW212639   3.951   5.394   1.618
 3914SOL     OW12640   6.976   1.452   0.461
 3914SOL    HW112641   6.959   1.549   0.444
 3914SOL    HW212642   6.924   1.397   0.396
 3915SOL     OW12643   5.389   0.538   5.501
 3915SOL    HW112644   5.321   0.593   5.452
 3915SOL    HW212645   5.349   0.449   5.522
 3916SOL     OW12646   1.606   2.120   2.732
 3916SOL    HW112647   1.704   2.104   2.738
 3916SOL    HW212648   1.584   2.159   2.642
 3917SOL     OW12649   4.038   4.830   2.471
 3917SOL    HW112650   4.059   4.841   2.374
 3917SOL    HW212651   4.098   4.762   2.512
 3918SOL     OW12652   4.798   0.158   0.688
 3918SOL    HW112653   4.783   0.236   0.627
 3918SOL    HW212654   4.861   0.184   0.761
 3919SOL     OW12655   4.917   5.731   3.516
 3919SOL    HW112656   4.835   5.686   3.551
 3919SOL    HW212657   4.935   5.698   3.423
 3920SOL     OW12658   3.461   1.493   5.419
 3920SOL    HW112659   3.485   1.541   5.335
 3920SOL    HW212660   3.453   1.559   5.494
 3921SOL     OW12661   1.465   3.625   6.189
 3921SOL    HW112662   1.442   3.535   6.153
 3921SOL    HW212663   1.385   3.685   6.183
 3922SOL     OW12664   4.968   2.609   4.248
 3922SOL    HW112665   4.999   2.637   4.339
 3922SOL    HW212666   4.908   2.529   4.257
 3923SOL     OW12667   5.776   1.451   1.796
 3923SOL    HW112668   5.709   1.524   1.805
 3923SOL    HW212669   5.748   1.373   1.851
 3924SOL     OW12670   4.971   4.471   4.527
 3924SOL    HW112671   5.009   4.546   4.581
 3924SOL    HW212672   4.877   4.492   4.502
 3925SOL     OW12673   3.739   5.822   1.618
 3925SOL    HW112674   3.735   5.823   1.718
 3925SOL    HW212675   3.798   5.748   1.587
 3926SOL     OW12676   0.830   5.944   5.181
 3926SOL    HW112677   0.880   5.959   5.266
 3926SOL    HW212678   0.847   5.852   5.148
 3927SOL     OW12679   5.847   0.441   5.150
 3927SOL    HW112680   5.886   0.457   5.241
 3927SOL    HW212681   5.870   0.518   5.090
 3928SOL     OW12682   4.676   5.939   2.120
 3928SOL    HW112683   4.725   5.924   2.035
 3928SOL    HW212684   4.655   5.850   2.162
 3929SOL     OW12685   1.125   1.306   5.708
 3929SOL    HW112686   1.082   1.226   5.667
 3929SOL    HW212687   1.189   1.277   5.779
 3930SOL     OW12688   1.969   5.832   4.134
 3930SOL    HW112689   2.046   5.873   4.085
 3930SOL    HW212690   1.985   5.734   4.146
 3931SOL     OW12691   0.508   2.218   0.158
 3931SOL    HW112692   0.561   2.255   0.082
 3931SOL    HW212693   0.511   2.281   0.235
 3932SOL     OW12694   2.137   4.308   2.429
 3932SOL    HW112695   2.090   4.250   2.496
 3932SOL    HW212696   2.188   4.250   2.366
 3933SOL     OW12697   2.015   5.984   1.008
 3933SOL    HW112698   1.972   5.893   1.007
 3933SOL    HW212699   1.989   6.032   1.092
 3934SOL     OW12700   2.372   6.581   1.430
 3934SOL    HW112701   2.361   6.548   1.524
 3934SOL    HW212702   2.342   6.510   1.366
 3935SOL     OW12703   0.110   2.763   4.800
 3935SOL    HW112704   0.141   2.849   4.840
 3935SOL    HW212705   0.124   2.689   4.866
 3936SOL     OW12706   0.109   4.519   4.118
 3936SOL    HW112707   0.066   4.471   4.041
 3936SOL    HW212708   0.142   4.608   4.087
 3937SOL     OW12709   0.943   6.542   0.521
 3937SOL    HW112710   0.929   6.568   0.617
 3937SOL    HW212711   0.941   6.443   0.513
 3938SOL     OW12712   0.587   3.733   0.313
 3938SOL    HW112713   0.622   3.825   0.295
 3938SOL    HW212714   0.660   3.666   0.301
 3939SOL     OW12715   1.816   6.612   4.041
 3939SOL    HW112716   1.740   6.548   4.053
 3939SOL    HW212717   1.792   6.679   3.970
 3940SOL     OW12718   2.413   6.179   6.440
 3940SOL    HW112719   2.385   6.273   6.459
 3940SOL    HW212720   2.394   6.121   6.519
 3941SOL     OW12721   5.556   5.640   2.379
 3941SOL    HW112722   5.493   5.591   2.318
 3941SOL    HW212723   5.644   5.652   2.333
 3942SOL     OW12724   6.368   6.304   6.817
 3942SOL    HW112725   6.383   6.401   6.799
 3942SOL    HW212726   6.432   6.273   6.887
 3943SOL     OW12727   1.739   3.778   6.840
 3943SOL    HW112728   1.715   3.815   6.750
 3943SOL    HW212729   1.689   3.693   6.855
 3944SOL     OW12730   4.840   3.424   6.533
 3944SOL    HW112731   4.835   3.524   6.527
 3944SOL    HW212732   4.815   3.395   6.625
 3945SOL     OW12733   5.933   0.687   3.229
 3945SOL    HW112734   5.907   0.591   3.217
 3945SOL    HW212735   5.852   0.745   3.227
 3946SOL     OW12736   6.760   3.072   0.654
 3946SOL    HW112737   6.814   3.133   0.712
 3946SOL    HW212738   6.663   3.089   0.670
 3947SOL     OW12739   5.486   6.148   2.357
 3947SOL    HW112740   5.413   6.082   2.337
 3947SOL    HW212741   5.446   6.231   2.396
 3948SOL     OW12742   2.195   1.106   5.283
 3948SOL    HW112743   2.285   1.112   5.327
 3948SOL    HW212744   2.123   1.124   5.350
 3949SOL     OW12745   5.886   0.190   2.142
 3949SOL    HW112746   5.878   0.176   2.241
 3949SOL    HW212747   5.839   0.116   2.094
 3950SOL     OW12748   2.982   4.815   1.725
 3950SOL    HW112749   2.981   4.719   1.697
 3950SOL    HW212750   2.956   4.821   1.821
 3951SOL     OW12751   0.082   2.800   3.490
 3951SOL    HW112752   7.019   2.788   3.439
 3951SOL    HW212753   0.104   2.715   3.538
 3952SOL     OW12754   5.532   4.184   7.000
 3952SOL    HW112755   5.501   4.093   0.007
 3952SOL    HW212756   5.454   4.238   6.970
 3953SOL     OW12757   3.398   3.763   5.486
 3953SOL    HW112758   3.485   3.813   5.486
 3953SOL    HW212759   3.343   3.792   5.408
 3954SOL     OW12760   0.814   3.186   4.915
 3954SOL    HW112761   0.782   3.192   5.009
 3954SOL    HW212762   0.911   3.163   4.914
 3955SOL     OW12763   6.304   3.458   0.476
 3955SOL    HW112764   6.272   3.524   0.408
 3955SOL    HW212765   6.225   3.409   0.513
 3956SOL     OW12766   6.710   2.738   5.669
 3956SOL    HW112767   6.688   2.760   5.574
 3956SOL    HW212768   6.730   2.823   5.718
 3957SOL     OW12769   1.095   2.085   1.628
 3957SOL    HW112770   1.141   2.174   1.627
 3957SOL    HW212771   0.996   2.098   1.637
 3958SOL     OW12772   5.501   5.924   1.411
 3958SOL    HW112773   5.560   5.966   1.480
 3958SOL    HW212774   5.432   5.868   1.456
 3959SOL     OW12775   2.487   4.876   1.871
 3959SOL    HW112776   2.398   4.842   1.841
 3959SOL    HW212777   2.490   4.879   1.971
 3960SOL     OW12778   5.720   2.948   0.605
 3960SOL    HW112779   5.754   3.034   0.642
 3960SOL    HW212780   5.623   2.957   0.583
 3961SOL     OW12781   6.589   1.013   1.640
 3961SOL    HW112782   6.537   0.960   1.573
 3961SOL    HW212783   6.660   0.956   1.680
 3962SOL     OW12784   0.031   0.431   6.351
 3962SOL    HW112785   0.052   0.413   6.254
 3962SOL    HW212786   0.112   0.412   6.406
 3963SOL     OW12787   4.987   4.212   4.124
 3963SOL    HW112788   4.907   4.182   4.071
 3963SOL    HW212789   5.049   4.135   4.137
 3964SOL     OW12790   5.798   4.943   0.040
 3964SOL    HW112791   5.728   4.963   6.994
 3964SOL    HW212792   5.887   4.935   7.019
 3965SOL     OW12793   3.633   3.872   1.088
 3965SOL    HW112794   3.668   3.926   1.164
 3965SOL    HW212795   3.541   3.840   1.109
 3966SOL     OW12796   6.745   3.945   5.735
 3966SOL    HW112797   6.825   3.999   5.762
 3966SOL    HW212798   6.770   3.848   5.732
 3967SOL     OW12799   2.218   6.695   0.101
 3967SOL    HW112800   2.217   6.623   0.033
 3967SOL    HW212801   2.137   6.753   0.091
 3968SOL     OW12802   4.886   2.081   1.029
 3968SOL    HW112803   4.850   2.168   1.064
 3968SOL    HW212804   4.826   2.006   1.056
 3969SOL     OW12805   0.105   6.540   1.055
 3969SOL    HW112806   0.092   6.457   1.110
 3969SOL    HW212807   0.032   6.605   1.075
 3970SOL     OW12808   5.416   4.513   3.811
 3970SOL    HW112809   5.470   4.572   3.870
 3970SOL    HW212810   5.477   4.447   3.766
 3971SOL     OW12811   6.985   6.047   3.809
 3971SOL    HW112812   0.040   5.995   3.847
 3971SOL    HW212813   6.996   6.056   3.710
 3972SOL     OW12814   1.220   0.083   6.203
 3972SOL    HW112815   1.164   0.102   6.123
 3972SOL    HW212816   1.302   0.140   6.201
 3973SOL     OW12817   4.108   3.378   2.689
 3973SOL    HW112818   4.008   3.373   2.680
 3973SOL    HW212819   4.150   3.372   2.598
 3974SOL     OW12820   4.818   0.960   6.300
 3974SOL    HW112821   4.917   0.950   6.288
 3974SOL    HW212822   4.799   1.028   6.370
 3975SOL     OW12823   0.236   6.813   4.876
 3975SOL    HW112824   0.227   6.877   4.799
 3975SOL    HW212825   0.328   6.821   4.915
 3976SOL     OW12826   0.809   3.192   6.048
 3976SOL    HW112827   0.857   3.269   6.091
 3976SOL    HW212828   0.855   3.107   6.072
 3977SOL     OW12829   3.485   5.202   5.093
 3977SOL    HW112830   3.537   5.256   5.160
 3977SOL    HW212831   3.535   5.201   5.006
 3978SOL     OW12832   5.982   3.454   6.427
 3978SOL    HW112833   5.931   3.368   6.423
 3978SOL    HW212834   5.953   3.514   6.353
 3979SOL     OW12835   0.970   6.254   3.379
 3979SOL    HW112836   1.053   6.203   3.401
 3979SOL    HW212837   0.994   6.348   3.355
 3980SOL     OW12838   5.155   3.942   4.016
 3980SOL    HW112839   5.235   3.919   4.071
 3980SOL    HW212840   5.127   3.862   3.963
 3981SOL     OW12841   6.907   1.384   6.222
 3981SOL    HW112842   6.952   1.414   6.306
 3981SOL    HW212843   6.928   1.448   6.148
 3982SOL     OW12844   2.165   2.852   4.445
 3982SOL    HW112845   2.135   2.926   4.505
 3982SOL    HW212846   2.252   2.815   4.477
 3983SOL     OW12847   3.118   0.192   3.611
 3983SOL    HW112848   3.120   0.287   3.643
 3983SOL    HW212849   3.171   0.135   3.673
 3984SOL     OW12850   1.596   5.455   1.982
 3984SOL    HW112851   1.512   5.494   2.018
 3984SOL    HW212852   1.671   5.472   2.046
 3985SOL     OW12853   1.917   2.205   1.442
 3985SOL    HW112854   1.985   2.146   1.486
 3985SOL    HW212855   1.931   2.205   1.343
 3986SOL     OW12856   0.769   2.279   2.035
 3986SOL    HW112857   0.758   2.329   2.121
 3986SOL    HW212858   0.788   2.183   2.054
 3987SOL     OW12859   1.659   4.321   4.920
 3987SOL    HW112860   1.748   4.284   4.944
 3987SOL    HW212861   1.592   4.247   4.915
 3988SOL     OW12862   4.897   0.129   1.614
 3988SOL    HW112863   4.907   0.188   1.695
 3988SOL    HW212864   4.828   0.167   1.553
 3989SOL     OW12865   4.265   0.888   5.497
 3989SOL    HW112866   4.281   0.845   5.586
 3989SOL    HW212867   4.169   0.917   5.490
 3990SOL     OW12868   6.674   1.757   3.709
 3990SOL    HW112869   6.617   1.802   3.778
 3990SOL    HW212870   6.675   1.659   3.726
 3991SOL     OW12871   0.332   2.018   3.597
 3991SOL    HW112872   0.244   1.975   3.581
 3991SOL    HW212873   0.370   2.050   3.509
 3992SOL     OW12874   5.156   3.608   6.478
 3992SOL    HW112875   5.170   3.664   6.397
 3992SOL    HW212876   5.141   3.513   6.451
 3993SOL     OW12877   1.646   0.768   4.012
 3993SOL    HW112878   1.673   0.861   4.037
 3993SOL    HW212879   1.727   0.718   3.980
 3994SOL     OW12880   3.304   2.000   3.625
 3994SOL    HW112881   3.355   2.036   3.547
 3994SOL    HW212882   3.256   1.917   3.598
 3995SOL     OW12883   1.419   3.538   2.314
 3995SOL    HW112884   1.405   3.531   2.413
 3995SOL    HW212885   1.512   3.506   2.292
 3996SOL     OW12886   6.207   6.632   5.463
 3996SOL    HW112887   6.117   6.672   5.480
 3996SOL    HW212888   6.264   6.698   5.414
 3997SOL     OW12889   5.440   3.654   4.001
 3997SOL    HW112890   5.351   3.615   4.026
 3997SOL    HW212891   5.510   3.583   4.005
 3998SOL     OW12892   4.840   2.136   3.523
 3998SOL    HW112893   4.792   2.195   3.588
 3998SOL    HW212894   4.925   2.102   3.565
 3999SOL     OW12895   4.839   3.420   1.036
 3999SOL    HW112896   4.923   3.367   1.028
 3999SOL    HW212897   4.785   3.386   1.113
 4000SOL     OW12898   2.173   5.018   3.158
 4000SOL    HW112899   2.178   5.013   3.257
 4000SOL    HW212900   2.227   5.096   3.126
 4001SOL     OW12901   0.149   5.800   4.669
 4001SOL    HW112902   0.079   5.863   4.636
 4001SOL    HW212903   0.207   5.772   4.593
 4002SOL     OW12904   4.134   3.558   4.427
 4002SOL    HW112905   4.166   3.535   4.519
 4002SOL    HW212906   4.048   3.510   4.409
 4003SOL     OW12907   1.820   1.176   4.693
 4003SOL    HW112908   1.733   1.225   4.693
 4003SOL    HW212909   1.895   1.241   4.681
 4004SOL     OW12910   1.868   4.589   4.772
 4004SOL    HW112911   1.963   4.609   4.795
 4004SOL    HW212912   1.810   4.606   4.852
 4005SOL     OW12913   4.814   2.971   0.281
 4005SOL    HW112914   4.810   2.939   0.376
 4005SOL    HW212915   4.734   3.027   0.261
 4006SOL     OW12916   6.773   5.374   2.190
 4006SOL    HW112917   6.759   5.315   2.270
 4006SOL    HW212918   6.829   5.326   2.123
 4007SOL     OW12919   0.473   0.522   1.667
 4007SOL    HW112920   0.495   0.556   1.576
 4007SOL    HW212921   0.484   0.422   1.669
 4008SOL     OW12922   2.920   1.231   1.165
 4008SOL    HW112923   2.873   1.176   1.234
 4008SOL    HW212924   2.999   1.276   1.206
 4009SOL     OW12925   4.279   2.160   0.439
 4009SOL    HW112926   4.234   2.170   0.350
 4009SOL    HW212927   4.375   2.184   0.431
 4010SOL     OW12928   1.738   4.162   1.127
 4010SOL    HW112929   1.797   4.232   1.168
 4010SOL    HW212930   1.767   4.072   1.160
 4011SOL     OW12931   6.000   6.453   5.976
 4011SOL    HW112932   5.985   6.355   5.963
 4011SOL    HW212933   5.940   6.486   6.049
 4012SOL     OW12934   5.952   6.068   2.702
 4012SOL    HW112935   5.922   6.162   2.721
 4012SOL    HW212936   6.050   6.068   2.683
 4013SOL     OW12937   6.868   1.696   6.880
 4013SOL    HW112938   6.773   1.668   6.863
 4013SOL    HW212939   6.895   1.665   6.972
 4014SOL     OW12940   3.854   5.466   2.287
 4014SOL    HW112941   3.894   5.455   2.196
 4014SOL    HW212942   3.796   5.388   2.308
 4015SOL     OW12943   4.224   5.309   6.081
 4015SOL    HW112944   4.240   5.406   6.101
 4015SOL    HW212945   4.284   5.253   6.137
 4016SOL     OW12946   5.208   4.845   4.784
 4016SOL    HW112947   5.203   4.933   4.832
 4016SOL    HW212948   5.295   4.840   4.734
 4017SOL     OW12949   1.604   5.849   5.175
 4017SOL    HW112950   1.691   5.827   5.133
 4017SOL    HW212951   1.619   5.907   5.255
 4018SOL     OW12952   3.950   5.666   1.241
 4018SOL    HW112953   4.014   5.731   1.200
 4018SOL    HW212954   3.924   5.597   1.174
 4019SOL     OW12955   6.864   3.712   2.391
 4019SOL    HW112956   6.858   3.804   2.352
 4019SOL    HW212957   6.870   3.645   2.317
 4020SOL     OW12958   6.963   5.982   4.575
 4020SOL    HW112959   6.888   6.015   4.633
 4020SOL    HW212960   6.971   6.040   4.494
 4021SOL     OW12961   4.303   5.090   6.423
 4021SOL    HW112962   4.385   5.061   6.374
 4021SOL    HW212963   4.282   5.024   6.495
 4022SOL     OW12964   2.744   6.083   1.264
 4022SOL    HW112965   2.732   5.996   1.310
 4022SOL    HW212966   2.823   6.131   1.302
 4023SOL     OW12967   0.505   1.697   4.421
 4023SOL    HW112968   0.566   1.754   4.365
 4023SOL    HW212969   0.442   1.648   4.362
 4024SOL     OW12970   0.268   6.426   4.892
 4024SOL    HW112971   0.337   6.437   4.821
 4024SOL    HW212972   0.311   6.402   4.979
 4025SOL     OW12973   6.871   4.994   3.948
 4025SOL    HW112974   6.902   4.903   3.973
 4025SOL    HW212975   6.773   5.003   3.965
 4026SOL     OW12976   0.377   6.540   4.006
 4026SOL    HW112977   0.391   6.634   3.975
 4026SOL    HW212978   0.297   6.502   3.961
 4027SOL     OW12979   3.363   4.749   5.286
 4027SOL    HW112980   3.404   4.833   5.250
 4027SOL    HW212981   3.429   4.674   5.278
 4028SOL     OW12982   5.038   1.152   3.835
 4028SOL    HW112983   5.117   1.112   3.882
 4028SOL    HW212984   5.049   1.141   3.736
 4029SOL     OW12985   1.534   6.431   0.857
 4029SOL    HW112986   1.503   6.526   0.852
 4029SOL    HW212987   1.585   6.418   0.942
 4030SOL     OW12988   0.752   1.769   2.210
 4030SOL    HW112989   0.800   1.741   2.293
 4030SOL    HW212990   0.706   1.856   2.225
 4031SOL     OW12991   5.748   6.271   0.412
 4031SOL    HW112992   5.749   6.368   0.438
 4031SOL    HW212993   5.832   6.227   0.445
 4032SOL     OW12994   4.973   1.035   2.471
 4032SOL    HW112995   5.057   1.047   2.525
 4032SOL    HW212996   4.921   0.958   2.508
 4033SOL     OW12997   2.544   2.091   2.923
 4033SOL    HW112998   2.595   2.176   2.906
 4033SOL    HW212999   2.446   2.108   2.908
 4034SOL     OW13000   1.480   2.748   4.653
 4034SOL    HW113001   1.522   2.721   4.566
 4034SOL    HW213002   1.478   2.848   4.660
 4035SOL     OW13003   4.753   2.323   1.916
 4035SOL    HW113004   4.736   2.263   1.995
 4035SOL    HW213005   4.673   2.322   1.857
 4036SOL     OW13006   3.176   5.948   3.319
 4036SOL    HW113007   3.188   6.047   3.325
 4036SOL    HW213008   3.256   5.907   3.274
 4037SOL     OW13009   2.090   1.683   6.234
 4037SOL    HW113010   2.056   1.773   6.207
 4037SOL    HW213011   2.176   1.694   6.285
 4038SOL     OW13012   3.550   4.488   5.775
 4038SOL    HW113013   3.629   4.484   5.837
 4038SOL    HW213014   3.474   4.437   5.815
 4039SOL     OW13015   5.488   4.947   1.501
 4039SOL    HW113016   5.509   5.038   1.465
 4039SOL    HW213017   5.464   4.955   1.598
 4040SOL     OW13018   3.249   0.267   5.209
 4040SOL    HW113019   3.166   0.236   5.162
 4040SOL    HW213020   3.236   0.259   5.307
 4041SOL     OW13021   1.652   5.698   1.850
 4041SOL    HW113022   1.644   5.612   1.899
 4041SOL    HW213023   1.563   5.723   1.812
 4042SOL     OW13024   0.484   1.688   2.714
 4042SOL    HW113025   0.459   1.734   2.800
 4042SOL    HW213026   0.402   1.647   2.674
 4043SOL     OW13027   5.173   2.924   6.167
 4043SOL    HW113028   5.195   2.943   6.263
 4043SOL    HW213029   5.074   2.918   6.156
 4044SOL     OW13030   4.974   4.240   3.124
 4044SOL    HW113031   4.950   4.157   3.073
 4044SOL    HW213032   5.072   4.256   3.117
 4045SOL     OW13033   4.778   1.030   5.344
 4045SOL    HW113034   4.748   0.964   5.275
 4045SOL    HW213035   4.747   1.121   5.318
 4046SOL     OW13036   5.300   1.769   3.445
 4046SOL    HW113037   5.367   1.757   3.519
 4046SOL    HW213038   5.295   1.685   3.391
 4047SOL     OW13039   3.238   3.123   6.600
 4047SOL    HW113040   3.325   3.075   6.604
 4047SOL    HW213041   3.211   3.150   6.693
 4048SOL     OW13042   5.140   1.966   2.655
 4048SOL    HW113043   5.058   2.000   2.609
 4048SOL    HW213044   5.113   1.908   2.732
 4049SOL     OW13045   4.215   3.801   0.457
 4049SOL    HW113046   4.128   3.753   0.468
 4049SOL    HW213047   4.198   3.900   0.449
 4050SOL     OW13048   0.456   5.232   2.390
 4050SOL    HW113049   0.503   5.270   2.469
 4050SOL    HW213050   0.489   5.275   2.306
 4051SOL     OW13051   5.339   0.979   5.373
 4051SOL    HW113052   5.358   0.974   5.471
 4051SOL    HW213053   5.323   1.075   5.347
 4052SOL     OW13054   5.439   2.022   3.375
 4052SOL    HW113055   5.372   1.956   3.409
 4052SOL    HW213056   5.425   2.110   3.420
 4053SOL     OW13057   0.825   4.884   4.046
 4053SOL    HW113058   0.886   4.924   4.115
 4053SOL    HW213059   0.745   4.943   4.033
 4054SOL     OW13060   4.140   3.722   1.002
 4054SOL    HW113061   4.187   3.688   1.083
 4054SOL    HW213062   4.181   3.682   0.920
 4055SOL     OW13063   0.169   4.083   0.285
 4055SOL    HW113064   0.187   4.023   0.207
 4055SOL    HW213065   0.096   4.043   0.341
 4056SOL     OW13066   4.691   3.352   0.068
 4056SOL    HW113067   4.773   3.406   0.086
 4056SOL    HW213068   4.685   3.278   0.135
 4057SOL     OW13069   0.048   3.507   0.531
 4057SOL    HW113070   7.016   3.591   0.533
 4057SOL    HW213071   0.122   3.518   0.465
 4058SOL     OW13072   2.228   0.522   4.961
 4058SOL    HW113073   2.287   0.529   5.041
 4058SOL    HW213074   2.276   0.559   4.881
 4059SOL     OW13075   0.383   1.265   3.331
 4059SOL    HW113076   0.404   1.169   3.313
 4059SOL    HW213077   0.421   1.292   3.419
 4060SOL     OW13078   0.040   6.462   4.524
 4060SOL    HW113079   0.052   6.405   4.605
 4060SOL    HW213080   0.129   6.483   4.484
 4061SOL     OW13081   1.004   4.732   1.420
 4061SOL    HW113082   1.015   4.687   1.509
 4061SOL    HW213083   0.909   4.723   1.390
 4062SOL     OW13084   2.058   3.653   0.725
 4062SOL    HW113085   1.987   3.597   0.769
 4062SOL    HW213086   2.077   3.617   0.634
 4063SOL     OW13087   4.635   0.541   0.448
 4063SOL    HW113088   4.706   0.611   0.440
 4063SOL    HW213089   4.550   0.582   0.481
 4064SOL     OW13090   1.798   1.096   6.150
 4064SOL    HW113091   1.728   1.062   6.088
 4064SOL    HW213092   1.756   1.126   6.236
 4065SOL     OW13093   2.639   0.148   0.959
 4065SOL    HW113094   2.625   0.066   0.903
 4065SOL    HW213095   2.624   0.124   1.055
 4066SOL     OW13096   0.649   3.958   3.606
 4066SOL    HW113097   0.564   3.907   3.624
 4066SOL    HW213098   0.720   3.926   3.668
 4067SOL     OW13099   5.463   4.929   0.571
 4067SOL    HW113100   5.380   4.973   0.535
 4067SOL    HW213101   5.493   4.978   0.653
 4068SOL     OW13102   2.280   2.791   5.157
 4068SOL    HW113103   2.299   2.886   5.132
 4068SOL    HW213104   2.361   2.751   5.201
 4069SOL     OW13105   4.788   6.707   6.622
 4069SOL    HW113106   4.803   6.763   6.540
 4069SOL    HW213107   4.790   6.610   6.597
 4070SOL     OW13108   1.698   3.571   3.725
 4070SOL    HW113109   1.640   3.598   3.802
 4070SOL    HW213110   1.647   3.579   3.640
 4071SOL     OW13111   1.488   0.616   4.846
 4071SOL    HW113112   1.395   0.607   4.812
 4071SOL    HW213113   1.532   0.696   4.805
 4072SOL     OW13114   2.646   5.913   3.353
 4072SOL    HW113115   2.675   5.878   3.264
 4072SOL    HW213116   2.673   5.849   3.425
 4073SOL     OW13117   4.445   4.838   6.847
 4073SOL    HW113118   4.435   4.759   6.907
 4073SOL    HW213119   4.438   4.922   6.900
 4074SOL     OW13120   1.468   5.728   2.885
 4074SOL    HW113121   1.388   5.770   2.843
 4074SOL    HW213122   1.525   5.687   2.814
 4075SOL     OW13123   6.483   0.591   0.905
 4075SOL    HW113124   6.501   0.501   0.866
 4075SOL    HW213125   6.470   0.583   1.003
 4076SOL     OW13126   2.375   4.800   4.557
 4076SOL    HW113127   2.366   4.701   4.544
 4076SOL    HW213128   2.420   4.839   4.477
 4077SOL     OW13129   2.915   0.758   1.920
 4077SOL    HW113130   2.949   0.764   2.014
 4077SOL    HW213131   2.957   0.829   1.865
 4078SOL     OW13132   3.280   4.848   2.303
 4078SOL    HW113133   3.349   4.861   2.231
 4078SOL    HW213134   3.190   4.839   2.261
 4079SOL     OW13135   0.698   1.895   3.807
 4079SOL    HW113136   0.599   1.885   3.811
 4079SOL    HW213137   0.740   1.832   3.872
 4080SOL     OW13138   6.850   2.338   5.185
 4080SOL    HW113139   6.837   2.406   5.113
 4080SOL    HW213140   6.892   2.256   5.146
 4081SOL     OW13141   1.922   3.200   3.712
 4081SOL    HW113142   1.823   3.210   3.717
 4081SOL    HW213143   1.959   3.183   3.804
 4082SOL     OW13144   0.787   3.779   0.972
 4082SOL    HW113145   0.711   3.796   0.909
 4082SOL    HW213146   0.817   3.684   0.963
 4083SOL     OW13147   6.101   2.962   4.729
 4083SOL    HW113148   6.027   3.028   4.718
 4083SOL    HW213149   6.147   2.977   4.816
 4084SOL     OW13150   6.775   1.722   4.082
 4084SOL    HW113151   6.775   1.735   4.182
 4084SOL    HW213152   6.760   1.810   4.037
 4085SOL     OW13153   2.489   6.114   0.180
 4085SOL    HW113154   2.415   6.181   0.174
 4085SOL    HW213155   2.573   6.161   0.207
 4086SOL     OW13156   1.043   4.467   0.812
 4086SOL    HW113157   0.966   4.521   0.777
 4086SOL    HW213158   1.013   4.372   0.825
 4087SOL     OW13159   2.506   1.809   2.857
 4087SOL    HW113160   2.483   1.904   2.880
 4087SOL    HW213161   2.563   1.770   2.929
 4088SOL     OW13162   6.270   2.044   0.672
 4088SOL    HW113163   6.208   2.098   0.729
 4088SOL    HW213164   6.251   1.947   0.683
 4089SOL     OW13165   1.136   1.554   5.619
 4089SOL    HW113166   1.119   1.463   5.657
 4089SOL    HW213167   1.232   1.561   5.590
 4090SOL     OW13168   1.910   4.839   5.847
 4090SOL    HW113169   2.005   4.806   5.846
 4090SOL    HW213170   1.848   4.763   5.828
 4091SOL     OW13171   4.101   6.692   0.568
 4091SOL    HW113172   4.186   6.660   0.526
 4091SOL    HW213173   4.114   6.785   0.602
 4092SOL     OW13174   0.045   2.053   4.895
 4092SOL    HW113175   7.001   1.987   4.929
 4092SOL    HW213176   0.029   2.067   4.797
 4093SOL     OW13177   5.496   0.306   4.847
 4093SOL    HW113178   5.549   0.259   4.917
 4093SOL    HW213179   5.398   0.298   4.868
 4094SOL     OW13180   2.704   4.252   5.391
 4094SOL    HW113181   2.784   4.244   5.451
 4094SOL    HW213182   2.701   4.175   5.328
 4095SOL     OW13183   1.525   3.978   5.896
 4095SOL    HW113184   1.568   3.888   5.901
 4095SOL    HW213185   1.547   4.030   5.979
 4096SOL     OW13186   4.319   4.651   2.086
 4096SOL    HW113187   4.266   4.612   2.011
 4096SOL    HW213188   4.381   4.581   2.122
 4097SOL     OW13189   2.866   3.480   4.257
 4097SOL    HW113190   2.923   3.428   4.322
 4097SOL    HW213191   2.831   3.562   4.303
 4098SOL     OW13192   0.459   2.441   2.397
 4098SOL    HW113193   0.549   2.412   2.365
 4098SOL    HW213194   0.424   2.513   2.337
 4099SOL     OW13195   3.318   6.346   1.983
 4099SOL    HW113196   3.273   6.434   2.003
 4099SOL    HW213197   3.307   6.324   1.887
 4100SOL     OW13198   3.440   6.396   3.029
 4100SOL    HW113199   3.456   6.435   2.939
 4100SOL    HW213200   3.488   6.309   3.037
 4101SOL     OW13201   4.510   1.121   6.545
 4101SOL    HW113202   4.454   1.139   6.626
 4101SOL    HW213203   4.606   1.138   6.566
 4102SOL     OW13204   5.539   1.126   0.544
 4102SOL    HW113205   5.466   1.178   0.589
 4102SOL    HW213206   5.531   1.136   0.445
 4103SOL     OW13207   0.327   0.274   2.453
 4103SOL    HW113208   0.236   0.239   2.435
 4103SOL    HW213209   0.380   0.206   2.504
 4104SOL     OW13210   1.742   4.797   2.558
 4104SOL    HW113211   1.714   4.840   2.644
 4104SOL    HW213212   1.826   4.840   2.525
 4105SOL     OW13213   5.481   5.321   0.423
 4105SOL    HW113214   5.519   5.288   0.337
 4105SOL    HW213215   5.546   5.302   0.497
 4106SOL     OW13216   0.111   3.552   5.088
 4106SOL    HW113217   0.193   3.542   5.032
 4106SOL    HW213218   0.030   3.534   5.031
 4107SOL     OW13219   6.885   1.243   1.335
 4107SOL    HW113220   6.965   1.185   1.319
 4107SOL    HW213221   6.915   1.336   1.354
 4108SOL     OW13222   6.793   2.960   5.199
 4108SOL    HW113223   6.875   2.904   5.183
 4108SOL    HW213224   6.807   3.017   5.280
 4109SOL     OW13225   3.098   6.531   3.414
 4109SOL    HW113226   3.172   6.527   3.347
 4109SOL    HW213227   3.055   6.621   3.410
 4110SOL     OW13228   4.735   3.291   5.410
 4110SOL    HW113229   4.714   3.193   5.410
 4110SOL    HW213230   4.834   3.303   5.414
 4111SOL     OW13231   4.607   3.283   6.732
 4111SOL    HW113232   4.683   3.319   6.786
 4111SOL    HW213233   4.588   3.189   6.760
 4112SOL     OW13234   3.409   0.784   4.282
 4112SOL    HW113235   3.399   0.845   4.203
 4112SOL    HW213236   3.338   0.715   4.280
 4113SOL     OW13237   3.959   5.415   4.258
 4113SOL    HW113238   3.901   5.340   4.288
 4113SOL    HW213239   3.905   5.498   4.251
 4114SOL     OW13240   2.948   1.858   2.581
 4114SOL    HW113241   2.913   1.793   2.513
 4114SOL    HW213242   2.879   1.874   2.650
 4115SOL     OW13243   5.285   5.102   2.074
 4115SOL    HW113244   5.222   5.131   2.147
 4115SOL    HW213245   5.233   5.060   2.000
 4116SOL     OW13246   3.167   1.106   2.070
 4116SOL    HW113247   3.187   1.184   2.130
 4116SOL    HW213248   3.068   1.097   2.060
 4117SOL     OW13249   0.992   5.391   2.090
 4117SOL    HW113250   0.913   5.358   2.038
 4117SOL    HW213251   1.076   5.363   2.043
 4118SOL     OW13252   2.495   6.526   0.264
 4118SOL    HW113253   2.518   6.488   0.353
 4118SOL    HW213254   2.491   6.626   0.271
 4119SOL     OW13255   4.466   0.782   3.291
 4119SOL    HW113256   4.446   0.730   3.209
 4119SOL    HW213257   4.382   0.825   3.325
 4120SOL     OW13258   3.409   0.983   2.059
 4120SOL    HW113259   3.461   1.029   1.987
 4120SOL    HW213260   3.322   1.032   2.074
 4121SOL     OW13261   6.628   3.185   4.705
 4121SOL    HW113262   6.681   3.100   4.704
 4121SOL    HW213263   6.540   3.169   4.749
 4122SOL     OW13264   1.894   5.546   6.666
 4122SOL    HW113265   1.943   5.540   6.753
 4122SOL    HW213266   1.892   5.641   6.636
 4123SOL     OW13267   4.768   3.911   6.149
 4123SOL    HW113268   4.731   3.906   6.057
 4123SOL    HW213269   4.703   3.872   6.214
 4124SOL     OW13270   4.747   6.628   3.525
 4124SOL    HW113271   4.706   6.695   3.588
 4124SOL    HW213272   4.772   6.673   3.440
 4125SOL     OW13273   5.216   1.070   0.747
 4125SOL    HW113274   5.247   1.134   0.676
 4125SOL    HW213275   5.154   1.117   0.810
 4126SOL     OW13276   1.840   5.040   4.076
 4126SOL    HW113277   1.884   5.001   3.995
 4126SOL    HW213278   1.744   5.014   4.076
 4127SOL     OW13279   6.249   4.012   5.446
 4127SOL    HW113280   6.309   4.043   5.372
 4127SOL    HW213281   6.296   4.025   5.534
 4128SOL     OW13282   1.128   2.249   2.508
 4128SOL    HW113283   1.170   2.159   2.495
 4128SOL    HW213284   1.186   2.319   2.466
 4129SOL     OW13285   5.705   2.117   5.978
 4129SOL    HW113286   5.803   2.116   5.999
 4129SOL    HW213287   5.675   2.024   5.956
 4130SOL     OW13288   5.956   3.603   1.144
 4130SOL    HW113289   5.945   3.588   1.243
 4130SOL    HW213290   6.010   3.528   1.105
 4131SOL     OW13291   6.618   4.079   3.493
 4131SOL    HW113292   6.698   4.053   3.440
 4131SOL    HW213293   6.627   4.045   3.587
 4132SOL     OW13294   5.025   2.198   4.286
 4132SOL    HW113295   4.950   2.259   4.315
 4132SOL    HW213296   4.997   2.147   4.205
 4133SOL     OW13297   2.937   2.184   1.096
 4133SOL    HW113298   2.873   2.179   1.173
 4133SOL    HW213299   2.899   2.243   1.025
 4134SOL     OW13300   1.187   1.518   0.026
 4134SOL    HW113301   1.164   1.447   6.982
 4134SOL    HW213302   1.160   1.488   0.118
 4135SOL     OW13303   1.295   0.704   0.999
 4135SOL    HW113304   1.385   0.661   0.988
 4135SOL    HW213305   1.227   0.634   1.020
 4136SOL     OW13306   1.069   1.744   3.177
 4136SOL    HW113307   1.082   1.653   3.136
 4136SOL    HW213308   1.118   1.812   3.123
 4137SOL     OW13309   3.610   3.819   5.691
 4137SOL    HW113310   3.564   3.890   5.744
 4137SOL    HW213311   3.602   3.731   5.739
 4138SOL     OW13312   4.188   5.375   2.971
 4138SOL    HW113313   4.154   5.430   3.047
 4138SOL    HW213314   4.117   5.312   2.941
 4139SOL     OW13315   2.154   1.020   0.282
 4139SOL    HW113316   2.123   1.113   0.262
 4139SOL    HW213317   2.154   0.966   0.199
 4140SOL     OW13318   4.646   1.590   5.446
 4140SOL    HW113319   4.566   1.571   5.390
 4140SOL    HW213320   4.714   1.518   5.434
 4141SOL     OW13321   5.634   5.593   0.805
 4141SOL    HW113322   5.723   5.548   0.796
 4141SOL    HW213323   5.574   5.561   0.732
 4142SOL     OW13324   6.215   3.161   1.823
 4142SOL    HW113325   6.140   3.217   1.859
 4142SOL    HW213326   6.225   3.178   1.725
 4143SOL     OW13327   0.360   1.951   1.226
 4143SOL    HW113328   0.312   1.916   1.146
 4143SOL    HW213329   0.386   1.875   1.285
 4144SOL     OW13330   4.514   1.016   2.353
 4144SOL    HW113331   4.563   0.996   2.438
 4144SOL    HW213332   4.570   1.076   2.296
 4145SOL     OW13333   2.896   6.929   2.917
 4145SOL    HW113334   2.985   6.883   2.908
 4145SOL    HW213335   2.836   6.900   2.842
 4146SOL     OW13336   4.889   5.445   0.577
 4146SOL    HW113337   4.974   5.414   0.621
 4146SOL    HW213338   4.832   5.492   0.644
 4147SOL     OW13339   3.157   2.464   5.603
 4147SOL    HW113340   3.207   2.460   5.689
 4147SOL    HW213341   3.096   2.543   5.604
 4148SOL     OW13342   5.817   7.021   3.035
 4148SOL    HW113343   5.721   7.009   3.060
 4148SOL    HW213344   5.874   6.963   3.093
 4149SOL     OW13345   5.302   4.140   1.533
 4149SOL    HW113346   5.305   4.188   1.445
 4149SOL    HW213347   5.213   4.155   1.576
 4150SOL     OW13348   5.029   0.229   5.796
 4150SOL    HW113349   5.025   0.328   5.810
 4150SOL    HW213350   5.100   0.189   5.853
 4151SOL     OW13351   0.008   5.211   0.481
 4151SOL    HW113352   6.944   5.197   0.434
 4151SOL    HW213353   0.030   5.130   0.536
 4152SOL     OW13354   3.903   4.462   1.214
 4152SOL    HW113355   3.840   4.396   1.174
 4152SOL    HW213356   3.907   4.448   1.313
 4153SOL     OW13357   6.383   5.498   6.255
 4153SOL    HW113358   6.384   5.511   6.354
 4153SOL    HW213359   6.328   5.570   6.212
 4154SOL     OW13360   4.520   2.867   5.591
 4154SOL    HW113361   4.492   2.792   5.531
 4154SOL    HW213362   4.616   2.889   5.574
 4155SOL     OW13363   1.357   2.961   1.388
 4155SOL    HW113364   1.269   2.982   1.347
 4155SOL    HW213365   1.349   2.963   1.488
 4156SOL     OW13366   6.249   0.136   5.794
 4156SOL    HW113367   6.341   0.168   5.814
 4156SOL    HW213368   6.252   0.066   5.723
 4157SOL     OW13369   3.280   0.312   4.919
 4157SOL    HW113370   3.277   0.284   5.015
 4157SOL    HW213371   3.232   0.399   4.908
 4158SOL     OW13372   1.085   6.957   4.456
 4158SOL    HW113373   1.010   6.890   4.459
 4158SOL    HW213374   1.172   6.909   4.451
 4159SOL     OW13375   0.753   3.247   5.176
 4159SOL    HW113376   0.654   3.256   5.183
 4159SOL    HW213377   0.796   3.285   5.259
 4160SOL     OW13378   1.416   0.986   0.815
 4160SOL    HW113379   1.412   1.084   0.792
 4160SOL    HW213380   1.324   0.954   0.838
 4161SOL     OW13381   6.089   1.827   0.635
 4161SOL    HW113382   6.083   1.921   0.601
 4161SOL    HW213383   6.044   1.820   0.724
 4162SOL     OW13384   6.926   0.118   5.344
 4162SOL    HW113385   6.870   0.038   5.366
 4162SOL    HW213386   7.016   0.088   5.315
 4163SOL     OW13387   6.270   1.191   3.879
 4163SOL    HW113388   6.332   1.156   3.949
 4163SOL    HW213389   6.184   1.142   3.883
 4164SOL     OW13390   2.295   0.158   6.184
 4164SOL    HW113391   2.296   0.070   6.230
 4164SOL    HW213392   2.285   0.144   6.085
 4165SOL     OW13393   2.959   6.055   2.587
 4165SOL    HW113394   2.942   6.139   2.638
 4165SOL    HW213395   2.955   5.977   2.649
 4166SOL     OW13396   6.272   2.850   1.027
 4166SOL    HW113397   6.298   2.756   1.050
 4166SOL    HW213398   6.173   2.859   1.032
 4167SOL     OW13399   2.214   3.185   1.277
 4167SOL    HW113400   2.140   3.224   1.332
 4167SOL    HW213401   2.191   3.190   1.180
 4168SOL     OW13402   1.544   4.450   1.094
 4168SOL    HW113403   1.564   4.501   1.010
 4168SOL    HW213404   1.557   4.352   1.077
 4169SOL     OW13405   6.269   3.716   4.617
 4169SOL    HW113406   6.356   3.684   4.654
 4169SOL    HW213407   6.194   3.677   4.670
 4170SOL     OW13408   4.378   2.477   5.265
 4170SOL    HW113409   4.295   2.509   5.220
 4170SOL    HW213410   4.395   2.382   5.241
 4171SOL     OW13411   5.717   3.478   1.508
 4171SOL    HW113412   5.702   3.379   1.512
 4171SOL    HW213413   5.665   3.522   1.582
 4172SOL     OW13414   2.320   1.753   6.994
 4172SOL    HW113415   2.228   1.767   0.008
 4172SOL    HW213416   2.376   1.706   0.040
 4173SOL     OW13417   5.621   3.583   5.430
 4173SOL    HW113418   5.664   3.670   5.454
 4173SOL    HW213419   5.522   3.596   5.422
 4174SOL     OW13420   5.084   0.658   4.268
 4174SOL    HW113421   5.033   0.578   4.300
 4174SOL    HW213422   5.181   0.635   4.263
 4175SOL     OW13423   3.465   1.642   3.585
 4175SOL    HW113424   3.386   1.677   3.537
 4175SOL    HW213425   3.532   1.715   3.598
 4176SOL     OW13426   6.158   5.820   2.682
 4176SOL    HW113427   6.184   5.908   2.643
 4176SOL    HW213428   6.059   5.807   2.673
 4177SOL     OW13429   6.851   5.316   2.696
 4177SOL    HW113430   6.888   5.403   2.728
 4177SOL    HW213431   6.892   5.241   2.748
 4178SOL     OW13432   3.980   2.532   6.160
 4178SOL    HW113433   3.962   2.540   6.062
 4178SOL    HW213434   4.062   2.477   6.174
 4179SOL     OW13435   6.277   3.047   6.078
 4179SOL    HW113436   6.186   3.067   6.042
 4179SOL    HW213437   6.274   2.962   6.131
 4180SOL     OW13438   4.270   3.637   1.230
 4180SOL    HW113439   4.358   3.679   1.206
 4180SOL    HW213440   4.286   3.559   1.291
 4181SOL     OW13441   0.081   1.131   0.174
 4181SOL    HW113442   0.139   1.192   0.121
 4181SOL    HW213443   0.098   1.036   0.146
 4182SOL     OW13444   5.812   1.241   3.599
 4182SOL    HW113445   5.912   1.233   3.602
 4182SOL    HW213446   5.785   1.327   3.643
 4183SOL     OW13447   1.717   1.792   1.177
 4183SOL    HW113448   1.781   1.800   1.253
 4183SOL    HW213449   1.637   1.738   1.206
 4184SOL     OW13450   3.870   5.266   0.377
 4184SOL    HW113451   3.860   5.361   0.347
 4184SOL    HW213452   3.787   5.237   0.426
 4185SOL     OW13453   0.034   6.781   4.273
 4185SOL    HW113454   0.001   6.840   4.200
 4185SOL    HW213455   7.015   6.690   4.264
 4186SOL     OW13456   3.753   4.350   1.745
 4186SOL    HW113457   3.729   4.447   1.749
 4186SOL    HW213458   3.736   4.307   1.834
 4187SOL     OW13459   4.069   4.530   6.494
 4187SOL    HW113460   4.137   4.592   6.453
 4187SOL    HW213461   3.982   4.540   6.446
 4188SOL     OW13462   4.963   6.290   4.814
 4188SOL    HW113463   4.957   6.233   4.896
 4188SOL    HW213464   5.054   6.331   4.809
 4189SOL     OW13465   1.791   3.113   3.318
 4189SOL    HW113466   1.846   3.160   3.248
 4189SOL    HW213467   1.850   3.083   3.393
 4190SOL     OW13468   3.433   0.097   1.527
 4190SOL    HW113469   3.360   0.032   1.507
 4190SOL    HW213470   3.483   0.119   1.444
 4191SOL     OW13471   0.171   2.716   2.106
 4191SOL    HW113472   0.079   2.719   2.145
 4191SOL    HW213473   0.171   2.762   2.017
 4192SOL     OW13474   5.695   1.061   2.996
 4192SOL    HW113475   5.603   1.094   2.971
 4192SOL    HW213476   5.725   1.108   3.079
 4193SOL     OW13477   2.347   6.771   2.500
 4193SOL    HW113478   2.292   6.833   2.444
 4193SOL    HW213479   2.435   6.755   2.456
 4194SOL     OW13480   0.205   1.156   3.779
 4194SOL    HW113481   0.179   1.137   3.684
 4194SOL    HW213482   0.216   1.255   3.791
 4195SOL     OW13483   5.219   0.708   2.777
 4195SOL    HW113484   5.189   0.613   2.789
 4195SOL    HW213485   5.158   0.768   2.829
 4196SOL     OW13486   4.440   2.448   3.234
 4196SOL    HW113487   4.419   2.351   3.237
 4196SOL    HW213488   4.356   2.501   3.222
 4197SOL     OW13489   4.798   3.946   4.151
 4197SOL    HW113490   4.856   3.913   4.225
 4197SOL    HW213491   4.835   3.915   4.063
 4198SOL     OW13492   5.649   4.046   5.750
 4198SOL    HW113493   5.702   4.116   5.702
 4198SOL    HW213494   5.577   4.013   5.690
 4199SOL     OW13495   3.270   3.858   4.999
 4199SOL    HW113496   3.363   3.846   4.965
 4199SOL    HW213497   3.226   3.769   5.006
 4200SOL     OW13498   2.254   0.064   5.923
 4200SOL    HW113499   2.292   0.126   5.854
 4200SOL    HW213500   2.326   0.003   5.956
 4201SOL     OW13501   6.306   0.024   4.684
 4201SOL    HW113502   6.311   0.011   4.585
 4201SOL    HW213503   6.210   0.039   4.710
 4202SOL     OW13504   5.676   3.656   4.958
 4202SOL    HW113505   5.629   3.587   5.013
 4202SOL    HW213506   5.608   3.715   4.914
 4203SOL     OW13507   4.862   5.250   4.007
 4203SOL    HW113508   4.790   5.253   3.937
 4203SOL    HW213509   4.822   5.223   4.094
 4204SOL     OW13510   2.506   4.284   0.917
 4204SOL    HW113511   2.505   4.307   1.014
 4204SOL    HW213512   2.445   4.207   0.899
 4205SOL     OW13513   2.579   5.544   3.307
 4205SOL    HW113514   2.666   5.531   3.260
 4205SOL    HW213515   2.588   5.618   3.374
 4206SOL     OW13516   6.026   0.016   4.686
 4206SOL    HW113517   5.948   7.000   4.736
 4206SOL    HW213518   6.017   7.018   4.589
 4207SOL     OW13519   0.745   0.658   0.943
 4207SOL    HW113520   0.727   0.570   0.899
 4207SOL    HW213521   0.659   0.700   0.970
 4208SOL     OW13522   0.841   2.708   0.386
 4208SOL    HW113523   0.876   2.624   0.427
 4208SOL    HW213524   0.814   2.772   0.458
 4209SOL     OW13525   2.496   0.780   4.971
 4209SOL    HW113526   2.424   0.779   4.903
 4209SOL    HW213527   2.514   0.875   4.999
 4210SOL     OW13528   5.177   2.510   0.102
 4210SOL    HW113529   5.182   2.443   0.176
 4210SOL    HW213530   5.164   2.602   0.140
 4211SOL     OW13531   4.887   3.483   3.855
 4211SOL    HW113532   4.884   3.385   3.876
 4211SOL    HW213533   4.883   3.536   3.940
 4212SOL     OW13534   6.346   6.657   2.990
 4212SOL    HW113535   6.428   6.600   2.989
 4212SOL    HW213536   6.372   6.753   2.990
 4213SOL     OW13537   0.766   0.101   1.659
 4213SOL    HW113538   0.815   0.020   1.693
 4213SOL    HW213539   0.828   0.157   1.604
 4214SOL     OW13540   2.103   4.684   4.875
 4214SOL    HW113541   2.078   4.627   4.954
 4214SOL    HW213542   2.202   4.698   4.875
 4215SOL     OW13543   0.745   5.473   5.377
 4215SOL    HW113544   0.652   5.508   5.383
 4215SOL    HW213545   0.743   5.373   5.371
 4216SOL     OW13546   2.703   3.394   5.406
 4216SOL    HW113547   2.646   3.353   5.335
 4216SOL    HW213548   2.771   3.328   5.437
 4217SOL     OW13549   0.093   0.879   3.133
 4217SOL    HW113550   0.055   0.965   3.100
 4217SOL    HW213551   0.187   0.869   3.100
 4218SOL     OW13552   3.005   6.401   2.496
 4218SOL    HW113553   2.969   6.494   2.497
 4218SOL    HW213554   3.065   6.388   2.575
 4219SOL     OW13555   4.990   6.886   3.153
 4219SOL    HW113556   5.082   6.894   3.190
 4219SOL    HW213557   4.974   6.959   3.086
 4220SOL     OW13558   0.686   4.064   3.356
 4220SOL    HW113559   0.601   4.117   3.357
 4220SOL    HW213560   0.687   4.002   3.435
 4221SOL     OW13561   5.397   5.827   6.059
 4221SOL    HW113562   5.341   5.745   6.073
 4221SOL    HW213563   5.342   5.896   6.012
 4222SOL     OW13564   3.502   2.586   0.175
 4222SOL    HW113565   3.513   2.685   0.182
 4222SOL    HW213566   3.464   2.563   0.085
 4223SOL     OW13567   2.882   3.570   2.448
 4223SOL    HW113568   2.884   3.665   2.478
 4223SOL    HW213569   2.914   3.511   2.522
 4224SOL     OW13570   3.987   1.896   5.691
 4224SOL    HW113571   3.906   1.953   5.708
 4224SOL    HW213572   4.066   1.939   5.734
 4225SOL     OW13573   5.200   0.612   4.960
 4225SOL    HW113574   5.246   0.539   5.010
 4225SOL    HW213575   5.181   0.582   4.866
 4226SOL     OW13576   1.982   1.162   3.049
 4226SOL    HW113577   1.919   1.192   3.121
 4226SOL    HW213578   1.933   1.157   2.962
 4227SOL     OW13579   5.978   3.815   6.876
 4227SOL    HW113580   5.921   3.862   6.809
 4227SOL    HW213581   5.977   3.865   6.962
 4228SOL     OW13582   5.726   5.435   3.345
 4228SOL    HW113583   5.629   5.460   3.341
 4228SOL    HW213584   5.768   5.479   3.424
 4229SOL     OW13585   4.551   4.806   5.398
 4229SOL    HW113586   4.490   4.874   5.357
 4229SOL    HW213587   4.523   4.788   5.492
 4230SOL     OW13588   2.990   0.302   4.716
 4230SOL    HW113589   2.952   0.243   4.788
 4230SOL    HW213590   3.072   0.347   4.751
 4231SOL     OW13591   4.228   6.002   5.356
 4231SOL    HW113592   4.286   5.968   5.430
 4231SOL    HW213593   4.134   6.013   5.390
 4232SOL     OW13594   2.185   4.053   1.538
 4232SOL    HW113595   2.153   4.099   1.455
 4232SOL    HW213596   2.188   4.119   1.613
 4233SOL     OW13597   5.350   6.676   0.861
 4233SOL    HW113598   5.383   6.754   0.807
 4233SOL    HW213599   5.388   6.591   0.823
 4234SOL     OW13600   3.262   3.902   5.308
 4234SOL    HW113601   3.165   3.922   5.324
 4234SOL    HW213602   3.272   3.850   5.223
 4235SOL     OW13603   0.166   3.728   5.291
 4235SOL    HW113604   0.177   3.657   5.221
 4235SOL    HW213605   0.257   3.758   5.322
 4236SOL     OW13606   1.204   3.927   4.621
 4236SOL    HW113607   1.205   3.851   4.686
 4236SOL    HW213608   1.123   3.983   4.637
 4237SOL     OW13609   5.392   4.606   5.095
 4237SOL    HW113610   5.478   4.572   5.057
 4237SOL    HW213611   5.371   4.557   5.180
 4238SOL     OW13612   4.661   4.260   4.581
 4238SOL    HW113613   4.720   4.235   4.657
 4238SOL    HW213614   4.658   4.186   4.514
 4239SOL     OW13615   5.342   5.567   5.856
 4239SOL    HW113616   5.271   5.610   5.912
 4239SOL    HW213617   5.301   5.494   5.800
 4240SOL     OW13618   2.660   5.064   6.309
 4240SOL    HW113619   2.602   5.085   6.230
 4240SOL    HW213620   2.604   5.059   6.392
 4241SOL     OW13621   4.082   1.460   0.062
 4241SOL    HW113622   4.014   1.491   0.128
 4241SOL    HW213623   4.171   1.497   0.085
 4242SOL     OW13624   1.484   0.383   2.361
 4242SOL    HW113625   1.554   0.316   2.334
 4242SOL    HW213626   1.404   0.334   2.397
 4243SOL     OW13627   1.411   3.120   2.879
 4243SOL    HW113628   1.382   3.131   2.974
 4243SOL    HW213629   1.470   3.040   2.871
 4244SOL     OW13630   2.963   0.042   0.648
 4244SOL    HW113631   2.901   6.988   0.632
 4244SOL    HW213632   2.920   0.108   0.710
 4245SOL     OW13633   6.502   2.337   1.085
 4245SOL    HW113634   6.577   2.279   1.115
 4245SOL    HW213635   6.493   2.331   0.985
 4246SOL     OW13636   4.762   2.613   3.775
 4246SOL    HW113637   4.711   2.582   3.695
 4246SOL    HW213638   4.708   2.593   3.858
 4247SOL     OW13639   1.933   4.551   6.664
 4247SOL    HW113640   1.895   4.464   6.631
 4247SOL    HW213641   1.904   4.625   6.603
 4248SOL     OW13642   2.049   0.619   3.363
 4248SOL    HW113643   2.147   0.641   3.366
 4248SOL    HW213644   2.014   0.641   3.272
 4249SOL     OW13645   5.985   0.248   5.820
 4249SOL    HW113646   5.975   0.346   5.804
 4249SOL    HW213647   6.082   0.225   5.824
 4250SOL     OW13648   6.782   6.116   4.714
 4250SOL    HW113649   6.725   6.143   4.791
 4250SOL    HW213650   6.754   6.167   4.633
 4251SOL     OW13651   5.112   2.339   5.887
 4251SOL    HW113652   5.108   2.423   5.940
 4251SOL    HW213653   5.020   2.300   5.879
 4252SOL     OW13654   6.822   6.830   6.963
 4252SOL    HW113655   6.882   6.817   6.884
 4252SOL    HW213656   6.878   6.840   0.023
 4253SOL     OW13657   4.562   6.311   2.707
 4253SOL    HW113658   4.572   6.365   2.790
 4253SOL    HW213659   4.639   6.248   2.698
 4254SOL     OW13660   1.582   2.275   6.070
 4254SOL    HW113661   1.564   2.334   6.148
 4254SOL    HW213662   1.653   2.316   6.012
 4255SOL     OW13663   0.856   2.664   3.169
 4255SOL    HW113664   0.933   2.722   3.141
 4255SOL    HW213665   0.790   2.658   3.094
 4256SOL     OW13666   0.075   6.043   0.952
 4256SOL    HW113667   0.075   6.013   0.857
 4256SOL    HW213668   0.006   5.991   1.003
 4257SOL     OW13669   6.274   0.815   3.261
 4257SOL    HW113670   6.221   0.807   3.345
 4257SOL    HW213671   6.216   0.795   3.182
 4258SOL     OW13672   2.972   5.654   1.017
 4258SOL    HW113673   2.971   5.714   0.937
 4258SOL    HW213674   2.986   5.560   0.988
 4259SOL     OW13675   1.238   0.207   0.777
 4259SOL    HW113676   1.290   0.206   0.862
 4259SOL    HW213677   1.265   0.129   0.721
 4260SOL     OW13678   5.964   0.571   4.746
 4260SOL    HW113679   5.882   0.515   4.732
 4260SOL    HW213680   6.028   0.522   4.805
 4261SOL     OW13681   2.427   6.109   4.490
 4261SOL    HW113682   2.493   6.182   4.503
 4261SOL    HW213683   2.358   6.113   4.562
 4262SOL     OW13684   2.225   5.100   5.104
 4262SOL    HW113685   2.272   5.046   5.033
 4262SOL    HW213686   2.279   5.097   5.188
 4263SOL     OW13687   2.516   1.599   3.521
 4263SOL    HW113688   2.434   1.577   3.573
 4263SOL    HW213689   2.597   1.585   3.578
 4264SOL     OW13690   4.609   2.144   5.918
 4264SOL    HW113691   4.578   2.101   6.003
 4264SOL    HW213692   4.532   2.154   5.856
 4265SOL     OW13693   2.381   6.617   6.032
 4265SOL    HW113694   2.287   6.615   6.064
 4265SOL    HW213695   2.385   6.658   5.941
 4266SOL     OW13696   1.188   5.133   1.795
 4266SOL    HW113697   1.287   5.136   1.810
 4266SOL    HW213698   1.167   5.063   1.726
 4267SOL     OW13699   1.048   4.050   4.181
 4267SOL    HW113700   1.001   3.962   4.178
 4267SOL    HW213701   1.122   4.050   4.113
 4268SOL     OW13702   0.965   4.725   5.810
 4268SOL    HW113703   1.005   4.686   5.727
 4268SOL    HW213704   0.961   4.654   5.881
 4269SOL     OW13705   3.021   1.520   4.427
 4269SOL    HW113706   2.941   1.580   4.418
 4269SOL    HW213707   3.095   1.554   4.370
 4270SOL     OW13708   3.971   3.543   0.427
 4270SOL    HW113709   4.045   3.549   0.360
 4270SOL    HW213710   3.887   3.579   0.387
 4271SOL     OW13711   0.062   0.261   1.127
 4271SOL    HW113712   7.020   0.185   1.111
 4271SOL    HW213713   0.058   0.325   1.051
 4272SOL     OW13714   0.132   1.557   5.756
 4272SOL    HW113715   0.171   1.496   5.687
 4272SOL    HW213716   0.093   1.638   5.712
 4273SOL     OW13717   2.870   5.920   3.848
 4273SOL    HW113718   2.778   5.894   3.877
 4273SOL    HW213719   2.914   5.974   3.920
 4274SOL     OW13720   0.858   1.410   1.604
 4274SOL    HW113721   0.902   1.334   1.650
 4274SOL    HW213722   0.917   1.441   1.528
 4275SOL     OW13723   0.110   2.475   3.854
 4275SOL    HW113724   0.138   2.396   3.909
 4275SOL    HW213725   0.073   2.546   3.913
 4276SOL     OW13726   1.578   6.507   3.155
 4276SOL    HW113727   1.528   6.552   3.081
 4276SOL    HW213728   1.658   6.461   3.117
 4277SOL     OW13729   6.759   5.685   2.866
 4277SOL    HW113730   6.699   5.765   2.861
 4277SOL    HW213731   6.711   5.606   2.828
 4278SOL     OW13732   1.051   6.792   1.191
 4278SOL    HW113733   1.065   6.768   1.287
 4278SOL    HW213734   1.089   6.882   1.173
 4279SOL     OW13735   0.737   2.523   3.363
 4279SOL    HW113736   0.800   2.585   3.317
 4279SOL    HW213737   0.648   2.525   3.318
 4280SOL     OW13738   2.087   6.097   6.121
 4280SOL    HW113739   2.100   6.008   6.165
 4280SOL    HW213740   2.151   6.106   6.045
 4281SOL     OW13741   6.029   5.866   3.801
 4281SOL    HW113742   5.967   5.940   3.774
 4281SOL    HW213743   6.009   5.838   3.895
 4282SOL     OW13744   5.375   5.448   2.217
 4282SOL    HW113745   5.325   5.472   2.300
 4282SOL    HW213746   5.411   5.355   2.226
 4283SOL     OW13747   5.896   1.036   4.655
 4283SOL    HW113748   5.879   0.965   4.723
 4283SOL    HW213749   5.909   1.124   4.701
 4284SOL     OW13750   4.806   5.776   6.678
 4284SOL    HW113751   4.770   5.707   6.616
 4284SOL    HW213752   4.859   5.843   6.626
 4285SOL     OW13753   3.072   1.563   6.418
 4285SOL    HW113754   3.113   1.481   6.378
 4285SOL    HW213755   3.140   1.609   6.476
 4286SOL     OW13756   5.036   0.339   6.901
 4286SOL    HW113757   4.937   0.351   6.907
 4286SOL    HW213758   5.065   0.337   6.805
 4287SOL     OW13759   3.267   0.952   1.389
 4287SOL    HW113760   3.286   0.867   1.438
 4287SOL    HW213761   3.212   0.932   1.308
 4288SOL     OW13762   6.708   5.916   1.987
 4288SOL    HW113763   6.796   5.879   1.957
 4288SOL    HW213764   6.645   5.841   2.008
 4289SOL     OW13765   6.933   4.470   5.234
 4289SOL    HW113766   6.981   4.383   5.241
 4289SOL    HW213767   6.943   4.506   5.141
 4290SOL     OW13768   0.127   1.657   3.222
 4290SOL    HW113769   0.077   1.741   3.204
 4290SOL    HW213770   0.186   1.669   3.302
 4291SOL     OW13771   4.007   4.885   6.584
 4291SOL    HW113772   3.939   4.818   6.554
 4291SOL    HW213773   4.026   4.949   6.509
 4292SOL     OW13774   6.162   1.215   1.845
 4292SOL    HW113775   6.090   1.149   1.826
 4292SOL    HW213776   6.240   1.197   1.785
 4293SOL     OW13777   3.825   2.783   0.282
 4293SOL    HW113778   3.882   2.865   0.284
 4293SOL    HW213779   3.772   2.782   0.197
 4294SOL     OW13780   2.703   1.467   6.644
 4294SOL    HW113781   2.764   1.513   6.709
 4294SOL    HW213782   2.714   1.508   6.554
 4295SOL     OW13783   4.566   6.334   3.135
 4295SOL    HW113784   4.570   6.381   3.223
 4295SOL    HW213785   4.637   6.264   3.130
 4296SOL     OW13786   2.236   6.565   2.073
 4296SOL    HW113787   2.250   6.495   2.144
 4296SOL    HW213788   2.245   6.656   2.114
 4297SOL     OW13789   4.912   4.925   0.304
 4297SOL    HW113790   4.981   4.997   0.296
 4297SOL    HW213791   4.820   4.966   0.306
 4298SOL     OW13792   1.596   0.274   0.814
 4298SOL    HW113793   1.557   0.287   0.905
 4298SOL    HW213794   1.680   0.222   0.820
 4299SOL     OW13795   1.202   3.386   6.744
 4299SOL    HW113796   1.151   3.302   6.723
 4299SOL    HW213797   1.251   3.416   6.662
 4300SOL     OW13798   3.051   0.984   1.783
 4300SOL    HW113799   2.982   1.013   1.717
 4300SOL    HW213800   3.086   1.064   1.833
 4301SOL     OW13801   2.465   5.842   5.917
 4301SOL    HW113802   2.532   5.856   5.990
 4301SOL    HW213803   2.431   5.930   5.885
 4302SOL     OW13804   3.383   5.049   6.418
 4302SOL    HW113805   3.470   5.069   6.373
 4302SOL    HW213806   3.362   4.952   6.409
 4303SOL     OW13807   3.937   5.629   3.415
 4303SOL    HW113808   3.903   5.723   3.406
 4303SOL    HW213809   4.001   5.624   3.491
 4304SOL     OW13810   3.355   4.043   1.898
 4304SOL    HW113811   3.325   3.978   1.829
 4304SOL    HW213812   3.313   4.020   1.986
 4305SOL     OW13813   0.431   6.071   6.464
 4305SOL    HW113814   0.459   6.108   6.375
 4305SOL    HW213815   0.359   6.129   6.503
 4306SOL     OW13816   5.802   3.378   5.304
 4306SOL    HW113817   5.751   3.381   5.218
 4306SOL    HW213818   5.755   3.434   5.372
 4307SOL     OW13819   6.782   1.453   5.424
 4307SOL    HW113820   6.851   1.478   5.492
 4307SOL    HW213821   6.691   1.460   5.465
 4308SOL     OW13822   4.110   6.062   6.436
 4308SOL    HW113823   4.197   6.071   6.486
 4308SOL    HW213824   4.083   5.965   6.436
 4309SOL     OW13825   1.748   1.425   0.188
 4309SOL    HW113826   1.670   1.381   0.144
 4309SOL    HW213827   1.715   1.494   0.253
 4310SOL     OW13828   6.210   2.276   2.911
 4310SOL    HW113829   6.267   2.358   2.919
 4310SOL    HW213830   6.198   2.252   2.815
 4311SOL     OW13831   0.966   0.163   1.510
 4311SOL    HW113832   1.060   0.139   1.533
 4311SOL    HW213833   0.965   0.252   1.464
 4312SOL     OW13834   6.793   3.637   1.782
 4312SOL    HW113835   6.715   3.693   1.810
 4312SOL    HW213836   6.780   3.609   1.686
 4313SOL     OW13837   0.885   3.838   6.442
 4313SOL    HW113838   0.970   3.817   6.491
 4313SOL    HW213839   0.831   3.903   6.496
 4314SOL     OW13840   1.094   1.192   5.338
 4314SOL    HW113841   1.065   1.185   5.434
 4314SOL    HW213842   1.041   1.264   5.293
 4315SOL     OW13843   2.599   2.084   5.608
 4315SOL    HW113844   2.649   2.170   5.616
 4315SOL    HW213845   2.660   2.014   5.571
 4316SOL     OW13846   4.221   5.380   1.987
 4316SOL    HW113847   4.261   5.418   2.071
 4316SOL    HW213848   4.249   5.434   1.908
 4317SOL     OW13849   5.033   0.712   5.161
 4317SOL    HW113850   4.997   0.804   5.141
 4317SOL    HW213851   5.078   0.676   5.079
 4318SOL     OW13852   1.365   6.451   4.459
 4318SOL    HW113853   1.364   6.407   4.548
 4318SOL    HW213854   1.277   6.436   4.413
 4319SOL     OW13855   1.200   4.216   2.292
 4319SOL    HW113856   1.228   4.124   2.320
 4319SOL    HW213857   1.100   4.220   2.285
 4320SOL     OW13858   3.186   0.154   0.801
 4320SOL    HW113859   3.112   0.121   0.743
 4320SOL    HW213860   3.208   0.249   0.778
 4321SOL     OW13861   6.550   6.539   3.185
 4321SOL    HW113862   6.542   6.620   3.242
 4321SOL    HW213863   6.643   6.501   3.194
 4322SOL     OW13864   2.074   1.791   4.673
 4322SOL    HW113865   2.008   1.717   4.685
 4322SOL    HW213866   2.166   1.753   4.664
 4323SOL     OW13867   4.429   4.927   0.253
 4323SOL    HW113868   4.333   4.948   0.234
 4323SOL    HW213869   4.440   4.828   0.260
 4324SOL     OW13870   0.463   4.928   5.771
 4324SOL    HW113871   0.382   4.882   5.807
 4324SOL    HW213872   0.434   5.008   5.719
 4325SOL     OW13873   1.987   6.538   1.503
 4325SOL    HW113874   1.932   6.499   1.576
 4325SOL    HW213875   2.032   6.621   1.536
 4326SOL     OW13876   4.638   2.441   2.429
 4326SOL    HW113877   4.676   2.430   2.521
 4326SOL    HW213878   4.540   2.421   2.431
 4327SOL     OW13879   2.394   5.643   3.672
 4327SOL    HW113880   2.374   5.656   3.575
 4327SOL    HW213881   2.335   5.701   3.727
 4328SOL     OW13882   6.121   0.699   3.668
 4328SOL    HW113883   6.049   0.739   3.611
 4328SOL    HW213884   6.135   0.604   3.643
 4329SOL     OW13885   6.497   3.511   6.530
 4329SOL    HW113886   6.406   3.476   6.549
 4329SOL    HW213887   6.566   3.446   6.562
 4330SOL     OW13888   2.500   4.838   4.307
 4330SOL    HW113889   2.458   4.791   4.230
 4330SOL    HW213890   2.484   4.937   4.298
 4331SOL     OW13891   5.928   2.202   2.482
 4331SOL    HW113892   5.849   2.179   2.538
 4331SOL    HW213893   5.905   2.189   2.385
 4332SOL     OW13894   0.087   5.632   1.627
 4332SOL    HW113895   0.083   5.719   1.676
 4332SOL    HW213896   0.111   5.648   1.531
 4333SOL     OW13897   4.087   2.884   5.992
 4333SOL    HW113898   4.103   2.980   5.970
 4333SOL    HW213899   3.997   2.874   6.036
 4334SOL     OW13900   0.055   3.168   3.698
 4334SOL    HW113901   0.102   3.248   3.736
 4334SOL    HW213902   6.984   3.164   3.733
 4335SOL     OW13903   2.390   4.094   1.800
 4335SOL    HW113904   2.470   4.125   1.748
 4335SOL    HW213905   2.353   4.011   1.759
 4336SOL     OW13906   2.552   5.293   5.542
 4336SOL    HW113907   2.509   5.247   5.464
 4336SOL    HW213908   2.636   5.245   5.567
 4337SOL     OW13909   6.561   4.745   3.574
 4337SOL    HW113910   6.474   4.763   3.528
 4337SOL    HW213911   6.629   4.811   3.544
 4338SOL     OW13912   2.911   2.441   6.032
 4338SOL    HW113913   2.943   2.354   5.994
 4338SOL    HW213914   2.972   2.469   6.106
 4339SOL     OW13915   4.094   4.907   5.042
 4339SOL    HW113916   4.138   4.859   5.117
 4339SOL    HW213917   4.005   4.942   5.072
 4340SOL     OW13918   0.197   4.386   1.014
 4340SOL    HW113919   0.150   4.363   1.099
 4340SOL    HW213920   0.129   4.404   0.943
 4341SOL     OW13921   5.931   5.965   1.322
 4341SOL    HW113922   5.953   5.868   1.323
 4341SOL    HW213923   5.849   5.981   1.378
 4342SOL     OW13924   5.373   3.140   2.533
 4342SOL    HW113925   5.460   3.148   2.484
 4342SOL    HW213926   5.382   3.070   2.604
 4343SOL     OW13927   3.636   0.644   6.457
 4343SOL    HW113928   3.604   0.655   6.551
 4343SOL    HW213929   3.715   0.582   6.456
 4344SOL     OW13930   0.519   3.985   2.943
 4344SOL    HW113931   0.440   4.022   2.991
 4344SOL    HW213932   0.497   3.973   2.846
 4345SOL     OW13933   3.714   3.636   2.558
 4345SOL    HW113934   3.769   3.553   2.560
 4345SOL    HW213935   3.641   3.629   2.626
 4346SOL     OW13936   0.776   3.162   2.666
 4346SOL    HW113937   0.801   3.168   2.569
 4346SOL    HW213938   0.679   3.182   2.676
 4347SOL     OW13939   6.214   5.327   0.449
 4347SOL    HW113940   6.129   5.379   0.459
 4347SOL    HW213941   6.214   5.251   0.514
 4348SOL     OW13942   5.910   5.027   5.387
 4348SOL    HW113943   5.872   4.948   5.434
 4348SOL    HW213944   5.904   5.108   5.446
 4349SOL     OW13945   0.971   3.786   4.186
 4349SOL    HW113946   1.001   3.717   4.251
 4349SOL    HW213947   0.960   3.745   4.095
 4350SOL     OW13948   4.122   1.014   4.147
 4350SOL    HW113949   4.079   0.933   4.186
 4350SOL    HW213950   4.153   1.074   4.220
 4351SOL     OW13951   0.285   5.465   1.011
 4351SOL    HW113952   0.229   5.545   0.993
 4351SOL    HW213953   0.366   5.466   0.951
 4352SOL     OW13954   3.721   5.014   1.816
 4352SOL    HW113955   3.686   4.929   1.855
 4352SOL    HW213956   3.701   5.016   1.718
 4353SOL     OW13957   2.971   3.072   0.884
 4353SOL    HW113958   2.960   3.002   0.954
 4353SOL    HW213959   2.994   3.159   0.928
 4354SOL     OW13960   5.704   5.982   2.441
 4354SOL    HW113961   5.776   6.030   2.392
 4354SOL    HW213962   5.615   6.016   2.410
 4355SOL     OW13963   2.181   4.823   2.731
 4355SOL    HW113964   2.164   4.724   2.723
 4355SOL    HW213965   2.187   4.863   2.639
 4356SOL     OW13966   6.036   2.654   5.620
 4356SOL    HW113967   6.083   2.683   5.703
 4356SOL    HW213968   6.100   2.600   5.563
 4357SOL     OW13969   5.951   6.743   1.648
 4357SOL    HW113970   5.907   6.660   1.682
 4357SOL    HW213971   6.011   6.780   1.719
 4358SOL     OW13972   2.848   1.248   0.265
 4358SOL    HW113973   2.883   1.306   0.192
 4358SOL    HW213974   2.895   1.159   0.262
 4359SOL     OW13975   2.499   2.200   1.093
 4359SOL    HW113976   2.509   2.145   1.010
 4359SOL    HW213977   2.476   2.294   1.067
 4360SOL     OW13978   2.176   5.601   4.072
 4360SOL    HW113979   2.159   5.519   4.018
 4360SOL    HW213980   2.143   5.587   4.165
 4361SOL     OW13981   0.661   2.023   0.236
 4361SOL    HW113982   0.584   2.086   0.225
 4361SOL    HW213983   0.743   2.064   0.198
 4362SOL     OW13984   0.916   5.311   3.218
 4362SOL    HW113985   0.876   5.359   3.140
 4362SOL    HW213986   1.012   5.337   3.228
 4363SOL     OW13987   3.827   0.839   2.135
 4363SOL    HW113988   3.876   0.863   2.051
 4363SOL    HW213989   3.865   0.890   2.212
 4364SOL     OW13990   3.177   4.087   2.679
 4364SOL    HW113991   3.155   4.029   2.757
 4364SOL    HW213992   3.165   4.183   2.704
 4365SOL     OW13993   2.145   0.963   1.187
 4365SOL    HW113994   2.099   1.045   1.220
 4365SOL    HW213995   2.225   0.944   1.244
 4366SOL     OW13996   5.023   6.778   4.656
 4366SOL    HW113997   5.070   6.864   4.672
 4366SOL    HW213998   5.056   6.736   4.571
 4367SOL     OW13999   2.327   6.155   2.585
 4367SOL    HW114000   2.365   6.063   2.591
 4367SOL    HW214001   2.234   6.150   2.546
 4368SOL     OW14002   4.882   3.799   3.877
 4368SOL    HW114003   4.964   3.744   3.895
 4368SOL    HW214004   4.864   3.801   3.779
 4369SOL     OW14005   5.508   3.854   3.825
 4369SOL    HW114006   5.558   3.802   3.755
 4369SOL    HW214007   5.459   3.790   3.884
 4370SOL     OW14008   4.009   4.675   0.794
 4370SOL    HW114009   4.037   4.590   0.837
 4370SOL    HW214010   3.919   4.702   0.829
 4371SOL     OW14011   3.263   0.784   2.691
 4371SOL    HW114012   3.265   0.869   2.639
 4371SOL    HW214013   3.192   0.724   2.654
 4372SOL     OW14014   1.998   4.086   4.159
 4372SOL    HW114015   1.902   4.066   4.141
 4372SOL    HW214016   2.006   4.168   4.216
 4373SOL     OW14017   4.369   0.707   0.198
 4373SOL    HW114018   4.293   0.770   0.183
 4373SOL    HW214019   4.354   0.623   0.146
 4374SOL     OW14020   2.620   6.802   0.472
 4374SOL    HW114021   2.571   6.889   0.480
 4374SOL    HW214022   2.609   6.750   0.557
 4375SOL     OW14023   4.163   1.456   6.006
 4375SOL    HW114024   4.253   1.493   5.984
 4375SOL    HW214025   4.137   1.389   5.936
 4376SOL     OW14026   2.303   5.410   0.038
 4376SOL    HW114027   2.295   5.337   0.106
 4376SOL    HW214028   2.318   5.497   0.084
 4377SOL     OW14029   5.082   6.016   0.188
 4377SOL    HW114030   5.157   5.954   0.163
 4377SOL    HW214031   5.014   6.017   0.114
 4378SOL     OW14032   2.830   5.007   2.912
 4378SOL    HW114033   2.738   4.970   2.902
 4378SOL    HW214034   2.844   5.078   2.843
 4379SOL     OW14035   0.738   6.765   1.355
 4379SOL    HW114036   0.680   6.836   1.395
 4379SOL    HW214037   0.693   6.726   1.275
 4380SOL     OW14038   1.995   5.562   4.292
 4380SOL    HW114039   1.973   5.473   4.252
 4380SOL    HW214040   2.021   5.550   4.388
 4381SOL     OW14041   4.881   5.574   5.427
 4381SOL    HW114042   4.945   5.647   5.402
 4381SOL    HW214043   4.802   5.577   5.366
 4382SOL     OW14044   5.442   3.732   3.203
 4382SOL    HW114045   5.385   3.804   3.243
 4382SOL    HW214046   5.391   3.685   3.131
 4383SOL     OW14047   1.067   1.681   0.297
 4383SOL    HW114048   1.040   1.769   0.335
 4383SOL    HW214049   1.001   1.611   0.327
 4384SOL     OW14050   4.081   6.620   1.120
 4384SOL    HW114051   4.009   6.689   1.126
 4384SOL    HW214052   4.040   6.531   1.097
 4385SOL     OW14053   6.159   2.575   2.568
 4385SOL    HW114054   6.248   2.562   2.611
 4385SOL    HW214055   6.155   2.520   2.484
 4386SOL     OW14056   1.444   4.197   0.028
 4386SOL    HW114057   1.380   4.233   0.096
 4386SOL    HW214058   1.395   4.181   6.964
 4387SOL     OW14059   6.495   2.634   1.810
 4387SOL    HW114060   6.447   2.671   1.730
 4387SOL    HW214061   6.540   2.548   1.785
 4388SOL     OW14062   3.448   1.703   5.671
 4388SOL    HW114063   3.534   1.736   5.631
 4388SOL    HW214064   3.461   1.683   5.768
 4389SOL     OW14065   5.969   2.390   2.666
 4389SOL    HW114066   5.942   2.343   2.583
 4389SOL    HW214067   6.050   2.445   2.649
 4390SOL     OW14068   4.254   2.449   1.591
 4390SOL    HW114069   4.278   2.455   1.494
 4390SOL    HW214070   4.236   2.540   1.627
 4391SOL     OW14071   0.396   6.613   0.754
 4391SOL    HW114072   0.480   6.562   0.772
 4391SOL    HW214073   0.408   6.670   0.673
 4392SOL     OW14074   5.793   4.158   4.484
 4392SOL    HW114075   5.710   4.162   4.429
 4392SOL    HW214076   5.864   4.215   4.442
 4393SOL     OW14077   5.671   6.220   3.697
 4393SOL    HW114078   5.643   6.311   3.728
 4393SOL    HW214079   5.599   6.154   3.720
 4394SOL     OW14080   4.381   1.039   2.643
 4394SOL    HW114081   4.332   0.959   2.678
 4394SOL    HW214082   4.368   1.045   2.545
 4395SOL     OW14083   5.209   1.569   1.332
 4395SOL    HW114084   5.122   1.618   1.320
 4395SOL    HW214085   5.217   1.498   1.263
 4396SOL     OW14086   1.210   1.191   4.152
 4396SOL    HW114087   1.239   1.228   4.240
 4396SOL    HW214088   1.126   1.137   4.165
 4397SOL     OW14089   5.602   0.116   6.381
 4397SOL    HW114090   5.682   0.106   6.323
 4397SOL    HW214091   5.542   0.187   6.344
 4398SOL     OW14092   0.126   5.506   4.417
 4398SOL    HW114093   0.220   5.495   4.450
 4398SOL    HW214094   0.063   5.501   4.494
 4399SOL     OW14095   2.904   0.970   2.135
 4399SOL    HW114096   2.865   1.031   2.066
 4399SOL    HW214097   2.860   0.987   2.223
 4400SOL     OW14098   3.646   6.164   3.611
 4400SOL    HW114099   3.671   6.100   3.539
 4400SOL    HW214100   3.559   6.136   3.652
 4401SOL     OW14101   6.079   6.127   4.905
 4401SOL    HW114102   6.065   6.080   4.818
 4401SOL    HW214103   6.030   6.078   4.977
 4402SOL     OW14104   6.687   6.988   3.114
 4402SOL    HW114105   6.781   6.956   3.103
 4402SOL    HW214106   6.676   0.052   3.066
 4403SOL     OW14107   0.055   0.377   3.383
 4403SOL    HW114108   6.978   0.385   3.387
 4403SOL    HW214109   0.080   0.281   3.372
 4404SOL     OW14110   1.947   4.594   2.946
 4404SOL    HW114111   1.956   4.683   2.990
 4404SOL    HW214112   1.880   4.600   2.872
 4405SOL     OW14113   2.995   3.660   6.080
 4405SOL    HW114114   3.068   3.728   6.073
 4405SOL    HW214115   2.935   3.683   6.156
 4406SOL     OW14116   5.692   3.558   1.920
 4406SOL    HW114117   5.654   3.603   1.840
 4406SOL    HW214118   5.766   3.497   1.892
 4407SOL     OW14119   6.828   0.457   0.119
 4407SOL    HW114120   6.731   0.446   0.139
 4407SOL    HW214121   6.861   0.542   0.160
 4408SOL     OW14122   4.283   6.231   0.553
 4408SOL    HW114123   4.376   6.201   0.577
 4408SOL    HW214124   4.235   6.260   0.636
 4409SOL     OW14125   2.459   1.711   3.277
 4409SOL    HW114126   2.499   1.801   3.259
 4409SOL    HW214127   2.474   1.687   3.373
 4410SOL     OW14128   2.027   5.773   1.459
 4410SOL    HW114129   2.117   5.793   1.421
 4410SOL    HW214130   2.031   5.689   1.513
 4411SOL     OW14131   3.879   3.380   2.523
 4411SOL    HW114132   3.909   3.285   2.533
 4411SOL    HW214133   3.871   3.403   2.426
 4412SOL     OW14134   3.325   1.798   6.145
 4412SOL    HW114135   3.364   1.817   6.235
 4412SOL    HW214136   3.330   1.881   6.089
 4413SOL     OW14137   4.606   5.185   3.566
 4413SOL    HW114138   4.686   5.130   3.540
 4413SOL    HW214139   4.544   5.191   3.488
 4414SOL     OW14140   3.129   5.679   1.470
 4414SOL    HW114141   3.083   5.765   1.449
 4414SOL    HW214142   3.225   5.683   1.440
 4415SOL     OW14143   4.311   1.647   1.120
 4415SOL    HW114144   4.220   1.622   1.087
 4415SOL    HW214145   4.306   1.671   1.217
 4416SOL     OW14146   2.668   2.358   4.667
 4416SOL    HW114147   2.578   2.315   4.672
 4416SOL    HW214148   2.721   2.334   4.747
 4417SOL     OW14149   6.752   0.536   1.214
 4417SOL    HW114150   6.654   0.542   1.195
 4417SOL    HW214151   6.801   0.520   1.128
 4418SOL     OW14152   4.706   0.996   4.148
 4418SOL    HW114153   4.724   0.987   4.051
 4418SOL    HW214154   4.699   0.905   4.190
 4419SOL     OW14155   6.875   5.458   6.961
 4419SOL    HW114156   6.844   5.427   6.871
 4419SOL    HW214157   6.848   5.553   6.975
 4420SOL     OW14158   4.535   0.784   6.899
 4420SOL    HW114159   4.444   0.814   6.873
 4420SOL    HW214160   4.575   0.850   6.964
 4421SOL     OW14161   0.769   1.971   3.408
 4421SOL    HW114162   0.840   1.976   3.478
 4421SOL    HW214163   0.811   1.983   3.318
 4422SOL     OW14164   1.578   4.384   5.759
 4422SOL    HW114165   1.605   4.296   5.720
 4422SOL    HW214166   1.502   4.371   5.822
 4423SOL     OW14167   6.964   1.784   6.310
 4423SOL    HW114168   6.965   1.868   6.363
 4423SOL    HW214169   0.035   1.761   6.282
 4424SOL     OW14170   0.471   6.432   3.661
 4424SOL    HW114171   0.411   6.433   3.741
 4424SOL    HW214172   0.416   6.422   3.578
 4425SOL     OW14173   5.257   4.138   0.110
 4425SOL    HW114174   5.264   4.079   0.030
 4425SOL    HW214175   5.171   4.118   0.158
 4426SOL     OW14176   0.441   0.598   6.111
 4426SOL    HW114177   0.350   0.636   6.094
 4426SOL    HW214178   0.475   0.552   6.030
 4427SOL     OW14179   0.607   5.982   3.873
 4427SOL    HW114180   0.554   5.972   3.789
 4427SOL    HW214181   0.704   5.964   3.854
 4428SOL     OW14182   2.283   6.497   3.347
 4428SOL    HW114183   2.325   6.449   3.424
 4428SOL    HW214184   2.282   6.595   3.366
 4429SOL     OW14185   3.727   0.009   2.917
 4429SOL    HW114186   3.693   6.981   2.837
 4429SOL    HW214187   3.651   0.029   2.978
 4430SOL     OW14188   1.300   0.428   1.562
 4430SOL    HW114189   1.263   0.514   1.528
 4430SOL    HW214190   1.252   0.402   1.646
 4431SOL     OW14191   2.148   1.897   3.583
 4431SOL    HW114192   2.229   1.934   3.537
 4431SOL    HW214193   2.066   1.919   3.530
 4432SOL     OW14194   3.152   2.991   3.917
 4432SOL    HW114195   3.242   3.033   3.907
 4432SOL    HW214196   3.148   2.907   3.863
 4433SOL     OW14197   6.491   0.585   3.620
 4433SOL    HW114198   6.490   0.673   3.668
 4433SOL    HW214199   6.417   0.583   3.554
 4434SOL     OW14200   4.956   2.040   4.786
 4434SOL    HW114201   4.948   2.040   4.886
 4434SOL    HW214202   4.869   2.013   4.745
 4435SOL     OW14203   4.067   3.463   2.047
 4435SOL    HW114204   4.129   3.413   1.986
 4435SOL    HW214205   4.120   3.526   2.104
 4436SOL     OW14206   5.288   0.662   0.797
 4436SOL    HW114207   5.214   0.597   0.774
 4436SOL    HW214208   5.372   0.633   0.751
 4437SOL     OW14209   3.507   0.113   5.277
 4437SOL    HW114210   3.539   0.187   5.218
 4437SOL    HW214211   3.417   0.082   5.246
 4438SOL     OW14212   3.761   3.689   6.812
 4438SOL    HW114213   3.849   3.666   6.770
 4438SOL    HW214214   3.689   3.688   6.742
 4439SOL     OW14215   2.250   4.950   2.482
 4439SOL    HW114216   2.249   5.029   2.421
 4439SOL    HW214217   2.344   4.922   2.500
 4440SOL     OW14218   6.621   1.115   0.167
 4440SOL    HW114219   6.606   1.172   0.249
 4440SOL    HW214220   6.704   1.145   0.120
 4441SOL     OW14221   6.671   1.688   3.162
 4441SOL    HW114222   6.612   1.769   3.161
 4441SOL    HW214223   6.679   1.653   3.255
 4442SOL     OW14224   1.803   6.267   1.965
 4442SOL    HW114225   1.832   6.176   1.998
 4442SOL    HW214226   1.743   6.309   2.034
 4443SOL     OW14227   2.990   1.294   6.223
 4443SOL    HW114228   2.901   1.338   6.209
 4443SOL    HW214229   2.988   1.241   6.308
 4444SOL     OW14230   4.771   0.973   2.879
 4444SOL    HW114231   4.727   0.929   2.957
 4444SOL    HW214232   4.758   1.072   2.885
 4445SOL     OW14233   1.085   0.983   6.679
 4445SOL    HW114234   1.086   1.083   6.684
 4445SOL    HW214235   1.151   0.953   6.611
 4446SOL     OW14236   5.160   4.686   3.762
 4446SOL    HW114237   5.092   4.613   3.775
 4446SOL    HW214238   5.241   4.665   3.817
 4447SOL     OW14239   5.065   3.098   4.880
 4447SOL    HW114240   5.000   3.084   4.805
 4447SOL    HW214241   5.024   3.066   4.966
 4448SOL     OW14242   2.115   2.883   6.754
 4448SOL    HW114243   2.193   2.888   6.692
 4448SOL    HW214244   2.041   2.831   6.711
 4449SOL     OW14245   0.279   1.661   5.275
 4449SOL    HW114246   0.334   1.701   5.201
 4449SOL    HW214247   0.260   1.732   5.343
 4450SOL     OW14248   3.026   3.864   2.534
 4450SOL    HW114249   3.105   3.848   2.475
 4450SOL    HW214250   3.053   3.923   2.611
 4451SOL     OW14251   6.990   4.173   1.124
 4451SOL    HW114252   6.899   4.191   1.161
 4451SOL    HW214253   0.028   4.141   1.196
 4452SOL     OW14254   6.478   3.949   6.295
 4452SOL    HW114255   6.552   3.970   6.231
 4452SOL    HW214256   6.468   3.850   6.304
 4453SOL     OW14257   5.003   1.488   0.954
 4453SOL    HW114258   5.024   1.578   0.915
 4453SOL    HW214259   5.083   1.452   1.000
 4454SOL     OW14260   5.000   2.785   1.287
 4454SOL    HW114261   5.042   2.839   1.214
 4454SOL    HW214262   4.960   2.847   1.355
 4455SOL     OW14263   4.349   1.909   1.986
 4455SOL    HW114264   4.316   2.003   1.985
 4455SOL    HW214265   4.330   1.868   2.075
 4456SOL     OW14266   0.641   5.637   2.592
 4456SOL    HW114267   0.551   5.610   2.628
 4456SOL    HW214268   0.642   5.622   2.493
 4457SOL     OW14269   4.515   1.840   6.744
 4457SOL    HW114270   4.598   1.828   6.690
 4457SOL    HW214271   4.479   1.750   6.769
 4458SOL     OW14272   3.905   1.548   0.455
 4458SOL    HW114273   3.880   1.452   0.445
 4458SOL    HW214274   4.001   1.555   0.482
 4459SOL     OW14275   4.913   6.583   5.421
 4459SOL    HW114276   4.865   6.658   5.466
 4459SOL    HW214277   4.873   6.568   5.330
 4460SOL     OW14278   1.269   1.393   6.546
 4460SOL    HW114279   1.211   1.332   6.599
 4460SOL    HW214280   1.218   1.476   6.524
 4461SOL     OW14281   1.769   6.946   2.284
 4461SOL    HW114282   1.758   6.964   2.186
 4461SOL    HW214283   1.839   7.007   2.321
 4462SOL     OW14284   0.029   4.977   0.644
 4462SOL    HW114285   6.989   4.908   0.610
 4462SOL    HW214286   0.123   4.941   0.641
 4463SOL     OW14287   1.851   3.731   5.822
 4463SOL    HW114288   1.805   3.709   5.908
 4463SOL    HW214289   1.782   3.761   5.755
 4464SOL     OW14290   5.757   2.988   0.126
 4464SOL    HW114291   5.740   3.080   0.090
 4464SOL    HW214292   5.819   2.995   0.205
 4465SOL     OW14293   0.892   6.317   1.301
 4465SOL    HW114294   0.868   6.231   1.257
 4465SOL    HW214295   0.929   6.299   1.393
 4466SOL     OW14296   0.128   3.131   3.188
 4466SOL    HW114297   0.223   3.147   3.162
 4466SOL    HW214298   0.124   3.101   3.283
 4467SOL     OW14299   1.511   0.515   3.088
 4467SOL    HW114300   1.461   0.430   3.078
 4467SOL    HW214301   1.600   0.497   3.130
 4468SOL     OW14302   2.288   2.129   0.699
 4468SOL    HW114303   2.270   2.227   0.705
 4468SOL    HW214304   2.374   2.107   0.746
 4469SOL     OW14305   4.725   6.979   0.524
 4469SOL    HW114306   4.781   0.011   0.586
 4469SOL    HW214307   4.709   6.889   0.565
 4470SOL     OW14308   4.498   5.083   1.719
 4470SOL    HW114309   4.592   5.064   1.746
 4470SOL    HW214310   4.438   5.011   1.753
 4471SOL     OW14311   6.411   2.629   0.600
 4471SOL    HW114312   6.468   2.704   0.634
 4471SOL    HW214313   6.454   2.588   0.519
 4472SOL     OW14314   2.394   4.661   1.684
 4472SOL    HW114315   2.488   4.630   1.697
 4472SOL    HW214316   2.394   4.750   1.638
 4473SOL     OW14317   0.580   0.846   6.321
 4473SOL    HW114318   0.664   0.884   6.281
 4473SOL    HW214319   0.602   0.799   6.406
 4474SOL     OW14320   6.168   0.595   4.509
 4474SOL    HW114321   6.191   0.559   4.418
 4474SOL    HW214322   6.110   0.529   4.557
 4475SOL     OW14323   2.071   3.584   0.444
 4475SOL    HW114324   2.156   3.560   0.397
 4475SOL    HW214325   2.009   3.630   0.381
 4476SOL     OW14326   4.716   7.000   1.841
 4476SOL    HW114327   4.743   6.970   1.749
 4476SOL    HW214328   4.657   0.058   1.834
 4477SOL     OW14329   1.062   1.068   0.548
 4477SOL    HW114330   0.963   1.072   0.563
 4477SOL    HW214331   1.081   1.030   0.458
 4478SOL     OW14332   1.853   4.868   1.958
 4478SOL    HW114333   1.778   4.923   1.922
 4478SOL    HW214334   1.857   4.781   1.909
 4479SOL     OW14335   0.661   0.497   6.270
 4479SOL    HW114336   0.582   0.549   6.237
 4479SOL    HW214337   0.738   0.511   6.207
 4480SOL     OW14338   0.179   4.284   3.618
 4480SOL    HW114339   0.222   4.374   3.608
 4480SOL    HW214340   0.085   4.296   3.650
 4481SOL     OW14341   0.784   0.496   3.734
 4481SOL    HW114342   0.764   0.487   3.637
 4481SOL    HW214343   0.822   0.410   3.768
 4482SOL     OW14344   0.946   4.308   3.619
 4482SOL    HW114345   0.949   4.390   3.562
 4482SOL    HW214346   0.968   4.333   3.714
 4483SOL     OW14347   5.606   2.993   1.122
 4483SOL    HW114348   5.640   3.014   1.214
 4483SOL    HW214349   5.635   2.901   1.096
 4484SOL     OW14350   3.744   3.395   6.687
 4484SOL    HW114351   3.809   3.346   6.745
 4484SOL    HW214352   3.697   3.465   6.742
 4485SOL     OW14353   4.798   0.450   6.841
 4485SOL    HW114354   4.793   0.541   6.800
 4485SOL    HW214355   4.727   0.441   6.910
 4486SOL     OW14356   5.956   2.634   3.769
 4486SOL    HW114357   5.868   2.602   3.806
 4486SOL    HW214358   5.966   2.732   3.786
 4487SOL     OW14359   2.869   3.072   5.578
 4487SOL    HW114360   2.909   3.164   5.574
 4487SOL    HW214361   2.819   3.054   5.493
 4488SOL     OW14362   0.206   1.740   6.288
 4488SOL    HW114363   0.249   1.652   6.309
 4488SOL    HW214364   0.274   1.813   6.297
 4489SOL     OW14365   6.565   0.939   2.659
 4489SOL    HW114366   6.623   0.950   2.739
 4489SOL    HW214367   6.611   0.880   2.592
 4490SOL     OW14368   0.039   2.267   3.682
 4490SOL    HW114369   0.067   2.341   3.743
 4490SOL    HW214370   0.010   2.306   3.595
 4491SOL     OW14371   1.327   3.549   3.024
 4491SOL    HW114372   1.232   3.551   3.053
 4491SOL    HW214373   1.333   3.569   2.926
 4492SOL     OW14374   4.525   4.773   6.405
 4492SOL    HW114375   4.584   4.725   6.340
 4492SOL    HW214376   4.576   4.847   6.448
 4493SOL     OW14377   5.933   5.198   3.241
 4493SOL    HW114378   5.867   5.273   3.251
 4493SOL    HW214379   5.907   5.123   3.301
 4494SOL     OW14380   6.036   2.699   3.248
 4494SOL    HW114381   5.945   2.681   3.212
 4494SOL    HW214382   6.037   2.683   3.346
 4495SOL     OW14383   4.168   6.293   1.717
 4495SOL    HW114384   4.158   6.239   1.800
 4495SOL    HW214385   4.215   6.379   1.738
 4496SOL     OW14386   5.531   4.658   5.876
 4496SOL    HW114387   5.572   4.693   5.961
 4496SOL    HW214388   5.602   4.622   5.817
 4497SOL     OW14389   6.208   5.213   0.953
 4497SOL    HW114390   6.186   5.153   1.029
 4497SOL    HW214391   6.245   5.299   0.988
 4498SOL     OW14392   0.833   4.107   6.592
 4498SOL    HW114393   0.752   4.164   6.605
 4498SOL    HW214394   0.850   4.054   6.676
 4499SOL     OW14395   5.351   3.271   6.164
 4499SOL    HW114396   5.252   3.255   6.164
 4499SOL    HW214397   5.370   3.366   6.139
 4500SOL     OW14398   3.010   3.617   3.422
 4500SOL    HW114399   2.981   3.700   3.469
 4500SOL    HW214400   3.066   3.561   3.483
 4501SOL     OW14401   1.724   5.144   4.310
 4501SOL    HW114402   1.794   5.111   4.247
 4501SOL    HW214403   1.681   5.066   4.356
 4502SOL     OW14404   6.351   2.838   6.853
 4502SOL    HW114405   6.347   2.739   6.838
 4502SOL    HW214406   6.304   2.885   6.777
 4503SOL     OW14407   1.964   3.107   2.911
 4503SOL    HW114408   2.060   3.133   2.913
 4503SOL    HW214409   1.909   3.183   2.877
 4504SOL     OW14410   4.429   2.420   4.518
 4504SOL    HW114411   4.373   2.439   4.438
 4504SOL    HW214412   4.404   2.331   4.557
 4505SOL     OW14413   2.183   4.917   6.808
 4505SOL    HW114414   2.177   4.960   6.718
 4505SOL    HW214415   2.112   4.847   6.816
 4506SOL     OW14416   4.340   6.739   4.606
 4506SOL    HW114417   4.247   6.709   4.583
 4506SOL    HW214418   4.404   6.665   4.585
 4507SOL     OW14419   6.315   3.640   1.750
 4507SOL    HW114420   6.250   3.672   1.681
 4507SOL    HW214421   6.277   3.561   1.797
 4508SOL     OW14422   1.880   4.305   6.611
 4508SOL    HW114423   1.867   4.251   6.694
 4508SOL    HW214424   1.932   4.252   6.545
 4509SOL     OW14425   0.433   2.111   3.345
 4509SOL    HW114426   0.498   2.162   3.402
 4509SOL    HW214427   0.414   2.162   3.261
 4510SOL     OW14428   3.918   6.362   5.099
 4510SOL    HW114429   3.854   6.431   5.065
 4510SOL    HW214430   3.878   6.315   5.178
 4511SOL     OW14431   6.396   2.449   6.248
 4511SOL    HW114432   6.489   2.411   6.241
 4511SOL    HW214433   6.375   2.499   6.164
 4512SOL     OW14434   2.929   4.756   0.067
 4512SOL    HW114435   2.917   4.775   6.992
 4512SOL    HW214436   2.959   4.840   0.113
 4513SOL     OW14437   5.711   1.271   2.236
 4513SOL    HW114438   5.808   1.258   2.258
 4513SOL    HW214439   5.672   1.184   2.208
 4514SOL     OW14440   3.577   0.981   5.258
 4514SOL    HW114441   3.662   1.030   5.279
 4514SOL    HW214442   3.560   0.912   5.329
 4515SOL     OW14443   6.444   4.816   1.054
 4515SOL    HW114444   6.481   4.889   1.111
 4515SOL    HW214445   6.428   4.735   1.110
 4516SOL     OW14446   0.650   0.118   4.269
 4516SOL    HW114447   0.593   0.063   4.330
 4516SOL    HW214448   0.615   0.212   4.267
 4517SOL     OW14449   3.562   0.009   6.331
 4517SOL    HW114450   3.477   6.981   6.347
 4517SOL    HW214451   3.625   6.975   6.278
 4518SOL     OW14452   1.377   0.766   3.928
 4518SOL    HW114453   1.362   0.670   3.906
 4518SOL    HW214454   1.470   0.779   3.962
 4519SOL     OW14455   6.130   2.725   4.848
 4519SOL    HW114456   6.082   2.736   4.935
 4519SOL    HW214457   6.119   2.808   4.793
 4520SOL     OW14458   0.213   3.943   2.376
 4520SOL    HW114459   0.200   3.973   2.281
 4520SOL    HW214460   0.303   3.900   2.385
 4521SOL     OW14461   4.909   1.865   6.269
 4521SOL    HW114462   4.880   1.771   6.253
 4521SOL    HW214463   4.925   1.911   6.182
 4522SOL     OW14464   5.550   0.340   2.789
 4522SOL    HW114465   5.482   0.380   2.727
 4522SOL    HW214466   5.503   0.285   2.858
 4523SOL     OW14467   4.527   3.272   6.467
 4523SOL    HW114468   4.496   3.367   6.474
 4523SOL    HW214469   4.566   3.243   6.554
 4524SOL     OW14470   6.581   0.277   5.121
 4524SOL    HW114471   6.666   0.225   5.120
 4524SOL    HW214472   6.548   0.288   5.027
 4525SOL     OW14473   6.659   1.871   5.534
 4525SOL    HW114474   6.693   1.925   5.457
 4525SOL    HW214475   6.710   1.894   5.617
 4526SOL     OW14476   3.691   1.134   0.681
 4526SOL    HW114477   3.712   1.049   0.729
 4526SOL    HW214478   3.594   1.136   0.657
 4527SOL     OW14479   3.876   0.314   4.041
 4527SOL    HW114480   3.959   0.320   4.096
 4527SOL    HW214481   3.879   0.381   3.967
 4528SOL     OW14482   5.009   6.907   5.780
 4528SOL    HW114483   4.984   6.976   5.711
 4528SOL    HW214484   4.939   6.905   5.851
 4529SOL     OW14485   4.027   0.365   3.636
 4529SOL    HW114486   4.009   0.266   3.638
 4529SOL    HW214487   4.012   0.403   3.727
 4530SOL     OW14488   0.443   2.764   4.888
 4530SOL    HW114489   0.430   2.764   4.789
 4530SOL    HW214490   0.518   2.702   4.912
 4531SOL     OW14491   0.143   4.074   3.800
 4531SOL    HW114492   0.172   4.151   3.743
 4531SOL    HW214493   0.224   4.022   3.828
 4532SOL     OW14494   6.285   1.640   0.708
 4532SOL    HW114495   6.253   1.575   0.640
 4532SOL    HW214496   6.218   1.714   0.718
 4533SOL     OW14497   3.640   6.017   2.141
 4533SOL    HW114498   3.616   5.922   2.123
 4533SOL    HW214499   3.557   6.069   2.164
 4534SOL     OW14500   0.184   4.167   5.455
 4534SOL    HW114501   0.131   4.225   5.517
 4534SOL    HW214502   0.125   4.095   5.418
 4535SOL     OW14503   5.081   2.159   2.895
 4535SOL    HW114504   5.177   2.158   2.866
 4535SOL    HW214505   5.061   2.246   2.940
 4536SOL     OW14506   0.192   0.788   4.087
 4536SOL    HW114507   0.095   0.803   4.106
 4536SOL    HW214508   0.215   0.691   4.103
 4537SOL     OW14509   4.323   3.102   6.413
 4537SOL    HW114510   4.406   3.157   6.422
 4537SOL    HW214511   4.334   3.038   6.336
 4538SOL     OW14512   3.544   1.365   1.970
 4538SOL    HW114513   3.620   1.303   1.992
 4538SOL    HW214514   3.503   1.338   1.883
 4539SOL     OW14515   2.252   2.093   2.553
 4539SOL    HW114516   2.165   2.104   2.504
 4539SOL    HW214517   2.261   2.164   2.622
 4540SOL     OW14518   3.407   2.814   5.060
 4540SOL    HW114519   3.378   2.721   5.082
 4540SOL    HW214520   3.344   2.852   4.992
 4541SOL     OW14521   6.391   1.497   1.625
 4541SOL    HW114522   6.405   1.402   1.655
 4541SOL    HW214523   6.296   1.508   1.594
 4542SOL     OW14524   5.113   0.031   3.433
 4542SOL    HW114525   5.015   0.046   3.418
 4542SOL    HW214526   5.154   0.115   3.469
 4543SOL     OW14527   5.437   2.094   1.702
 4543SOL    HW114528   5.486   2.180   1.690
 4543SOL    HW214529   5.442   2.041   1.618
 4544SOL     OW14530   4.103   4.872   6.851
 4544SOL    HW114531   4.071   4.869   6.756
 4544SOL    HW214532   4.147   4.960   6.868
 4545SOL     OW14533   4.517   3.660   5.959
 4545SOL    HW114534   4.596   3.616   5.916
 4545SOL    HW214535   4.470   3.716   5.891
 4546SOL     OW14536   0.258   6.445   7.011
 4546SOL    HW114537   0.169   6.484   0.015
 4546SOL    HW214538   0.301   6.403   0.067
 4547SOL     OW14539   4.115   1.518   1.674
 4547SOL    HW114540   4.096   1.607   1.633
 4547SOL    HW214541   4.136   1.452   1.602
 4548SOL     OW14542   1.667   3.291   3.799
 4548SOL    HW114543   1.649   3.390   3.797
 4548SOL    HW214544   1.696   3.265   3.892
 4549SOL     OW14545   4.292   1.705   2.405
 4549SOL    HW114546   4.361   1.665   2.346
 4549SOL    HW214547   4.264   1.794   2.367
 4550SOL     OW14548   1.403   6.321   4.681
 4550SOL    HW114549   1.457   6.339   4.763
 4550SOL    HW214550   1.408   6.224   4.658
 4551SOL     OW14551   0.269   2.873   6.820
 4551SOL    HW114552   0.364   2.896   6.801
 4551SOL    HW214553   0.222   2.954   6.856
 4552SOL     OW14554   6.504   2.943   3.799
 4552SOL    HW114555   6.598   2.963   3.827
 4552SOL    HW214556   6.482   2.848   3.820
 4553SOL     OW14557   5.029   4.744   0.163
 4553SOL    HW114558   5.001   4.818   0.224
 4553SOL    HW214559   5.124   4.720   0.180
 4554SOL     OW14560   5.758   0.271   3.370
 4554SOL    HW114561   5.796   0.186   3.335
 4554SOL    HW214562   5.730   0.329   3.294
 4555SOL     OW14563   4.336   2.124   6.841
 4555SOL    HW114564   4.383   2.209   6.863
 4555SOL    HW214565   4.395   2.047   6.863
 4556SOL     OW14566   5.126   1.085   4.955
 4556SOL    HW114567   5.137   1.126   4.864
 4556SOL    HW214568   5.147   1.154   5.025
 4557SOL     OW14569   4.918   0.368   5.450
 4557SOL    HW114570   4.966   0.417   5.523
 4557SOL    HW214571   4.907   0.272   5.477
 4558SOL     OW14572   5.783   3.471   6.011
 4558SOL    HW114573   5.842   3.436   6.083
 4558SOL    HW214574   5.828   3.549   5.966
 4559SOL     OW14575   0.433   6.364   1.742
 4559SOL    HW114576   0.411   6.461   1.731
 4559SOL    HW214577   0.392   6.312   1.667
 4560SOL     OW14578   5.141   2.507   2.884
 4560SOL    HW114579   5.086   2.498   2.801
 4560SOL    HW214580   5.091   2.468   2.962
 4561SOL     OW14581   2.710   0.513   6.786
 4561SOL    HW114582   2.685   0.557   6.700
 4561SOL    HW214583   2.767   0.433   6.767
 4562SOL     OW14584   2.970   4.793   5.492
 4562SOL    HW114585   2.919   4.723   5.541
 4562SOL    HW214586   2.972   4.771   5.395
 4563SOL     OW14587   5.520   2.476   6.314
 4563SOL    HW114588   5.611   2.484   6.274
 4563SOL    HW214589   5.453   2.455   6.243
 4564SOL     OW14590   1.174   5.503   6.854
 4564SOL    HW114591   1.154   5.581   6.794
 4564SOL    HW214592   1.171   5.419   6.801
 4565SOL     OW14593   2.829   0.454   3.646
 4565SOL    HW114594   2.752   0.493   3.697
 4565SOL    HW214595   2.873   0.526   3.593
 4566SOL     OW14596   0.874   1.448   0.430
 4566SOL    HW114597   0.959   1.413   0.470
 4566SOL    HW214598   0.800   1.441   0.497
 4567SOL     OW14599   6.424   0.989   1.052
 4567SOL    HW114600   6.480   0.996   0.970
 4567SOL    HW214601   6.464   1.044   1.126
 4568SOL     OW14602   3.529   4.987   4.559
 4568SOL    HW114603   3.489   4.935   4.634
 4568SOL    HW214604   3.518   4.935   4.474
 4569SOL     OW14605   0.120   2.397   3.222
 4569SOL    HW114606   0.143   2.384   3.319
 4569SOL    HW214607   0.105   2.495   3.205
 4570SOL     OW14608   6.309   5.244   4.021
 4570SOL    HW114609   6.245   5.199   3.960
 4570SOL    HW214610   6.273   5.335   4.046
 4571SOL     OW14611   3.819   3.017   3.937
 4571SOL    HW114612   3.798   3.106   3.979
 4571SOL    HW214613   3.830   3.029   3.838
 4572SOL     OW14614   2.230   5.475   2.177
 4572SOL    HW114615   2.239   5.574   2.164
 4572SOL    HW214616   2.180   5.435   2.100
 4573SOL     OW14617   5.080   6.730   0.476
 4573SOL    HW114618   5.045   6.812   0.521
 4573SOL    HW214619   5.118   6.668   0.545
 4574SOL     OW14620   0.346   4.649   1.586
 4574SOL    HW114621   0.347   4.589   1.666
 4574SOL    HW214622   0.285   4.726   1.603
 4575SOL     OW14623   6.534   6.521   2.350
 4575SOL    HW114624   6.579   6.607   2.377
 4575SOL    HW214625   6.604   6.450   2.339
 4576SOL     OW14626   2.978   6.186   4.355
 4576SOL    HW114627   2.956   6.089   4.368
 4576SOL    HW214628   2.921   6.223   4.281
 4577SOL     OW14629   1.599   2.212   3.931
 4577SOL    HW114630   1.564   2.227   3.839
 4577SOL    HW214631   1.677   2.273   3.947
 4578SOL     OW14632   6.811   5.391   3.992
 4578SOL    HW114633   6.723   5.365   4.033
 4578SOL    HW214634   6.860   5.452   4.055
 4579SOL     OW14635   4.935   1.954   4.406
 4579SOL    HW114636   4.875   2.009   4.464
 4579SOL    HW214637   5.008   2.011   4.370
 4580SOL     OW14638   7.002   5.768   0.409
 4580SOL    HW114639   0.017   5.853   0.372
 4580SOL    HW214640   6.904   5.778   0.423
 4581SOL     OW14641   3.294   6.315   3.752
 4581SOL    HW114642   3.207   6.358   3.727
 4581SOL    HW214643   3.306   6.230   3.701
 4582SOL     OW14644   4.837   0.118   3.530
 4582SOL    HW114645   4.868   0.133   3.624
 4582SOL    HW214646   4.738   0.103   3.530
 4583SOL     OW14647   4.057   1.247   5.791
 4583SOL    HW114648   3.980   1.198   5.751
 4583SOL    HW214649   4.123   1.182   5.828
 4584SOL     OW14650   1.356   5.164   5.877
 4584SOL    HW114651   1.437   5.215   5.847
 4584SOL    HW214652   1.329   5.195   5.968
 4585SOL     OW14653   3.204   6.417   2.701
 4585SOL    HW114654   3.167   6.331   2.737
 4585SOL    HW214655   3.298   6.429   2.733
 4586SOL     OW14656   2.593   6.821   2.021
 4586SOL    HW114657   2.507   6.801   2.068
 4586SOL    HW214658   2.670   6.784   2.073
 4587SOL     OW14659   2.886   5.165   0.995
 4587SOL    HW114660   2.793   5.169   1.031
 4587SOL    HW214661   2.896   5.083   0.938
 4588SOL     OW14662   3.812   3.698   5.330
 4588SOL    HW114663   3.853   3.628   5.389
 4588SOL    HW214664   3.873   3.718   5.254
 4589SOL     OW14665   1.169   1.972   3.503
 4589SOL    HW114666   1.092   1.930   3.550
 4589SOL    HW214667   1.254   1.941   3.545
 4590SOL     OW14668   4.582   6.043   2.948
 4590SOL    HW114669   4.635   6.078   3.025
 4590SOL    HW214670   4.509   5.984   2.983
 4591SOL     OW14671   5.929   6.475   5.524
 4591SOL    HW114672   5.915   6.537   5.446
 4591SOL    HW214673   5.848   6.477   5.583
 4592SOL     OW14674   3.304   1.283   5.797
 4592SOL    HW114675   3.271   1.363   5.746
 4592SOL    HW214676   3.272   1.289   5.892
 4593SOL     OW14677   4.001   6.474   1.560
 4593SOL    HW114678   4.040   6.397   1.608
 4593SOL    HW214679   3.901   6.474   1.571
 4594SOL     OW14680   3.155   2.161   2.789
 4594SOL    HW114681   3.179   2.084   2.730
 4594SOL    HW214682   3.073   2.206   2.754
 4595SOL     OW14683   4.786   3.357   5.966
 4595SOL    HW114684   4.736   3.415   5.902
 4595SOL    HW214685   4.787   3.400   6.056
 4596SOL     OW14686   5.930   6.616   2.042
 4596SOL    HW114687   5.909   6.556   2.119
 4596SOL    HW214688   5.971   6.701   2.076
 4597SOL     OW14689   6.376   4.895   5.870
 4597SOL    HW114690   6.460   4.844   5.883
 4597SOL    HW214691   6.304   4.834   5.836
 4598SOL     OW14692   3.303   4.478   0.511
 4598SOL    HW114693   3.231   4.541   0.542
 4598SOL    HW214694   3.329   4.418   0.586
 4599SOL     OW14695   2.357   5.106   0.656
 4599SOL    HW114696   2.316   5.167   0.588
 4599SOL    HW214697   2.421   5.044   0.610
 4600SOL     OW14698   3.678   5.023   1.565
 4600SOL    HW114699   3.637   5.111   1.542
 4600SOL    HW214700   3.607   4.953   1.568
 4601SOL     OW14701   1.752   5.820   4.495
 4601SOL    HW114702   1.689   5.878   4.443
 4601SOL    HW214703   1.715   5.727   4.501
 4602SOL     OW14704   1.637   1.104   1.407
 4602SOL    HW114705   1.703   1.057   1.349
 4602SOL    HW214706   1.577   1.161   1.351
 4603SOL     OW14707   3.257   1.569   1.899
 4603SOL    HW114708   3.257   1.660   1.941
 4603SOL    HW214709   3.321   1.568   1.822
 4604SOL     OW14710   1.371   0.970   2.159
 4604SOL    HW114711   1.364   0.912   2.239
 4604SOL    HW214712   1.423   0.923   2.087
 4605SOL     OW14713   4.725   6.526   5.956
 4605SOL    HW114714   4.805   6.467   5.945
 4605SOL    HW214715   4.676   6.532   5.869
 4606SOL     OW14716   6.698   6.240   5.374
 4606SOL    HW114717   6.711   6.324   5.427
 4606SOL    HW214718   6.644   6.260   5.292
 4607SOL     OW14719   2.862   2.377   0.905
 4607SOL    HW114720   2.785   2.440   0.900
 4607SOL    HW214721   2.940   2.415   0.855
 4608SOL     OW14722   1.747   3.598   5.135
 4608SOL    HW114723   1.691   3.558   5.063
 4608SOL    HW214724   1.693   3.608   5.219
 4609SOL     OW14725   3.316   6.757   0.010
 4609SOL    HW114726   3.405   6.800   7.017
 4609SOL    HW214727   3.309   6.672   6.980
 4610SOL     OW14728   6.860   3.194   0.076
 4610SOL    HW114729   6.783   3.258   0.067
 4610SOL    HW214730   6.931   3.218   0.009
 4611SOL     OW14731   0.665   3.624   6.445
 4611SOL    HW114732   0.651   3.527   6.421
 4611SOL    HW214733   0.740   3.631   6.510
 4612SOL     OW14734   2.508   0.459   6.336
 4612SOL    HW114735   2.411   0.479   6.350
 4612SOL    HW214736   2.517   0.391   6.264
 4613SOL     OW14737   3.473   5.360   1.892
 4613SOL    HW114738   3.464   5.459   1.875
 4613SOL    HW214739   3.382   5.319   1.895
 4614SOL     OW14740   2.458   5.055   0.263
 4614SOL    HW114741   2.450   4.990   0.339
 4614SOL    HW214742   2.428   5.011   0.179
 4615SOL     OW14743   0.026   2.922   0.252
 4615SOL    HW114744   0.049   2.902   0.157
 4615SOL    HW214745   6.960   2.882   0.275
 4616SOL     OW14746   6.235   0.361   0.412
 4616SOL    HW114747   6.296   0.316   0.346
 4616SOL    HW214748   6.245   0.317   0.501
 4617SOL     OW14749   6.961   3.892   1.926
 4617SOL    HW114750   6.957   3.842   1.840
 4617SOL    HW214751   6.986   3.829   2.000
 4618SOL     OW14752   1.095   2.291   6.464
 4618SOL    HW114753   1.188   2.256   6.451
 4618SOL    HW214754   1.033   2.214   6.480
 4619SOL     OW14755   2.964   6.995   3.612
 4619SOL    HW114756   3.023   0.050   3.591
 4619SOL    HW214757   2.968   6.976   3.711
 4620SOL     OW14758   2.753   5.063   6.702
 4620SOL    HW114759   2.669   5.041   6.652
 4620SOL    HW214760   2.794   5.146   6.665
 4621SOL     OW14761   0.192   6.605   6.791
 4621SOL    HW114762   0.254   6.567   6.860
 4621SOL    HW214763   0.103   6.558   6.797
 4622SOL     OW14764   2.442   3.204   1.430
 4622SOL    HW114765   2.466   3.301   1.433
 4622SOL    HW214766   2.352   3.194   1.386
 4623SOL     OW14767   5.942   4.664   2.305
 4623SOL    HW114768   5.886   4.656   2.222
 4623SOL    HW214769   6.004   4.743   2.295
 4624SOL     OW14770   4.932   0.091   5.583
 4624SOL    HW114771   4.966   0.152   5.655
 4624SOL    HW214772   5.003   0.078   5.514
 4625SOL     OW14773   1.946   3.577   6.161
 4625SOL    HW114774   1.953   3.668   6.119
 4625SOL    HW214775   1.856   3.567   6.203
 4626SOL     OW14776   5.801   5.706   2.288
 4626SOL    HW114777   5.859   5.626   2.277
 4626SOL    HW214778   5.843   5.768   2.354
 4627SOL     OW14779   2.001   7.007   5.992
 4627SOL    HW114780   2.098   0.001   5.979
 4627SOL    HW214781   1.965   0.046   6.062
 4628SOL     OW14782   0.207   3.313   1.884
 4628SOL    HW114783   0.252   3.394   1.921
 4628SOL    HW214784   0.118   3.339   1.847
 4629SOL     OW14785   3.875   4.852   4.253
 4629SOL    HW114786   3.783   4.819   4.273
 4629SOL    HW214787   3.898   4.831   4.157
 4630SOL     OW14788   1.952   6.703   2.631
 4630SOL    HW114789   1.929   6.664   2.720
 4630SOL    HW214790   2.033   6.760   2.640
 4631SOL     OW14791   1.503   0.901   2.693
 4631SOL    HW114792   1.448   0.851   2.760
 4631SOL    HW214793   1.477   0.873   2.600
 4632SOL     OW14794   5.912   5.403   4.214
 4632SOL    HW114795   5.908   5.446   4.305
 4632SOL    HW214796   6.007   5.394   4.186
 4633SOL     OW14797   5.634   2.565   5.678
 4633SOL    HW114798   5.586   2.483   5.645
 4633SOL    HW214799   5.632   2.566   5.778
 4634SOL     OW14800   3.726   5.077   0.938
 4634SOL    HW114801   3.750   5.033   0.852
 4634SOL    HW214802   3.719   5.008   1.010
 4635SOL     OW14803   5.192   3.758   1.192
 4635SOL    HW114804   5.112   3.769   1.133
 4635SOL    HW214805   5.169   3.784   1.286
 4636SOL     OW14806   1.124   5.236   1.206
 4636SOL    HW114807   1.112   5.335   1.197
 4636SOL    HW214808   1.068   5.190   1.137
 4637SOL     OW14809   1.748   0.507   4.738
 4637SOL    HW114810   1.823   0.559   4.779
 4637SOL    HW214811   1.668   0.512   4.798
 4638SOL     OW14812   4.530   4.076   6.270
 4638SOL    HW114813   4.515   3.977   6.267
 4638SOL    HW214814   4.593   4.102   6.196
 4639SOL     OW14815   0.228   2.697   5.080
 4639SOL    HW114816   0.308   2.668   5.027
 4639SOL    HW214817   0.249   2.689   5.177
 4640SOL     OW14818   6.467   4.408   2.797
 4640SOL    HW114819   6.491   4.482   2.734
 4640SOL    HW214820   6.529   4.409   2.876
 4641SOL     OW14821   2.880   4.244   5.904
 4641SOL    HW114822   2.902   4.274   5.811
 4641SOL    HW214823   2.804   4.179   5.902
 4642SOL     OW14824   6.331   6.143   3.986
 4642SOL    HW114825   6.401   6.186   3.929
 4642SOL    HW214826   6.278   6.214   4.033
 4643SOL     OW14827   4.287   2.766   0.725
 4643SOL    HW114828   4.211   2.718   0.681
 4643SOL    HW214829   4.261   2.862   0.739
 4644SOL     OW14830   2.649   4.801   5.338
 4644SOL    HW114831   2.671   4.716   5.386
 4644SOL    HW214832   2.689   4.878   5.388
 4645SOL     OW14833   2.165   6.043   4.570
 4645SOL    HW114834   2.105   5.963   4.568
 4645SOL    HW214835   2.115   6.124   4.539
 4646SOL     OW14836   3.877   0.972   1.868
 4646SOL    HW114837   3.965   0.929   1.887
 4646SOL    HW214838   3.827   0.919   1.800
 4647SOL     OW14839   0.214   1.026   4.722
 4647SOL    HW114840   0.221   1.055   4.817
 4647SOL    HW214841   0.210   0.926   4.718
 4648SOL     OW14842   1.478   4.649   2.303
 4648SOL    HW114843   1.525   4.673   2.218
 4648SOL    HW214844   1.535   4.673   2.381
 4649SOL     OW14845   5.523   6.556   6.291
 4649SOL    HW114846   5.556   6.490   6.359
 4649SOL    HW214847   5.424   6.570   6.305
 4650SOL     OW14848   0.000   4.806   1.877
 4650SOL    HW114849   0.018   4.744   1.953
 4650SOL    HW214850   6.956   4.765   1.816
 4651SOL     OW14851   6.526   1.751   2.191
 4651SOL    HW114852   6.488   1.738   2.283
 4651SOL    HW214853   6.462   1.806   2.136
 4652SOL     OW14854   0.281   5.956   5.778
 4652SOL    HW114855   0.254   5.877   5.833
 4652SOL    HW214856   0.210   6.026   5.782
 4653SOL     OW14857   0.882   5.636   6.909
 4653SOL    HW114858   0.970   5.664   6.871
 4653SOL    HW214859   0.846   5.559   6.856
 4654SOL     OW14860   0.859   1.717   6.265
 4654SOL    HW114861   0.877   1.767   6.180
 4654SOL    HW214862   0.761   1.714   6.282
 4655SOL     OW14863   0.314   5.443   3.468
 4655SOL    HW114864   0.413   5.440   3.458
 4655SOL    HW214865   0.290   5.446   3.565
 4656SOL     OW14866   2.187   0.017   3.067
 4656SOL    HW114867   2.235   7.022   2.981
 4656SOL    HW214868   2.227   0.098   3.111
 4657SOL     OW14869   5.599   0.173   6.673
 4657SOL    HW114870   5.586   0.156   6.576
 4657SOL    HW214871   5.614   0.086   6.720
 4658SOL     OW14872   5.033   0.828   3.717
 4658SOL    HW114873   5.028   0.862   3.811
 4658SOL    HW214874   5.125   0.792   3.699
 4659SOL     OW14875   2.481   2.592   4.713
 4659SOL    HW114876   2.508   2.509   4.663
 4659SOL    HW214877   2.487   2.575   4.811
 4660SOL     OW14878   6.958   1.489   5.946
 4660SOL    HW114879   0.006   1.503   5.877
 4660SOL    HW214880   6.930   1.578   5.983
 4661SOL     OW14881   4.080   3.762   3.193
 4661SOL    HW114882   4.166   3.814   3.192
 4661SOL    HW214883   4.100   3.664   3.188
 4662SOL     OW14884   5.659   0.697   3.689
 4662SOL    HW114885   5.591   0.770   3.692
 4662SOL    HW214886   5.735   0.720   3.751
 4663SOL     OW14887   1.192   1.347   1.829
 4663SOL    HW114888   1.124   1.405   1.872
 4663SOL    HW214889   1.252   1.403   1.771
 4664SOL     OW14890   3.158   3.230   0.436
 4664SOL    HW114891   3.255   3.220   0.456
 4664SOL    HW214892   3.105   3.201   0.515
 4665SOL     OW14893   5.288   0.846   6.621
 4665SOL    HW114894   5.286   0.794   6.707
 4665SOL    HW214895   5.253   0.938   6.638
 4666SOL     OW14896   2.514   1.427   0.594
 4666SOL    HW114897   2.428   1.399   0.636
 4666SOL    HW214898   2.530   1.372   0.512
 4667SOL     OW14899   0.491   5.860   5.125
 4667SOL    HW114900   0.427   5.785   5.140
 4667SOL    HW214901   0.442   5.938   5.086
 4668SOL     OW14902   5.442   1.503   4.863
 4668SOL    HW114903   5.483   1.432   4.921
 4668SOL    HW214904   5.391   1.460   4.789
 4669SOL     OW14905   2.479   0.500   1.079
 4669SOL    HW114906   2.494   0.445   1.161
 4669SOL    HW214907   2.461   0.440   1.001
 4670SOL     OW14908   1.625   1.209   4.942
 4670SOL    HW114909   1.724   1.197   4.930
 4670SOL    HW214910   1.585   1.239   4.855
 4671SOL     OW14911   5.960   2.828   1.055
 4671SOL    HW114912   5.916   2.739   1.066
 4671SOL    HW214913   5.922   2.893   1.120
 4672SOL     OW14914   2.963   2.983   5.323
 4672SOL    HW114915   2.988   2.888   5.342
 4672SOL    HW214916   2.863   2.991   5.325
 4673SOL     OW14917   4.266   0.263   2.802
 4673SOL    HW114918   4.236   0.348   2.760
 4673SOL    HW214919   4.189   0.220   2.849
 4674SOL     OW14920   4.383   6.616   5.480
 4674SOL    HW114921   4.386   6.636   5.578
 4674SOL    HW214922   4.395   6.701   5.428
 4675SOL     OW14923   1.138   4.352   6.072
 4675SOL    HW114924   1.126   4.387   6.165
 4675SOL    HW214925   1.053   4.308   6.042
 4676SOL     OW14926   0.339   5.047   3.987
 4676SOL    HW114927   0.351   5.127   3.928
 4676SOL    HW214928   0.248   5.050   4.029
 4677SOL     OW14929   1.501   3.439   0.509
 4677SOL    HW114930   1.452   3.479   0.586
 4677SOL    HW214931   1.446   3.448   0.426
 4678SOL     OW14932   1.382   4.236   2.078
 4678SOL    HW114933   1.296   4.259   2.124
 4678SOL    HW214934   1.398   4.138   2.085
 4679SOL     OW14935   4.142   0.042   1.614
 4679SOL    HW114936   4.142   6.989   1.549
 4679SOL    HW214937   4.083   0.115   1.580
 4680SOL     OW14938   1.898   0.756   6.823
 4680SOL    HW114939   1.950   0.825   6.773
 4680SOL    HW214940   1.931   0.665   6.799
 4681SOL     OW14941   4.884   5.239   2.310
 4681SOL    HW114942   4.793   5.256   2.271
 4681SOL    HW214943   4.876   5.227   2.409
 4682SOL     OW14944   3.452   4.054   6.498
 4682SOL    HW114945   3.418   4.095   6.414
 4682SOL    HW214946   3.420   3.960   6.505
 4683SOL     OW14947   6.010   4.411   3.727
 4683SOL    HW114948   6.007   4.494   3.671
 4683SOL    HW214949   5.965   4.336   3.679
 4684SOL     OW14950   5.392   6.103   0.118
 4684SOL    HW114951   5.356   6.190   0.083
 4684SOL    HW214952   5.491   6.113   0.133
 4685SOL     OW14953   3.389   4.169   4.074
 4685SOL    HW114954   3.372   4.266   4.053
 4685SOL    HW214955   3.450   4.162   4.152
 4686SOL     OW14956   1.961   6.214   0.235
 4686SOL    HW114957   1.918   6.287   0.183
 4686SOL    HW214958   1.892   6.148   0.263
 4687SOL     OW14959   2.436   0.472   2.639
 4687SOL    HW114960   2.459   0.549   2.699
 4687SOL    HW214961   2.510   0.457   2.573
 4688SOL     OW14962   5.723   2.967   6.272
 4688SOL    HW114963   5.731   2.919   6.359
 4688SOL    HW214964   5.692   3.060   6.287
 4689SOL     OW14965   6.582   0.738   2.210
 4689SOL    HW114966   6.619   0.645   2.218
 4689SOL    HW214967   6.587   0.768   2.115
 4690SOL     OW14968   2.515   2.015   0.870
 4690SOL    HW114969   2.547   1.921   0.874
 4690SOL    HW214970   2.580   2.071   0.818
 4691SOL     OW14971   6.593   3.938   2.250
 4691SOL    HW114972   6.693   3.940   2.259
 4691SOL    HW214973   6.555   4.026   2.279
 4692SOL     OW14974   4.936   2.872   2.355
 4692SOL    HW114975   4.949   2.783   2.312
 4692SOL    HW214976   4.982   2.942   2.300
 4693SOL     OW14977   1.173   0.815   3.176
 4693SOL    HW114978   1.132   0.884   3.117
 4693SOL    HW214979   1.265   0.793   3.143
 4694SOL     OW14980   1.953   0.420   6.305
 4694SOL    HW114981   1.948   0.519   6.293
 4694SOL    HW214982   2.049   0.391   6.300
 4695SOL     OW14983   1.899   5.087   2.381
 4695SOL    HW114984   1.943   4.997   2.384
 4695SOL    HW214985   1.969   5.158   2.375
 4696SOL     OW14986   1.569   5.959   6.200
 4696SOL    HW114987   1.500   5.987   6.133
 4696SOL    HW214988   1.579   6.030   6.270
 4697SOL     OW14989   4.239   5.560   1.777
 4697SOL    HW114990   4.295   5.626   1.728
 4697SOL    HW214991   4.180   5.511   1.712
 4698SOL     OW14992   5.193   1.169   4.705
 4698SOL    HW114993   5.165   1.096   4.644
 4698SOL    HW214994   5.263   1.225   4.660
 4699SOL     OW14995   1.558   0.100   2.387
 4699SOL    HW114996   1.645   0.060   2.359
 4699SOL    HW214997   1.533   0.068   2.479
 4700SOL     OW14998   6.273   1.990   2.312
 4700SOL    HW114999   6.311   1.944   2.232
 4700SOL    HW215000   6.181   1.955   2.331
 4701SOL     OW15001   3.188   2.532   1.715
 4701SOL    HW115002   3.272   2.530   1.770
 4701SOL    HW215003   3.110   2.514   1.775
 4702SOL     OW15004   5.654   5.055   6.545
 4702SOL    HW115005   5.693   5.136   6.501
 4702SOL    HW215006   5.633   4.986   6.475
 4703SOL     OW15007   0.807   5.532   3.494
 4703SOL    HW115008   0.725   5.487   3.458
 4703SOL    HW215009   0.831   5.610   3.436
 4704SOL     OW15010   1.307   4.968   4.196
 4704SOL    HW115011   1.341   4.874   4.189
 4704SOL    HW215012   1.341   5.021   4.119
 4705SOL     OW15013   3.824   1.792   1.667
 4705SOL    HW115014   3.806   1.700   1.701
 4705SOL    HW215015   3.743   1.827   1.620
 4706SOL     OW15016   2.497   0.396   1.332
 4706SOL    HW115017   2.511   0.297   1.319
 4706SOL    HW215018   2.457   0.412   1.423
 4707SOL     OW15019   1.505   5.446   2.366
 4707SOL    HW115020   1.419   5.394   2.363
 4707SOL    HW215021   1.581   5.384   2.349
 4708SOL     OW15022   1.921   2.897   5.398
 4708SOL    HW115023   1.979   2.974   5.423
 4708SOL    HW215024   1.927   2.880   5.299
 4709SOL     OW15025   4.778   4.363   5.882
 4709SOL    HW115026   4.872   4.395   5.894
 4709SOL    HW215027   4.773   4.307   5.800
 4710SOL     OW15028   5.952   5.973   5.128
 4710SOL    HW115029   5.866   5.925   5.107
 4710SOL    HW215030   6.028   5.909   5.121
 4711SOL     OW15031   5.264   4.288   2.690
 4711SOL    HW115032   5.195   4.264   2.759
 4711SOL    HW215033   5.276   4.211   2.627
 4712SOL     OW15034   4.445   4.274   5.944
 4712SOL    HW115035   4.525   4.285   6.003
 4712SOL    HW215036   4.410   4.181   5.952
 4713SOL     OW15037   5.611   4.281   0.658
 4713SOL    HW115038   5.674   4.235   0.595
 4713SOL    HW215039   5.555   4.346   0.607
 4714SOL     OW15040   4.048   1.752   6.628
 4714SOL    HW115041   4.082   1.693   6.555
 4714SOL    HW215042   3.956   1.784   6.605
 4715SOL     OW15043   6.839   1.619   1.828
 4715SOL    HW115044   6.769   1.602   1.759
 4715SOL    HW215045   6.797   1.614   1.919
 4716SOL     OW15046   4.147   4.776   5.453
 4716SOL    HW115047   4.086   4.854   5.438
 4716SOL    HW215048   4.204   4.762   5.372
 4717SOL     OW15049   2.511   4.477   5.652
 4717SOL    HW115050   2.582   4.436   5.594
 4717SOL    HW215051   2.452   4.406   5.688
 4718SOL     OW15052   4.603   4.676   0.675
 4718SOL    HW115053   4.507   4.673   0.704
 4718SOL    HW215054   4.642   4.765   0.701
 4719SOL     OW15055   6.927   4.257   3.691
 4719SOL    HW115056   6.921   4.298   3.782
 4719SOL    HW215057   6.904   4.325   3.622
 4720SOL     OW15058   2.422   3.114   6.824
 4720SOL    HW115059   2.406   3.035   6.883
 4720SOL    HW215060   2.520   3.133   6.820
 4721SOL     OW15061   0.275   2.814   2.601
 4721SOL    HW115062   0.264   2.881   2.675
 4721SOL    HW215063   0.363   2.767   2.612
 4722SOL     OW15064   1.052   6.136   0.121
 4722SOL    HW115065   1.070   6.069   0.048
 4722SOL    HW215066   0.986   6.098   0.185
 4723SOL     OW15067   3.490   4.533   6.501
 4723SOL    HW115068   3.573   4.580   6.528
 4723SOL    HW215069   3.512   4.438   6.476
 4724SOL     OW15070   0.834   0.331   4.915
 4724SOL    HW115071   0.896   0.257   4.891
 4724SOL    HW215072   0.744   0.313   4.874
 4725SOL     OW15073   5.327   5.736   1.586
 4725SOL    HW115074   5.304   5.660   1.525
 4725SOL    HW215075   5.246   5.761   1.640
 4726SOL     OW15076   1.824   2.828   5.661
 4726SOL    HW115077   1.829   2.844   5.562
 4726SOL    HW215078   1.746   2.876   5.699
 4727SOL     OW15079   6.606   4.482   1.344
 4727SOL    HW115080   6.561   4.470   1.432
 4727SOL    HW215081   6.699   4.445   1.348
 4728SOL     OW15082   5.952   1.712   4.330
 4728SOL    HW115083   5.993   1.803   4.334
 4728SOL    HW215084   5.950   1.680   4.235
 4729SOL     OW15085   6.218   1.580   2.088
 4729SOL    HW115086   6.156   1.550   2.016
 4729SOL    HW215087   6.208   1.521   2.168
 4730SOL     OW15088   3.105   0.050   4.288
 4730SOL    HW115089   3.054   0.136   4.283
 4730SOL    HW215090   3.183   0.055   4.225
 4731SOL     OW15091   3.167   6.284   0.884
 4731SOL    HW115092   3.127   6.327   0.965
 4731SOL    HW215093   3.129   6.192   0.873
 4732SOL     OW15094   0.579   5.275   4.864
 4732SOL    HW115095   0.652   5.266   4.796
 4732SOL    HW215096   0.598   5.353   4.923
 4733SOL     OW15097   2.144   3.950   2.405
 4733SOL    HW115098   2.079   3.897   2.350
 4733SOL    HW215099   2.198   4.009   2.346
 4734SOL     OW15100   4.807   4.046   6.747
 4734SOL    HW115101   4.903   4.039   6.719
 4734SOL    HW215102   4.800   4.029   6.845
 4735SOL     OW15103   0.610   0.658   5.114
 4735SOL    HW115104   0.609   0.664   5.015
 4735SOL    HW215105   0.632   0.564   5.142
 4736SOL     OW15106   6.669   1.983   3.344
 4736SOL    HW115107   6.600   1.933   3.292
 4736SOL    HW215108   6.736   1.918   3.381
 4737SOL     OW15109   2.464   4.851   6.830
 4737SOL    HW115110   2.516   4.921   6.879
 4737SOL    HW215111   2.371   4.884   6.812
 4738SOL     OW15112   1.250   5.557   3.747
 4738SOL    HW115113   1.262   5.484   3.815
 4738SOL    HW215114   1.204   5.520   3.667
 4739SOL     OW15115   5.699   3.397   2.912
 4739SOL    HW115116   5.607   3.404   2.950
 4739SOL    HW215117   5.706   3.314   2.857
 4740SOL     OW15118   1.013   0.356   0.875
 4740SOL    HW115119   1.047   0.414   0.949
 4740SOL    HW215120   1.087   0.298   0.840
 4741SOL     OW15121   5.116   4.666   1.194
 4741SOL    HW115122   5.082   4.604   1.264
 4741SOL    HW215123   5.129   4.757   1.233
 4742SOL     OW15124   1.945   5.556   2.455
 4742SOL    HW115125   1.901   5.585   2.540
 4742SOL    HW215126   1.903   5.471   2.423
 4743SOL     OW15127   2.693   3.414   0.269
 4743SOL    HW115128   2.637   3.489   0.234
 4743SOL    HW215129   2.637   3.356   0.329
 4744SOL     OW15130   2.144   2.005   5.060
 4744SOL    HW115131   2.204   1.988   4.983
 4744SOL    HW215132   2.198   2.035   5.139
 4745SOL     OW15133   3.628   5.204   4.861
 4745SOL    HW115134   3.620   5.105   4.865
 4745SOL    HW215135   3.563   5.240   4.794
 4746SOL     OW15136   6.103   0.831   1.637
 4746SOL    HW115137   6.094   0.825   1.736
 4746SOL    HW215138   6.058   0.752   1.595
 4747SOL     OW15139   0.029   2.727   1.641
 4747SOL    HW115140   0.079   2.641   1.638
 4747SOL    HW215141   6.957   2.711   1.669
 4748SOL     OW15142   1.994   0.727   1.112
 4748SOL    HW115143   1.964   0.737   1.017
 4748SOL    HW215144   2.045   0.808   1.140
 4749SOL     OW15145   2.873   0.136   6.278
 4749SOL    HW115146   2.966   0.160   6.306
 4749SOL    HW215147   2.853   0.042   6.304
 4750SOL     OW15148   0.749   2.028   4.475
 4750SOL    HW115149   0.676   2.051   4.412
 4750SOL    HW215150   0.809   1.960   4.433
 4751SOL     OW15151   1.027   3.615   5.635
 4751SOL    HW115152   1.011   3.517   5.649
 4751SOL    HW215153   0.944   3.666   5.657
 4752SOL     OW15154   1.908   6.049   2.088
 4752SOL    HW115155   1.893   6.015   1.995
 4752SOL    HW215156   1.912   5.972   2.151
 4753SOL     OW15157   0.380   6.874   5.334
 4753SOL    HW115158   0.360   6.869   5.432
 4753SOL    HW215159   0.319   6.812   5.284
 4754SOL     OW15160   0.392   0.346   6.928
 4754SOL    HW115161   0.390   0.309   6.835
 4754SOL    HW215162   0.349   0.437   6.929
 4755SOL     OW15163   2.739   0.663   1.032
 4755SOL    HW115164   2.756   0.701   1.123
 4755SOL    HW215165   2.655   0.610   1.034
 4756SOL     OW15166   4.637   2.941   1.250
 4756SOL    HW115167   4.659   2.868   1.185
 4756SOL    HW215168   4.565   2.910   1.312
 4757SOL     OW15169   2.511   1.386   1.504
 4757SOL    HW115170   2.433   1.440   1.538
 4757SOL    HW215171   2.485   1.289   1.501
 4758SOL     OW15172   5.455   3.935   5.597
 4758SOL    HW115173   5.433   3.859   5.536
 4758SOL    HW215174   5.391   4.009   5.582
 4759SOL     OW15175   5.962   4.250   6.143
 4759SOL    HW115176   5.897   4.292   6.080
 4759SOL    HW215177   5.916   4.179   6.197
 4760SOL     OW15178   2.007   2.515   0.881
 4760SOL    HW115179   2.014   2.615   0.884
 4760SOL    HW215180   1.957   2.483   0.961
 4761SOL     OW15181   1.594   5.706   6.048
 4761SOL    HW115182   1.576   5.799   6.078
 4761SOL    HW215183   1.634   5.708   5.956
 4762SOL     OW15184   3.915   6.919   2.245
 4762SOL    HW115185   3.839   6.861   2.215
 4762SOL    HW215186   3.941   6.894   2.338
 4763SOL     OW15187   5.641   5.457   4.603
 4763SOL    HW115188   5.551   5.417   4.617
 4763SOL    HW215189   5.710   5.404   4.652
 4764SOL     OW15190   3.974   3.701   4.653
 4764SOL    HW115191   3.946   3.605   4.653
 4764SOL    HW215192   4.048   3.715   4.588
 4765SOL     OW15193   6.744   4.789   5.399
 4765SOL    HW115194   6.816   4.855   5.377
 4765SOL    HW215195   6.761   4.751   5.490
 4766SOL     OW15196   3.053   0.429   3.334
 4766SOL    HW115197   3.065   0.435   3.235
 4766SOL    HW215198   2.976   0.487   3.362
 4767SOL     OW15199   4.054   6.550   6.757
 4767SOL    HW115200   3.969   6.529   6.805
 4767SOL    HW215201   4.131   6.543   6.821
 4768SOL     OW15202   0.799   0.903   4.818
 4768SOL    HW115203   0.880   0.846   4.833
 4768SOL    HW215204   0.829   0.994   4.788
 4769SOL     OW15205   3.712   0.821   1.688
 4769SOL    HW115206   3.708   0.808   1.589
 4769SOL    HW215207   3.629   0.784   1.730
 4770SOL     OW15208   2.445   0.441   3.545
 4770SOL    HW115209   2.419   0.451   3.642
 4770SOL    HW215210   2.406   0.517   3.492
 4771SOL     OW15211   4.022   4.062   5.284
 4771SOL    HW115212   4.113   4.074   5.323
 4771SOL    HW215213   3.973   4.149   5.286
 4772SOL     OW15214   2.135   2.878   0.231
 4772SOL    HW115215   2.086   2.942   0.173
 4772SOL    HW215216   2.215   2.923   0.271
 4773SOL     OW15217   0.186   5.357   4.026
 4773SOL    HW115218   0.147   5.325   3.940
 4773SOL    HW215219   0.117   5.407   4.078
 4774SOL     OW15220   0.948   4.415   7.004
 4774SOL    HW115221   1.020   4.346   7.002
 4774SOL    HW215222   0.867   4.381   6.957
 4775SOL     OW15223   2.498   1.565   2.297
 4775SOL    HW115224   2.552   1.648   2.305
 4775SOL    HW215225   2.412   1.585   2.251
 4776SOL     OW15226   3.854   4.815   2.199
 4776SOL    HW115227   3.818   4.887   2.142
 4776SOL    HW215228   3.799   4.732   2.189
 4777SOL     OW15229   2.879   4.226   1.587
 4777SOL    HW115230   2.875   4.299   1.519
 4777SOL    HW215231   2.952   4.244   1.653
 4778SOL     OW15232   5.193   3.661   2.815
 4778SOL    HW115233   5.271   3.638   2.757
 4778SOL    HW215234   5.110   3.664   2.759
 4779SOL     OW15235   4.695   0.788   3.051
 4779SOL    HW115236   4.744   0.722   2.993
 4779SOL    HW215237   4.707   0.762   3.147
 4780SOL     OW15238   1.827   0.329   5.619
 4780SOL    HW115239   1.775   0.397   5.671
 4780SOL    HW215240   1.773   0.298   5.541
 4781SOL     OW15241   1.929   5.803   2.868
 4781SOL    HW115242   1.920   5.711   2.904
 4781SOL    HW215243   2.018   5.841   2.894
 4782SOL     OW15244   5.844   5.897   0.256
 4782SOL    HW115245   5.862   5.879   0.352
 4782SOL    HW215246   5.928   5.927   0.211
 4783SOL     OW15247   6.452   4.048   2.553
 4783SOL    HW115248   6.388   3.989   2.503
 4783SOL    HW215249   6.401   4.112   2.610
 4784SOL     OW15250   6.062   4.238   4.968
 4784SOL    HW115251   6.026   4.216   4.877
 4784SOL    HW215252   6.155   4.273   4.958
 4785SOL     OW15253   6.272   6.972   0.847
 4785SOL    HW115254   6.228   6.957   0.936
 4785SOL    HW215255   6.353   6.914   0.840
 4786SOL     OW15256   1.834   2.849   2.503
 4786SOL    HW115257   1.926   2.810   2.494
 4786SOL    HW215258   1.769   2.776   2.522
 4787SOL     OW15259   4.349   2.355   2.417
 4787SOL    HW115260   4.328   2.450   2.440
 4787SOL    HW215261   4.271   2.297   2.441
 4788SOL     OW15262   1.281   6.029   5.538
 4788SOL    HW115263   1.273   5.974   5.455
 4788SOL    HW215264   1.211   6.000   5.604
 4789SOL     OW15265   6.152   6.684   0.739
 4789SOL    HW115266   6.206   6.759   0.701
 4789SOL    HW215267   6.109   6.633   0.664
 4790SOL     OW15268   5.387   1.118   6.900
 4790SOL    HW115269   5.373   1.217   6.901
 4790SOL    HW215270   5.428   1.091   6.813
 4791SOL     OW15271   4.447   1.346   3.297
 4791SOL    HW115272   4.536   1.343   3.251
 4791SOL    HW215273   4.423   1.441   3.316
 4792SOL     OW15274   3.100   2.237   1.725
 4792SOL    HW115275   3.170   2.300   1.693
 4792SOL    HW215276   3.042   2.281   1.793
 4793SOL     OW15277   0.652   0.346   6.514
 4793SOL    HW115278   0.646   0.413   6.440
 4793SOL    HW215279   0.671   0.255   6.476
 4794SOL     OW15280   4.130   0.853   1.917
 4794SOL    HW115281   4.209   0.850   1.977
 4794SOL    HW215282   4.106   0.760   1.890
 4795SOL     OW15283   5.708   2.544   4.346
 4795SOL    HW115284   5.738   2.619   4.287
 4795SOL    HW215285   5.762   2.462   4.326
 4796SOL     OW15286   6.177   3.956   0.985
 4796SOL    HW115287   6.100   4.009   1.022
 4796SOL    HW215288   6.142   3.875   0.939
 4797SOL     OW15289   0.299   4.708   4.960
 4797SOL    HW115290   0.338   4.790   5.004
 4797SOL    HW215291   0.209   4.730   4.922
 4798SOL     OW15292   6.618   4.370   5.400
 4798SOL    HW115293   6.633   4.456   5.352
 4798SOL    HW215294   6.565   4.308   5.342
 4799SOL     OW15295   3.771   1.391   4.921
 4799SOL    HW115296   3.767   1.397   4.821
 4799SOL    HW215297   3.724   1.470   4.961
 4800SOL     OW15298   2.218   1.745   3.788
 4800SOL    HW115299   2.149   1.752   3.860
 4800SOL    HW215300   2.189   1.800   3.709
 4801SOL     OW15301   1.173   2.776   0.541
 4801SOL    HW115302   1.165   2.823   0.629
 4801SOL    HW215303   1.249   2.816   0.489
 4802SOL     OW15304   1.967   0.490   2.086
 4802SOL    HW115305   1.929   0.470   2.177
 4802SOL    HW215306   1.892   0.515   2.024
 4803SOL     OW15307   0.836   7.010   1.089
 4803SOL    HW115308   0.828   6.922   1.136
 4803SOL    HW215309   0.904   7.003   1.016
 4804SOL     OW15310   3.641   5.602   0.184
 4804SOL    HW115311   3.727   5.567   0.220
 4804SOL    HW215312   3.633   5.576   0.087
 4805SOL     OW15313   0.627   1.169   0.940
 4805SOL    HW115314   0.619   1.069   0.938
 4805SOL    HW215315   0.708   1.195   0.991
 4806SOL     OW15316   0.478   2.904   2.988
 4806SOL    HW115317   0.426   2.924   2.905
 4806SOL    HW215318   0.556   2.846   2.965
 4807SOL     OW15319   0.703   6.299   2.360
 4807SOL    HW115320   0.632   6.328   2.296
 4807SOL    HW215321   0.779   6.258   2.310
 4808SOL     OW15322   5.665   2.983   1.406
 4808SOL    HW115323   5.758   2.992   1.371
 4808SOL    HW215324   5.649   2.888   1.433
 4809SOL     OW15325   4.095   6.282   6.185
 4809SOL    HW115326   4.055   6.373   6.201
 4809SOL    HW215327   4.183   6.276   6.231
 4810SOL     OW15328   1.315   0.222   1.293
 4810SOL    HW115329   1.335   0.318   1.274
 4810SOL    HW215330   1.305   0.208   1.391
 4811SOL     OW15331   5.629   5.695   2.884
 4811SOL    HW115332   5.602   5.657   2.795
 4811SOL    HW215333   5.633   5.795   2.877
 4812SOL     OW15334   6.885   4.859   4.271
 4812SOL    HW115335   6.849   4.782   4.218
 4812SOL    HW215336   6.836   4.942   4.245
 4813SOL     OW15337   5.532   3.001   2.921
 4813SOL    HW115338   5.476   2.928   2.880
 4813SOL    HW215339   5.584   3.046   2.849
 4814SOL     OW15340   6.483   3.277   1.781
 4814SOL    HW115341   6.481   3.309   1.876
 4814SOL    HW215342   6.392   3.288   1.740
 4815SOL     OW15343   4.066   6.680   2.949
 4815SOL    HW115344   4.113   6.628   3.020
 4815SOL    HW215345   4.013   6.753   2.991
 4816SOL     OW15346   5.298   5.166   3.195
 4816SOL    HW115347   5.271   5.258   3.222
 4816SOL    HW215348   5.354   5.125   3.268
 4817SOL     OW15349   6.971   1.707   0.125
 4817SOL    HW115350   0.044   1.734   0.139
 4817SOL    HW215351   6.919   1.722   0.209
 4818SOL     OW15352   6.826   6.113   3.264
 4818SOL    HW115353   6.743   6.064   3.292
 4818SOL    HW215354   6.895   6.048   3.232
 4819SOL     OW15355   1.881   3.513   1.249
 4819SOL    HW115356   1.880   3.432   1.307
 4819SOL    HW215357   1.886   3.595   1.306
 4820SOL     OW15358   0.717   3.146   2.371
 4820SOL    HW115359   0.796   3.191   2.413
 4820SOL    HW215360   0.711   3.172   2.275
 4821SOL     OW15361   0.065   5.759   4.026
 4821SOL    HW115362   0.092   5.773   4.121
 4821SOL    HW215363   0.118   5.820   3.967
 4822SOL     OW15364   2.063   4.737   4.252
 4822SOL    HW115365   2.051   4.789   4.336
 4822SOL    HW215366   2.160   4.730   4.230
 4823SOL     OW15367   1.509   2.814   1.214
 4823SOL    HW115368   1.460   2.877   1.274
 4823SOL    HW215369   1.591   2.781   1.260
 4824SOL     OW15370   6.542   1.779   6.758
 4824SOL    HW115371   6.552   1.694   6.706
 4824SOL    HW215372   6.547   1.760   6.856
 4825SOL     OW15373   0.792   6.769   3.967
 4825SOL    HW115374   0.766   6.858   4.003
 4825SOL    HW215375   0.750   6.697   4.021
 4826SOL     OW15376   3.841   0.371   1.038
 4826SOL    HW115377   3.939   0.357   1.021
 4826SOL    HW215378   3.793   0.382   0.952
 4827SOL     OW15379   6.791   1.622   1.026
 4827SOL    HW115380   6.734   1.547   0.993
 4827SOL    HW215381   6.884   1.611   0.991
 4828SOL     OW15382   5.688   1.681   5.329
 4828SOL    HW115383   5.590   1.669   5.342
 4828SOL    HW215384   5.713   1.776   5.348
 4829SOL     OW15385   4.408   6.423   5.090
 4829SOL    HW115386   4.476   6.491   5.118
 4829SOL    HW215387   4.316   6.457   5.110
 4830SOL     OW15388   2.000   6.643   3.619
 4830SOL    HW115389   1.906   6.623   3.591
 4830SOL    HW215390   2.050   6.557   3.632
 4831SOL     OW15391   3.120   4.486   5.346
 4831SOL    HW115392   3.074   4.540   5.276
 4831SOL    HW215393   3.124   4.390   5.317
 4832SOL     OW15394   3.912   3.515   3.985
 4832SOL    HW115395   3.838   3.500   4.051
 4832SOL    HW215396   3.955   3.604   4.003
 4833SOL     OW15397   6.560   2.937   5.022
 4833SOL    HW115398   6.626   2.983   5.081
 4833SOL    HW215399   6.490   3.002   4.993
 4834SOL     OW15400   1.145   4.922   1.610
 4834SOL    HW115401   1.224   4.868   1.637
 4834SOL    HW215402   1.146   4.936   1.511
 4835SOL     OW15403   0.054   2.986   5.971
 4835SOL    HW115404   0.121   3.059   5.977
 4835SOL    HW215405   0.092   2.902   6.010
 4836SOL     OW15406   4.388   2.270   5.780
 4836SOL    HW115407   4.316   2.293   5.715
 4836SOL    HW215408   4.473   2.317   5.754
 4837SOL     OW15409   0.968   3.666   3.925
 4837SOL    HW115410   0.986   3.647   3.829
 4837SOL    HW215411   0.989   3.586   3.980
 4838SOL     OW15412   2.136   4.146   6.063
 4838SOL    HW115413   2.146   4.236   6.105
 4838SOL    HW215414   2.068   4.150   5.990
 4839SOL     OW15415   2.471   1.088   0.741
 4839SOL    HW115416   2.381   1.101   0.784
 4839SOL    HW215417   2.468   1.010   0.679
 4840SOL     OW15418   5.259   3.154   5.109
 4840SOL    HW115419   5.351   3.129   5.080
 4840SOL    HW215420   5.196   3.078   5.093
 4841SOL     OW15421   2.520   6.341   3.154
 4841SOL    HW115422   2.482   6.398   3.081
 4841SOL    HW215423   2.573   6.399   3.217
 4842SOL     OW15424   3.617   6.041   3.349
 4842SOL    HW115425   3.580   6.131   3.373
 4842SOL    HW215426   3.545   5.985   3.308
 4843SOL     OW15427   6.913   1.470   0.031
 4843SOL    HW115428   6.830   1.470   0.087
 4843SOL    HW215429   6.970   1.549   0.057
 4844SOL     OW15430   1.241   5.410   6.132
 4844SOL    HW115431   1.225   5.447   6.041
 4844SOL    HW215432   1.245   5.485   6.199
 4845SOL     OW15433   4.932   3.784   4.975
 4845SOL    HW115434   4.867   3.815   4.906
 4845SOL    HW215435   4.897   3.702   5.020
 4846SOL     OW15436   6.126   3.386   5.014
 4846SOL    HW115437   6.099   3.291   4.999
 4846SOL    HW215438   6.109   3.411   5.110
 4847SOL     OW15439   2.374   6.812   6.430
 4847SOL    HW115440   2.296   6.869   6.404
 4847SOL    HW215441   2.421   6.781   6.347
 4848SOL     OW15442   4.387   1.281   3.830
 4848SOL    HW115443   4.458   1.351   3.822
 4848SOL    HW215444   4.392   1.218   3.753
 4849SOL     OW15445   2.330   6.438   1.178
 4849SOL    HW115446   2.273   6.462   1.099
 4849SOL    HW215447   2.273   6.399   1.250
 4850SOL     OW15448   3.469   6.582   1.378
 4850SOL    HW115449   3.493   6.658   1.437
 4850SOL    HW215450   3.477   6.496   1.429
 4851SOL     OW15451   3.648   4.877   0.094
 4851SOL    HW115452   3.632   4.809   0.022
 4851SOL    HW215453   3.725   4.935   0.069
 4852SOL     OW15454   5.039   5.051   5.982
 4852SOL    HW115455   4.971   4.979   5.996
 4852SOL    HW215456   5.114   5.015   5.926
 4853SOL     OW15457   4.794   0.300   2.299
 4853SOL    HW115458   4.728   0.346   2.359
 4853SOL    HW215459   4.763   0.207   2.281
 4854SOL     OW15460   4.060   6.780   1.982
 4854SOL    HW115461   4.002   6.778   2.064
 4854SOL    HW215462   4.139   6.839   1.998
 4855SOL     OW15463   4.823   5.014   5.520
 4855SOL    HW115464   4.804   4.918   5.541
 4855SOL    HW215465   4.748   5.071   5.554
 4856SOL     OW15466   0.502   3.224   2.698
 4856SOL    HW115467   0.448   3.294   2.649
 4856SOL    HW215468   0.527   3.259   2.788
 4857SOL     OW15469   2.498   2.599   5.276
 4857SOL    HW115470   2.538   2.637   5.359
 4857SOL    HW215471   2.469   2.505   5.293
 4858SOL     OW15472   1.807   6.426   4.888
 4858SOL    HW115473   1.719   6.378   4.882
 4858SOL    HW215474   1.814   6.471   4.977
 4859SOL     OW15475   6.629   5.961   2.763
 4859SOL    HW115476   6.666   5.942   2.672
 4859SOL    HW215477   6.605   6.058   2.770
 4860SOL     OW15478   4.187   5.133   2.247
 4860SOL    HW115479   4.198   5.034   2.238
 4860SOL    HW215480   4.245   5.179   2.180
 4861SOL     OW15481   0.159   4.883   5.441
 4861SOL    HW115482   0.117   4.831   5.366
 4861SOL    HW215483   0.219   4.822   5.493
 4862SOL     OW15484   2.288   6.395   4.540
 4862SOL    HW115485   2.266   6.333   4.616
 4862SOL    HW215486   2.209   6.451   4.518
 4863SOL     OW15487   5.800   1.658   2.051
 4863SOL    HW115488   5.815   1.613   2.138
 4863SOL    HW215489   5.796   1.757   2.065
 4864SOL     OW15490   2.279   1.816   0.966
 4864SOL    HW115491   2.278   1.761   1.050
 4864SOL    HW215492   2.360   1.875   0.966
 4865SOL     OW15493   3.954   6.007   4.739
 4865SOL    HW115494   3.938   6.060   4.822
 4865SOL    HW215495   4.045   5.966   4.742
 4866SOL     OW15496   0.777   5.350   1.679
 4866SOL    HW115497   0.700   5.403   1.645
 4866SOL    HW215498   0.764   5.254   1.656
 4867SOL     OW15499   5.343   4.452   4.583
 4867SOL    HW115500   5.302   4.522   4.524
 4867SOL    HW215501   5.273   4.386   4.609
 4868SOL     OW15502   2.079   5.549   1.620
 4868SOL    HW115503   2.025   5.532   1.702
 4868SOL    HW215504   2.176   5.559   1.645
 4869SOL     OW15505   6.088   1.925   1.491
 4869SOL    HW115506   6.120   1.833   1.512
 4869SOL    HW215507   6.003   1.943   1.540
 4870SOL     OW15508   6.476   0.580   1.161
 4870SOL    HW115509   6.422   0.497   1.176
 4870SOL    HW215510   6.428   0.659   1.199
 4871SOL     OW15511   1.595   3.890   4.569
 4871SOL    HW115512   1.657   3.899   4.491
 4871SOL    HW215513   1.580   3.980   4.611
 4872SOL     OW15514   1.146   0.934   3.894
 4872SOL    HW115515   1.078   0.895   3.831
 4872SOL    HW215516   1.221   0.870   3.906
 4873SOL     OW15517   1.206   6.278   5.465
 4873SOL    HW115518   1.115   6.252   5.431
 4873SOL    HW215519   1.253   6.197   5.500
 4874SOL     OW15520   6.031   2.971   3.439
 4874SOL    HW115521   6.045   2.938   3.346
 4874SOL    HW215522   6.117   3.006   3.476
 4875SOL     OW15523   0.034   2.957   6.354
 4875SOL    HW115524   0.101   2.997   6.292
 4875SOL    HW215525   0.081   2.909   6.427
 4876SOL     OW15526   0.475   1.610   0.002
 4876SOL    HW115527   0.468   1.510   0.010
 4876SOL    HW215528   0.567   1.635   6.997
 4877SOL     OW15529   5.818   1.553   2.315
 4877SOL    HW115530   5.816   1.457   2.342
 4877SOL    HW215531   5.891   1.600   2.366
 4878SOL     OW15532   0.453   2.943   1.526
 4878SOL    HW115533   0.449   2.848   1.495
 4878SOL    HW215534   0.457   2.945   1.626
 4879SOL     OW15535   4.776   5.793   3.025
 4879SOL    HW115536   4.750   5.883   3.061
 4879SOL    HW215537   4.696   5.751   2.982
 4880SOL     OW15538   6.434   2.061   5.526
 4880SOL    HW115539   6.517   2.010   5.549
 4880SOL    HW215540   6.376   2.004   5.468
 4881SOL     OW15541   2.703   5.642   6.422
 4881SOL    HW115542   2.638   5.567   6.431
 4881SOL    HW215543   2.780   5.613   6.366
 4882SOL     OW15544   4.934   6.266   0.013
 4882SOL    HW115545   4.936   6.172   7.001
 4882SOL    HW215546   4.857   6.315   6.995
 4883SOL     OW15547   6.065   5.619   0.170
 4883SOL    HW115548   6.020   5.582   0.251
 4883SOL    HW215549   5.996   5.644   0.102
 4884SOL     OW15550   4.405   6.464   1.526
 4884SOL    HW115551   4.318   6.500   1.493
 4884SOL    HW215552   4.425   6.377   1.480
 4885SOL     OW15553   2.063   0.237   2.775
 4885SOL    HW115554   1.978   0.185   2.774
 4885SOL    HW215555   2.052   0.319   2.830
 4886SOL     OW15556   6.071   0.993   5.620
 4886SOL    HW115557   5.986   1.009   5.569
 4886SOL    HW215558   6.070   1.049   5.703
 4887SOL     OW15559   0.621   2.252   5.679
 4887SOL    HW115560   0.561   2.292   5.610
 4887SOL    HW215561   0.608   2.153   5.680
 4888SOL     OW15562   3.153   6.086   1.990
 4888SOL    HW115563   3.171   6.038   1.904
 4888SOL    HW215564   3.191   6.178   1.985
 4889SOL     OW15565   1.635   3.116   6.303
 4889SOL    HW115566   1.711   3.161   6.255
 4889SOL    HW215567   1.612   3.031   6.256
 4890SOL     OW15568   0.315   0.550   4.197
 4890SOL    HW115569   0.305   0.612   4.275
 4890SOL    HW215570   0.407   0.510   4.199
 4891SOL     OW15571   1.245   4.025   0.318
 4891SOL    HW115572   1.187   4.086   0.372
 4891SOL    HW215573   1.271   3.946   0.374
 4892SOL     OW15574   1.756   5.335   2.395
 4892SOL    HW115575   1.738   5.373   2.486
 4892SOL    HW215576   1.763   5.235   2.401
 4893SOL     OW15577   0.804   3.747   6.939
 4893SOL    HW115578   0.722   3.691   6.954
 4893SOL    HW215579   0.885   3.688   6.938
 4894SOL     OW15580   1.926   0.731   3.126
 4894SOL    HW115581   1.899   0.822   3.159
 4894SOL    HW215582   1.932   0.732   3.026
 4895SOL     OW15583   5.949   4.036   0.098
 4895SOL    HW115584   5.911   4.040   0.190
 4895SOL    HW215585   5.952   4.128   0.059
 4896SOL     OW15586   3.871   6.650   3.635
 4896SOL    HW115587   3.824   6.640   3.723
 4896SOL    HW215588   3.842   6.577   3.573
 4897SOL     OW15589   2.705   5.903   6.700
 4897SOL    HW115590   2.794   5.938   6.730
 4897SOL    HW215591   2.667   5.844   6.771
 4898SOL     OW15592   6.307   2.175   4.305
 4898SOL    HW115593   6.358   2.236   4.245
 4898SOL    HW215594   6.319   2.080   4.273
 4899SOL     OW15595   4.869   4.837   4.775
 4899SOL    HW115596   4.932   4.769   4.737
 4899SOL    HW215597   4.911   4.880   4.855
 4900SOL     OW15598   0.464   6.575   5.106
 4900SOL    HW115599   0.499   6.601   5.196
 4900SOL    HW215600   0.380   6.523   5.117
 4901SOL     OW15601   6.968   7.000   3.101
 4901SOL    HW115602   6.966   6.988   3.200
 4901SOL    HW215603   6.980   0.075   3.080
 4902SOL     OW15604   3.495   4.843   1.668
 4902SOL    HW115605   3.432   4.879   1.737
 4902SOL    HW215606   3.536   4.758   1.701
 4903SOL     OW15607   5.556   5.523   6.047
 4903SOL    HW115608   5.645   5.540   6.005
 4903SOL    HW215609   5.486   5.577   6.000
 4904SOL     OW15610   2.923   6.761   3.421
 4904SOL    HW115611   2.931   6.829   3.495
 4904SOL    HW215612   2.929   6.807   3.333
 4905SOL     OW15613   6.205   3.436   3.495
 4905SOL    HW115614   6.251   3.516   3.533
 4905SOL    HW215615   6.217   3.433   3.396
 4906SOL     OW15616   4.930   0.742   1.102
 4906SOL    HW115617   5.029   0.740   1.086
 4906SOL    HW215618   4.910   0.697   1.190
 4907SOL     OW15619   2.543   1.788   1.981
 4907SOL    HW115620   2.443   1.794   1.982
 4907SOL    HW215621   2.581   1.870   2.024
 4908SOL     OW15622   4.211   5.121   0.304
 4908SOL    HW115623   4.153   5.200   0.285
 4908SOL    HW215624   4.265   5.139   0.386
 4909SOL     OW15625   6.344   0.178   5.237
 4909SOL    HW115626   6.336   0.223   5.326
 4909SOL    HW215627   6.400   0.234   5.176
 4910SOL     OW15628   5.789   6.633   6.413
 4910SOL    HW115629   5.800   6.591   6.503
 4910SOL    HW215630   5.693   6.627   6.385
 4911SOL     OW15631   1.244   3.769   6.132
 4911SOL    HW115632   1.279   3.852   6.177
 4911SOL    HW215633   1.187   3.795   6.054
 4912SOL     OW15634   2.593   2.677   1.772
 4912SOL    HW115635   2.604   2.766   1.728
 4912SOL    HW215636   2.668   2.616   1.745
 4913SOL     OW15637   2.759   3.191   1.815
 4913SOL    HW115638   2.790   3.205   1.909
 4913SOL    HW215639   2.660   3.204   1.810
 4914SOL     OW15640   1.413   6.637   2.968
 4914SOL    HW115641   1.484   6.706   2.951
 4914SOL    HW215642   1.323   6.680   2.960
 4915SOL     OW15643   2.401   6.306   3.498
 4915SOL    HW115644   2.487   6.258   3.481
 4915SOL    HW215645   2.382   6.307   3.596
 4916SOL     OW15646   1.909   2.096   2.780
 4916SOL    HW115647   1.857   2.114   2.863
 4916SOL    HW215648   1.900   2.173   2.717
 4917SOL     OW15649   1.815   4.278   5.944
 4917SOL    HW115650   1.844   4.184   5.927
 4917SOL    HW215651   1.775   4.316   5.860
 4918SOL     OW15652   2.252   0.845   3.707
 4918SOL    HW115653   2.240   0.931   3.658
 4918SOL    HW215654   2.293   0.863   3.797
 4919SOL     OW15655   2.492   3.224   1.719
 4919SOL    HW115656   2.436   3.201   1.640
 4919SOL    HW215657   2.458   3.308   1.760
 4920SOL     OW15658   4.112   0.487   0.330
 4920SOL    HW115659   4.087   0.571   0.378
 4920SOL    HW215660   4.212   0.484   0.319
 4921SOL     OW15661   0.327   4.711   1.926
 4921SOL    HW115662   0.416   4.675   1.950
 4921SOL    HW215663   0.292   4.768   2.001
 4922SOL     OW15664   0.967   2.991   6.096
 4922SOL    HW115665   0.941   2.897   6.118
 4922SOL    HW215666   0.997   3.037   6.180
 4923SOL     OW15667   2.958   1.856   0.337
 4923SOL    HW115668   2.941   1.845   0.435
 4923SOL    HW215669   2.875   1.891   0.292
 4924SOL     OW15670   0.207   3.530   4.174
 4924SOL    HW115671   0.273   3.464   4.138
 4924SOL    HW215672   0.255   3.598   4.230
 4925SOL     OW15673   4.751   5.938   6.302
 4925SOL    HW115674   4.780   6.006   6.235
 4925SOL    HW215675   4.651   5.926   6.295
 4926SOL     OW15676   4.386   3.007   0.402
 4926SOL    HW115677   4.425   3.025   0.492
 4926SOL    HW215678   4.290   2.980   0.412
 4927SOL     OW15679   2.991   3.665   2.081
 4927SOL    HW115680   2.951   3.749   2.118
 4927SOL    HW215681   2.929   3.589   2.099
 4928SOL     OW15682   0.812   6.760   0.338
 4928SOL    HW115683   0.844   6.825   0.268
 4928SOL    HW215684   0.879   6.686   0.346
 4929SOL     OW15685   1.069   4.738   4.405
 4929SOL    HW115686   1.132   4.671   4.444
 4929SOL    HW215687   1.121   4.806   4.353
 4930SOL     OW15688   0.439   2.911   0.652
 4930SOL    HW115689   0.460   2.888   0.557
 4930SOL    HW215690   0.368   2.849   0.686
 4931SOL     OW15691   6.610   6.786   1.084
 4931SOL    HW115692   6.608   6.712   1.151
 4931SOL    HW215693   6.551   6.762   1.007
 4932SOL     OW15694   3.374   1.734   1.060
 4932SOL    HW115695   3.363   1.823   1.106
 4932SOL    HW215696   3.418   1.670   1.123
 4933SOL     OW15697   2.466   0.318   5.149
 4933SOL    HW115698   2.542   0.364   5.103
 4933SOL    HW215699   2.409   0.385   5.197
 4934SOL     OW15700   1.811   6.101   5.158
 4934SOL    HW115701   1.909   6.119   5.163
 4934SOL    HW215702   1.788   6.066   5.066
 4935SOL     OW15703   1.980   1.618   0.819
 4935SOL    HW115704   2.059   1.654   0.769
 4935SOL    HW215705   1.938   1.544   0.766
 4936SOL     OW15706   5.168   6.071   1.413
 4936SOL    HW115707   5.254   6.089   1.461
 4936SOL    HW215708   5.174   6.106   1.319
 4937SOL     OW15709   1.194   2.961   4.786
 4937SOL    HW115710   1.204   2.932   4.881
 4937SOL    HW215711   1.114   2.917   4.746
 4938SOL     OW15712   3.299   4.917   1.891
 4938SOL    HW115713   3.317   5.013   1.869
 4938SOL    HW215714   3.352   4.890   1.971
 4939SOL     OW15715   1.376   1.244   0.749
 4939SOL    HW115716   1.287   1.199   0.740
 4939SOL    HW215717   1.399   1.290   0.663
 4940SOL     OW15718   1.166   1.964   5.690
 4940SOL    HW115719   1.126   1.904   5.620
 4940SOL    HW215720   1.264   1.976   5.672
 4941SOL     OW15721   4.028   2.610   5.464
 4941SOL    HW115722   4.063   2.603   5.370
 4941SOL    HW215723   4.063   2.533   5.518
 4942SOL     OW15724   0.354   1.916   3.199
 4942SOL    HW115725   0.401   1.979   3.260
 4942SOL    HW215726   0.325   1.835   3.249
 4943SOL     OW15727   5.396   2.685   6.966
 4943SOL    HW115728   5.378   2.689   0.042
 4943SOL    HW215729   5.320   2.638   6.921
 4944SOL     OW15730   0.842   4.805   0.446
 4944SOL    HW115731   0.782   4.754   0.385
 4944SOL    HW215732   0.919   4.747   0.472
 4945SOL     OW15733   2.626   0.117   5.898
 4945SOL    HW115734   2.714   0.137   5.942
 4945SOL    HW215735   2.583   0.040   5.945
 4946SOL     OW15736   3.041   5.423   0.004
 4946SOL    HW115737   2.946   5.395   7.014
 4946SOL    HW215738   3.090   5.410   6.940
 4947SOL     OW15739   0.729   0.378   0.864
 4947SOL    HW115740   0.694   0.309   0.801
 4947SOL    HW215741   0.828   0.385   0.856
 4948SOL     OW15742   1.990   2.219   2.344
 4948SOL    HW115743   2.080   2.251   2.375
 4948SOL    HW215744   1.930   2.298   2.331
 4949SOL     OW15745   6.930   4.234   6.163
 4949SOL    HW115746   6.846   4.196   6.203
 4949SOL    HW215747   6.921   4.238   6.064
 4950SOL     OW15748   4.235   4.303   5.644
 4950SOL    HW115749   4.226   4.209   5.678
 4950SOL    HW215750   4.174   4.316   5.566
 4951SOL     OW15751   4.964   5.891   2.825
 4951SOL    HW115752   4.906   5.841   2.890
 4951SOL    HW215753   4.912   5.908   2.741
 4952SOL     OW15754   0.578   0.566   6.834
 4952SOL    HW115755   0.482   0.591   6.850
 4952SOL    HW215756   0.633   0.594   6.913
 4953SOL     OW15757   1.203   2.112   5.013
 4953SOL    HW115758   1.172   2.144   4.923
 4953SOL    HW215759   1.172   2.018   5.027
 4954SOL     OW15760   2.989   3.956   4.902
 4954SOL    HW115761   2.906   4.004   4.877
 4954SOL    HW215762   2.975   3.905   4.987
 4955SOL     OW15763   3.884   5.977   6.096
 4955SOL    HW115764   3.844   6.007   6.010
 4955SOL    HW215765   3.882   6.052   6.162
 4956SOL     OW15766   2.870   0.169   4.905
 4956SOL    HW115767   2.905   0.233   4.973
 4956SOL    HW215768   2.907   0.078   4.923
 4957SOL     OW15769   5.738   4.257   0.165
 4957SOL    HW115770   5.682   4.229   0.086
 4957SOL    HW215771   5.821   4.302   0.132
 4958SOL     OW15772   3.809   5.373   1.131
 4958SOL    HW115773   3.749   5.337   1.060
 4958SOL    HW215774   3.903   5.374   1.098
 4959SOL     OW15775   7.020   2.785   2.695
 4959SOL    HW115776   0.015   2.771   2.792
 4959SOL    HW215777   0.081   2.769   2.643
 4960SOL     OW15778   4.998   4.504   3.859
 4960SOL    HW115779   5.013   4.415   3.817
 4960SOL    HW215780   4.910   4.503   3.908
 4961SOL     OW15781   3.498   2.444   1.738
 4961SOL    HW115782   3.563   2.519   1.741
 4961SOL    HW215783   3.530   2.369   1.797
 4962SOL     OW15784   1.406   3.146   0.265
 4962SOL    HW115785   1.374   3.212   0.332
 4962SOL    HW215786   1.505   3.158   0.251
 4963SOL     OW15787   0.519   3.629   5.659
 4963SOL    HW115788   0.460   3.578   5.721
 4963SOL    HW215789   0.571   3.566   5.602
 4964SOL     OW15790   2.331   5.757   4.775
 4964SOL    HW115791   2.345   5.757   4.676
 4964SOL    HW215792   2.322   5.663   4.807
 4965SOL     OW15793   1.123   6.541   3.159
 4965SOL    HW115794   1.129   6.446   3.127
 4965SOL    HW215795   1.208   6.565   3.206
 4966SOL     OW15796   3.693   6.521   4.370
 4966SOL    HW115797   3.618   6.472   4.326
 4966SOL    HW215798   3.670   6.537   4.466
 4967SOL     OW15799   4.248   4.828   4.535
 4967SOL    HW115800   4.229   4.773   4.616
 4967SOL    HW215801   4.332   4.881   4.549
 4968SOL     OW15802   0.129   2.657   3.209
 4968SOL    HW115803   0.047   2.706   3.239
 4968SOL    HW215804   0.209   2.716   3.218
 4969SOL     OW15805   0.095   5.771   4.298
 4969SOL    HW115806   0.107   5.851   4.356
 4969SOL    HW215807   0.152   5.696   4.332
 4970SOL     OW15808   2.059   1.750   1.450
 4970SOL    HW115809   1.967   1.765   1.414
 4970SOL    HW215810   2.104   1.839   1.462
 4971SOL     OW15811   6.918   6.160   2.270
 4971SOL    HW115812   7.010   6.186   2.299
 4971SOL    HW215813   6.914   6.061   2.258
 4972SOL     OW15814   0.865   3.951   0.412
 4972SOL    HW115815   0.941   3.998   0.367
 4972SOL    HW215816   0.897   3.908   0.496
 4973SOL     OW15817   5.999   1.250   0.320
 4973SOL    HW115818   5.974   1.346   0.336
 4973SOL    HW215819   6.036   1.211   0.404
 4974SOL     OW15820   3.015   6.819   4.318
 4974SOL    HW115821   2.961   6.795   4.238
 4974SOL    HW215822   3.062   6.906   4.302
 4975SOL     OW15823   5.242   4.942   1.234
 4975SOL    HW115824   5.247   5.035   1.269
 4975SOL    HW215825   5.306   4.884   1.285
 4976SOL     OW15826   1.110   6.891   3.095
 4976SOL    HW115827   1.088   6.981   3.132
 4976SOL    HW215828   1.198   6.860   3.130
 4977SOL     OW15829   1.692   4.070   6.130
 4977SOL    HW115830   1.722   4.018   6.210
 4977SOL    HW215831   1.714   4.167   6.143
 4978SOL     OW15832   6.548   4.187   4.490
 4978SOL    HW115833   6.540   4.264   4.553
 4978SOL    HW215834   6.500   4.108   4.528
 4979SOL     OW15835   2.232   6.866   6.156
 4979SOL    HW115836   2.182   6.783   6.129
 4979SOL    HW215837   2.187   6.907   6.236
 4980SOL     OW15838   5.565   2.782   4.229
 4980SOL    HW115839   5.529   2.748   4.316
 4980SOL    HW215840   5.562   2.710   4.161
 4981SOL     OW15841   3.534   5.169   2.672
 4981SOL    HW115842   3.512   5.094   2.611
 4981SOL    HW215843   3.462   5.239   2.666
 4982SOL     OW15844   3.801   2.314   5.375
 4982SOL    HW115845   3.760   2.405   5.372
 4982SOL    HW215846   3.884   2.313   5.320
 4983SOL     OW15847   5.784   4.566   2.957
 4983SOL    HW115848   5.845   4.574   2.878
 4983SOL    HW215849   5.736   4.478   2.954
 4984SOL     OW15850   5.112   3.680   3.936
 4984SOL    HW115851   5.073   3.608   3.993
 4984SOL    HW215852   5.129   3.645   3.844
 4985SOL     OW15853   5.718   0.735   2.395
 4985SOL    HW115854   5.803   0.683   2.390
 4985SOL    HW215855   5.721   0.797   2.473
 4986SOL     OW15856   0.977   5.137   0.995
 4986SOL    HW115857   1.007   5.044   0.974
 4986SOL    HW215858   0.883   5.136   1.029
 4987SOL     OW15859   1.773   1.451   2.749
 4987SOL    HW115860   1.782   1.352   2.735
 4987SOL    HW215861   1.723   1.468   2.834
 4988SOL     OW15862   6.262   5.842   4.016
 4988SOL    HW115863   6.194   5.861   3.944
 4988SOL    HW215864   6.323   5.921   4.026
 4989SOL     OW15865   5.181   0.207   3.764
 4989SOL    HW115866   5.131   0.239   3.845
 4989SOL    HW215867   5.166   0.109   3.753
 4990SOL     OW15868   4.296   1.875   6.079
 4990SOL    HW115869   4.247   1.833   6.156
 4990SOL    HW215870   4.388   1.836   6.074
 4991SOL     OW15871   1.959   5.219   5.845
 4991SOL    HW115872   1.966   5.138   5.787
 4991SOL    HW215873   1.865   5.229   5.878
 4992SOL     OW15874   1.325   3.514   3.957
 4992SOL    HW115875   1.316   3.431   3.902
 4992SOL    HW215876   1.254   3.579   3.931
 4993SOL     OW15877   2.213   6.145   3.857
 4993SOL    HW115878   2.125   6.148   3.904
 4993SOL    HW215879   2.202   6.099   3.769
 4994SOL     OW15880   3.874   4.807   5.321
 4994SOL    HW115881   3.923   4.725   5.350
 4994SOL    HW215882   3.785   4.811   5.366
 4995SOL     OW15883   0.179   0.688   6.062
 4995SOL    HW115884   0.157   0.730   5.974
 4995SOL    HW215885   0.094   0.657   6.106
 4996SOL     OW15886   0.446   1.395   3.555
 4996SOL    HW115887   0.370   1.422   3.615
 4996SOL    HW215888   0.519   1.462   3.562
 4997SOL     OW15889   4.099   1.475   0.756
 4997SOL    HW115890   4.164   1.399   0.762
 4997SOL    HW215891   4.006   1.440   0.766
 4998SOL     OW15892   0.549   3.678   3.346
 4998SOL    HW115893   0.498   3.753   3.388
 4998SOL    HW215894   0.554   3.692   3.247
 4999SOL     OW15895   0.727   2.851   3.342
 4999SOL    HW115896   0.796   2.787   3.308
 4999SOL    HW215897   0.711   2.833   3.439
 5000SOL     OW15898   2.248   6.125   2.850
 5000SOL    HW115899   2.286   6.146   2.760
 5000SOL    HW215900   2.150   6.143   2.849
 5001SOL     OW15901   0.571   6.266   2.719
 5001SOL    HW115902   0.563   6.271   2.818
 5001SOL    HW215903   0.604   6.175   2.693
 5002SOL     OW15904   1.557   4.542   3.834
 5002SOL    HW115905   1.546   4.490   3.749
 5002SOL    HW215906   1.472   4.592   3.853
 5003SOL     OW15907   4.017   0.380   3.040
 5003SOL    HW115908   3.920   0.384   3.018
 5003SOL    HW215909   4.060   0.468   3.019
 5004SOL     OW15910   3.868   6.160   7.000
 5004SOL    HW115911   3.936   6.180   6.931
 5004SOL    HW215912   3.903   6.186   0.068
 5005SOL     OW15913   2.694   2.927   0.269
 5005SOL    HW115914   2.703   2.843   0.216
 5005SOL    HW215915   2.759   2.927   0.345
 5006SOL     OW15916   4.706   1.471   2.239
 5006SOL    HW115917   4.801   1.441   2.252
 5006SOL    HW215918   4.663   1.485   2.328
 5007SOL     OW15919   5.692   5.862   2.103
 5007SOL    HW115920   5.734   5.824   2.185
 5007SOL    HW215921   5.593   5.864   2.113
 5008SOL     OW15922   5.358   0.484   3.409
 5008SOL    HW115923   5.324   0.401   3.364
 5008SOL    HW215924   5.448   0.465   3.448
 5009SOL     OW15925   6.776   2.387   0.706
 5009SOL    HW115926   6.787   2.379   0.607
 5009SOL    HW215927   6.689   2.346   0.733
 5010SOL     OW15928   3.862   3.524   0.755
 5010SOL    HW115929   3.959   3.538   0.734
 5010SOL    HW215930   3.834   3.588   0.827
 5011SOL     OW15931   1.550   3.173   6.973
 5011SOL    HW115932   1.538   3.170   0.050
 5011SOL    HW215933   1.499   3.252   6.936
 5012SOL     OW15934   6.232   1.735   6.155
 5012SOL    HW115935   6.291   1.803   6.112
 5012SOL    HW215936   6.178   1.688   6.085
 5013SOL     OW15937   5.721   0.278   5.942
 5013SOL    HW115938   5.674   0.361   5.914
 5013SOL    HW215939   5.811   0.274   5.898
 5014SOL     OW15940   5.748   3.189   1.594
 5014SOL    HW115941   5.755   3.112   1.659
 5014SOL    HW215942   5.753   3.154   1.501
 5015SOL     OW15943   6.175   6.066   4.301
 5015SOL    HW115944   6.132   6.103   4.383
 5015SOL    HW215945   6.200   6.141   4.240
 5016SOL     OW15946   1.987   3.650   5.610
 5016SOL    HW115947   2.004   3.552   5.621
 5016SOL    HW215948   1.937   3.684   5.690
 5017SOL     OW15949   0.535   3.196   1.847
 5017SOL    HW115950   0.478   3.117   1.871
 5017SOL    HW215951   0.477   3.275   1.830
 5018SOL     OW15952   0.926   0.275   6.898
 5018SOL    HW115953   0.954   0.179   6.894
 5018SOL    HW215954   0.837   0.285   6.855
 5019SOL     OW15955   1.343   4.683   4.253
 5019SOL    HW115956   1.275   4.613   4.234
 5019SOL    HW215957   1.434   4.647   4.233
 5020SOL     OW15958   2.239   0.169   4.988
 5020SOL    HW115959   2.272   0.263   4.997
 5020SOL    HW215960   2.314   0.105   5.007
 5021SOL     OW15961   1.776   0.806   0.922
 5021SOL    HW115962   1.837   0.758   0.860
 5021SOL    HW215963   1.790   0.904   0.914
 5022SOL     OW15964   0.077   2.703   1.241
 5022SOL    HW115965   0.113   2.611   1.226
 5022SOL    HW215966   0.123   2.744   1.319
 5023SOL     OW15967   0.519   4.288   2.542
 5023SOL    HW115968   0.599   4.347   2.553
 5023SOL    HW215969   0.450   4.311   2.611
 5024SOL     OW15970   4.530   3.874   0.856
 5024SOL    HW115971   4.512   3.829   0.768
 5024SOL    HW215972   4.608   3.829   0.900
 5025SOL     OW15973   4.561   1.461   4.823
 5025SOL    HW115974   4.589   1.537   4.764
 5025SOL    HW215975   4.642   1.413   4.858
 5026SOL     OW15976   5.071   6.994   4.412
 5026SOL    HW115977   5.129   6.964   4.488
 5026SOL    HW215978   5.000   6.926   4.395
 5027SOL     OW15979   4.933   5.927   1.045
 5027SOL    HW115980   4.996   5.886   1.111
 5027SOL    HW215981   4.870   5.857   1.011
 5028SOL     OW15982   6.299   1.857   2.071
 5028SOL    HW115983   6.293   1.912   1.987
 5028SOL    HW215984   6.261   1.766   2.055
 5029SOL     OW15985   6.041   1.810   2.237
 5029SOL    HW115986   5.960   1.856   2.201
 5029SOL    HW215987   6.104   1.788   2.163
 5030SOL     OW15988   0.628   4.264   6.358
 5030SOL    HW115989   0.548   4.319   6.334
 5030SOL    HW215990   0.637   4.260   6.457
 5031SOL     OW15991   6.368   6.993   6.251
 5031SOL    HW115992   6.425   0.048   6.225
 5031SOL    HW215993   6.313   6.965   6.172
 5032SOL     OW15994   3.206   3.211   5.699
 5032SOL    HW115995   3.126   3.232   5.642
 5032SOL    HW215996   3.264   3.145   5.650
 5033SOL     OW15997   2.227   0.413   6.231
 5033SOL    HW115998   2.270   0.325   6.210
 5033SOL    HW215999   2.263   0.483   6.169
 5034SOL     OW16000   4.453   6.530   4.449
 5034SOL    HW116001   4.541   6.554   4.408
 5034SOL    HW216002   4.465   6.454   4.512
 5035SOL     OW16003   2.171   3.329   3.945
 5035SOL    HW116004   2.191   3.232   3.958
 5035SOL    HW216005   2.194   3.355   3.851
 5036SOL     OW16006   0.652   2.591   4.817
 5036SOL    HW116007   0.630   2.634   4.729
 5036SOL    HW216008   0.733   2.635   4.855
 5037SOL     OW16009   4.136   3.990   0.994
 5037SOL    HW116010   4.151   4.019   1.088
 5037SOL    HW216011   4.100   3.896   0.993
 5038SOL     OW16012   3.670   3.706   3.545
 5038SOL    HW116013   3.744   3.716   3.479
 5038SOL    HW216014   3.669   3.785   3.607
 5039SOL     OW16015   1.342   3.989   6.252
 5039SOL    HW116016   1.276   4.062   6.268
 5039SOL    HW216017   1.427   4.027   6.218
 5040SOL     OW16018   0.207   1.386   5.561
 5040SOL    HW116019   0.145   1.307   5.565
 5040SOL    HW216020   0.296   1.357   5.526
 5041SOL     OW16021   6.757   2.293   1.204
 5041SOL    HW116022   6.825   2.222   1.223
 5041SOL    HW216023   6.796   2.360   1.141
 5042SOL     OW16024   1.152   2.765   6.360
 5042SOL    HW116025   1.188   2.676   6.333
 5042SOL    HW216026   1.227   2.828   6.378
 5043SOL     OW16027   3.444   6.760   2.002
 5043SOL    HW116028   3.404   6.810   1.925
 5043SOL    HW216029   3.537   6.734   1.980
 5044SOL     OW16030   6.550   4.792   0.215
 5044SOL    HW116031   6.556   4.805   0.116
 5044SOL    HW216032   6.455   4.774   0.240
 5045SOL     OW16033   5.800   2.648   6.775
 5045SOL    HW116034   5.831   2.558   6.744
 5045SOL    HW216035   5.854   2.675   6.856
 5046SOL     OW16036   3.621   3.169   2.677
 5046SOL    HW116037   3.602   3.092   2.617
 5046SOL    HW216038   3.713   3.160   2.715
 5047SOL     OW16039   2.076   3.642   3.750
 5047SOL    HW116040   2.102   3.737   3.767
 5047SOL    HW216041   2.039   3.602   3.833
 5048SOL     OW16042   2.340   0.993   6.090
 5048SOL    HW116043   2.323   1.072   6.031
 5048SOL    HW216044   2.425   0.948   6.062
 5049SOL     OW16045   4.458   1.540   6.762
 5049SOL    HW116046   4.364   1.564   6.782
 5049SOL    HW216047   4.498   1.493   6.841
 5050SOL     OW16048   1.826   0.115   0.878
 5050SOL    HW116049   1.863   0.060   0.803
 5050SOL    HW216050   1.901   0.153   0.932
 5051SOL     OW16051   4.577   4.903   1.374
 5051SOL    HW116052   4.498   4.955   1.341
 5051SOL    HW216053   4.589   4.822   1.316
 5052SOL     OW16054   2.617   1.736   5.198
 5052SOL    HW116055   2.655   1.822   5.164
 5052SOL    HW216056   2.519   1.734   5.178
 5053SOL     OW16057   0.146   0.954   1.769
 5053SOL    HW116058   0.095   1.019   1.825
 5053SOL    HW216059   0.126   0.970   1.672
 5054SOL     OW16060   3.707   5.153   3.919
 5054SOL    HW116061   3.708   5.070   3.863
 5054SOL    HW216062   3.793   5.162   3.968
 5055SOL     OW16063   0.186   4.064   5.959
 5055SOL    HW116064   0.226   3.973   5.959
 5055SOL    HW216065   0.243   4.125   6.014
 5056SOL     OW16066   5.802   4.264   4.166
 5056SOL    HW116067   5.858   4.302   4.093
 5056SOL    HW216068   5.713   4.236   4.129
 5057SOL     OW16069   0.968   5.510   2.326
 5057SOL    HW116070   0.970   5.450   2.245
 5057SOL    HW216071   1.018   5.594   2.306
 5058SOL     OW16072   2.806   5.238   5.625
 5058SOL    HW116073   2.834   5.149   5.658
 5058SOL    HW216074   2.779   5.296   5.702
 5059SOL     OW16075   6.967   0.314   2.254
 5059SOL    HW116076   0.023   0.358   2.209
 5059SOL    HW216077   6.908   0.384   2.294
 5060SOL     OW16078   6.695   2.242   5.896
 5060SOL    HW116079   6.700   2.337   5.863
 5060SOL    HW216080   6.736   2.237   5.988
 5061SOL     OW16081   5.314   4.797   0.291
 5061SOL    HW116082   5.297   4.874   0.352
 5061SOL    HW216083   5.292   4.711   0.337
 5062SOL     OW16084   6.896   0.495   0.983
 5062SOL    HW116085   6.851   0.574   0.942
 5062SOL    HW216086   6.995   0.506   0.975
 5063SOL     OW16087   1.548   6.087   1.919
 5063SOL    HW116088   1.524   6.151   1.992
 5063SOL    HW216089   1.639   6.109   1.883
 5064SOL     OW16090   5.124   3.280   0.131
 5064SOL    HW116091   5.087   3.188   0.138
 5064SOL    HW216092   5.124   3.309   0.035
 5065SOL     OW16093   2.810   6.820   5.548
 5065SOL    HW116094   2.807   6.720   5.552
 5065SOL    HW216095   2.814   6.858   5.640
 5066SOL     OW16096   4.688   4.898   0.983
 5066SOL    HW116097   4.590   4.916   0.976
 5066SOL    HW216098   4.706   4.848   1.068
 5067SOL     OW16099   5.481   1.270   6.559
 5067SOL    HW116100   5.530   1.228   6.635
 5067SOL    HW216101   5.526   1.244   6.473
 5068SOL     OW16102   3.509   5.190   2.120
 5068SOL    HW116103   3.524   5.262   2.053
 5068SOL    HW216104   3.563   5.210   2.202
 5069SOL     OW16105   0.270   5.093   3.019
 5069SOL    HW116106   0.208   5.074   3.095
 5069SOL    HW216107   0.353   5.137   3.054
 5070SOL     OW16108   5.000   3.510   4.094
 5070SOL    HW116109   4.994   3.538   4.190
 5070SOL    HW216110   5.040   3.418   4.089
 5071SOL     OW16111   3.775   0.710   7.001
 5071SOL    HW116112   3.831   0.698   6.919
 5071SOL    HW216113   3.712   0.633   7.011
 5072SOL     OW16114   1.145   4.439   1.176
 5072SOL    HW116115   1.227   4.445   1.234
 5072SOL    HW216116   1.140   4.349   1.134
 5073SOL     OW16117   4.360   1.903   4.583
 5073SOL    HW116118   4.282   1.908   4.521
 5073SOL    HW216119   4.332   1.862   4.670
 5074SOL     OW16120   3.526   4.958   5.214
 5074SOL    HW116121   3.496   5.047   5.178
 5074SOL    HW216122   3.616   4.967   5.254
 5075SOL     OW16123   6.617   6.819   4.119
 5075SOL    HW116124   6.629   6.836   4.217
 5075SOL    HW216125   6.550   6.746   4.105
 5076SOL     OW16126   3.732   0.430   0.790
 5076SOL    HW116127   3.647   0.484   0.790
 5076SOL    HW216128   3.810   0.492   0.787
 5077SOL     OW16129   0.142   2.304   2.160
 5077SOL    HW116130   0.188   2.250   2.089
 5077SOL    HW216131   0.128   2.247   2.241
 5078SOL     OW16132   0.551   0.878   3.819
 5078SOL    HW116133   0.479   0.939   3.852
 5078SOL    HW216134   0.622   0.870   3.889
 5079SOL     OW16135   3.839   5.160   4.582
 5079SOL    HW116136   3.827   5.062   4.598
 5079SOL    HW216137   3.804   5.183   4.491
 5080SOL     OW16138   5.941   6.880   5.965
 5080SOL    HW116139   5.844   6.871   5.985
 5080SOL    HW216140   5.953   6.934   5.882
 5081SOL     OW16141   3.248   3.343   2.911
 5081SOL    HW116142   3.213   3.437   2.919
 5081SOL    HW216143   3.341   3.340   2.947
 5082SOL     OW16144   6.723   0.170   6.425
 5082SOL    HW116145   6.786   0.096   6.445
 5082SOL    HW216146   6.631   0.145   6.455
 5083SOL     OW16147   1.442   5.215   1.907
 5083SOL    HW116148   1.489   5.249   1.988
 5083SOL    HW216149   1.444   5.284   1.835
 5084SOL     OW16150   1.992   6.175   2.848
 5084SOL    HW116151   1.899   6.141   2.863
 5084SOL    HW216152   1.988   6.263   2.802
 5085SOL     OW16153   6.611   3.336   6.163
 5085SOL    HW116154   6.685   3.281   6.202
 5085SOL    HW216155   6.649   3.423   6.130
 5086SOL     OW16156   7.013   5.214   3.863
 5086SOL    HW116157   6.974   5.125   3.887
 5086SOL    HW216158   6.955   5.287   3.897
 5087SOL     OW16159   0.260   5.729   5.152
 5087SOL    HW116160   0.214   5.685   5.229
 5087SOL    HW216161   0.193   5.751   5.081
 5088SOL     OW16162   5.891   0.437   6.708
 5088SOL    HW116163   5.925   0.493   6.785
 5088SOL    HW216164   5.938   0.349   6.708
 5089SOL     OW16165   5.492   2.624   4.032
 5089SOL    HW116166   5.393   2.632   4.034
 5089SOL    HW216167   5.517   2.528   4.017
 5090SOL     OW16168   1.313   4.581   0.628
 5090SOL    HW116169   1.300   4.515   0.702
 5090SOL    HW216170   1.289   4.672   0.660
 5091SOL     OW16171   1.423   6.582   3.614
 5091SOL    HW116172   1.459   6.671   3.644
 5091SOL    HW216173   1.379   6.592   3.525
 5092SOL     OW16174   3.888   2.797   1.418
 5092SOL    HW116175   3.815   2.865   1.413
 5092SOL    HW216176   3.880   2.746   1.504
 5093SOL     OW16177   0.911   1.625   0.779
 5093SOL    HW116178   0.932   1.609   0.682
 5093SOL    HW216179   0.825   1.580   0.802
 5094SOL     OW16180   6.481   0.401   6.597
 5094SOL    HW116181   6.526   0.480   6.555
 5094SOL    HW216182   6.384   0.400   6.570
 5095SOL     OW16183   3.188   0.281   5.466
 5095SOL    HW116184   3.226   0.255   5.555
 5095SOL    HW216185   3.116   0.216   5.440
 5096SOL     OW16186   4.260   5.725   2.840
 5096SOL    HW116187   4.313   5.646   2.807
 5096SOL    HW216188   4.167   5.696   2.862
 5097SOL     OW16189   0.831   0.962   6.470
 5097SOL    HW116190   0.879   1.037   6.515
 5097SOL    HW216191   0.870   0.875   6.498
 5098SOL     OW16192   6.677   2.852   2.397
 5098SOL    HW116193   6.659   2.791   2.475
 5098SOL    HW216194   6.719   2.800   2.323
 5099SOL     OW16195   1.041   0.157   4.874
 5099SOL    HW116196   1.115   0.195   4.929
 5099SOL    HW216197   1.068   0.066   4.842
 5100SOL     OW16198   4.806   5.603   6.424
 5100SOL    HW116199   4.708   5.623   6.420
 5100SOL    HW216200   4.820   5.518   6.473
 5101SOL     OW16201   4.050   6.088   0.511
 5101SOL    HW116202   3.990   6.116   0.587
 5101SOL    HW216203   4.138   6.134   0.519
 5102SOL     OW16204   4.276   5.318   4.038
 5102SOL    HW116205   4.270   5.332   4.137
 5102SOL    HW216206   4.204   5.369   3.992
 5103SOL     OW16207   1.296   0.960   4.453
 5103SOL    HW116208   1.257   0.957   4.361
 5103SOL    HW216209   1.281   0.872   4.498
 5104SOL     OW16210   1.262   7.000   1.186
 5104SOL    HW116211   1.279   0.060   1.241
 5104SOL    HW216212   1.220   0.004   1.099
 5105SOL     OW16213   2.518   3.182   6.384
 5105SOL    HW116214   2.489   3.262   6.436
 5105SOL    HW216215   2.548   3.211   6.293
 5106SOL     OW16216   2.893   0.022   2.042
 5106SOL    HW116217   2.842   0.043   2.126
 5106SOL    HW216218   2.941   6.958   2.053
 5107SOL     OW16219   1.038   0.367   6.172
 5107SOL    HW116220   1.090   0.290   6.136
 5107SOL    HW216221   1.054   0.448   6.115
 5108SOL     OW16222   2.975   3.423   3.754
 5108SOL    HW116223   2.884   3.391   3.727
 5108SOL    HW216224   3.034   3.428   3.673
 5109SOL     OW16225   0.368   1.269   1.633
 5109SOL    HW116226   0.372   1.185   1.687
 5109SOL    HW216227   0.272   1.294   1.618
 5110SOL     OW16228   2.140   6.170   5.100
 5110SOL    HW116229   2.089   6.127   5.025
 5110SOL    HW216230   2.221   6.115   5.120
 5111SOL     OW16231   1.705   0.999   6.702
 5111SOL    HW116232   1.764   0.976   6.624
 5111SOL    HW216233   1.696   0.918   6.760
 5112SOL     OW16234   0.244   6.986   3.535
 5112SOL    HW116235   0.344   6.987   3.535
 5112SOL    HW216236   0.211   6.893   3.522
 5113SOL     OW16237   0.797   6.953   6.725
 5113SOL    HW116238   0.725   6.944   6.794
 5113SOL    HW216239   0.877   6.997   6.766
 5114SOL     OW16240   4.339   5.349   6.520
 5114SOL    HW116241   4.318   5.268   6.466
 5114SOL    HW216242   4.393   5.322   6.600
 5115SOL     OW16243   2.074   4.032   4.980
 5115SOL    HW116244   2.016   3.958   5.014
 5115SOL    HW216245   2.166   4.024   5.020
 5116SOL     OW16246   6.748   3.001   1.116
 5116SOL    HW116247   6.738   3.098   1.141
 5116SOL    HW216248   6.667   2.951   1.147
 5117SOL     OW16249   2.477   4.909   3.634
 5117SOL    HW116250   2.406   4.851   3.594
 5117SOL    HW216251   2.553   4.851   3.665
 5118SOL     OW16252   4.495   6.723   1.557
 5118SOL    HW116253   4.485   6.626   1.578
 5118SOL    HW216254   4.430   6.776   1.612
 5119SOL     OW16255   6.490   0.141   2.449
 5119SOL    HW116256   6.491   0.056   2.502
 5119SOL    HW216257   6.537   0.213   2.501
 5120SOL     OW16258   3.893   1.763   2.592
 5120SOL    HW116259   3.854   1.672   2.577
 5120SOL    HW216260   3.889   1.816   2.508
 5121SOL     OW16261   1.384   3.400   4.725
 5121SOL    HW116262   1.430   3.325   4.679
 5121SOL    HW216263   1.370   3.377   4.821
 5122SOL     OW16264   2.627   6.154   3.520
 5122SOL    HW116265   2.636   6.093   3.441
 5122SOL    HW216266   2.586   6.104   3.596
 5123SOL     OW16267   6.172   3.942   1.754
 5123SOL    HW116268   6.218   3.922   1.668
 5123SOL    HW216269   6.104   3.870   1.773
 5124SOL     OW16270   3.026   6.064   0.821
 5124SOL    HW116271   2.949   6.024   0.871
 5124SOL    HW216272   2.991   6.124   0.749
 5125SOL     OW16273   0.064   2.371   5.594
 5125SOL    HW116274   0.048   2.411   5.504
 5125SOL    HW216275   0.002   2.293   5.607
 5126SOL     OW16276   4.598   2.275   6.773
 5126SOL    HW116277   4.582   2.209   6.846
 5126SOL    HW216278   4.569   2.366   6.804
 5127SOL     OW16279   5.531   3.374   6.696
 5127SOL    HW116280   5.631   3.374   6.702
 5127SOL    HW216281   5.502   3.308   6.627
 5128SOL     OW16282   0.072   6.855   0.079
 5128SOL    HW116283   0.038   6.919   0.010
 5128SOL    HW216284   0.170   6.842   0.067
 5129SOL     OW16285   4.739   2.506   2.986
 5129SOL    HW116286   4.643   2.499   2.959
 5129SOL    HW216287   4.765   2.602   2.990
 5130SOL     OW16288   0.758   6.558   5.039
 5130SOL    HW116289   0.661   6.543   5.055
 5130SOL    HW216290   0.809   6.538   5.123
 5131SOL     OW16291   3.940   4.821   3.455
 5131SOL    HW116292   4.011   4.839   3.523
 5131SOL    HW216293   3.980   4.778   3.374
 5132SOL     OW16294   3.239   1.672   6.606
 5132SOL    HW116295   3.318   1.729   6.629
 5132SOL    HW216296   3.242   1.587   6.659
 5133SOL     OW16297   4.846   4.607   6.489
 5133SOL    HW116298   4.868   4.539   6.559
 5133SOL    HW216299   4.898   4.588   6.406
 5134SOL     OW16300   5.830   5.786   0.601
 5134SOL    HW116301   5.894   5.855   0.634
 5134SOL    HW216302   5.742   5.796   0.649
 5135SOL     OW16303   6.851   2.671   2.267
 5135SOL    HW116304   6.818   2.625   2.185
 5135SOL    HW216305   6.939   2.632   2.295
 5136SOL     OW16306   0.916   1.423   5.415
 5136SOL    HW116307   0.917   1.495   5.346
 5136SOL    HW216308   0.969   1.451   5.495
 5137SOL     OW16309   5.709   0.509   3.183
 5137SOL    HW116310   5.670   0.549   3.100
 5137SOL    HW216311   5.655   0.538   3.262
 5138SOL     OW16312   3.420   3.044   2.295
 5138SOL    HW116313   3.347   3.101   2.256
 5138SOL    HW216314   3.428   2.960   2.241
 5139SOL     OW16315   3.006   0.626   5.596
 5139SOL    HW116316   2.965   0.715   5.580
 5139SOL    HW216317   3.073   0.607   5.524
 5140SOL     OW16318   3.565   3.629   6.627
 5140SOL    HW116319   3.503   3.552   6.611
 5140SOL    HW216320   3.624   3.642   6.547
 5141SOL     OW16321   0.778   2.553   1.324
 5141SOL    HW116322   0.830   2.481   1.370
 5141SOL    HW216323   0.683   2.550   1.356
 5142SOL     OW16324   0.681   0.155   2.262
 5142SOL    HW116325   0.600   0.103   2.289
 5142SOL    HW216326   0.693   0.149   2.162
 5143SOL     OW16327   0.352   6.253   2.555
 5143SOL    HW116328   0.387   6.254   2.648
 5143SOL    HW216329   0.351   6.159   2.521
 5144SOL     OW16330   2.346   2.957   5.425
 5144SOL    HW116331   2.256   2.969   5.384
 5144SOL    HW216332   2.417   2.969   5.354
 5145SOL     OW16333   2.323   5.479   5.994
 5145SOL    HW116334   2.279   5.568   5.981
 5145SOL    HW216335   2.254   5.408   5.997
 5146SOL     OW16336   5.331   5.875   6.987
 5146SOL    HW116337   5.329   5.890   6.888
 5146SOL    HW216338   5.337   5.963   0.011
 5147SOL     OW16339   5.189   2.086   3.905
 5147SOL    HW116340   5.130   2.166   3.896
 5147SOL    HW216341   5.134   2.002   3.893
 5148SOL     OW16342   6.845   1.118   0.031
 5148SOL    HW116343   6.927   1.155   0.074
 5148SOL    HW216344   6.870   1.060   6.976
 5149SOL     OW16345   4.171   5.599   3.911
 5149SOL    HW116346   4.203   5.633   4.000
 5149SOL    HW216347   4.080   5.637   3.892
 5150SOL     OW16348   6.562   0.342   3.726
 5150SOL    HW116349   6.657   0.350   3.755
 5150SOL    HW216350   6.522   0.433   3.716
 5151SOL     OW16351   5.520   5.490   1.939
 5151SOL    HW116352   5.605   5.452   1.975
 5151SOL    HW216353   5.491   5.567   1.996
 5152SOL     OW16354   2.085   1.744   0.122
 5152SOL    HW116355   2.009   1.683   0.102
 5152SOL    HW216356   2.130   1.717   0.207
 5153SOL     OW16357   1.584   1.824   0.575
 5153SOL    HW116358   1.644   1.896   0.612
 5153SOL    HW216359   1.515   1.866   0.516
 5154SOL     OW16360   0.450   2.560   0.629
 5154SOL    HW116361   0.500   2.475   0.643
 5154SOL    HW216362   0.500   2.636   0.670
 5155SOL     OW16363   1.708   1.922   0.167
 5155SOL    HW116364   1.632   1.987   0.165
 5155SOL    HW216365   1.706   1.865   0.085
 5156SOL     OW16366   5.717   5.466   5.239
 5156SOL    HW116367   5.781   5.497   5.169
 5156SOL    HW216368   5.660   5.542   5.269
 5157SOL     OW16369   3.542   1.065   1.847
 5157SOL    HW116370   3.623   1.081   1.904
 5157SOL    HW216371   3.542   0.971   1.813
 5158SOL     OW16372   1.498   2.394   2.102
 5158SOL    HW116373   1.499   2.307   2.051
 5158SOL    HW216374   1.568   2.455   2.065
 5159SOL     OW16375   6.097   3.349   5.812
 5159SOL    HW116376   6.165   3.410   5.774
 5159SOL    HW216377   6.005   3.377   5.782
 5160SOL     OW16378   6.467   0.093   3.758
 5160SOL    HW116379   6.543   0.032   3.733
 5160SOL    HW216380   6.498   0.188   3.751
 5161SOL     OW16381   0.896   2.074   0.113
 5161SOL    HW116382   0.936   2.039   0.029
 5161SOL    HW216383   0.945   2.156   0.143
 5162SOL     OW16384   0.128   0.039   5.211
 5162SOL    HW116385   0.204   6.997   5.200
 5162SOL    HW216386   0.088   0.058   5.122
 5163SOL     OW16387   3.152   6.942   1.756
 5163SOL    HW116388   3.114   0.010   1.775
 5163SOL    HW216389   3.121   6.912   1.666
 5164SOL     OW16390   2.848   4.080   0.149
 5164SOL    HW116391   2.774   4.147   0.153
 5164SOL    HW216392   2.861   4.051   0.054
 5165SOL     OW16393   1.453   4.915   5.950
 5165SOL    HW116394   1.430   5.012   5.936
 5165SOL    HW216395   1.443   4.865   5.864
 5166SOL     OW16396   0.174   4.929   6.833
 5166SOL    HW116397   0.116   4.873   6.774
 5166SOL    HW216398   0.179   5.022   6.796
 5167SOL     OW16399   5.291   3.477   5.455
 5167SOL    HW116400   5.298   3.382   5.427
 5167SOL    HW216401   5.262   3.483   5.550
 5168SOL     OW16402   4.350   2.209   3.218
 5168SOL    HW116403   4.255   2.180   3.234
 5168SOL    HW216404   4.370   2.207   3.120
 5169SOL     OW16405   5.405   5.370   4.290
 5169SOL    HW116406   5.491   5.322   4.273
 5169SOL    HW216407   5.367   5.342   4.379
 5170SOL     OW16408   2.203   4.371   6.191
 5170SOL    HW116409   2.238   4.362   6.284
 5170SOL    HW216410   2.219   4.464   6.157
 5171SOL     OW16411   2.142   6.746   5.805
 5171SOL    HW116412   2.139   6.834   5.757
 5171SOL    HW216413   2.232   6.705   5.794
 5172SOL     OW16414   6.009   5.738   6.053
 5172SOL    HW116415   5.990   5.834   6.071
 5172SOL    HW216416   6.108   5.724   6.044
 5173SOL     OW16417   4.645   6.159   5.026
 5173SOL    HW116418   4.558   6.147   5.074
 5173SOL    HW216419   4.670   6.256   5.027
 5174SOL     OW16420   2.200   6.795   2.733
 5174SOL    HW116421   2.260   6.766   2.659
 5174SOL    HW216422   2.214   6.893   2.751
 5175SOL     OW16423   2.688   2.732   6.483
 5175SOL    HW116424   2.651   2.712   6.573
 5175SOL    HW216425   2.776   2.779   6.493
 5176SOL     OW16426   6.355   5.599   6.739
 5176SOL    HW116427   6.398   5.587   6.829
 5176SOL    HW216428   6.268   5.548   6.738
 5177SOL     OW16429   6.054   6.579   0.513
 5177SOL    HW116430   5.995   6.612   0.439
 5177SOL    HW216431   6.084   6.486   0.493
 5178SOL     OW16432   0.749   4.410   1.477
 5178SOL    HW116433   0.699   4.351   1.541
 5178SOL    HW216434   0.708   4.501   1.478
 5179SOL     OW16435   5.203   5.879   3.206
 5179SOL    HW116436   5.288   5.856   3.253
 5179SOL    HW216437   5.143   5.799   3.204
 5180SOL     OW16438   1.260   4.509   2.417
 5180SOL    HW116439   1.256   4.418   2.375
 5180SOL    HW216440   1.330   4.563   2.370
 5181SOL     OW16441   6.605   1.149   5.817
 5181SOL    HW116442   6.582   1.130   5.912
 5181SOL    HW216443   6.698   1.184   5.811
 5182SOL     OW16444   2.097   6.401   2.736
 5182SOL    HW116445   2.090   6.414   2.835
 5182SOL    HW216446   2.151   6.476   2.697
 5183SOL     OW16447   4.435   2.290   3.757
 5183SOL    HW116448   4.401   2.248   3.673
 5183SOL    HW216449   4.533   2.272   3.765
 5184SOL     OW16450   1.839   1.341   3.598
 5184SOL    HW116451   1.885   1.264   3.553
 5184SOL    HW216452   1.800   1.401   3.528
 5185SOL     OW16453   7.021   0.350   2.664
 5185SOL    HW116454   0.090   0.335   2.702
 5185SOL    HW216455   6.997   0.446   2.671
 5186SOL     OW16456   5.953   3.185   6.627
 5186SOL    HW116457   5.872   3.151   6.673
 5186SOL    HW216458   5.991   3.113   6.569
 5187SOL     OW16459   1.427   4.653   4.977
 5187SOL    HW116460   1.407   4.581   5.043
 5187SOL    HW216461   1.367   4.731   4.993
 5188SOL     OW16462   6.245   0.570   2.566
 5188SOL    HW116463   6.236   0.663   2.600
 5188SOL    HW216464   6.293   0.571   2.478
 5189SOL     OW16465   4.559   6.193   6.983
 5189SOL    HW116466   4.507   6.251   6.921
 5189SOL    HW216467   4.621   6.134   6.930
 5190SOL     OW16468   2.127   4.295   0.468
 5190SOL    HW116469   2.055   4.231   0.443
 5190SOL    HW216470   2.199   4.247   0.519
 5191SOL     OW16471   2.526   4.520   1.965
 5191SOL    HW116472   2.535   4.515   1.866
 5191SOL    HW216473   2.610   4.558   2.004
 5192SOL     OW16474   0.696   5.034   2.648
 5192SOL    HW116475   0.618   5.019   2.587
 5192SOL    HW216476   0.703   5.132   2.669
 5193SOL     OW16477   5.050   1.009   5.390
 5193SOL    HW116478   4.958   1.031   5.358
 5193SOL    HW216479   5.111   0.998   5.311
 5194SOL     OW16480   4.475   1.426   5.299
 5194SOL    HW116481   4.414   1.392   5.227
 5194SOL    HW216482   4.420   1.454   5.378
 5195SOL     OW16483   0.517   0.619   5.541
 5195SOL    HW116484   0.519   0.700   5.599
 5195SOL    HW216485   0.503   0.647   5.446
 5196SOL     OW16486   5.206   6.719   3.438
 5196SOL    HW116487   5.201   6.775   3.355
 5196SOL    HW216488   5.162   6.631   3.421
 5197SOL     OW16489   0.877   2.733   4.908
 5197SOL    HW116490   0.966   2.689   4.922
 5197SOL    HW216491   0.840   2.763   4.996
 5198SOL     OW16492   5.906   5.069   2.969
 5198SOL    HW116493   5.835   5.104   2.908
 5198SOL    HW216494   5.913   5.129   3.049
 5199SOL     OW16495   0.142   4.456   0.700
 5199SOL    HW116496   0.134   4.401   0.617
 5199SOL    HW216497   0.237   4.481   0.715
 5200SOL     OW16498   6.489   3.696   5.327
 5200SOL    HW116499   6.512   3.793   5.334
 5200SOL    HW216500   6.571   3.645   5.300
 5201SOL     OW16501   0.842   5.874   4.560
 5201SOL    HW116502   0.836   5.974   4.567
 5201SOL    HW216503   0.876   5.849   4.469
 5202SOL     OW16504   0.998   4.503   2.062
 5202SOL    HW116505   0.927   4.533   1.999
 5202SOL    HW216506   0.957   4.475   2.149
 5203SOL     OW16507   6.053   2.892   6.831
 5203SOL    HW116508   6.074   2.883   6.734
 5203SOL    HW216509   5.992   2.817   6.859
 5204SOL     OW16510   4.699   4.988   6.413
 5204SOL    HW116511   4.795   4.965   6.400
 5204SOL    HW216512   4.687   5.035   6.501
 5205SOL     OW16513   1.862   0.121   6.959
 5205SOL    HW116514   1.819   0.036   6.927
 5205SOL    HW216515   1.930   0.151   6.892
 5206SOL     OW16516   0.455   3.787   5.363
 5206SOL    HW116517   0.486   3.863   5.307
 5206SOL    HW216518   0.457   3.813   5.460
 5207SOL     OW16519   2.050   4.418   3.520
 5207SOL    HW116520   2.072   4.474   3.440
 5207SOL    HW216521   1.990   4.343   3.492
 5208SOL     OW16522   4.818   0.738   6.818
 5208SOL    HW116523   4.813   0.783   6.729
 5208SOL    HW216524   4.768   0.793   6.886
 5209SOL     OW16525   6.100   5.775   3.343
 5209SOL    HW116526   6.050   5.756   3.427
 5209SOL    HW216527   6.121   5.690   3.296
 5210SOL     OW16528   4.900   3.977   3.061
 5210SOL    HW116529   4.897   3.886   3.019
 5210SOL    HW216530   4.955   3.974   3.144
 5211SOL     OW16531   3.219   4.044   2.132
 5211SOL    HW116532   3.131   4.001   2.150
 5211SOL    HW216533   3.234   4.119   2.196
 5212SOL     OW16534   1.164   0.369   0.402
 5212SOL    HW116535   1.251   0.419   0.410
 5212SOL    HW216536   1.105   0.394   0.479
 5213SOL     OW16537   4.205   2.425   6.200
 5213SOL    HW116538   4.270   2.350   6.215
 5213SOL    HW216539   4.252   2.501   6.154
 5214SOL     OW16540   5.432   1.811   0.107
 5214SOL    HW116541   5.395   1.765   0.026
 5214SOL    HW216542   5.415   1.909   0.101
 5215SOL     OW16543   5.545   5.323   3.131
 5215SOL    HW116544   5.570   5.279   3.218
 5215SOL    HW216545   5.459   5.284   3.099
 5216SOL     OW16546   4.684   5.829   1.512
 5216SOL    HW116547   4.698   5.920   1.472
 5216SOL    HW216548   4.763   5.771   1.492
 5217SOL     OW16549   3.008   5.157   3.710
 5217SOL    HW116550   2.929   5.142   3.651
 5217SOL    HW216551   3.052   5.070   3.730
 5218SOL     OW16552   1.912   0.384   4.539
 5218SOL    HW116553   1.846   0.417   4.607
 5218SOL    HW216554   1.892   0.425   4.450
 5219SOL     OW16555   2.374   6.531   0.762
 5219SOL    HW116556   2.292   6.509   0.815
 5219SOL    HW216557   2.422   6.608   0.806
 5220SOL     OW16558   1.358   0.054   1.910
 5220SOL    HW116559   1.280   0.059   1.847
 5220SOL    HW216560   1.365   6.984   1.948
 5221SOL     OW16561   4.540   1.261   5.989
 5221SOL    HW116562   4.548   1.361   5.982
 5221SOL    HW216563   4.487   1.226   5.912
 5222SOL     OW16564   0.930   0.316   2.707
 5222SOL    HW116565   1.024   0.348   2.723
 5222SOL    HW216566   0.894   0.277   2.792
 5223SOL     OW16567   4.719   6.698   0.576
 5223SOL    HW116568   4.805   6.650   0.561
 5223SOL    HW216569   4.648   6.631   0.602
 5224SOL     OW16570   5.033   1.451   2.967
 5224SOL    HW116571   4.952   1.459   3.025
 5224SOL    HW216572   5.076   1.362   2.983
 5225SOL     OW16573   6.413   6.550   5.616
 5225SOL    HW116574   6.368   6.473   5.662
 5225SOL    HW216575   6.347   6.596   5.557
 5226SOL     OW16576   2.244   6.648   3.992
 5226SOL    HW116577   2.247   6.681   4.086
 5226SOL    HW216578   2.332   6.608   3.968
 5227SOL     OW16579   5.091   3.322   3.666
 5227SOL    HW116580   5.086   3.420   3.646
 5227SOL    HW216581   5.181   3.287   3.639
 5228SOL     OW16582   5.190   0.673   1.062
 5228SOL    HW116583   5.214   0.679   0.965
 5228SOL    HW216584   5.230   0.589   1.100
 5229SOL     OW16585   1.023   4.311   3.877
 5229SOL    HW116586   1.075   4.227   3.859
 5229SOL    HW216587   0.939   4.288   3.926
 5230SOL     OW16588   1.238   6.214   6.217
 5230SOL    HW116589   1.176   6.273   6.166
 5230SOL    HW216590   1.322   6.264   6.238
 5231SOL     OW16591   3.741   3.721   2.947
 5231SOL    HW116592   3.786   3.800   2.905
 5231SOL    HW216593   3.770   3.638   2.900
 5232SOL     OW16594   4.975   2.950   5.303
 5232SOL    HW116595   5.043   2.876   5.297
 5232SOL    HW216596   4.949   2.980   5.211
 5233SOL     OW16597   0.585   0.546   2.958
 5233SOL    HW116598   0.486   0.559   2.969
 5233SOL    HW216599   0.627   0.530   3.048
 5234SOL     OW16600   3.973   5.692   1.536
 5234SOL    HW116601   3.976   5.688   1.436
 5234SOL    HW216602   4.036   5.764   1.568
 5235SOL     OW16603   1.063   3.533   1.223
 5235SOL    HW116604   0.967   3.544   1.197
 5235SOL    HW216605   1.107   3.465   1.163
 5236SOL     OW16606   5.487   3.391   1.327
 5236SOL    HW116607   5.572   3.440   1.309
 5236SOL    HW216608   5.411   3.439   1.282
 5237SOL     OW16609   2.044   1.717   4.016
 5237SOL    HW116610   1.985   1.763   4.082
 5237SOL    HW216611   2.041   1.618   4.032
 5238SOL     OW16612   2.029   4.008   1.104
 5238SOL    HW116613   2.127   4.017   1.091
 5238SOL    HW216614   1.987   3.969   1.022
 5239SOL     OW16615   3.261   3.333   5.107
 5239SOL    HW116616   3.176   3.319   5.157
 5239SOL    HW216617   3.334   3.279   5.149
 5240SOL     OW16618   2.608   1.942   4.995
 5240SOL    HW116619   2.624   2.040   4.982
 5240SOL    HW216620   2.694   1.892   4.987
 5241SOL     OW16621   2.704   5.825   5.791
 5241SOL    HW116622   2.609   5.828   5.821
 5241SOL    HW216623   2.761   5.876   5.855
 5242SOL     OW16624   4.504   0.286   5.531
 5242SOL    HW116625   4.548   0.376   5.537
 5242SOL    HW216626   4.575   0.215   5.530
 5243SOL     OW16627   0.657   3.996   0.268
 5243SOL    HW116628   0.593   4.012   0.343
 5243SOL    HW216629   0.750   3.995   0.303
 5244SOL     OW16630   6.166   3.660   7.003
 5244SOL    HW116631   6.098   3.710   6.950
 5244SOL    HW216632   6.258   3.694   6.981
 5245SOL     OW16633   4.604   4.633   6.644
 5245SOL    HW116634   4.660   4.644   6.562
 5245SOL    HW216635   4.518   4.683   6.633
 5246SOL     OW16636   0.854   3.508   2.847
 5246SOL    HW116637   0.770   3.461   2.875
 5246SOL    HW216638   0.876   3.579   2.914
 5247SOL     OW16639   0.219   5.023   0.917
 5247SOL    HW116640   0.308   5.055   0.949
 5247SOL    HW216641   0.232   4.965   0.836
 5248SOL     OW16642   4.874   0.119   0.043
 5248SOL    HW116643   4.967   0.151   0.064
 5248SOL    HW216644   4.807   0.183   0.082
 5249SOL     OW16645   1.382   5.654   5.638
 5249SOL    HW116646   1.471   5.643   5.683
 5249SOL    HW216647   1.395   5.695   5.548
 5250SOL     OW16648   1.067   1.691   5.861
 5250SOL    HW116649   1.112   1.639   5.788
 5250SOL    HW216650   0.987   1.739   5.823
 5251SOL     OW16651   1.064   3.001   1.442
 5251SOL    HW116652   1.010   3.037   1.366
 5251SOL    HW216653   1.047   2.903   1.450
 5252SOL     OW16654   4.509   6.545   1.237
 5252SOL    HW116655   4.531   6.636   1.272
 5252SOL    HW216656   4.437   6.504   1.293
 5253SOL     OW16657   6.077   2.937   3.125
 5253SOL    HW116658   6.067   2.841   3.153
 5253SOL    HW216659   5.987   2.978   3.117
 5254SOL     OW16660   4.454   1.091   4.344
 5254SOL    HW116661   4.423   1.124   4.255
 5254SOL    HW216662   4.550   1.113   4.356
 5255SOL     OW16663   3.286   6.293   4.490
 5255SOL    HW116664   3.189   6.278   4.470
 5255SOL    HW216665   3.310   6.250   4.576
 5256SOL     OW16666   5.441   6.525   2.084
 5256SOL    HW116667   5.443   6.603   2.148
 5256SOL    HW216668   5.511   6.459   2.111
 5257SOL     OW16669   3.299   1.080   3.188
 5257SOL    HW116670   3.354   1.075   3.272
 5257SOL    HW216671   3.353   1.123   3.115
 5258SOL     OW16672   5.743   2.053   1.773
 5258SOL    HW116673   5.757   2.127   1.840
 5258SOL    HW216674   5.657   2.006   1.793
 5259SOL     OW16675   5.514   4.470   1.733
 5259SOL    HW116676   5.481   4.377   1.747
 5259SOL    HW216677   5.436   4.532   1.723
 5260SOL     OW16678   5.264   3.333   2.231
 5260SOL    HW116679   5.337   3.386   2.187
 5260SOL    HW216680   5.176   3.354   2.188
 5261SOL     OW16681   2.451   2.507   4.988
 5261SOL    HW116682   2.358   2.489   5.019
 5261SOL    HW216683   2.507   2.534   5.067
 5262SOL     OW16684   2.345   0.317   2.058
 5262SOL    HW116685   2.414   0.369   2.007
 5262SOL    HW216686   2.390   0.257   2.124
 5263SOL     OW16687   0.561   6.366   0.540
 5263SOL    HW116688   0.603   6.406   0.621
 5263SOL    HW216689   0.630   6.351   0.470
 5264SOL     OW16690   0.525   1.808   0.957
 5264SOL    HW116691   0.564   1.866   1.029
 5264SOL    HW216692   0.550   1.713   0.973
 5265SOL     OW16693   5.725   5.291   2.758
 5265SOL    HW116694   5.770   5.317   2.844
 5265SOL    HW216695   5.643   5.346   2.745
 5266SOL     OW16696   0.970   6.645   1.418
 5266SOL    HW116697   0.878   6.682   1.406
 5266SOL    HW216698   0.964   6.556   1.464
 5267SOL     OW16699   5.174   3.727   5.176
 5267SOL    HW116700   5.094   3.669   5.171
 5267SOL    HW216701   5.186   3.776   5.090
 5268SOL     OW16702   5.816   5.335   5.446
 5268SOL    HW116703   5.731   5.299   5.484
 5268SOL    HW216704   5.795   5.409   5.381
 5269SOL     OW16705   1.414   4.437   5.530
 5269SOL    HW116706   1.429   4.350   5.484
 5269SOL    HW216707   1.483   4.449   5.601
 5270SOL     OW16708   6.553   2.770   2.751
 5270SOL    HW116709   6.553   2.727   2.661
 5270SOL    HW216710   6.515   2.862   2.744
 5271SOL     OW16711   5.263   4.472   5.303
 5271SOL    HW116712   5.176   4.458   5.256
 5271SOL    HW216713   5.319   4.390   5.294
 5272SOL     OW16714   1.688   1.020   4.176
 5272SOL    HW116715   1.600   1.068   4.170
 5272SOL    HW216716   1.744   1.041   4.096
 5273SOL     OW16717   0.605   0.689   4.853
 5273SOL    HW116718   0.639   0.611   4.800
 5273SOL    HW216719   0.672   0.764   4.848
 5274SOL     OW16720   6.991   5.555   4.652
 5274SOL    HW116721   6.983   5.471   4.706
 5274SOL    HW216722   0.046   5.608   4.683
 5275SOL     OW16723   1.700   6.148   6.863
 5275SOL    HW116724   1.632   6.216   6.889
 5275SOL    HW216725   1.655   6.069   6.823
 5276SOL     OW16726   0.208   0.168   0.858
 5276SOL    HW116727   0.302   0.199   0.870
 5276SOL    HW216728   0.205   0.068   0.868
 5277SOL     OW16729   1.278   1.448   2.418
 5277SOL    HW116730   1.374   1.442   2.446
 5277SOL    HW216731   1.243   1.539   2.441
 5278SOL     OW16732   0.559   4.080   6.153
 5278SOL    HW116733   0.597   4.133   6.229
 5278SOL    HW216734   0.582   3.983   6.166
 5279SOL     OW16735   2.018   6.579   6.395
 5279SOL    HW116736   2.024   6.517   6.474
 5279SOL    HW216737   1.990   6.527   6.314
 5280SOL     OW16738   4.854   6.581   5.159
 5280SOL    HW116739   4.894   6.666   5.124
 5280SOL    HW216740   4.812   6.530   5.083
 5281SOL     OW16741   2.624   6.985   5.436
 5281SOL    HW116742   2.661   0.022   5.365
 5281SOL    HW216743   2.691   6.913   5.456
 5282SOL     OW16744   0.929   6.516   1.105
 5282SOL    HW116745   0.949   6.457   1.183
 5282SOL    HW216746   0.973   6.605   1.118
 5283SOL     OW16747   0.971   0.827   3.694
 5283SOL    HW116748   0.913   0.880   3.633
 5283SOL    HW216749   0.972   0.731   3.665
 5284SOL     OW16750   4.835   2.912   1.466
 5284SOL    HW116751   4.806   2.955   1.552
 5284SOL    HW216752   4.758   2.913   1.402
 5285SOL     OW16753   1.118   2.130   3.926
 5285SOL    HW116754   1.024   2.143   3.896
 5285SOL    HW216755   1.180   2.182   3.867
 5286SOL     OW16756   6.303   3.214   1.554
 5286SOL    HW116757   6.355   3.134   1.525
 5286SOL    HW216758   6.315   3.287   1.487
 5287SOL     OW16759   1.898   4.978   0.909
 5287SOL    HW116760   1.928   4.987   1.003
 5287SOL    HW216761   1.871   4.883   0.891
 5288SOL     OW16762   4.223   0.629   1.478
 5288SOL    HW116763   4.138   0.678   1.498
 5288SOL    HW216764   4.201   0.533   1.460
 5289SOL     OW16765   2.242   4.639   6.144
 5289SOL    HW116766   2.320   4.683   6.188
 5289SOL    HW216767   2.219   4.688   6.059
 5290SOL     OW16768   1.903   3.587   4.611
 5290SOL    HW116769   1.933   3.595   4.707
 5290SOL    HW216770   1.803   3.594   4.608
 5291SOL     OW16771   3.171   4.927   4.688
 5291SOL    HW116772   3.121   4.877   4.758
 5291SOL    HW216773   3.171   4.874   4.603
 5292SOL     OW16774   0.244   3.526   5.472
 5292SOL    HW116775   0.212   3.621   5.468
 5292SOL    HW216776   0.344   3.526   5.472
 5293SOL     OW16777   2.120   0.302   4.738
 5293SOL    HW116778   2.079   0.267   4.823
 5293SOL    HW216779   2.048   0.312   4.669
 5294SOL     OW16780   4.265   0.199   5.028
 5294SOL    HW116781   4.252   0.287   5.073
 5294SOL    HW216782   4.198   0.189   4.954
 5295SOL     OW16783   2.979   1.179   2.551
 5295SOL    HW116784   3.046   1.105   2.540
 5295SOL    HW216785   2.908   1.169   2.481
 5296SOL     OW16786   4.426   4.678   1.579
 5296SOL    HW116787   4.512   4.728   1.568
 5296SOL    HW216788   4.444   4.580   1.575
 5297SOL     OW16789   2.922   5.564   6.605
 5297SOL    HW116790   2.856   5.584   6.533
 5297SOL    HW216791   2.896   5.611   6.689
 5298SOL     OW16792   1.939   0.702   0.585
 5298SOL    HW116793   1.956   0.792   0.546
 5298SOL    HW216794   1.857   0.662   0.544
 5299SOL     OW16795   2.715   1.388   1.698
 5299SOL    HW116796   2.627   1.368   1.655
 5299SOL    HW216797   2.699   1.445   1.779
 5300SOL     OW16798   3.343   4.764   6.584
 5300SOL    HW116799   3.394   4.808   6.658
 5300SOL    HW216800   3.369   4.668   6.578
 5301SOL     OW16801   5.882   6.867   6.325
 5301SOL    HW116802   5.830   6.888   6.242
 5301SOL    HW216803   5.855   6.777   6.359
 5302SOL     OW16804   5.698   5.974   2.843
 5302SOL    HW116805   5.611   5.974   2.795
 5302SOL    HW216806   5.769   6.012   2.783
 5303SOL     OW16807   1.042   5.448   5.793
 5303SOL    HW116808   0.974   5.491   5.733
 5303SOL    HW216809   1.124   5.505   5.795
 5304SOL     OW16810   6.962   0.677   2.580
 5304SOL    HW116811   6.935   0.754   2.637
 5304SOL    HW216812   6.883   0.617   2.566
 5305SOL     OW16813   0.288   5.013   3.534
 5305SOL    HW116814   0.205   5.066   3.518
 5305SOL    HW216815   0.325   4.982   3.446
 5306SOL     OW16816   0.121   3.244   5.813
 5306SOL    HW116817   0.080   3.286   5.894
 5306SOL    HW216818   0.049   3.203   5.757
 5307SOL     OW16819   6.402   1.276   1.293
 5307SOL    HW116820   6.308   1.292   1.323
 5307SOL    HW216821   6.458   1.356   1.316
 5308SOL     OW16822   1.670   4.285   3.445
 5308SOL    HW116823   1.586   4.232   3.430
 5308SOL    HW216824   1.749   4.226   3.431
 5309SOL     OW16825   6.043   5.401   2.855
 5309SOL    HW116826   6.022   5.454   2.772
 5309SOL    HW216827   5.967   5.409   2.920
 5310SOL     OW16828   5.336   2.279   2.784
 5310SOL    HW116829   5.416   2.256   2.840
 5310SOL    HW216830   5.309   2.374   2.803
 5311SOL     OW16831   5.710   0.406   0.708
 5311SOL    HW116832   5.791   0.356   0.737
 5311SOL    HW216833   5.656   0.349   0.647
 5312SOL     OW16834   0.022   6.591   0.077
 5312SOL    HW116835   6.957   6.571   0.122
 5312SOL    HW216836   0.034   6.690   0.070
 5313SOL     OW16837   1.021   6.124   5.932
 5313SOL    HW116838   0.923   6.117   5.951
 5313SOL    HW216839   1.053   6.216   5.954
 5314SOL     OW16840   5.850   0.883   1.926
 5314SOL    HW116841   5.828   0.927   2.013
 5314SOL    HW216842   5.861   0.785   1.939
 5315SOL     OW16843   4.628   1.440   4.423
 5315SOL    HW116844   4.577   1.486   4.349
 5315SOL    HW216845   4.630   1.342   4.406
 5316SOL     OW16846   0.842   2.245   4.617
 5316SOL    HW116847   0.787   2.182   4.561
 5316SOL    HW216848   0.917   2.282   4.562
 5317SOL     OW16849   5.903   2.743   0.006
 5317SOL    HW116850   5.897   2.842   0.019
 5317SOL    HW216851   5.853   2.696   0.079
 5318SOL     OW16852   6.631   4.017   6.520
 5318SOL    HW116853   6.599   3.982   6.608
 5318SOL    HW216854   6.568   3.989   6.448
 5319SOL     OW16855   4.128   6.804   1.536
 5319SOL    HW116856   4.143   6.712   1.498
 5319SOL    HW216857   4.152   6.804   1.633
 5320SOL     OW16858   3.862   5.639   0.892
 5320SOL    HW116859   3.835   5.548   0.923
 5320SOL    HW216860   3.810   5.708   0.942
 5321SOL     OW16861   1.458   4.478   5.180
 5321SOL    HW116862   1.366   4.493   5.216
 5321SOL    HW216863   1.493   4.391   5.214
 5322SOL     OW16864   5.487   6.450   1.809
 5322SOL    HW116865   5.507   6.475   1.903
 5322SOL    HW216866   5.428   6.521   1.768
 5323SOL     OW16867   4.426   0.705   5.697
 5323SOL    HW116868   4.397   0.630   5.758
 5323SOL    HW216869   4.507   0.677   5.646
 5324SOL     OW16870   2.104   1.539   1.080
 5324SOL    HW116871   2.067   1.565   0.991
 5324SOL    HW216872   2.163   1.459   1.070
 5325SOL     OW16873   1.905   1.893   5.138
 5325SOL    HW116874   1.850   1.867   5.059
 5325SOL    HW216875   1.977   1.957   5.109
 5326SOL     OW16876   6.312   6.350   2.283
 5326SOL    HW116877   6.395   6.383   2.329
 5326SOL    HW216878   6.311   6.382   2.189
 5327SOL     OW16879   6.638   2.860   5.416
 5327SOL    HW116880   6.583   2.944   5.407
 5327SOL    HW216881   6.696   2.851   5.335
 5328SOL     OW16882   4.397   5.605   6.927
 5328SOL    HW116883   4.351   5.541   6.988
 5328SOL    HW216884   4.493   5.576   6.915
 5329SOL     OW16885   1.338   6.653   6.264
 5329SOL    HW116886   1.355   6.645   6.362
 5329SOL    HW216887   1.387   6.579   6.216
 5330SOL     OW16888   2.432   4.326   1.185
 5330SOL    HW116889   2.468   4.408   1.232
 5330SOL    HW216890   2.476   4.245   1.223
 5331SOL     OW16891   6.199   0.721   6.679
 5331SOL    HW116892   6.167   0.745   6.771
 5331SOL    HW216893   6.283   0.771   6.658
 5332SOL     OW16894   0.770   4.975   1.941
 5332SOL    HW116895   0.807   4.929   1.860
 5332SOL    HW216896   0.839   4.974   2.014
 5333SOL     OW16897   0.860   6.209   4.281
 5333SOL    HW116898   0.884   6.252   4.194
 5333SOL    HW216899   0.905   6.121   4.288
 5334SOL     OW16900   2.755   0.337   4.602
 5334SOL    HW116901   2.688   0.336   4.677
 5334SOL    HW216902   2.847   0.328   4.639
 5335SOL     OW16903   6.797   5.737   0.087
 5335SOL    HW116904   6.797   5.658   0.149
 5335SOL    HW216905   6.736   5.807   0.123
 5336SOL     OW16906   1.209   4.107   1.830
 5336SOL    HW116907   1.148   4.180   1.863
 5336SOL    HW216908   1.204   4.102   1.730
 5337SOL     OW16909   5.157   4.241   1.231
 5337SOL    HW116910   5.122   4.259   1.139
 5337SOL    HW216911   5.253   4.216   1.226
 5338SOL     OW16912   6.643   2.051   6.694
 5338SOL    HW116913   6.635   1.971   6.634
 5338SOL    HW216914   6.624   2.134   6.643
 5339SOL     OW16915   6.011   0.823   2.978
 5339SOL    HW116916   6.070   0.742   2.977
 5339SOL    HW216917   5.922   0.800   2.939
 5340SOL     OW16918   5.218   2.240   6.155
 5340SOL    HW116919   5.123   2.268   6.165
 5340SOL    HW216920   5.274   2.319   6.129
 5341SOL     OW16921   4.190   0.143   0.274
 5341SOL    HW116922   4.251   0.066   0.253
 5341SOL    HW216923   4.245   0.221   0.305
 5342SOL     OW16924   3.172   0.532   5.807
 5342SOL    HW116925   3.254   0.589   5.815
 5342SOL    HW216926   3.119   0.561   5.727
 5343SOL     OW16927   3.357   3.717   2.070
 5343SOL    HW116928   3.284   3.750   2.010
 5343SOL    HW216929   3.445   3.752   2.038
 5344SOL     OW16930   2.591   1.962   3.175
 5344SOL    HW116931   2.649   2.002   3.245
 5344SOL    HW216932   2.563   2.033   3.110
 5345SOL     OW16933   4.311   6.817   1.771
 5345SOL    HW116934   4.301   6.745   1.840
 5345SOL    HW216935   4.278   6.904   1.808
 5346SOL     OW16936   2.145   6.407   3.007
 5346SOL    HW116937   2.242   6.384   3.004
 5346SOL    HW216938   2.097   6.343   3.067
 5347SOL     OW16939   0.025   2.036   1.888
 5347SOL    HW116940   0.069   1.949   1.912
 5347SOL    HW216941   6.952   2.019   1.862
 5348SOL     OW16942   6.834   1.091   0.720
 5348SOL    HW116943   6.900   1.164   0.701
 5348SOL    HW216944   6.827   1.077   0.819
 5349SOL     OW16945   6.249   0.799   1.899
 5349SOL    HW116946   6.330   0.774   1.846
 5349SOL    HW216947   6.235   0.898   1.894
 5350SOL     OW16948   2.322   0.940   6.772
 5350SOL    HW116949   2.228   0.930   6.739
 5350SOL    HW216950   2.329   1.025   6.825
 5351SOL     OW16951   4.667   0.845   2.160
 5351SOL    HW116952   4.707   0.755   2.179
 5351SOL    HW216953   4.592   0.862   2.224
 5352SOL     OW16954   3.394   6.076   3.674
 5352SOL    HW116955   3.385   6.022   3.758
 5352SOL    HW216956   3.362   6.022   3.596
 5353SOL     OW16957   6.026   6.983   5.513
 5353SOL    HW116958   6.114   6.988   5.561
 5353SOL    HW216959   5.997   0.053   5.487
 5354SOL     OW16960   0.643   4.144   0.895
 5354SOL    HW116961   0.546   4.121   0.909
 5354SOL    HW216962   0.660   4.162   0.799
 5355SOL     OW16963   4.336   1.960   5.378
 5355SOL    HW116964   4.426   1.980   5.339
 5355SOL    HW216965   4.329   1.861   5.395
 5356SOL     OW16966   6.293   3.677   1.290
 5356SOL    HW116967   6.274   3.750   1.224
 5356SOL    HW216968   6.381   3.635   1.269
 5357SOL     OW16969   3.368   6.589   0.451
 5357SOL    HW116970   3.438   6.656   0.476
 5357SOL    HW216971   3.324   6.617   0.365
 5358SOL     OW16972   4.364   2.995   1.017
 5358SOL    HW116973   4.307   3.013   0.937
 5358SOL    HW216974   4.388   3.081   1.061
 5359SOL     OW16975   2.208   0.388   6.550
 5359SOL    HW116976   2.215   0.381   6.451
 5359SOL    HW216977   2.281   0.448   6.584
 5360SOL     OW16978   3.758   0.245   6.844
 5360SOL    HW116979   3.811   0.324   6.876
 5360SOL    HW216980   3.818   0.184   6.791
 5361SOL     OW16981   1.735   0.522   5.770
 5361SOL    HW116982   1.810   0.507   5.835
 5361SOL    HW216983   1.669   0.585   5.810
 5362SOL     OW16984   4.294   6.054   3.332
 5362SOL    HW116985   4.342   5.967   3.343
 5362SOL    HW216986   4.317   6.115   3.408
 5363SOL     OW16987   0.560   5.302   6.116
 5363SOL    HW116988   0.643   5.355   6.100
 5363SOL    HW216989   0.581   5.204   6.108
 5364SOL     OW16990   0.702   5.999   0.264
 5364SOL    HW116991   0.798   5.973   0.267
 5364SOL    HW216992   0.660   5.964   0.181
 5365SOL     OW16993   3.736   1.990   6.557
 5365SOL    HW116994   3.776   2.065   6.504
 5365SOL    HW216995   3.730   1.908   6.500
 5366SOL     OW16996   4.119   3.925   6.774
 5366SOL    HW116997   4.160   3.839   6.744
 5366SOL    HW216998   4.037   3.906   6.829
 5367SOL     OW16999   0.443   4.589   0.775
 5367SOL    HW117000   0.518   4.589   0.709
 5367SOL    HW217001   0.474   4.545   0.860
 5368SOL     OW17002   6.290   1.443   3.756
 5368SOL    HW117003   6.269   1.346   3.767
 5368SOL    HW217004   6.350   1.473   3.829
 5369SOL     OW17005   1.528   3.896   2.349
 5369SOL    HW117006   1.444   3.876   2.299
 5369SOL    HW217007   1.584   3.959   2.295
 5370SOL     OW17008   4.143   2.906   1.452
 5370SOL    HW117009   4.153   2.937   1.546
 5370SOL    HW217010   4.046   2.891   1.431
 5371SOL     OW17011   1.099   3.967   5.465
 5371SOL    HW117012   1.034   3.944   5.538
 5371SOL    HW217013   1.138   3.883   5.427
 5372SOL     OW17014   2.336   5.201   3.046
 5372SOL    HW117015   2.342   5.233   2.951
 5372SOL    HW217016   2.390   5.117   3.057
 5373SOL     OW17017   2.414   5.171   3.555
 5373SOL    HW117018   2.412   5.073   3.577
 5373SOL    HW217019   2.491   5.189   3.494
 5374SOL     OW17020   3.282   2.073   0.779
 5374SOL    HW117021   3.244   2.165   0.768
 5374SOL    HW217022   3.210   2.005   0.765
 5375SOL     OW17023   1.581   4.538   4.156
 5375SOL    HW117024   1.575   4.531   4.057
 5375SOL    HW217025   1.621   4.454   4.193
 5376SOL     OW17026   2.427   4.242   0.516
 5376SOL    HW117027   2.457   4.154   0.551
 5376SOL    HW217028   2.419   4.307   0.591
 5377SOL     OW17029   0.773   1.670   1.216
 5377SOL    HW117030   0.768   1.759   1.261
 5377SOL    HW217031   0.868   1.647   1.196
 5378SOL     OW17032   4.883   0.032   0.330
 5378SOL    HW117033   4.900   0.130   0.346
 5378SOL    HW217034   4.816   7.022   0.397
 5379SOL     OW17035   0.023   6.511   1.735
 5379SOL    HW117036   0.118   6.534   1.715
 5379SOL    HW217037   6.998   6.593   1.768
 5380SOL     OW17038   2.540   0.169   4.194
 5380SOL    HW117039   2.544   0.206   4.101
 5380SOL    HW217040   2.460   0.206   4.241
 5381SOL     OW17041   5.732   3.962   1.480
 5381SOL    HW117042   5.832   3.964   1.491
 5381SOL    HW217043   5.706   4.022   1.404
 5382SOL     OW17044   1.224   0.111   1.611
 5382SOL    HW117045   1.244   0.191   1.668
 5382SOL    HW217046   1.239   0.028   1.665
 5383SOL     OW17047   2.460   2.321   5.278
 5383SOL    HW117048   2.371   2.317   5.234
 5383SOL    HW217049   2.486   2.229   5.310
 5384SOL     OW17050   5.888   6.798   4.026
 5384SOL    HW117051   5.814   6.773   3.964
 5384SOL    HW217052   5.915   6.893   4.010
 5385SOL     OW17053   2.975   3.917   2.211
 5385SOL    HW117054   2.905   3.988   2.207
 5385SOL    HW217055   2.975   3.876   2.302
 5386SOL     OW17056   5.080   0.006   5.356
 5386SOL    HW117057   5.152   6.959   5.354
 5386SOL    HW217058   5.023   7.020   5.274
 5387SOL     OW17059   2.661   5.589   1.749
 5387SOL    HW117060   2.655   5.605   1.848
 5387SOL    HW217061   2.662   5.677   1.701
 5388SOL     OW17062   5.784   6.686   2.673
 5388SOL    HW117063   5.708   6.627   2.701
 5388SOL    HW217064   5.765   6.780   2.701
 5389SOL     OW17065   5.058   2.055   1.455
 5389SOL    HW117066   4.978   2.085   1.403
 5389SOL    HW217067   5.141   2.066   1.399
 5390SOL     OW17068   5.906   4.787   6.046
 5390SOL    HW117069   5.929   4.694   6.073
 5390SOL    HW217070   5.898   4.845   6.127
 5391SOL     OW17071   2.698   3.195   6.816
 5391SOL    HW117072   2.752   3.267   6.772
 5391SOL    HW217073   2.669   3.224   6.907
 5392SOL     OW17074   6.040   3.052   2.512
 5392SOL    HW117075   6.051   3.138   2.463
 5392SOL    HW217076   6.110   2.987   2.482
 5393SOL     OW17077   5.966   6.583   6.840
 5393SOL    HW117078   5.879   6.565   6.795
 5393SOL    HW217079   6.011   6.661   6.796
 5394SOL     OW17080   0.922   4.286   5.888
 5394SOL    HW117081   0.973   4.238   5.818
 5394SOL    HW217082   0.877   4.366   5.848
 5395SOL     OW17083   4.491   1.253   0.181
 5395SOL    HW117084   4.505   1.300   0.268
 5395SOL    HW217085   4.579   1.243   0.135
 5396SOL     OW17086   5.263   3.064   2.256
 5396SOL    HW117087   5.282   3.162   2.246
 5396SOL    HW217088   5.267   3.039   2.353
 5397SOL     OW17089   0.156   2.855   1.443
 5397SOL    HW117090   0.111   2.828   1.528
 5397SOL    HW217091   0.190   2.949   1.451
 5398SOL     OW17092   3.870   2.929   1.799
 5398SOL    HW117093   3.855   2.967   1.708
 5398SOL    HW217094   3.952   2.970   1.840
 5399SOL     OW17095   1.040   5.701   0.558
 5399SOL    HW117096   0.950   5.695   0.515
 5399SOL    HW217097   1.030   5.736   0.651
 5400SOL     OW17098   2.931   4.572   6.822
 5400SOL    HW117099   2.928   4.667   6.792
 5400SOL    HW217100   2.991   4.519   6.762
 5401SOL     OW17101   6.582   2.940   1.705
 5401SOL    HW117102   6.619   3.033   1.704
 5401SOL    HW217103   6.506   2.936   1.770
 5402SOL     OW17104   1.316   6.389   2.500
 5402SOL    HW117105   1.391   6.426   2.444
 5402SOL    HW217106   1.232   6.388   2.447
 5403SOL     OW17107   6.464   3.173   6.654
 5403SOL    HW117108   6.380   3.208   6.693
 5403SOL    HW217109   6.449   3.151   6.557
 5404SOL     OW17110   1.717   3.111   2.730
 5404SOL    HW117111   1.742   3.191   2.784
 5404SOL    HW217112   1.701   3.033   2.791
 5405SOL     OW17113   6.688   4.534   6.090
 5405SOL    HW117114   6.638   4.455   6.052
 5405SOL    HW217115   6.630   4.615   6.085
 5406SOL     OW17116   1.847   0.139   5.157
 5406SOL    HW117117   1.829   0.237   5.161
 5406SOL    HW217118   1.864   0.112   5.062
 5407SOL     OW17119   3.844   3.399   0.094
 5407SOL    HW117120   3.783   3.443   0.160
 5407SOL    HW217121   3.806   3.311   0.067
 5408SOL     OW17122   2.896   0.861   6.941
 5408SOL    HW117123   2.839   0.935   6.906
 5408SOL    HW217124   2.983   0.860   6.892
 5409SOL     OW17125   4.136   0.827   2.657
 5409SOL    HW117126   4.038   0.828   2.634
 5409SOL    HW217127   4.147   0.796   2.752
 5410SOL     OW17128   2.225   2.349   2.386
 5410SOL    HW117129   2.288   2.366   2.461
 5410SOL    HW217130   2.211   2.433   2.334
 5411SOL     OW17131   0.521   5.017   5.015
 5411SOL    HW117132   0.598   4.982   5.068
 5411SOL    HW217133   0.551   5.091   4.955
 5412SOL     OW17134   6.134   2.939   1.413
 5412SOL    HW117135   6.100   2.961   1.505
 5412SOL    HW217136   6.234   2.935   1.414
 5413SOL     OW17137   2.437   0.100   1.543
 5413SOL    HW117138   2.455   0.174   1.608
 5413SOL    HW217139   2.520   0.045   1.532
 5414SOL     OW17140   4.245   1.026   5.895
 5414SOL    HW117141   4.294   1.039   5.981
 5414SOL    HW217142   4.212   0.932   5.890
 5415SOL     OW17143   5.678   4.950   2.311
 5415SOL    HW117144   5.698   4.887   2.237
 5415SOL    HW217145   5.678   4.902   2.398
 5416SOL     OW17146   4.702   5.617   4.244
 5416SOL    HW117147   4.675   5.687   4.178
 5416SOL    HW217148   4.735   5.660   4.328
 5417SOL     OW17149   3.552   0.300   5.474
 5417SOL    HW117150   3.458   0.302   5.509
 5417SOL    HW217151   3.562   0.223   5.412
 5418SOL     OW17152   3.320   0.098   2.859
 5418SOL    HW117153   3.244   0.130   2.916
 5418SOL    HW217154   3.303   0.005   2.829
 5419SOL     OW17155   3.178   3.965   6.333
 5419SOL    HW117156   3.215   4.058   6.328
 5419SOL    HW217157   3.219   3.918   6.411
 5420SOL     OW17158   1.378   1.627   2.742
 5420SOL    HW117159   1.447   1.659   2.807
 5420SOL    HW217160   1.423   1.589   2.661
 5421SOL     OW17161   1.390   3.424   1.488
 5421SOL    HW117162   1.431   3.501   1.538
 5421SOL    HW217163   1.405   3.436   1.390
 5422SOL     OW17164   2.202   4.032   0.819
 5422SOL    HW117165   2.113   4.078   0.807
 5422SOL    HW217166   2.244   4.063   0.904
 5423SOL     OW17167   6.026   3.853   6.375
 5423SOL    HW117168   5.962   3.856   6.452
 5423SOL    HW217169   6.119   3.865   6.409
 5424SOL     OW17170   5.640   3.883   5.185
 5424SOL    HW117171   5.717   3.844   5.135
 5424SOL    HW217172   5.612   3.822   5.259
 5425SOL     OW17173   5.207   0.479   4.661
 5425SOL    HW117174   5.119   0.504   4.703
 5425SOL    HW217175   5.203   0.384   4.629
 5426SOL     OW17176   6.748   0.135   5.652
 5426SOL    HW117177   6.665   0.191   5.663
 5426SOL    HW217178   6.733   0.067   5.580
 5427SOL     OW17179   4.356   6.373   6.766
 5427SOL    HW117180   4.309   6.427   6.836
 5427SOL    HW217181   4.341   6.413   6.676
 5428SOL     OW17182   1.085   0.565   6.750
 5428SOL    HW117183   1.182   0.585   6.760
 5428SOL    HW217184   1.046   0.543   6.840
 5429SOL     OW17185   1.563   2.701   6.972
 5429SOL    HW117186   1.604   2.623   6.924
 5429SOL    HW217187   1.493   2.668   0.013
 5430SOL     OW17188   2.478   2.387   5.965
 5430SOL    HW117189   2.489   2.290   5.989
 5430SOL    HW217190   2.381   2.408   5.955
 5431SOL     OW17191   3.880   5.904   4.509
 5431SOL    HW117192   3.895   5.938   4.602
 5431SOL    HW217193   3.792   5.858   4.505
 5432SOL     OW17194   5.507   6.310   1.052
 5432SOL    HW117195   5.425   6.319   0.994
 5432SOL    HW217196   5.580   6.266   1.000
 5433SOL     OW17197   0.252   1.665   4.267
 5433SOL    HW117198   0.164   1.712   4.255
 5433SOL    HW217199   0.285   1.634   4.178
 5434SOL     OW17200   3.160   0.097   5.820
 5434SOL    HW117201   3.214   0.019   5.853
 5434SOL    HW217202   3.114   0.140   5.897
 5435SOL     OW17203   4.215   1.171   1.833
 5435SOL    HW117204   4.292   1.234   1.821
 5435SOL    HW217205   4.217   1.102   1.761
 5436SOL     OW17206   5.563   4.087   2.552
 5436SOL    HW117207   5.500   4.164   2.549
 5436SOL    HW217208   5.605   4.075   2.461
 5437SOL     OW17209   3.284   3.589   6.346
 5437SOL    HW117210   3.325   3.513   6.396
 5437SOL    HW217211   3.262   3.561   6.253
 5438SOL     OW17212   6.478   1.534   1.354
 5438SOL    HW117213   6.461   1.535   1.452
 5438SOL    HW217214   6.405   1.583   1.307
 5439SOL     OW17215   1.225   2.296   1.543
 5439SOL    HW117216   1.281   2.237   1.485
 5439SOL    HW217217   1.280   2.332   1.618
 5440SOL     OW17218   1.633   2.083   0.911
 5440SOL    HW117219   1.544   2.039   0.921
 5440SOL    HW217220   1.704   2.014   0.900
 5441SOL     OW17221   3.970   1.712   4.006
 5441SOL    HW117222   4.058   1.704   3.960
 5441SOL    HW217223   3.905   1.649   3.965
 5442SOL     OW17224   3.838   0.444   2.687
 5442SOL    HW117225   3.891   0.416   2.607
 5442SOL    HW217226   3.741   0.447   2.664
 5443SOL     OW17227   3.343   6.579   5.029
 5443SOL    HW117228   3.430   6.558   4.985
 5443SOL    HW217229   3.334   6.678   5.040
 5444SOL     OW17230   0.100   6.759   3.423
 5444SOL    HW117231   0.069   6.665   3.436
 5444SOL    HW217232   0.139   6.769   3.332
 5445SOL     OW17233   5.441   3.762   2.537
 5445SOL    HW117234   5.456   3.857   2.564
 5445SOL    HW217235   5.344   3.747   2.518
 5446SOL     OW17236   6.603   5.628   5.691
 5446SOL    HW117237   6.513   5.672   5.700
 5446SOL    HW217238   6.665   5.690   5.642
 5447SOL     OW17239   3.483   1.680   0.500
 5447SOL    HW117240   3.505   1.731   0.583
 5447SOL    HW217241   3.385   1.666   0.494
 5448SOL     OW17242   5.800   2.269   5.724
 5448SOL    HW117243   5.721   2.319   5.758
 5448SOL    HW217244   5.884   2.311   5.759
 5449SOL     OW17245   0.453   3.728   6.609
 5449SOL    HW117246   0.532   3.683   6.568
 5449SOL    HW217247   0.439   3.817   6.565
 5450SOL     OW17248   1.921   6.968   0.680
 5450SOL    HW117249   1.876   6.892   0.633
 5450SOL    HW217250   1.977   6.931   0.754
 5451SOL     OW17251   1.334   0.096   2.225
 5451SOL    HW117252   1.255   0.140   2.268
 5451SOL    HW217253   1.414   0.108   2.283
 5452SOL     OW17254   3.026   3.962   5.738
 5452SOL    HW117255   2.931   3.952   5.770
 5452SOL    HW217256   3.057   3.875   5.699
 5453SOL     OW17257   6.208   5.083   6.763
 5453SOL    HW117258   6.204   4.985   6.744
 5453SOL    HW217259   6.130   5.129   6.722
 5454SOL     OW17260   0.425   4.446   6.391
 5454SOL    HW117261   0.428   4.544   6.413
 5454SOL    HW217262   0.332   4.420   6.366
 5455SOL     OW17263   6.698   3.117   1.411
 5455SOL    HW117264   6.697   3.126   1.511
 5455SOL    HW217265   6.751   3.037   1.385
 5456SOL     OW17266   3.624   6.620   1.115
 5456SOL    HW117267   3.638   6.719   1.119
 5456SOL    HW217268   3.580   6.588   1.199
 5457SOL     OW17269   5.930   3.743   0.423
 5457SOL    HW117270   6.019   3.739   0.468
 5457SOL    HW217271   5.923   3.670   0.356
 5458SOL     OW17272   2.463   4.199   6.643
 5458SOL    HW117273   2.528   4.236   6.710
 5458SOL    HW217274   2.509   4.129   6.588
 5459SOL     OW17275   2.179   4.769   5.860
 5459SOL    HW117276   2.208   4.857   5.896
 5459SOL    HW217277   2.238   4.743   5.784
 5460SOL     OW17278   3.632   0.731   1.352
 5460SOL    HW117279   3.537   0.708   1.373
 5460SOL    HW217280   3.693   0.680   1.413
 5461SOL     OW17281   4.438   6.809   5.290
 5461SOL    HW117282   4.529   6.801   5.251
 5461SOL    HW217283   4.416   6.906   5.304
 5462SOL     OW17284   0.976   0.405   1.375
 5462SOL    HW117285   1.048   0.356   1.327
 5462SOL    HW217286   0.908   0.438   1.310
 5463SOL     OW17287   0.170   2.845   0.459
 5463SOL    HW117288   0.136   2.879   0.547
 5463SOL    HW217289   0.115   2.883   0.385
 5464SOL     OW17290   2.258   6.759   4.243
 5464SOL    HW117291   2.223   6.843   4.286
 5464SOL    HW217292   2.316   6.710   4.308
 5465SOL     OW17293   2.612   6.757   5.925
 5465SOL    HW117294   2.705   6.793   5.931
 5465SOL    HW217295   2.614   6.657   5.929
 5466SOL     OW17296   4.818   4.471   4.809
 5466SOL    HW117297   4.781   4.477   4.717
 5466SOL    HW217298   4.917   4.459   4.805
 5467SOL     OW17299   6.146   2.241   2.009
 5467SOL    HW117300   6.179   2.310   1.945
 5467SOL    HW217301   6.146   2.152   1.963
 5468SOL     OW17302   4.342   1.519   5.514
 5468SOL    HW117303   4.415   1.492   5.576
 5468SOL    HW217304   4.313   1.613   5.535
 5469SOL     OW17305   4.325   4.907   6.621
 5469SOL    HW117306   4.268   4.839   6.576
 5469SOL    HW217307   4.372   4.865   6.699
 5470SOL     OW17308   1.294   5.651   3.280
 5470SOL    HW117309   1.232   5.723   3.312
 5470SOL    HW217310   1.388   5.683   3.287
 5471SOL     OW17311   6.376   4.888   2.123
 5471SOL    HW117312   6.427   4.953   2.067
 5471SOL    HW217313   6.378   4.918   2.218
 5472SOL     OW17314   3.970   5.033   5.520
 5472SOL    HW117315   4.007   5.106   5.462
 5472SOL    HW217316   3.899   4.983   5.469
 5473SOL     OW17317   1.552   3.506   3.391
 5473SOL    HW117318   1.485   3.455   3.337
 5473SOL    HW217319   1.506   3.581   3.439
 5474SOL     OW17320   2.219   6.080   3.542
 5474SOL    HW117321   2.240   6.146   3.470
 5474SOL    HW217322   2.298   6.068   3.601
 5475SOL     OW17323   3.222   2.441   1.434
 5475SOL    HW117324   3.250   2.466   1.526
 5475SOL    HW217325   3.216   2.341   1.427
 5476SOL     OW17326   0.944   3.484   6.088
 5476SOL    HW117327   0.962   3.566   6.142
 5476SOL    HW217328   0.852   3.489   6.050
 5477SOL     OW17329   2.228   2.941   2.294
 5477SOL    HW117330   2.307   2.965   2.238
 5477SOL    HW217331   2.174   3.022   2.314
 5478SOL     OW17332   6.673   6.076   6.192
 5478SOL    HW117333   6.684   6.077   6.291
 5478SOL    HW217334   6.719   5.995   6.155
 5479SOL     OW17335   4.678   0.546   4.823
 5479SOL    HW117336   4.599   0.484   4.816
 5479SOL    HW217337   4.668   0.620   4.757
 5480SOL     OW17338   0.150   3.358   4.751
 5480SOL    HW117339   0.158   3.370   4.652
 5480SOL    HW217340   0.064   3.311   4.772
 5481SOL     OW17341   4.706   6.516   4.195
 5481SOL    HW117342   4.692   6.433   4.248
 5481SOL    HW217343   4.740   6.492   4.104
 5482SOL     OW17344   1.634   4.420   1.562
 5482SOL    HW117345   1.638   4.451   1.657
 5482SOL    HW217346   1.626   4.499   1.501
 5483SOL     OW17347   0.957   2.734   6.175
 5483SOL    HW117348   0.894   2.669   6.217
 5483SOL    HW217349   1.035   2.748   6.236
 5484SOL     OW17350   4.629   0.147   5.186
 5484SOL    HW117351   4.713   0.146   5.132
 5484SOL    HW217352   4.610   0.240   5.217
 5485SOL     OW17353   3.113   0.049   4.577
 5485SOL    HW117354   3.014   0.061   4.573
 5485SOL    HW217355   3.153   0.067   4.487
 5486SOL     OW17356   2.257   5.312   4.895
 5486SOL    HW117357   2.276   5.247   4.821
 5486SOL    HW217358   2.235   5.262   4.978
 5487SOL     OW17359   3.286   5.121   5.377
 5487SOL    HW117360   3.276   5.219   5.363
 5487SOL    HW217361   3.378   5.101   5.410
 5488SOL     OW17362   5.480   2.493   0.878
 5488SOL    HW117363   5.553   2.446   0.927
 5488SOL    HW217364   5.511   2.516   0.786
 5489SOL     OW17365   6.790   3.794   3.493
 5489SOL    HW117366   6.820   3.744   3.574
 5489SOL    HW217367   6.830   3.886   3.493
 5490SOL     OW17368   1.536   6.093   3.104
 5490SOL    HW117369   1.609   6.055   3.047
 5490SOL    HW217370   1.498   6.020   3.162
 5491SOL     OW17371   6.772   4.222   0.681
 5491SOL    HW117372   6.739   4.164   0.756
 5491SOL    HW217373   6.784   4.316   0.714
 5492SOL     OW17374   6.983   1.924   5.913
 5492SOL    HW117375   6.925   1.865   5.970
 5492SOL    HW217376   0.048   1.938   5.959
 5493SOL     OW17377   3.580   3.951   0.773
 5493SOL    HW117378   3.579   3.851   0.775
 5493SOL    HW217379   3.625   3.986   0.855
 5494SOL     OW17380   5.928   3.586   5.479
 5494SOL    HW117381   5.858   3.658   5.472
 5494SOL    HW217382   6.017   3.629   5.493
 5495SOL     OW17383   5.933   6.686   0.267
 5495SOL    HW117384   5.964   6.777   0.238
 5495SOL    HW217385   5.841   6.693   0.306
 5496SOL     OW17386   3.868   0.279   4.597
 5496SOL    HW117387   3.799   0.342   4.561
 5496SOL    HW217388   3.923   0.326   4.665
 5497SOL     OW17389   0.819   0.496   5.509
 5497SOL    HW117390   0.722   0.514   5.498
 5497SOL    HW217391   0.872   0.568   5.465
 5498SOL     OW17392   0.554   5.813   1.127
 5498SOL    HW117393   0.595   5.722   1.115
 5498SOL    HW217394   0.500   5.836   1.046
 5499SOL     OW17395   1.674   6.965   4.782
 5499SOL    HW117396   1.697   0.040   4.792
 5499SOL    HW217397   1.631   6.933   4.867
 5500SOL     OW17398   2.898   0.474   0.911
 5500SOL    HW117399   2.992   0.487   0.942
 5500SOL    HW217400   2.840   0.546   0.950
 5501SOL     OW17401   3.638   3.741   0.018
 5501SOL    HW117402   3.595   3.829   7.022
 5501SOL    HW217403   3.682   3.708   6.957
 5502SOL     OW17404   4.569   3.039   6.827
 5502SOL    HW117405   4.509   2.961   6.847
 5502SOL    HW217406   4.582   3.093   6.910
 5503SOL     OW17407   6.083   3.388   1.026
 5503SOL    HW117408   6.166   3.335   1.045
 5503SOL    HW217409   6.077   3.404   0.927
 5504SOL     OW17410   3.675   1.793   0.148
 5504SOL    HW117411   3.685   1.851   0.067
 5504SOL    HW217412   3.579   1.765   0.157
 5505SOL     OW17413   3.057   4.971   3.475
 5505SOL    HW117414   3.010   5.056   3.452
 5505SOL    HW217415   3.141   4.993   3.525
 5506SOL     OW17416   6.931   3.177   5.659
 5506SOL    HW117417   6.840   3.218   5.652
 5506SOL    HW217418   6.989   3.210   5.584
 5507SOL     OW17419   3.466   0.181   6.710
 5507SOL    HW117420   3.437   0.271   6.675
 5507SOL    HW217421   3.555   0.190   6.755
 5508SOL     OW17422   0.239   0.968   6.154
 5508SOL    HW117423   0.334   0.991   6.132
 5508SOL    HW217424   0.212   0.888   6.100
 5509SOL     OW17425   6.504   4.814   0.566
 5509SOL    HW117426   6.409   4.836   0.586
 5509SOL    HW217427   6.508   4.734   0.506
 5510SOL     OW17428   4.840   5.283   6.897
 5510SOL    HW117429   4.935   5.297   6.871
 5510SOL    HW217430   4.832   5.201   6.954
 5511SOL     OW17431   0.480   2.606   6.012
 5511SOL    HW117432   0.548   2.576   5.944
 5511SOL    HW217433   0.416   2.532   6.030
 5512SOL     OW17434   2.503   0.452   2.342
 5512SOL    HW117435   2.534   0.547   2.338
 5512SOL    HW217436   2.404   0.450   2.350
 5513SOL     OW17437   3.551   4.251   0.289
 5513SOL    HW117438   3.505   4.228   0.203
 5513SOL    HW217439   3.539   4.349   0.308
 5514SOL     OW17440   3.517   1.135   0.194
 5514SOL    HW117441   3.528   1.203   0.121
 5514SOL    HW217442   3.506   1.044   0.153
 5515SOL     OW17443   2.795   5.409   2.550
 5515SOL    HW117444   2.742   5.413   2.465
 5515SOL    HW217445   2.882   5.455   2.537
 5516SOL     OW17446   2.268   2.056   5.321
 5516SOL    HW117447   2.366   2.046   5.306
 5516SOL    HW217448   2.249   2.066   5.419
 5517SOL     OW17449   1.245   1.996   3.239
 5517SOL    HW117450   1.243   2.096   3.231
 5517SOL    HW217451   1.226   1.971   3.334
 5518SOL     OW17452   4.765   5.106   6.657
 5518SOL    HW117453   4.815   5.019   6.651
 5518SOL    HW217454   4.813   5.167   6.720
 5519SOL     OW17455   5.192   2.661   4.718
 5519SOL    HW117456   5.234   2.739   4.766
 5519SOL    HW217457   5.259   2.588   4.709
 5520SOL     OW17458   4.824   0.620   1.333
 5520SOL    HW117459   4.844   0.622   1.431
 5520SOL    HW217460   4.727   0.601   1.320
 5521SOL     OW17461   4.732   6.514   2.583
 5521SOL    HW117462   4.652   6.463   2.617
 5521SOL    HW217463   4.767   6.469   2.501
 5522SOL     OW17464   6.055   6.180   0.944
 5522SOL    HW117465   6.072   6.274   0.914
 5522SOL    HW217466   6.077   6.171   1.041
 5523SOL     OW17467   5.355   1.676   0.878
 5523SOL    HW117468   5.264   1.676   0.919
 5523SOL    HW217469   5.353   1.731   0.794
 5524SOL     OW17470   2.643   1.399   3.870
 5524SOL    HW117471   2.683   1.354   3.950
 5524SOL    HW217472   2.544   1.389   3.872
 5525SOL     OW17473   6.015   1.032   1.376
 5525SOL    HW117474   5.939   1.091   1.403
 5525SOL    HW217475   6.052   0.986   1.456
 5526SOL     OW17476   5.368   5.115   3.880
 5526SOL    HW117477   5.277   5.086   3.911
 5526SOL    HW217478   5.429   5.036   3.882
 5527SOL     OW17479   5.944   0.450   3.500
 5527SOL    HW117480   5.875   0.390   3.459
 5527SOL    HW217481   5.997   0.494   3.427
 5528SOL     OW17482   1.144   1.716   6.846
 5528SOL    HW117483   1.186   1.643   6.901
 5528SOL    HW217484   1.048   1.694   6.830
 5529SOL     OW17485   3.527   0.815   2.529
 5529SOL    HW117486   3.480   0.794   2.615
 5529SOL    HW217487   3.570   0.732   2.494
 5530SOL     OW17488   6.950   2.022   0.863
 5530SOL    HW117489   7.017   2.087   0.899
 5530SOL    HW217490   6.915   1.965   0.937
 5531SOL     OW17491   1.833   4.226   1.568
 5531SOL    HW117492   1.810   4.129   1.566
 5531SOL    HW217493   1.750   4.280   1.555
 5532SOL     OW17494   0.855   2.952   6.914
 5532SOL    HW117495   0.774   2.914   6.957
 5532SOL    HW217496   0.832   2.984   6.822
 5533SOL     OW17497   3.435   1.169   2.538
 5533SOL    HW117498   3.471   1.106   2.470
 5533SOL    HW217499   3.417   1.258   2.495
 5534SOL     OW17500   1.272   0.278   4.661
 5534SOL    HW117501   1.249   0.191   4.617
 5534SOL    HW217502   1.293   0.262   4.758
 5535SOL     OW17503   0.173   1.909   2.749
 5535SOL    HW117504   0.201   1.960   2.830
 5535SOL    HW217505   0.132   1.822   2.777
 5536SOL     OW17506   4.413   6.232   4.331
 5536SOL    HW117507   4.372   6.289   4.402
 5536SOL    HW217508   4.413   6.136   4.361
 5537SOL     OW17509   3.162   2.198   4.038
 5537SOL    HW117510   3.092   2.206   4.109
 5537SOL    HW217511   3.179   2.288   3.998
 5538SOL     OW17512   4.813   4.968   4.507
 5538SOL    HW117513   4.789   5.064   4.520
 5538SOL    HW217514   4.828   4.924   4.595
 5539SOL     OW17515   2.404   4.653   0.118
 5539SOL    HW117516   2.401   4.607   0.206
 5539SOL    HW217517   2.494   4.694   0.104
 5540SOL     OW17518   4.225   5.767   2.377
 5540SOL    HW117519   4.251   5.703   2.449
 5540SOL    HW217520   4.232   5.861   2.411
 5541SOL     OW17521   4.057   1.377   6.253
 5541SOL    HW117522   4.090   1.406   6.163
 5541SOL    HW217523   4.116   1.305   6.289
 5542SOL     OW17524   5.362   4.412   6.883
 5542SOL    HW117525   5.311   4.361   6.814
 5542SOL    HW217526   5.328   4.506   6.887
 5543SOL     OW17527   0.289   2.337   5.268
 5543SOL    HW117528   0.267   2.256   5.214
 5543SOL    HW217529   0.204   2.382   5.295
 5544SOL     OW17530   5.663   0.815   6.768
 5544SOL    HW117531   5.716   0.798   6.851
 5544SOL    HW217532   5.647   0.913   6.759
 5545SOL     OW17533   2.828   2.523   1.669
 5545SOL    HW117534   2.864   2.499   1.759
 5545SOL    HW217535   2.865   2.612   1.642
 5546SOL     OW17536   4.130   4.694   5.715
 5546SOL    HW117537   4.092   4.783   5.742
 5546SOL    HW217538   4.136   4.690   5.615
 5547SOL     OW17539   3.385   5.607   4.188
 5547SOL    HW117540   3.452   5.599   4.262
 5547SOL    HW217541   3.424   5.571   4.104
 5548SOL     OW17542   0.495   2.282   4.591
 5548SOL    HW117543   0.523   2.295   4.496
 5548SOL    HW217544   0.430   2.354   4.616
 5549SOL     OW17545   3.828   5.127   7.013
 5549SOL    HW117546   3.831   5.102   6.917
 5549SOL    HW217547   3.850   5.224   0.001
 5550SOL     OW17548   2.672   6.405   2.253
 5550SOL    HW117549   2.744   6.438   2.192
 5550SOL    HW217550   2.712   6.365   2.335
 5551SOL     OW17551   0.854   1.124   3.263
 5551SOL    HW117552   0.852   1.216   3.302
 5551SOL    HW217553   0.945   1.083   3.278
 5552SOL     OW17554   0.921   2.789   2.090
 5552SOL    HW117555   0.951   2.755   2.179
 5552SOL    HW217556   0.972   2.742   2.018
 5553SOL     OW17557   4.586   6.263   6.706
 5553SOL    HW117558   4.503   6.319   6.712
 5553SOL    HW217559   4.619   6.264   6.612
 5554SOL     OW17560   3.595   1.204   4.250
 5554SOL    HW117561   3.593   1.134   4.180
 5554SOL    HW217562   3.502   1.236   4.269
 5555SOL     OW17563   0.863   5.961   1.689
 5555SOL    HW117564   0.948   5.958   1.636
 5555SOL    HW217565   0.885   5.957   1.787
 5556SOL     OW17566   1.046   0.735   4.360
 5556SOL    HW117567   1.099   0.678   4.297
 5556SOL    HW217568   1.104   0.763   4.436
 5557SOL     OW17569   2.185   0.484   2.935
 5557SOL    HW117570   2.238   0.557   2.893
 5557SOL    HW217571   2.136   0.519   3.015
 5558SOL     OW17572   5.041   2.582   5.368
 5558SOL    HW117573   5.067   2.632   5.285
 5558SOL    HW217574   4.943   2.593   5.383
 5559SOL     OW17575   2.208   0.742   1.491
 5559SOL    HW117576   2.213   0.828   1.542
 5559SOL    HW217577   2.287   0.735   1.429
 5560SOL     OW17578   6.931   1.228   4.358
 5560SOL    HW117579   6.878   1.143   4.367
 5560SOL    HW217580   6.988   1.240   4.440
 5561SOL     OW17581   1.792   3.720   2.415
 5561SOL    HW117582   1.750   3.640   2.371
 5561SOL    HW217583   1.721   3.786   2.438
 5562SOL     OW17584   3.017   1.851   0.004
 5562SOL    HW117585   3.072   1.844   6.944
 5562SOL    HW217586   2.925   1.881   7.003
 5563SOL     OW17587   4.071   4.227   1.554
 5563SOL    HW117588   3.985   4.179   1.567
 5563SOL    HW217589   4.135   4.168   1.505
 5564SOL     OW17590   5.311   2.246   1.411
 5564SOL    HW117591   5.317   2.287   1.321
 5564SOL    HW217592   5.346   2.152   1.407
 5565SOL     OW17593   2.847   2.589   5.302
 5565SOL    HW117594   2.900   2.608   5.385
 5565SOL    HW217595   2.776   2.658   5.291
 5566SOL     OW17596   2.302   4.436   0.685
 5566SOL    HW117597   2.265   4.437   0.777
 5566SOL    HW217598   2.267   4.514   0.633
 5567SOL     OW17599   1.431   5.269   2.881
 5567SOL    HW117600   1.407   5.339   2.948
 5567SOL    HW217601   1.521   5.231   2.902
 5568SOL     OW17602   3.965   2.587   0.402
 5568SOL    HW117603   3.945   2.491   0.421
 5568SOL    HW217604   3.882   2.631   0.367
 5569SOL     OW17605   4.763   2.068   6.336
 5569SOL    HW117606   4.705   2.026   6.406
 5569SOL    HW217607   4.834   2.004   6.308
 5570SOL     OW17608   1.229   3.231   5.247
 5570SOL    HW117609   1.213   3.150   5.304
 5570SOL    HW217610   1.144   3.257   5.202
 5571SOL     OW17611   6.461   4.297   6.650
 5571SOL    HW117612   6.440   4.221   6.712
 5571SOL    HW217613   6.539   4.348   6.686
 5572SOL     OW17614   6.923   3.248   4.731
 5572SOL    HW117615   6.896   3.183   4.802
 5572SOL    HW217616   6.916   3.205   4.641
 5573SOL     OW17617   0.219   3.838   6.887
 5573SOL    HW117618   0.315   3.814   6.873
 5573SOL    HW217619   0.212   3.921   6.942
 5574SOL     OW17620   1.035   6.846   4.061
 5574SOL    HW117621   0.960   6.789   4.028
 5574SOL    HW217622   1.034   6.934   4.014
 5575SOL     OW17623   0.983   0.908   1.831
 5575SOL    HW117624   0.997   0.981   1.764
 5575SOL    HW217625   0.907   0.849   1.801
 5576SOL     OW17626   5.316   6.336   5.720
 5576SOL    HW117627   5.341   6.338   5.817
 5576SOL    HW217628   5.216   6.344   5.711
 5577SOL     OW17629   2.384   4.555   4.641
 5577SOL    HW117630   2.472   4.576   4.685
 5577SOL    HW217631   2.319   4.526   4.711
 5578SOL     OW17632   3.260   2.008   6.459
 5578SOL    HW117633   3.164   1.984   6.471
 5578SOL    HW217634   3.314   1.924   6.450
 5579SOL     OW17635   5.003   5.396   2.020
 5579SOL    HW117636   5.093   5.431   1.997
 5579SOL    HW217637   5.005   5.355   2.111
 5580SOL     OW17638   5.213   1.252   1.351
 5580SOL    HW117639   5.203   1.152   1.352
 5580SOL    HW217640   5.180   1.289   1.438
 5581SOL     OW17641   2.920   2.505   0.525
 5581SOL    HW117642   2.840   2.451   0.548
 5581SOL    HW217643   2.965   2.466   0.444
 5582SOL     OW17644   3.799   3.060   3.159
 5582SOL    HW117645   3.748   3.142   3.185
 5582SOL    HW217646   3.748   2.979   3.185
 5583SOL     OW17647   4.522   0.533   6.837
 5583SOL    HW117648   4.469   0.533   6.752
 5583SOL    HW217649   4.538   0.628   6.866
 5584SOL     OW17650   4.951   3.472   3.359
 5584SOL    HW117651   4.964   3.465   3.457
 5584SOL    HW217652   4.912   3.386   3.324
 5585SOL     OW17653   0.386   0.184   4.609
 5585SOL    HW117654   0.416   0.120   4.538
 5585SOL    HW217655   0.339   0.261   4.567
 5586SOL     OW17656   2.708   1.053   6.870
 5586SOL    HW117657   2.612   1.035   6.847
 5586SOL    HW217658   2.746   1.118   6.804
 5587SOL     OW17659   3.439   6.537   3.647
 5587SOL    HW117660   3.390   6.460   3.687
 5587SOL    HW217661   3.400   6.622   3.681
 5588SOL     OW17662   4.942   6.657   6.124
 5588SOL    HW117663   4.854   6.678   6.082
 5588SOL    HW217664   4.930   6.651   6.223
 5589SOL     OW17665   2.641   3.865   0.305
 5589SOL    HW117666   2.574   3.874   0.379
 5589SOL    HW217667   2.732   3.885   0.340
 5590SOL     OW17668   6.794   0.347   3.423
 5590SOL    HW117669   6.701   0.311   3.419
 5590SOL    HW217670   6.816   0.375   3.517
 5591SOL     OW17671   5.163   0.206   0.806
 5591SOL    HW117672   5.199   0.247   0.722
 5591SOL    HW217673   5.211   0.244   0.885
 5592SOL     OW17674   1.331   2.685   2.317
 5592SOL    HW117675   1.250   2.743   2.318
 5592SOL    HW217676   1.323   2.617   2.244
 5593SOL     OW17677   2.396   4.709   4.960
 5593SOL    HW117678   2.473   4.688   4.900
 5593SOL    HW217679   2.417   4.679   5.053
 5594SOL     OW17680   2.953   1.561   6.776
 5594SOL    HW117681   3.026   1.493   6.779
 5594SOL    HW217682   2.976   1.632   6.709
 5595SOL     OW17683   0.805   2.950   6.608
 5595SOL    HW117684   0.790   3.019   6.537
 5595SOL    HW217685   0.900   2.918   6.603
 5596SOL     OW17686   4.890   3.092   4.685
 5596SOL    HW117687   4.942   3.125   4.607
 5596SOL    HW217688   4.798   3.129   4.683
 5597SOL     OW17689   6.901   1.933   6.776
 5597SOL    HW117690   6.808   1.968   6.760
 5597SOL    HW217691   6.896   1.839   6.811
 5598SOL     OW17692   6.645   1.418   3.563
 5598SOL    HW117693   6.568   1.356   3.578
 5598SOL    HW217694   6.716   1.399   3.631
 5599SOL     OW17695   5.766   2.949   3.066
 5599SOL    HW117696   5.784   2.922   2.972
 5599SOL    HW217697   5.684   3.006   3.070
 5600SOL     OW17698   2.093   3.068   1.906
 5600SOL    HW117699   2.021   3.033   1.845
 5600SOL    HW217700   2.053   3.096   1.993
 5601SOL     OW17701   5.785   3.019   5.799
 5601SOL    HW117702   5.802   2.930   5.757
 5601SOL    HW217703   5.690   3.024   5.829
 5602SOL     OW17704   6.306   2.025   3.027
 5602SOL    HW117705   6.356   1.995   2.945
 5602SOL    HW217706   6.258   2.110   3.007
 5603SOL     OW17707   3.340   2.280   6.421
 5603SOL    HW117708   3.341   2.181   6.414
 5603SOL    HW217709   3.310   2.320   6.335
 5604SOL     OW17710   0.870   5.951   3.761
 5604SOL    HW117711   0.953   5.911   3.723
 5604SOL    HW217712   0.859   6.045   3.727
 5605SOL     OW17713   4.435   0.386   3.876
 5605SOL    HW117714   4.519   0.441   3.883
 5605SOL    HW217715   4.378   0.403   3.956
 5606SOL     OW17716   4.864   3.100   0.859
 5606SOL    HW117717   4.923   3.150   0.922
 5606SOL    HW217718   4.916   3.026   0.816
 5607SOL     OW17719   6.735   2.545   3.305
 5607SOL    HW117720   6.644   2.584   3.291
 5607SOL    HW217721   6.759   2.487   3.227
 5608SOL     OW17722   5.390   0.511   4.011
 5608SOL    HW117723   5.368   0.566   4.092
 5608SOL    HW217724   5.489   0.511   3.997
 5609SOL     OW17725   6.522   0.665   0.444
 5609SOL    HW117726   6.554   0.756   0.472
 5609SOL    HW217727   6.492   0.614   0.525
 5610SOL     OW17728   5.650   5.862   5.984
 5610SOL    HW117729   5.552   5.849   6.002
 5610SOL    HW217730   5.678   5.953   6.014
 5611SOL     OW17731   6.282   4.043   1.982
 5611SOL    HW117732   6.276   3.956   2.031
 5611SOL    HW217733   6.254   4.030   1.887
 5612SOL     OW17734   4.456   2.077   0.980
 5612SOL    HW117735   4.542   2.077   0.929
 5612SOL    HW217736   4.405   2.160   0.959
 5613SOL     OW17737   6.088   5.262   5.890
 5613SOL    HW117738   6.168   5.219   5.934
 5613SOL    HW217739   6.011   5.260   5.953
 5614SOL     OW17740   4.808   1.808   5.042
 5614SOL    HW117741   4.720   1.817   4.994
 5614SOL    HW217742   4.857   1.895   5.038
 5615SOL     OW17743   0.765   3.135   3.333
 5615SOL    HW117744   0.790   3.177   3.421
 5615SOL    HW217745   0.742   3.039   3.347
 5616SOL     OW17746   1.758   3.252   2.003
 5616SOL    HW117747   1.744   3.200   1.918
 5616SOL    HW217748   1.837   3.215   2.052
 5617SOL     OW17749   1.051   5.502   6.375
 5617SOL    HW117750   1.031   5.567   6.302
 5617SOL    HW217751   0.987   5.515   6.451
 5618SOL     OW17752   4.509   7.010   2.465
 5618SOL    HW117753   4.546   6.919   2.481
 5618SOL    HW217754   4.438   7.005   2.394
 5619SOL     OW17755   3.137   2.976   3.241
 5619SOL    HW117756   3.151   2.879   3.219
 5619SOL    HW217757   3.126   3.028   3.157
 5620SOL     OW17758   5.186   4.448   4.969
 5620SOL    HW117759   5.102   4.448   5.024
 5620SOL    HW217760   5.245   4.522   4.998
 5621SOL     OW17761   1.034   2.735   6.905
 5621SOL    HW117762   1.102   2.719   6.833
 5621SOL    HW217763   0.973   2.809   6.877
 5622SOL     OW17764   5.083   5.476   3.866
 5622SOL    HW117765   5.007   5.431   3.912
 5622SOL    HW217766   5.072   5.575   3.872
 5623SOL     OW17767   4.798   4.702   3.986
 5623SOL    HW117768   4.878   4.762   4.000
 5623SOL    HW217769   4.735   4.713   4.062
 5624SOL     OW17770   4.833   3.843   3.616
 5624SOL    HW117771   4.797   3.936   3.623
 5624SOL    HW217772   4.815   3.808   3.524
 5625SOL     OW17773   2.971   6.501   6.058
 5625SOL    HW117774   2.944   6.405   6.066
 5625SOL    HW217775   2.953   6.548   6.145
 5626SOL     OW17776   1.284   5.339   6.426
 5626SOL    HW117777   1.208   5.402   6.408
 5626SOL    HW217778   1.370   5.381   6.399
 5627SOL     OW17779   1.160   5.499   0.772
 5627SOL    HW117780   1.194   5.589   0.801
 5627SOL    HW217781   1.197   5.477   0.682
 5628SOL     OW17782   1.656   3.179   0.297
 5628SOL    HW117783   1.685   3.248   0.364
 5628SOL    HW217784   1.733   3.121   0.273
 5629SOL     OW17785   6.760   3.649   4.264
 5629SOL    HW117786   6.798   3.727   4.315
 5629SOL    HW217787   6.706   3.683   4.187
 5630SOL     OW17788   1.248   3.803   0.526
 5630SOL    HW117789   1.325   3.763   0.476
 5630SOL    HW217790   1.279   3.834   0.616
 5631SOL     OW17791   3.746   0.562   1.548
 5631SOL    HW117792   3.791   0.495   1.489
 5631SOL    HW217793   3.744   0.527   1.642
 5632SOL     OW17794   4.132   6.206   6.857
 5632SOL    HW117795   4.224   6.218   6.817
 5632SOL    HW217796   4.141   6.172   6.951
 5633SOL     OW17797   0.961   5.840   5.425
 5633SOL    HW117798   0.913   5.759   5.391
 5633SOL    HW217799   0.906   5.885   5.495
 5634SOL     OW17800   2.635   0.958   1.742
 5634SOL    HW117801   2.600   0.865   1.730
 5634SOL    HW217802   2.615   0.989   1.835
 5635SOL     OW17803   3.570   0.747   2.140
 5635SOL    HW117804   3.499   0.818   2.148
 5635SOL    HW217805   3.660   0.790   2.141
 5636SOL     OW17806   5.540   0.687   5.647
 5636SOL    HW117807   5.464   0.631   5.613
 5636SOL    HW217808   5.617   0.681   5.584
 5637SOL     OW17809   5.162   7.013   4.693
 5637SOL    HW117810   5.257   0.022   4.701
 5637SOL    HW217811   5.110   0.022   4.773
 5638SOL     OW17812   6.599   5.069   0.313
 5638SOL    HW117813   6.609   5.052   0.411
 5638SOL    HW217814   6.603   4.982   0.264
 5639SOL     OW17815   3.461   0.779   1.785
 5639SOL    HW117816   3.475   0.680   1.792
 5639SOL    HW217817   3.395   0.808   1.854
 5640SOL     OW17818   2.731   7.018   3.438
 5640SOL    HW117819   2.814   7.019   3.495
 5640SOL    HW217820   2.692   0.088   3.435
 5641SOL     OW17821   6.657   4.512   3.814
 5641SOL    HW117822   6.654   4.596   3.760
 5641SOL    HW217823   6.630   4.435   3.756
 5642SOL     OW17824   2.052   3.215   6.303
 5642SOL    HW117825   2.113   3.150   6.256
 5642SOL    HW217826   2.104   3.267   6.371
 5643SOL     OW17827   6.324   2.554   4.022
 5643SOL    HW117828   6.251   2.611   4.061
 5643SOL    HW217829   6.292   2.512   3.937
 5644SOL     OW17830   4.178   0.420   5.626
 5644SOL    HW117831   4.184   0.331   5.581
 5644SOL    HW217832   4.098   0.469   5.591
 5645SOL     OW17833   6.199   6.661   3.225
 5645SOL    HW117834   6.263   6.658   3.149
 5645SOL    HW217835   6.241   6.618   3.306
 5646SOL     OW17836   6.342   6.936   3.927
 5646SOL    HW117837   6.400   7.001   3.877
 5646SOL    HW217838   6.322   6.858   3.868
 5647SOL     OW17839   6.919   3.986   6.544
 5647SOL    HW117840   6.830   4.032   6.541
 5647SOL    HW217841   6.922   3.915   6.473
 5648SOL     OW17842   2.528   1.605   4.248
 5648SOL    HW117843   2.573   1.657   4.321
 5648SOL    HW217844   2.431   1.594   4.270
 5649SOL     OW17845   0.759   0.456   5.950
 5649SOL    HW117846   0.672   0.445   5.902
 5649SOL    HW217847   0.796   0.547   5.932
 5650SOL     OW17848   7.016   5.076   5.544
 5650SOL    HW117849   0.038   5.120   5.622
 5650SOL    HW217850   0.058   5.016   5.498
 5651SOL     OW17851   5.552   1.761   2.279
 5651SOL    HW117852   5.595   1.675   2.307
 5651SOL    HW217853   5.605   1.838   2.315
 5652SOL     OW17854   5.531   4.077   0.260
 5652SOL    HW117855   5.456   4.140   0.283
 5652SOL    HW217856   5.617   4.128   0.255
 5653SOL     OW17857   2.062   5.708   0.067
 5653SOL    HW117858   1.981   5.725   0.123
 5653SOL    HW217859   2.142   5.701   0.127
 5654SOL     OW17860   1.668   6.041   0.187
 5654SOL    HW117861   1.617   6.120   0.222
 5654SOL    HW217862   1.691   6.057   0.091
 5655SOL     OW17863   6.613   5.242   2.905
 5655SOL    HW117864   6.618   5.163   2.844
 5655SOL    HW217865   6.698   5.249   2.957
 5656SOL     OW17866   3.609   5.667   6.524
 5656SOL    HW117867   3.649   5.716   6.447
 5656SOL    HW217868   3.563   5.585   6.492
 5657SOL     OW17869   4.538   5.475   2.136
 5657SOL    HW117870   4.612   5.540   2.153
 5657SOL    HW217871   4.472   5.477   2.212
 5658SOL     OW17872   5.358   6.367   5.978
 5658SOL    HW117873   5.294   6.433   6.018
 5658SOL    HW217874   5.449   6.408   5.974
 5659SOL     OW17875   3.307   2.888   2.654
 5659SOL    HW117876   3.268   2.974   2.688
 5659SOL    HW217877   3.235   2.820   2.643
 5660SOL     OW17878   6.494   6.501   1.718
 5660SOL    HW117879   6.529   6.470   1.806
 5660SOL    HW217880   6.413   6.558   1.732
 5661SOL     OW17881   6.282   5.556   4.379
 5661SOL    HW117882   6.287   5.651   4.349
 5661SOL    HW217883   6.374   5.518   4.387
 5662SOL     OW17884   2.410   4.992   4.908
 5662SOL    HW117885   2.412   4.893   4.922
 5662SOL    HW217886   2.374   5.012   4.817
 5663SOL     OW17887   2.617   4.588   1.234
 5663SOL    HW117888   2.655   4.583   1.141
 5663SOL    HW217889   2.644   4.674   1.277
 5664SOL     OW17890   6.720   6.210   2.013
 5664SOL    HW117891   6.724   6.111   2.024
 5664SOL    HW217892   6.813   6.247   2.008
 5665SOL     OW17893   0.984   1.451   5.979
 5665SOL    HW117894   1.078   1.430   6.008
 5665SOL    HW217895   0.986   1.526   5.913
 5666SOL     OW17896   5.696   5.569   0.243
 5666SOL    HW117897   5.761   5.560   0.319
 5666SOL    HW217898   5.739   5.536   0.159
 5667SOL     OW17899   6.324   4.732   2.759
 5667SOL    HW117900   6.347   4.670   2.684
 5667SOL    HW217901   6.324   4.826   2.725
 5668SOL     OW17902   6.009   3.098   5.978
 5668SOL    HW117903   5.990   3.185   5.931
 5668SOL    HW217904   5.932   3.036   5.966
 5669SOL     OW17905   0.226   2.974   4.308
 5669SOL    HW117906   0.200   2.877   4.305
 5669SOL    HW217907   0.180   3.023   4.234
 5670SOL     OW17908   1.254   3.900   2.280
 5670SOL    HW117909   1.214   3.957   2.209
 5670SOL    HW217910   1.237   3.803   2.259
 5671SOL     OW17911   1.240   0.628   5.286
 5671SOL    HW117912   1.247   0.724   5.312
 5671SOL    HW217913   1.225   0.572   5.368
 5672SOL     OW17914   5.119   4.086   5.954
 5672SOL    HW117915   5.024   4.053   5.962
 5672SOL    HW217916   5.121   4.167   5.897
 5673SOL     OW17917   1.494   0.044   0.697
 5673SOL    HW117918   1.526   0.059   0.603
 5673SOL    HW217919   1.505   0.128   0.750
 5674SOL     OW17920   6.778   3.366   1.283
 5674SOL    HW117921   6.778   3.279   1.334
 5674SOL    HW217922   6.795   3.347   1.187
 5675SOL     OW17923   3.710   0.960   6.488
 5675SOL    HW117924   3.763   0.917   6.561
 5675SOL    HW217925   3.744   0.929   6.399
 5676SOL     OW17926   3.349   6.867   1.430
 5676SOL    HW117927   3.298   6.797   1.480
 5676SOL    HW217928   3.341   6.851   1.332
 5677SOL     OW17929   6.767   0.572   3.293
 5677SOL    HW117930   6.690   0.618   3.336
 5677SOL    HW217931   6.775   0.479   3.329
 5678SOL     OW17932   1.676   6.009   3.473
 5678SOL    HW117933   1.630   6.018   3.561
 5678SOL    HW217934   1.775   6.007   3.487
 5679SOL     OW17935   3.257   5.388   5.355
 5679SOL    HW117936   3.284   5.436   5.438
 5679SOL    HW217937   3.246   5.453   5.280
 5680SOL     OW17938   1.774   0.047   6.609
 5680SOL    HW117939   1.734   0.010   6.694
 5680SOL    HW217940   1.857   0.098   6.631
 5681SOL     OW17941   2.889   4.004   6.916
 5681SOL    HW117942   2.957   4.024   6.846
 5681SOL    HW217943   2.817   3.947   6.877
 5682SOL     OW17944   1.317   3.719   4.169
 5682SOL    HW117945   1.321   3.648   4.099
 5682SOL    HW217946   1.222   3.730   4.200
 5683SOL     OW17947   4.201   3.506   4.709
 5683SOL    HW117948   4.254   3.421   4.709
 5683SOL    HW217949   4.200   3.545   4.801
 5684SOL     OW17950   3.079   3.173   3.056
 5684SOL    HW117951   3.135   3.235   3.001
 5684SOL    HW217952   2.993   3.219   3.080
 5685SOL     OW17953   0.087   5.937   1.957
 5685SOL    HW117954   0.150   6.004   1.920
 5685SOL    HW217955   0.131   5.889   2.033
 5686SOL     OW17956   3.189   4.658   0.105
 5686SOL    HW117957   3.155   4.575   0.061
 5686SOL    HW217958   3.112   4.714   0.136
 5687SOL     OW17959   3.938   5.464   6.344
 5687SOL    HW117960   4.034   5.484   6.327
 5687SOL    HW217961   3.930   5.409   6.427
 5688SOL     OW17962   5.822   1.921   2.130
 5688SOL    HW117963   5.805   1.995   2.065
 5688SOL    HW217964   5.779   1.944   2.218
 5689SOL     OW17965   4.416   3.139   6.042
 5689SOL    HW117966   4.391   3.069   6.109
 5689SOL    HW217967   4.474   3.208   6.085
 5690SOL     OW17968   4.397   6.622   2.479
 5690SOL    HW117969   4.479   6.672   2.505
 5690SOL    HW217970   4.317   6.665   2.521
 5691SOL     OW17971   2.528   0.274   3.942
 5691SOL    HW117972   2.560   0.184   3.913
 5691SOL    HW217973   2.478   0.317   3.867
 5692SOL     OW17974   5.741   2.798   6.528
 5692SOL    HW117975   5.830   2.822   6.489
 5692SOL    HW217976   5.755   2.748   6.614
 5693SOL     OW17977   4.821   2.150   2.775
 5693SOL    HW117978   4.864   2.120   2.690
 5693SOL    HW217979   4.883   2.135   2.852
 5694SOL     OW17980   1.304   1.658   3.992
 5694SOL    HW117981   1.277   1.562   3.985
 5694SOL    HW217982   1.257   1.700   4.069
 5695SOL     OW17983   1.912   3.689   3.505
 5695SOL    HW117984   1.906   3.685   3.605
 5695SOL    HW217985   1.900   3.597   3.468
 5696SOL     OW17986   3.487   0.330   6.112
 5696SOL    HW117987   3.584   0.353   6.124
 5696SOL    HW217988   3.450   0.293   6.197
 5697SOL     OW17989   6.394   3.749   0.082
 5697SOL    HW117990   6.459   3.696   0.028
 5697SOL    HW217991   6.438   3.782   0.165
 5698SOL     OW17992   1.085   4.159   3.169
 5698SOL    HW117993   1.159   4.186   3.107
 5698SOL    HW217994   1.108   4.071   3.211
 5699SOL     OW17995   6.804   2.550   5.033
 5699SOL    HW117996   6.714   2.590   5.049
 5699SOL    HW217997   6.831   2.566   4.938
 5700SOL     OW17998   1.095   5.820   3.411
 5700SOL    HW117999   1.061   5.785   3.498
 5700SOL    HW218000   1.140   5.908   3.425
 5701SOL     OW18001   5.632   4.423   2.128
 5701SOL    HW118002   5.699   4.398   2.197
 5701SOL    HW218003   5.679   4.445   2.042
 5702SOL     OW18004   2.098   0.346   6.979
 5702SOL    HW118005   2.103   0.268   0.019
 5702SOL    HW218006   2.155   0.421   7.014
 5703SOL     OW18007   4.898   4.346   1.823
 5703SOL    HW118008   4.842   4.264   1.810
 5703SOL    HW218009   4.894   4.375   1.918
 5704SOL     OW18010   5.016   3.915   3.320
 5704SOL    HW118011   4.978   3.824   3.334
 5704SOL    HW218012   5.095   3.928   3.378
 5705SOL     OW18013   6.149   1.737   3.169
 5705SOL    HW118014   6.182   1.754   3.261
 5705SOL    HW218015   6.057   1.776   3.159
 5706SOL     OW18016   1.836   1.445   6.637
 5706SOL    HW118017   1.749   1.494   6.641
 5706SOL    HW218018   1.845   1.399   6.549
 5707SOL     OW18019   2.820   1.176   6.663
 5707SOL    HW118020   2.878   1.159   6.583
 5707SOL    HW218021   2.804   1.275   6.672
 5708SOL     OW18022   6.605   0.088   1.750
 5708SOL    HW118023   6.668   0.147   1.699
 5708SOL    HW218024   6.658   0.027   1.810
 5709SOL     OW18025   1.194   1.891   1.843
 5709SOL    HW118026   1.146   1.804   1.838
 5709SOL    HW218027   1.214   1.924   1.751
 5710SOL     OW18028   3.296   4.212   6.311
 5710SOL    HW118029   3.374   4.219   6.250
 5710SOL    HW218030   3.245   4.299   6.309
 5711SOL     OW18031   5.127   1.052   4.466
 5711SOL    HW118032   5.106   1.142   4.427
 5711SOL    HW218033   5.048   0.992   4.456
 5712SOL     OW18034   6.481   6.048   0.029
 5712SOL    HW118035   6.540   6.045   6.970
 5712SOL    HW218036   6.413   5.975   0.024
 5713SOL     OW18037   0.190   2.557   2.535
 5713SOL    HW118038   0.216   2.642   2.583
 5713SOL    HW218039   0.245   2.481   2.570
 5714SOL     OW18040   2.182   0.790   6.125
 5714SOL    HW118041   2.206   0.884   6.100
 5714SOL    HW218042   2.228   0.727   6.063
 5715SOL     OW18043   1.097   6.721   3.764
 5715SOL    HW118044   1.055   6.637   3.797
 5715SOL    HW218045   1.090   6.791   3.836
 5716SOL     OW18046   2.214   2.452   5.113
 5716SOL    HW118047   2.156   2.509   5.172
 5716SOL    HW218048   2.171   2.442   5.023
 5717SOL     OW18049   0.521   3.784   6.873
 5717SOL    HW118050   0.605   3.836   6.862
 5717SOL    HW218051   0.508   3.724   6.794
 5718SOL     OW18052   2.483   4.906   5.673
 5718SOL    HW118053   2.404   4.845   5.662
 5718SOL    HW218054   2.562   4.866   5.627
 5719SOL     OW18055   2.345   0.348   0.377
 5719SOL    HW118056   2.327   0.410   0.300
 5719SOL    HW218057   2.405   0.274   0.347
 5720SOL     OW18058   1.399   5.695   3.936
 5720SOL    HW118059   1.404   5.653   3.845
 5720SOL    HW218060   1.304   5.702   3.964
 5721SOL     OW18061   6.919   4.511   0.816
 5721SOL    HW118062   6.994   4.504   0.750
 5721SOL    HW218063   6.936   4.587   0.878
 5722SOL     OW18064   5.446   1.481   3.783
 5722SOL    HW118065   5.361   1.483   3.834
 5722SOL    HW218066   5.513   1.424   3.831
 5723SOL     OW18067   1.140   4.159   1.186
 5723SOL    HW118068   1.212   4.099   1.219
 5723SOL    HW218069   1.056   4.106   1.171
 5724SOL     OW18070   4.537   2.484   6.127
 5724SOL    HW118071   4.537   2.384   6.121
 5724SOL    HW218072   4.491   2.512   6.212
 5725SOL     OW18073   5.423   5.892   5.586
 5725SOL    HW118074   5.465   5.833   5.655
 5725SOL    HW218075   5.490   5.910   5.514
 5726SOL     OW18076   4.520   3.955   5.602
 5726SOL    HW118077   4.610   3.917   5.578
 5726SOL    HW218078   4.528   4.053   5.616
 5727SOL     OW18079   5.948   2.322   3.735
 5727SOL    HW118080   5.881   2.302   3.664
 5727SOL    HW218081   5.916   2.399   3.790
 5728SOL     OW18082   4.627   0.516   5.574
 5728SOL    HW118083   4.677   0.479   5.652
 5728SOL    HW218084   4.666   0.605   5.549
 5729SOL     OW18085   1.441   3.020   4.722
 5729SOL    HW118086   1.344   2.997   4.727
 5729SOL    HW218087   1.480   3.019   4.814
 5730SOL     OW18088   4.003   5.262   0.623
 5730SOL    HW118089   4.014   5.266   0.524
 5730SOL    HW218090   3.909   5.237   0.645
 5731SOL     OW18091   4.124   1.617   4.984
 5731SOL    HW118092   4.060   1.623   5.061
 5731SOL    HW218093   4.105   1.535   4.931
 5732SOL     OW18094   5.417   4.420   4.145
 5732SOL    HW118095   5.473   4.502   4.131
 5732SOL    HW218096   5.322   4.441   4.122
 5733SOL     OW18097   2.775   6.912   1.296
 5733SOL    HW118098   2.857   6.888   1.348
 5733SOL    HW218099   2.694   6.901   1.354
 5734SOL     OW18100   1.481   6.324   6.272
 5734SOL    HW118101   1.483   6.377   6.188
 5734SOL    HW218102   1.573   6.319   6.311
 5735SOL     OW18103   5.317   0.892   1.971
 5735SOL    HW118104   5.346   0.796   1.970
 5735SOL    HW218105   5.228   0.900   1.925
 5736SOL     OW18106   6.065   4.220   6.539
 5736SOL    HW118107   6.130   4.170   6.596
 5736SOL    HW218108   6.114   4.269   6.467
 5737SOL     OW18109   5.014   5.762   2.110
 5737SOL    HW118110   5.080   5.691   2.088
 5737SOL    HW218111   5.046   5.850   2.076
 5738SOL     OW18112   2.280   0.644   0.912
 5738SOL    HW118113   2.294   0.576   0.983
 5738SOL    HW218114   2.353   0.714   0.918
 5739SOL     OW18115   2.384   1.157   5.725
 5739SOL    HW118116   2.304   1.172   5.783
 5739SOL    HW218117   2.467   1.160   5.781
 5740SOL     OW18118   4.944   3.394   2.843
 5740SOL    HW118119   4.908   3.302   2.857
 5740SOL    HW218120   4.977   3.431   2.929
 5741SOL     OW18121   1.611   3.609   4.230
 5741SOL    HW118122   1.576   3.627   4.322
 5741SOL    HW218123   1.680   3.678   4.207
 5742SOL     OW18124   5.980   6.820   3.130
 5742SOL    HW118125   5.998   6.903   3.183
 5742SOL    HW218126   6.038   6.745   3.163
 5743SOL     OW18127   3.396   5.777   0.299
 5743SOL    HW118128   3.482   5.738   0.265
 5743SOL    HW218129   3.388   5.760   0.397
 5744SOL     OW18130   5.209   6.041   3.524
 5744SOL    HW118131   5.249   6.116   3.471
 5744SOL    HW218132   5.115   6.025   3.494
 5745SOL     OW18133   1.182   3.239   2.263
 5745SOL    HW118134   1.117   3.293   2.209
 5745SOL    HW218135   1.211   3.159   2.210
 5746SOL     OW18136   5.238   7.016   2.680
 5746SOL    HW118137   5.332   6.990   2.658
 5746SOL    HW218138   5.228   0.004   2.779
 5747SOL     OW18139   1.460   6.837   1.226
 5747SOL    HW118140   1.385   6.903   1.217
 5747SOL    HW218141   1.523   6.868   1.298
 5748SOL     OW18142   6.841   6.152   0.444
 5748SOL    HW118143   6.765   6.114   0.496
 5748SOL    HW218144   6.899   6.207   0.505
 5749SOL     OW18145   1.971   5.692   6.286
 5749SOL    HW118146   2.045   5.679   6.351
 5749SOL    HW218147   1.920   5.606   6.275
 5750SOL     OW18148   7.009   2.903   4.171
 5750SOL    HW118149   0.008   3.000   4.160
 5750SOL    HW218150   6.923   2.883   4.123
 5751SOL     OW18151   1.360   4.086   4.439
 5751SOL    HW118152   1.384   4.158   4.504
 5751SOL    HW218153   1.298   4.020   4.483
 5752SOL     OW18154   5.391   0.912   0.132
 5752SOL    HW118155   5.459   0.840   0.141
 5752SOL    HW218156   5.383   0.938   0.036
 5753SOL     OW18157   3.501   4.132   4.323
 5753SOL    HW118158   3.520   4.034   4.323
 5753SOL    HW218159   3.469   4.159   4.413
 5754SOL     OW18160   0.124   5.884   1.250
 5754SOL    HW118161   0.068   5.930   1.319
 5754SOL    HW218162   0.148   5.793   1.282
 5755SOL     OW18163   0.876   3.438   6.599
 5755SOL    HW118164   0.796   3.453   6.657
 5755SOL    HW218165   0.955   3.485   6.638
 5756SOL     OW18166   6.005   5.946   1.741
 5756SOL    HW118167   6.061   5.915   1.818
 5756SOL    HW218168   6.054   5.930   1.656
 5757SOL     OW18169   6.920   1.093   3.805
 5757SOL    HW118170   6.875   1.120   3.890
 5757SOL    HW218171   7.017   1.114   3.810
 5758SOL     OW18172   6.125   6.472   2.971
 5758SOL    HW118173   6.180   6.554   2.987
 5758SOL    HW218174   6.075   6.482   2.885
 5759SOL     OW18175   3.053   0.158   1.866
 5759SOL    HW118176   3.014   0.232   1.811
 5759SOL    HW218177   2.981   0.116   1.921
 5760SOL     OW18178   1.589   2.691   0.302
 5760SOL    HW118179   1.674   2.725   0.262
 5760SOL    HW218180   1.534   2.648   0.231
 5761SOL     OW18181   6.820   6.979   4.894
 5761SOL    HW118182   6.834   0.006   4.979
 5761SOL    HW218183   6.814   0.020   4.817
 5762SOL     OW18184   0.651   5.597   6.347
 5762SOL    HW118185   0.618   5.562   6.260
 5762SOL    HW218186   0.579   5.651   6.391
 5763SOL     OW18187   5.530   0.227   0.571
 5763SOL    HW118188   5.555   0.156   0.504
 5763SOL    HW218189   5.474   0.187   0.643
 5764SOL     OW18190   4.417   6.254   3.914
 5764SOL    HW118191   4.349   6.261   3.987
 5764SOL    HW218192   4.401   6.326   3.846
 5765SOL     OW18193   6.423   4.912   2.424
 5765SOL    HW118194   6.443   4.981   2.493
 5765SOL    HW218195   6.420   4.822   2.467
 5766SOL     OW18196   0.431   1.362   4.228
 5766SOL    HW118197   0.469   1.308   4.303
 5766SOL    HW218198   0.331   1.356   4.230
 5767SOL     OW18199   3.965   6.923   6.992
 5767SOL    HW118200   3.977   6.999   0.034
 5767SOL    HW218201   3.931   6.843   0.019
 5768SOL     OW18202   0.984   1.005   5.194
 5768SOL    HW118203   1.019   1.071   5.261
 5768SOL    HW218204   0.900   0.964   5.229
 5769SOL     OW18205   1.616   3.698   5.563
 5769SOL    HW118206   1.682   3.760   5.521
 5769SOL    HW218207   1.523   3.732   5.548
 5770SOL     OW18208   1.921   3.917   1.976
 5770SOL    HW118209   1.822   3.911   1.988
 5770SOL    HW218210   1.947   4.011   1.955
 5771SOL     OW18211   3.489   5.181   4.067
 5771SOL    HW118212   3.574   5.206   4.020
 5771SOL    HW218213   3.488   5.222   4.158
 5772SOL     OW18214   3.192   6.681   2.588
 5772SOL    HW118215   3.203   6.762   2.647
 5772SOL    HW218216   3.205   6.599   2.643
 5773SOL     OW18217   5.606   1.048   2.421
 5773SOL    HW118218   5.682   1.003   2.467
 5773SOL    HW218219   5.572   0.990   2.348
 5774SOL     OW18220   0.754   6.684   2.573
 5774SOL    HW118221   0.759   6.642   2.482
 5774SOL    HW218222   0.789   6.778   2.568
 5775SOL     OW18223   6.327   5.059   1.496
 5775SOL    HW118224   6.387   5.015   1.430
 5775SOL    HW218225   6.252   4.998   1.519
 5776SOL     OW18226   2.309   0.869   3.982
 5776SOL    HW118227   2.236   0.915   4.032
 5776SOL    HW218228   2.372   0.827   4.047
 5777SOL     OW18229   1.955   6.905   1.794
 5777SOL    HW118230   1.954   6.944   1.886
 5777SOL    HW218231   2.027   6.835   1.788
 5778SOL     OW18232   0.297   0.840   0.912
 5778SOL    HW118233   0.369   0.869   0.849
 5778SOL    HW218234   0.210   0.835   0.863
 5779SOL     OW18235   6.156   1.005   6.097
 5779SOL    HW118236   6.099   0.929   6.129
 5779SOL    HW218237   6.118   1.041   6.012
 5780SOL     OW18238   5.421   4.851   3.982
 5780SOL    HW118239   5.324   4.845   4.005
 5780SOL    HW218240   5.467   4.906   4.051
 5781SOL     OW18241   1.328   5.604   5.917
 5781SOL    HW118242   1.334   5.628   5.820
 5781SOL    HW218243   1.402   5.649   5.968
 5782SOL     OW18244   0.729   0.564   0.349
 5782SOL    HW118245   0.681   0.635   0.298
 5782SOL    HW218246   0.826   0.586   0.353
 5783SOL     OW18247   2.299   2.592   0.662
 5783SOL    HW118248   2.264   2.507   0.702
 5783SOL    HW218249   2.266   2.600   0.568
 5784SOL     OW18250   6.647   6.007   6.829
 5784SOL    HW118251   6.653   6.098   6.788
 5784SOL    HW218252   6.624   5.940   6.758
 5785SOL     OW18253   1.150   1.328   0.471
 5785SOL    HW118254   1.105   1.255   0.523
 5785SOL    HW218255   1.248   1.310   0.466
 5786SOL     OW18256   6.009   5.421   1.581
 5786SOL    HW118257   6.073   5.462   1.646
 5786SOL    HW218258   5.919   5.463   1.592
 5787SOL     OW18259   2.460   2.711   6.672
 5787SOL    HW118260   2.429   2.617   6.683
 5787SOL    HW218261   2.395   2.761   6.613
 5788SOL     OW18262   2.948   0.660   3.501
 5788SOL    HW118263   3.043   0.683   3.482
 5788SOL    HW218264   2.888   0.730   3.463
 5789SOL     OW18265   3.850   4.743   6.119
 5789SOL    HW118266   3.807   4.676   6.180
 5789SOL    HW218267   3.940   4.768   6.156
 5790SOL     OW18268   1.394   3.376   3.229
 5790SOL    HW118269   1.406   3.290   3.180
 5790SOL    HW218270   1.355   3.445   3.168
 5791SOL     OW18271   1.794   0.646   2.754
 5791SOL    HW118272   1.878   0.694   2.778
 5791SOL    HW218273   1.722   0.713   2.734
 5792SOL     OW18274   6.629   2.618   2.540
 5792SOL    HW118275   6.717   2.600   2.584
 5792SOL    HW218276   6.634   2.593   2.444
 5793SOL     OW18277   0.337   0.975   3.941
 5793SOL    HW118278   0.275   0.913   3.989
 5793SOL    HW218279   0.285   1.036   3.882
 5794SOL     OW18280   5.227   4.617   6.364
 5794SOL    HW118281   5.279   4.697   6.335
 5794SOL    HW218282   5.277   4.534   6.340
 5795SOL     OW18283   5.546   4.071   6.704
 5795SOL    HW118284   5.499   3.991   6.666
 5795SOL    HW218285   5.512   4.089   6.796
 5796SOL     OW18286   3.726   2.454   0.748
 5796SOL    HW118287   3.742   2.414   0.658
 5796SOL    HW218288   3.628   2.465   0.764
 5797SOL     OW18289   3.467   2.838   6.031
 5797SOL    HW118290   3.552   2.868   5.987
 5797SOL    HW218291   3.444   2.902   6.104
 5798SOL     OW18292   6.604   5.514   4.280
 5798SOL    HW118293   6.646   5.515   4.370
 5798SOL    HW218294   6.652   5.578   4.220
 5799SOL     OW18295   5.299   0.636   3.639
 5799SOL    HW118296   5.345   0.583   3.567
 5799SOL    HW218297   5.245   0.574   3.696
 5800SOL     OW18298   5.847   5.188   0.276
 5800SOL    HW118299   5.834   5.184   0.375
 5800SOL    HW218300   5.759   5.176   0.230
 5801SOL     OW18301   2.435   1.045   2.741
 5801SOL    HW118302   2.464   0.969   2.683
 5801SOL    HW218303   2.513   1.077   2.795
 5802SOL     OW18304   0.306   2.480   4.653
 5802SOL    HW118305   0.315   2.444   4.746
 5802SOL    HW218306   0.355   2.567   4.647
 5803SOL     OW18307   1.933   4.601   0.586
 5803SOL    HW118308   1.882   4.651   0.516
 5803SOL    HW218309   1.869   4.551   0.644
 5804SOL     OW18310   6.319   3.309   5.430
 5804SOL    HW118311   6.412   3.340   5.413
 5804SOL    HW218312   6.292   3.333   5.524
 5805SOL     OW18313   5.712   3.096   6.731
 5805SOL    HW118314   5.638   3.111   6.665
 5805SOL    HW218315   5.682   3.029   6.799
 5806SOL     OW18316   0.336   6.807   0.055
 5806SOL    HW118317   0.402   6.772   0.122
 5806SOL    HW218318   0.368   6.894   0.019
 5807SOL     OW18319   2.063   3.703   1.829
 5807SOL    HW118320   2.036   3.758   1.908
 5807SOL    HW218321   2.128   3.633   1.858
 5808SOL     OW18322   6.485   2.660   3.224
 5808SOL    HW118323   6.491   2.710   3.138
 5808SOL    HW218324   6.402   2.603   3.224
 5809SOL     OW18325   6.640   3.187   4.082
 5809SOL    HW118326   6.542   3.171   4.079
 5809SOL    HW218327   6.662   3.247   4.159
 5810SOL     OW18328   2.720   2.350   2.548
 5810SOL    HW118329   2.774   2.277   2.504
 5810SOL    HW218330   2.725   2.432   2.491
 5811SOL     OW18331   2.469   1.357   3.047
 5811SOL    HW118332   2.429   1.297   3.116
 5811SOL    HW218333   2.396   1.391   2.987
 5812SOL     OW18334   4.350   0.462   4.712
 5812SOL    HW118335   4.359   0.469   4.613
 5812SOL    HW218336   4.392   0.377   4.744
 5813SOL     OW18337   1.499   0.992   5.366
 5813SOL    HW118338   1.572   0.927   5.347
 5813SOL    HW218339   1.508   1.071   5.307
 5814SOL     OW18340   0.385   5.119   1.197
 5814SOL    HW118341   0.426   5.042   1.149
 5814SOL    HW218342   0.416   5.205   1.156
 5815SOL     OW18343   3.524   1.305   3.322
 5815SOL    HW118344   3.526   1.385   3.262
 5815SOL    HW218345   3.429   1.275   3.335
 5816SOL     OW18346   4.835   6.853   0.817
 5816SOL    HW118347   4.752   6.900   0.847
 5816SOL    HW218348   4.811   6.778   0.755
 5817SOL     OW18349   5.108   1.886   5.301
 5817SOL    HW118350   5.055   1.813   5.346
 5817SOL    HW218351   5.186   1.845   5.254
 5818SOL     OW18352   6.059   6.025   6.049
 5818SOL    HW118353   6.116   6.076   6.113
 5818SOL    HW218354   6.107   6.016   5.961
 5819SOL     OW18355   5.973   0.284   0.767
 5819SOL    HW118356   5.992   0.261   0.671
 5819SOL    HW218357   5.974   0.200   0.821
 5820SOL     OW18358   6.166   6.011   3.104
 5820SOL    HW118359   6.138   5.951   3.179
 5820SOL    HW218360   6.183   6.103   3.139
 5821SOL     OW18361   4.040   0.612   1.786
 5821SOL    HW118362   4.092   0.605   1.701
 5821SOL    HW218363   4.001   0.523   1.809
 5822SOL     OW18364   0.195   1.284   2.548
 5822SOL    HW118365   0.218   1.233   2.631
 5822SOL    HW218366   0.233   1.376   2.553
 5823SOL     OW18367   2.482   2.644   4.300
 5823SOL    HW118368   2.478   2.667   4.203
 5823SOL    HW218369   2.389   2.640   4.337
 5824SOL     OW18370   4.508   0.548   3.435
 5824SOL    HW118371   4.481   0.630   3.385
 5824SOL    HW218372   4.461   0.546   3.524
 5825SOL     OW18373   2.700   0.864   0.525
 5825SOL    HW118374   2.791   0.826   0.509
 5825SOL    HW218375   2.704   0.964   0.525
 5826SOL     OW18376   6.345   0.935   4.815
 5826SOL    HW118377   6.351   1.017   4.757
 5826SOL    HW218378   6.363   0.854   4.760
 5827SOL     OW18379   1.054   5.175   5.422
 5827SOL    HW118380   0.969   5.224   5.404
 5827SOL    HW218381   1.033   5.083   5.455
 5828SOL     OW18382   6.952   3.134   1.786
 5828SOL    HW118383   6.983   3.044   1.756
 5828SOL    HW218384   6.931   3.132   1.883
 5829SOL     OW18385   1.725   1.229   2.043
 5829SOL    HW118386   1.802   1.177   2.006
 5829SOL    HW218387   1.695   1.187   2.129
 5830SOL     OW18388   1.908   1.250   5.756
 5830SOL    HW118389   1.943   1.256   5.662
 5830SOL    HW218390   1.963   1.184   5.808
 5831SOL     OW18391   5.774   6.053   3.098
 5831SOL    HW118392   5.754   6.005   3.012
 5831SOL    HW218393   5.822   6.138   3.077
 5832SOL     OW18394   3.572   3.621   4.910
 5832SOL    HW118395   3.577   3.564   4.828
 5832SOL    HW218396   3.603   3.713   4.889
 5833SOL     OW18397   3.734   3.155   4.597
 5833SOL    HW118398   3.807   3.124   4.536
 5833SOL    HW218399   3.656   3.186   4.542
 5834SOL     OW18400   6.057   0.544   0.216
 5834SOL    HW118401   6.065   0.644   0.224
 5834SOL    HW218402   6.098   0.501   0.296
 5835SOL     OW18403   5.113   2.484   4.017
 5835SOL    HW118404   5.105   2.549   3.942
 5835SOL    HW218405   5.084   2.527   4.102
 5836SOL     OW18406   3.431   6.171   2.510
 5836SOL    HW118407   3.347   6.184   2.458
 5836SOL    HW218408   3.465   6.078   2.496
 5837SOL     OW18409   5.001   4.691   6.246
 5837SOL    HW118410   5.002   4.773   6.303
 5837SOL    HW218411   5.081   4.634   6.268
 5838SOL     OW18412   0.482   2.055   5.478
 5838SOL    HW118413   0.464   2.153   5.474
 5838SOL    HW218414   0.483   2.025   5.573
 5839SOL     OW18415   0.088   3.170   2.651
 5839SOL    HW118416   0.050   3.213   2.569
 5839SOL    HW218417   0.015   3.128   2.704
 5840SOL     OW18418   2.066   5.158   6.976
 5840SOL    HW118419   2.048   5.075   6.924
 5840SOL    HW218420   2.050   5.238   6.918
 5841SOL     OW18421   6.851   2.503   2.994
 5841SOL    HW118422   6.767   2.455   3.019
 5841SOL    HW218423   6.930   2.445   3.015
 5842SOL     OW18424   4.133   2.914   0.427
 5842SOL    HW118425   4.114   2.916   0.525
 5842SOL    HW218426   4.053   2.948   0.377
 5843SOL     OW18427   1.330   3.005   1.675
 5843SOL    HW118428   1.251   3.061   1.701
 5843SOL    HW218429   1.409   3.030   1.731
 5844SOL     OW18430   1.168   6.173   0.383
 5844SOL    HW118431   1.144   6.264   0.418
 5844SOL    HW218432   1.131   6.162   0.291
 5845SOL     OW18433   1.216   2.089   4.616
 5845SOL    HW118434   1.258   1.998   4.612
 5845SOL    HW218435   1.149   2.092   4.690
 5846SOL     OW18436   0.246   3.061   6.222
 5846SOL    HW118437   0.270   2.965   6.208
 5846SOL    HW218438   0.329   3.117   6.222
 5847SOL     OW18439   2.054   2.458   3.308
 5847SOL    HW118440   2.149   2.490   3.310
 5847SOL    HW218441   2.048   2.369   3.354
 5848SOL     OW18442   1.029   4.833   3.713
 5848SOL    HW118443   1.018   4.840   3.614
 5848SOL    HW218444   1.125   4.813   3.735
 5849SOL     OW18445   3.436   6.914   5.709
 5849SOL    HW118446   3.412   6.986   5.644
 5849SOL    HW218447   3.530   6.885   5.693
 5850SOL     OW18448   0.915   4.104   2.933
 5850SOL    HW118449   0.959   4.073   3.017
 5850SOL    HW218450   0.842   4.040   2.908
 5851SOL     OW18451   5.638   3.121   2.424
 5851SOL    HW118452   5.710   3.180   2.387
 5851SOL    HW218453   5.604   3.061   2.352
 5852SOL     OW18454   3.670   5.709   2.864
 5852SOL    HW118455   3.712   5.795   2.892
 5852SOL    HW218456   3.733   5.658   2.806
 5853SOL     OW18457   3.875   3.966   5.761
 5853SOL    HW118458   3.830   3.879   5.738
 5853SOL    HW218459   3.823   4.041   5.721
 5854SOL     OW18460   0.353   0.977   6.417
 5854SOL    HW118461   0.412   0.911   6.370
 5854SOL    HW218462   0.307   0.932   6.493
 5855SOL     OW18463   1.388   1.051   4.886
 5855SOL    HW118464   1.310   1.042   4.948
 5855SOL    HW218465   1.463   1.097   4.932
 5856SOL     OW18466   2.052   5.150   3.818
 5856SOL    HW118467   1.975   5.093   3.790
 5856SOL    HW218468   2.129   5.092   3.846
 5857SOL     OW18469   0.155   2.750   6.059
 5857SOL    HW118470   0.148   2.666   6.005
 5857SOL    HW218471   0.223   2.738   6.131
 5858SOL     OW18472   3.299   6.847   2.789
 5858SOL    HW118473   3.225   6.811   2.846
 5858SOL    HW218474   3.383   6.795   2.807
 5859SOL     OW18475   6.427   5.626   1.500
 5859SOL    HW118476   6.445   5.653   1.595
 5859SOL    HW218477   6.409   5.528   1.496
 5860SOL     OW18478   1.732   3.905   1.282
 5860SOL    HW118479   1.820   3.868   1.311
 5860SOL    HW218480   1.666   3.896   1.357
 5861SOL     OW18481   6.135   2.043   3.564
 5861SOL    HW118482   6.058   2.030   3.501
 5861SOL    HW218483   6.121   1.988   3.646
 5862SOL     OW18484   4.922   4.258   3.538
 5862SOL    HW118485   4.868   4.228   3.616
 5862SOL    HW218486   5.002   4.309   3.570
 5863SOL     OW18487   2.011   0.947   0.512
 5863SOL    HW118488   1.926   1.000   0.514
 5863SOL    HW218489   2.067   0.977   0.435
 5864SOL     OW18490   4.732   4.909   0.696
 5864SOL    HW118491   4.763   5.002   0.675
 5864SOL    HW218492   4.725   4.899   0.796
 5865SOL     OW18493   4.027   0.808   3.362
 5865SOL    HW118494   3.942   0.840   3.321
 5865SOL    HW218495   4.064   0.732   3.309
 5866SOL     OW18496   4.060   0.475   6.581
 5866SOL    HW118497   4.098   0.566   6.601
 5866SOL    HW218498   4.126   0.405   6.605
 5867SOL     OW18499   0.178   2.564   0.902
 5867SOL    HW118500   0.191   2.483   0.845
 5867SOL    HW218501   0.186   2.646   0.845
 5868SOL     OW18502   1.303   6.924   4.909
 5868SOL    HW118503   1.270   6.941   4.816
 5868SOL    HW218504   1.317   7.011   4.957
 5869SOL     OW18505   2.768   5.083   3.604
 5869SOL    HW118506   2.720   5.164   3.569
 5869SOL    HW218507   2.701   5.016   3.637
 5870SOL     OW18508   5.417   4.836   4.600
 5870SOL    HW118509   5.368   4.763   4.553
 5870SOL    HW218510   5.503   4.800   4.636
 5871SOL     OW18511   2.873   3.243   6.547
 5871SOL    HW118512   2.816   3.164   6.523
 5871SOL    HW218513   2.912   3.283   6.464
 5872SOL     OW18514   3.950   5.827   4.148
 5872SOL    HW118515   3.888   5.765   4.197
 5872SOL    HW218516   3.919   5.921   4.159
 5873SOL     OW18517   2.592   3.611   0.090
 5873SOL    HW118518   2.504   3.634   0.050
 5873SOL    HW218519   2.623   3.686   0.148
 5874SOL     OW18520   1.631   4.322   0.490
 5874SOL    HW118521   1.688   4.378   0.549
 5874SOL    HW218522   1.655   4.338   0.394
 5875SOL     OW18523   4.533   1.972   0.313
 5875SOL    HW118524   4.534   1.943   0.409
 5875SOL    HW218525   4.543   2.071   0.309
 5876SOL     OW18526   3.993   4.208   5.941
 5876SOL    HW118527   3.906   4.163   5.922
 5876SOL    HW218528   3.978   4.286   6.001
 5877SOL     OW18529   6.549   0.266   2.187
 5877SOL    HW118530   6.489   0.255   2.266
 5877SOL    HW218531   6.495   0.301   2.110
 5878SOL     OW18532   5.207   4.853   2.276
 5878SOL    HW118533   5.256   4.932   2.315
 5878SOL    HW218534   5.267   4.805   2.213
 5879SOL     OW18535   3.821   3.272   5.383
 5879SOL    HW118536   3.746   3.320   5.338
 5879SOL    HW218537   3.892   3.251   5.316
 5880SOL     OW18538   5.984   2.824   6.269
 5880SOL    HW118539   6.063   2.808   6.210
 5880SOL    HW218540   5.903   2.836   6.212
 5881SOL     OW18541   1.409   6.144   2.584
 5881SOL    HW118542   1.412   6.109   2.677
 5881SOL    HW218543   1.347   6.223   2.580
 5882SOL     OW18544   1.749   5.044   5.683
 5882SOL    HW118545   1.657   5.015   5.660
 5882SOL    HW218546   1.809   4.964   5.685
 5883SOL     OW18547   6.601   4.531   6.992
 5883SOL    HW118548   6.578   4.628   7.001
 5883SOL    HW218549   6.685   4.512   0.020
 5884SOL     OW18550   6.686   1.530   2.656
 5884SOL    HW118551   6.691   1.544   2.754
 5884SOL    HW218552   6.592   1.544   2.625
 5885SOL     OW18553   6.603   5.427   0.692
 5885SOL    HW118554   6.546   5.367   0.636
 5885SOL    HW218555   6.651   5.372   0.761
 5886SOL     OW18556   1.942   4.174   3.463
 5886SOL    HW118557   1.965   4.091   3.412
 5886SOL    HW218558   1.883   4.151   3.540
 5887SOL     OW18559   2.418   2.927   0.836
 5887SOL    HW118560   2.445   2.884   0.749
 5887SOL    HW218561   2.448   2.869   0.912
 5888SOL     OW18562   3.037   6.527   1.692
 5888SOL    HW118563   2.979   6.576   1.757
 5888SOL    HW218564   3.107   6.589   1.657
 5889SOL     OW18565   6.063   1.116   2.084
 5889SOL    HW118566   5.970   1.105   2.119
 5889SOL    HW218567   6.061   1.170   1.999
 5890SOL     OW18568   1.945   5.462   3.222
 5890SOL    HW118569   1.999   5.461   3.306
 5890SOL    HW218570   1.890   5.379   3.216
 5891SOL     OW18571   2.476   3.642   6.722
 5891SOL    HW118572   2.554   3.582   6.702
 5891SOL    HW218573   2.399   3.587   6.754
 5892SOL     OW18574   0.870   3.263   0.251
 5892SOL    HW118575   0.801   3.210   0.300
 5892SOL    HW218576   0.923   3.204   0.192
 5893SOL     OW18577   0.674   6.525   0.762
 5893SOL    HW118578   0.644   6.617   0.786
 5893SOL    HW218579   0.768   6.511   0.794
 5894SOL     OW18580   2.215   5.749   6.852
 5894SOL    HW118581   2.139   5.713   6.906
 5894SOL    HW218582   2.281   5.793   6.912
 5895SOL     OW18583   5.236   3.977   3.506
 5895SOL    HW118584   5.316   4.015   3.460
 5895SOL    HW218585   5.228   4.016   3.597
 5896SOL     OW18586   5.595   2.540   2.222
 5896SOL    HW118587   5.627   2.579   2.136
 5896SOL    HW218588   5.509   2.583   2.248
 5897SOL     OW18589   3.628   2.150   0.514
 5897SOL    HW118590   3.647   2.067   0.462
 5897SOL    HW218591   3.615   2.128   0.610
 5898SOL     OW18592   1.855   1.379   6.367
 5898SOL    HW118593   1.942   1.337   6.341
 5898SOL    HW218594   1.855   1.475   6.339
 5899SOL     OW18595   0.425   6.406   6.405
 5899SOL    HW118596   0.372   6.356   6.473
 5899SOL    HW218597   0.365   6.464   6.350
 5900SOL     OW18598   5.896   6.334   3.120
 5900SOL    HW118599   5.913   6.319   3.217
 5900SOL    HW218600   5.979   6.370   3.077
 5901SOL     OW18601   2.231   1.089   4.990
 5901SOL    HW118602   2.216   1.047   4.901
 5901SOL    HW218603   2.165   1.051   5.056
 5902SOL     OW18604   4.679   3.478   5.757
 5902SOL    HW118605   4.754   3.510   5.700
 5902SOL    HW218606   4.593   3.486   5.707
 5903SOL     OW18607   6.332   1.890   5.372
 5903SOL    HW118608   6.246   1.840   5.377
 5903SOL    HW218609   6.354   1.910   5.277
 5904SOL     OW18610   0.570   4.864   1.544
 5904SOL    HW118611   0.478   4.897   1.561
 5904SOL    HW218612   0.636   4.938   1.559
 5905SOL     OW18613   6.009   1.909   4.108
 5905SOL    HW118614   5.957   1.978   4.057
 5905SOL    HW218615   5.980   1.818   4.080
 5906SOL     OW18616   4.418   1.151   5.744
 5906SOL    HW118617   4.427   1.099   5.659
 5906SOL    HW218618   4.343   1.115   5.798
 5907SOL     OW18619   1.385   3.915   5.593
 5907SOL    HW118620   1.345   4.003   5.566
 5907SOL    HW218621   1.413   3.918   5.689
 5908SOL     OW18622   4.686   3.972   6.502
 5908SOL    HW118623   4.733   4.014   6.580
 5908SOL    HW218624   4.698   4.029   6.421
 5909SOL     OW18625   6.588   4.855   3.881
 5909SOL    HW118626   6.606   4.942   3.836
 5909SOL    HW218627   6.512   4.809   3.836
 5910SOL     OW18628   3.252   4.869   0.695
 5910SOL    HW118629   3.313   4.839   0.622
 5910SOL    HW218630   3.161   4.888   0.658
 5911SOL     OW18631   6.072   6.524   0.080
 5911SOL    HW118632   6.015   6.527   7.020
 5911SOL    HW218633   6.041   6.594   0.144
 5912SOL     OW18634   0.621   3.574   4.987
 5912SOL    HW118635   0.620   3.491   4.932
 5912SOL    HW218636   0.704   3.576   5.042
 5913SOL     OW18637   1.507   2.296   5.007
 5913SOL    HW118638   1.539   2.374   5.061
 5913SOL    HW218639   1.409   2.284   5.022
 5914SOL     OW18640   1.632   5.684   0.510
 5914SOL    HW118641   1.548   5.725   0.546
 5914SOL    HW218642   1.677   5.632   0.582
 5915SOL     OW18643   5.330   3.108   4.152
 5915SOL    HW118644   5.326   3.077   4.057
 5915SOL    HW218645   5.416   3.079   4.193
 5916SOL     OW18646   3.132   0.236   6.266
 5916SOL    HW118647   3.142   0.292   6.184
 5916SOL    HW218648   3.221   0.221   6.308
 5917SOL     OW18649   3.515   3.920   2.777
 5917SOL    HW118650   3.487   3.960   2.690
 5917SOL    HW218651   3.487   3.824   2.781
 5918SOL     OW18652   2.452   2.656   3.730
 5918SOL    HW118653   2.484   2.685   3.640
 5918SOL    HW218654   2.501   2.574   3.758
 5919SOL     OW18655   1.336   2.476   6.854
 5919SOL    HW118656   1.351   2.537   6.931
 5919SOL    HW218657   1.374   2.386   6.874
 5920SOL     OW18658   2.718   5.513   0.054
 5920SOL    HW118659   2.730   5.541   0.150
 5920SOL    HW218660   2.671   5.425   0.050
 5921SOL     OW18661   3.556   5.225   5.528
 5921SOL    HW118662   3.581   5.223   5.431
 5921SOL    HW218663   3.577   5.315   5.567
 5922SOL     OW18664   5.994   4.152   1.760
 5922SOL    HW118665   6.054   4.075   1.783
 5922SOL    HW218666   5.902   4.134   1.795
 5923SOL     OW18667   6.971   0.900   3.569
 5923SOL    HW118668   6.982   0.942   3.659
 5923SOL    HW218669   6.881   0.856   3.563
 5924SOL     OW18670   5.890   1.630   4.933
 5924SOL    HW118671   5.840   1.694   4.991
 5924SOL    HW218672   5.896   1.666   4.840
 5925SOL     OW18673   6.329   5.664   0.941
 5925SOL    HW118674   6.328   5.628   0.847
 5925SOL    HW218675   6.420   5.651   0.980
 5926SOL     OW18676   3.487   4.928   2.136
 5926SOL    HW118677   3.505   5.026   2.140
 5926SOL    HW218678   3.548   4.885   2.069
 5927SOL     OW18679   2.401   5.313   2.554
 5927SOL    HW118680   2.401   5.370   2.472
 5927SOL    HW218681   2.483   5.256   2.555
 5928SOL     OW18682   0.686   6.408   1.660
 5928SOL    HW118683   0.597   6.424   1.704
 5928SOL    HW218684   0.693   6.313   1.633
 5929SOL     OW18685   1.389   6.864   5.672
 5929SOL    HW118686   1.435   6.902   5.591
 5929SOL    HW218687   1.431   6.777   5.697
 5930SOL     OW18688   6.651   1.300   5.174
 5930SOL    HW118689   6.676   1.384   5.222
 5930SOL    HW218690   6.572   1.259   5.219
 5931SOL     OW18691   6.038   5.229   1.359
 5931SOL    HW118692   6.058   5.293   1.433
 5931SOL    HW218693   5.987   5.276   1.287
 5932SOL     OW18694   2.343   0.174   0.113
 5932SOL    HW118695   2.297   0.105   0.169
 5932SOL    HW218696   2.375   0.132   0.028
 5933SOL     OW18697   6.269   3.851   2.602
 5933SOL    HW118698   6.193   3.792   2.626
 5933SOL    HW218699   6.318   3.878   2.685
 5934SOL     OW18700   2.810   3.494   2.181
 5934SOL    HW118701   2.842   3.513   2.274
 5934SOL    HW218702   2.710   3.506   2.177
 5935SOL     OW18703   4.087   3.629   2.782
 5935SOL    HW118704   4.140   3.600   2.862
 5935SOL    HW218705   4.095   3.560   2.711
 5936SOL     OW18706   5.796   6.149   6.070
 5936SOL    HW118707   5.809   6.177   5.975
 5936SOL    HW218708   5.883   6.116   6.107
 5937SOL     OW18709   1.159   4.192   0.093
 5937SOL    HW118710   1.176   4.284   0.126
 5937SOL    HW218711   1.172   4.126   0.167
 5938SOL     OW18712   1.878   4.329   1.329
 5938SOL    HW118713   1.864   4.274   1.410
 5938SOL    HW218714   1.842   4.421   1.344
 5939SOL     OW18715   2.285   1.259   2.649
 5939SOL    HW118716   2.349   1.190   2.681
 5939SOL    HW218717   2.235   1.296   2.726
 5940SOL     OW18718   4.051   5.151   3.628
 5940SOL    HW118719   3.955   5.133   3.611
 5940SOL    HW218720   4.100   5.159   3.541
 5941SOL     OW18721   6.566   3.915   2.778
 5941SOL    HW118722   6.632   3.989   2.790
 5941SOL    HW218723   6.530   3.917   2.684
 5942SOL     OW18724   6.391   1.939   5.116
 5942SOL    HW118725   6.340   1.899   5.040
 5942SOL    HW218726   6.383   2.039   5.112
 5943SOL     OW18727   0.994   5.018   0.357
 5943SOL    HW118728   0.932   4.944   0.333
 5943SOL    HW218729   0.945   5.105   0.359
 5944SOL     OW18730   4.742   1.896   2.907
 5944SOL    HW118731   4.729   1.973   2.844
 5944SOL    HW218732   4.661   1.885   2.964
 5945SOL     OW18733   6.752   5.009   5.917
 5945SOL    HW118734   6.785   4.927   5.964
 5945SOL    HW218735   6.772   5.090   5.973
 5946SOL     OW18736   3.949   2.793   5.228
 5946SOL    HW118737   3.924   2.855   5.154
 5946SOL    HW218738   4.007   2.720   5.193
 5947SOL     OW18739   4.204   3.807   1.443
 5947SOL    HW118740   4.207   3.729   1.381
 5947SOL    HW218741   4.208   3.775   1.537
 5948SOL     OW18742   3.772   5.487   3.044
 5948SOL    HW118743   3.767   5.586   3.030
 5948SOL    HW218744   3.793   5.442   2.957
 5949SOL     OW18745   4.631   4.419   2.452
 5949SOL    HW118746   4.585   4.404   2.539
 5949SOL    HW218747   4.668   4.513   2.450
 5950SOL     OW18748   6.566   2.276   3.744
 5950SOL    HW118749   6.545   2.247   3.651
 5950SOL    HW218750   6.502   2.233   3.808
 5951SOL     OW18751   2.043   6.486   3.950
 5951SOL    HW118752   2.120   6.545   3.977
 5951SOL    HW218753   1.957   6.533   3.970
 5952SOL     OW18754   6.947   6.784   4.747
 5952SOL    HW118755   0.025   6.790   4.740
 5952SOL    HW218756   6.914   6.854   4.810
 5953SOL     OW18757   0.440   3.269   6.242
 5953SOL    HW118758   0.497   3.283   6.323
 5953SOL    HW218759   0.369   3.340   6.239
 5954SOL     OW18760   1.134   4.992   6.675
 5954SOL    HW118761   1.063   4.922   6.681
 5954SOL    HW218762   1.197   4.982   6.751
 5955SOL     OW18763   4.953   5.461   2.935
 5955SOL    HW118764   4.934   5.507   3.021
 5955SOL    HW218765   4.869   5.454   2.882
 5956SOL     OW18766   6.405   2.241   6.684
 5956SOL    HW118767   6.419   2.144   6.699
 5956SOL    HW218768   6.411   2.290   6.771
 5957SOL     OW18769   4.635   6.655   5.714
 5957SOL    HW118770   4.538   6.674   5.729
 5957SOL    HW218771   4.666   6.706   5.634
 5958SOL     OW18772   0.906   5.403   2.589
 5958SOL    HW118773   0.923   5.470   2.517
 5958SOL    HW218774   0.986   5.345   2.601
 5959SOL     OW18775   1.566   1.240   6.763
 5959SOL    HW118776   1.560   1.296   6.681
 5959SOL    HW218777   1.642   1.176   6.754
 5960SOL     OW18778   3.326   6.961   5.056
 5960SOL    HW118779   3.257   6.909   5.106
 5960SOL    HW218780   3.291   6.984   4.965
 5961SOL     OW18781   2.875   1.116   6.053
 5961SOL    HW118782   2.825   1.051   6.111
 5961SOL    HW218783   2.928   1.178   6.111
 5962SOL     OW18784   5.406   5.428   2.833
 5962SOL    HW118785   5.480   5.484   2.793
 5962SOL    HW218786   5.318   5.469   2.810
 5963SOL     OW18787   3.991   3.895   1.943
 5963SOL    HW118788   4.048   3.974   1.918
 5963SOL    HW218789   3.956   3.907   2.035
 5964SOL     OW18790   1.034   4.129   5.707
 5964SOL    HW118791   1.114   4.094   5.756
 5964SOL    HW218792   1.064   4.190   5.633
 5965SOL     OW18793   2.149   1.385   4.178
 5965SOL    HW118794   2.148   1.294   4.219
 5965SOL    HW218795   2.174   1.452   4.248
 5966SOL     OW18796   1.598   6.414   4.195
 5966SOL    HW118797   1.560   6.329   4.232
 5966SOL    HW218798   1.524   6.479   4.178
 5967SOL     OW18799   4.572   6.891   2.041
 5967SOL    HW118800   4.534   6.799   2.037
 5967SOL    HW218801   4.645   6.899   1.974
 5968SOL     OW18802   0.517   2.062   4.343
 5968SOL    HW118803   0.516   2.160   4.324
 5968SOL    HW218804   0.540   2.012   4.259
 5969SOL     OW18805   5.928   3.347   3.088
 5969SOL    HW118806   5.921   3.279   3.161
 5969SOL    HW218807   5.839   3.361   3.046
 5970SOL     OW18808   2.175   3.041   3.965
 5970SOL    HW118809   2.229   2.991   3.897
 5970SOL    HW218810   2.196   3.005   4.056
 5971SOL     OW18811   2.340   6.997   2.833
 5971SOL    HW118812   2.428   6.965   2.868
 5971SOL    HW218813   2.348   0.071   2.807
 5972SOL     OW18814   5.010   6.587   1.462
 5972SOL    HW118815   5.071   6.549   1.532
 5972SOL    HW218816   4.938   6.521   1.440
 5973SOL     OW18817   0.780   4.708   3.657
 5973SOL    HW118818   0.803   4.751   3.570
 5973SOL    HW218819   0.853   4.725   3.723
 5974SOL     OW18820   1.186   4.203   6.349
 5974SOL    HW118821   1.186   4.300   6.326
 5974SOL    HW218822   1.091   4.170   6.352
 5975SOL     OW18823   1.683   3.507   6.985
 5975SOL    HW118824   1.770   3.504   0.011
 5975SOL    HW218825   1.694   3.467   6.894
 5976SOL     OW18826   3.505   3.427   4.432
 5976SOL    HW118827   3.538   3.345   4.386
 5976SOL    HW218828   3.410   3.444   4.405
 5977SOL     OW18829   1.062   3.166   3.211
 5977SOL    HW118830   1.002   3.147   3.133
 5977SOL    HW218831   1.019   3.232   3.272
 5978SOL     OW18832   5.302   5.191   2.922
 5978SOL    HW118833   5.316   5.173   3.020
 5978SOL    HW218834   5.346   5.278   2.898
 5979SOL     OW18835   0.834   1.137   2.816
 5979SOL    HW118836   0.881   1.209   2.866
 5979SOL    HW218837   0.744   1.171   2.786
 5980SOL     OW18838   6.229   3.763   6.107
 5980SOL    HW118839   6.193   3.671   6.091
 5980SOL    HW218840   6.244   3.777   6.204
 5981SOL     OW18841   3.986   1.881   1.199
 5981SOL    HW118842   4.051   1.898   1.125
 5981SOL    HW218843   4.003   1.944   1.275
 5982SOL     OW18844   6.075   2.491   6.591
 5982SOL    HW118845   6.168   2.516   6.563
 5982SOL    HW218846   6.020   2.475   6.509
 5983SOL     OW18847   1.037   1.257   4.864
 5983SOL    HW118848   1.059   1.337   4.808
 5983SOL    HW218849   0.982   1.193   4.810
 5984SOL     OW18850   0.694   0.048   5.602
 5984SOL    HW118851   0.741   0.069   5.688
 5984SOL    HW218852   0.740   0.095   5.526
 5985SOL     OW18853   4.909   3.264   4.432
 5985SOL    HW118854   4.861   3.340   4.388
 5985SOL    HW218855   4.970   3.300   4.503
 5986SOL     OW18856   3.864   3.375   2.240
 5986SOL    HW118857   3.919   3.409   2.164
 5986SOL    HW218858   3.796   3.310   2.205
 5987SOL     OW18859   4.375   6.972   5.511
 5987SOL    HW118860   4.280   6.939   5.509
 5987SOL    HW218861   4.381   0.036   5.462
 5988SOL     OW18862   3.815   0.443   4.346
 5988SOL    HW118863   3.830   0.353   4.307
 5988SOL    HW218864   3.751   0.494   4.289
 5989SOL     OW18865   2.571   0.886   6.417
 5989SOL    HW118866   2.648   0.925   6.367
 5989SOL    HW218867   2.531   0.957   6.476
 5990SOL     OW18868   3.216   5.162   2.198
 5990SOL    HW118869   3.171   5.096   2.138
 5990SOL    HW218870   3.310   5.177   2.166
 5991SOL     OW18871   3.337   5.406   3.885
 5991SOL    HW118872   3.368   5.312   3.868
 5991SOL    HW218873   3.412   5.459   3.925
 5992SOL     OW18874   4.277   1.615   4.437
 5992SOL    HW118875   4.293   1.525   4.477
 5992SOL    HW218876   4.194   1.655   4.476
 5993SOL     OW18877   3.560   5.535   3.977
 5993SOL    HW118878   3.638   5.480   4.007
 5993SOL    HW218879   3.560   5.541   3.877
 5994SOL     OW18880   6.803   2.719   1.725
 5994SOL    HW118881   6.741   2.795   1.742
 5994SOL    HW218882   6.750   2.635   1.708
 5995SOL     OW18883   0.725   4.696   1.380
 5995SOL    HW118884   0.701   4.705   1.284
 5995SOL    HW218885   0.654   4.738   1.437
 5996SOL     OW18886   0.844   5.392   6.021
 5996SOL    HW118887   0.897   5.399   5.936
 5996SOL    HW218888   0.906   5.379   6.098
 5997SOL     OW18889   0.786   0.443   1.697
 5997SOL    HW118890   0.770   0.393   1.782
 5997SOL    HW218891   0.725   0.408   1.625
 5998SOL     OW18892   4.167   1.943   3.570
 5998SOL    HW118893   4.228   1.937   3.649
 5998SOL    HW218894   4.145   1.852   3.538
 5999SOL     OW18895   2.278   2.110   3.137
 5999SOL    HW118896   2.277   2.052   3.056
 5999SOL    HW218897   2.190   2.105   3.183
 6000SOL     OW18898   4.603   6.470   2.914
 6000SOL    HW118899   4.571   6.417   2.992
 6000SOL    HW218900   4.687   6.520   2.939
 6001SOL     OW18901   6.251   1.621   0.201
 6001SOL    HW118902   6.161   1.640   0.240
 6001SOL    HW218903   6.297   1.707   0.181
 6002SOL     OW18904   1.938   0.043   2.032
 6002SOL    HW118905   1.838   0.049   2.021
 6002SOL    HW218906   1.982   0.107   1.970
 6003SOL     OW18907   5.167   4.076   3.768
 6003SOL    HW118908   5.153   4.017   3.848
 6003SOL    HW218909   5.082   4.125   3.747
 6004SOL     OW18910   0.232   3.719   1.336
 6004SOL    HW118911   0.189   3.636   1.370
 6004SOL    HW218912   0.228   3.790   1.406
 6005SOL     OW18913   2.698   5.771   2.525
 6005SOL    HW118914   2.773   5.771   2.458
 6005SOL    HW218915   2.723   5.713   2.602
 6006SOL     OW18916   2.487   5.497   6.854
 6006SOL    HW118917   2.443   5.490   6.944
 6006SOL    HW218918   2.560   5.565   6.858
 6007SOL     OW18919   5.389   2.410   4.407
 6007SOL    HW118920   5.472   2.447   4.366
 6007SOL    HW218921   5.327   2.379   4.335
 6008SOL     OW18922   4.299   5.392   0.040
 6008SOL    HW118923   4.235   5.317   0.023
 6008SOL    HW218924   4.377   5.358   0.091
 6009SOL     OW18925   3.152   1.625   4.205
 6009SOL    HW118926   3.251   1.620   4.191
 6009SOL    HW218927   3.120   1.716   4.180
 6010SOL     OW18928   1.452   2.958   3.725
 6010SOL    HW118929   1.502   3.021   3.665
 6010SOL    HW218930   1.508   2.938   3.806
 6011SOL     OW18931   7.006   2.969   2.334
 6011SOL    HW118932   7.004   2.971   2.235
 6011SOL    HW218933   6.960   2.886   2.367
 6012SOL     OW18934   0.181   3.170   1.109
 6012SOL    HW118935   0.155   3.087   1.059
 6012SOL    HW218936   0.123   3.180   1.190
 6013SOL     OW18937   5.986   0.612   2.347
 6013SOL    HW118938   6.022   0.705   2.338
 6013SOL    HW218939   6.022   0.571   2.431
 6014SOL     OW18940   5.277   0.480   1.238
 6014SOL    HW118941   5.196   0.466   1.295
 6014SOL    HW218942   5.346   0.530   1.290
 6015SOL     OW18943   5.057   1.373   4.947
 6015SOL    HW118944   5.070   1.340   5.041
 6015SOL    HW218945   5.066   1.473   4.946
 6016SOL     OW18946   1.757   6.910   5.589
 6016SOL    HW118947   1.674   6.945   5.545
 6016SOL    HW218948   1.797   6.981   5.647
 6017SOL     OW18949   6.899   3.919   2.584
 6017SOL    HW118950   6.949   3.891   2.667
 6017SOL    HW218951   6.876   3.838   2.531
 6018SOL     OW18952   2.659   5.363   0.773
 6018SOL    HW118953   2.628   5.364   0.868
 6018SOL    HW218954   2.643   5.452   0.732
 6019SOL     OW18955   5.244   6.715   3.739
 6019SOL    HW118956   5.213   6.622   3.761
 6019SOL    HW218957   5.265   6.720   3.641
 6020SOL     OW18958   3.018   0.345   2.205
 6020SOL    HW118959   3.080   0.376   2.133
 6020SOL    HW218960   3.067   0.285   2.268
 6021SOL     OW18961   4.410   0.586   3.095
 6021SOL    HW118962   4.442   0.553   3.006
 6021SOL    HW218963   4.450   0.531   3.168
 6022SOL     OW18964   3.830   1.147   6.180
 6022SOL    HW118965   3.880   1.067   6.146
 6022SOL    HW218966   3.753   1.167   6.119
 6023SOL     OW18967   0.509   2.063   2.498
 6023SOL    HW118968   0.518   2.160   2.518
 6023SOL    HW218969   0.413   2.038   2.498
 6024SOL     OW18970   0.524   5.353   2.148
 6024SOL    HW118971   0.600   5.309   2.101
 6024SOL    HW218972   0.474   5.412   2.084
 6025SOL     OW18973   4.069   2.182   2.205
 6025SOL    HW118974   3.974   2.197   2.178
 6025SOL    HW218975   4.128   2.195   2.126
 6026SOL     OW18976   1.025   4.631   5.560
 6026SOL    HW118977   0.949   4.622   5.496
 6026SOL    HW218978   1.103   4.672   5.514
 6027SOL     OW18979   3.277   3.453   0.656
 6027SOL    HW118980   3.357   3.496   0.616
 6027SOL    HW218981   3.206   3.444   0.586
 6028SOL     OW18982   1.223   4.685   6.807
 6028SOL    HW118983   1.131   4.723   6.796
 6028SOL    HW218984   1.287   4.734   6.748
 6029SOL     OW18985   1.605   5.106   1.585
 6029SOL    HW118986   1.516   5.138   1.555
 6029SOL    HW218987   1.654   5.180   1.631
 6030SOL     OW18988   1.803   6.991   1.577
 6030SOL    HW118989   1.817   6.955   1.669
 6030SOL    HW218990   1.859   0.051   1.565
 6031SOL     OW18991   5.449   0.053   4.662
 6031SOL    HW118992   5.479   0.143   4.695
 6031SOL    HW218993   5.391   0.065   4.581
 6032SOL     OW18994   0.305   3.742   2.910
 6032SOL    HW118995   0.275   3.717   2.817
 6032SOL    HW218996   0.300   3.661   2.969
 6033SOL     OW18997   0.437   0.675   4.608
 6033SOL    HW118998   0.442   0.713   4.700
 6033SOL    HW218999   0.513   0.613   4.593
 6034SOL     OW19000   2.282   4.388   4.863
 6034SOL    HW119001   2.380   4.373   4.853
 6034SOL    HW219002   2.252   4.355   4.953
 6035SOL     OW19003   5.638   0.642   4.088
 6035SOL    HW119004   5.616   0.732   4.051
 6035SOL    HW219005   5.689   0.652   4.174
 6036SOL     OW19006   0.726   1.210   3.860
 6036SOL    HW119007   0.678   1.271   3.923
 6036SOL    HW219008   0.801   1.164   3.908
 6037SOL     OW19009   6.660   5.653   4.899
 6037SOL    HW119010   6.699   5.612   4.981
 6037SOL    HW219011   6.629   5.580   4.838
 6038SOL     OW19012   5.355   4.405   5.924
 6038SOL    HW119013   5.403   4.353   5.994
 6038SOL    HW219014   5.407   4.487   5.901
 6039SOL     OW19015   3.585   3.189   3.496
 6039SOL    HW119016   3.545   3.163   3.408
 6039SOL    HW219017   3.675   3.229   3.481
 6040SOL     OW19018   1.375   1.531   0.287
 6040SOL    HW119019   1.440   1.582   0.232
 6040SOL    HW219020   1.282   1.561   0.265
 6041SOL     OW19021   0.656   2.967   0.091
 6041SOL    HW119022   0.676   2.964   0.189
 6041SOL    HW219023   0.564   3.002   0.077
 6042SOL     OW19024   5.746   5.131   4.599
 6042SOL    HW119025   5.797   5.061   4.647
 6042SOL    HW219026   5.802   5.214   4.591
 6043SOL     OW19027   0.459   4.740   4.093
 6043SOL    HW119028   0.511   4.825   4.091
 6043SOL    HW219029   0.364   4.759   4.118
 6044SOL     OW19030   0.998   0.668   1.234
 6044SOL    HW119031   0.909   0.687   1.274
 6044SOL    HW219032   1.056   0.749   1.241
 6045SOL     OW19033   0.212   3.476   0.803
 6045SOL    HW119034   0.194   3.469   0.705
 6045SOL    HW219035   0.298   3.428   0.824
 6046SOL     OW19036   2.541   3.255   0.417
 6046SOL    HW119037   2.445   3.248   0.444
 6046SOL    HW219038   2.596   3.194   0.473
 6047SOL     OW19039   0.499   6.377   4.726
 6047SOL    HW119040   0.466   6.419   4.641
 6047SOL    HW219041   0.598   6.390   4.733
 6048SOL     OW19042   4.916   6.105   5.038
 6048SOL    HW119043   4.816   6.102   5.037
 6048SOL    HW219044   4.947   6.137   5.127
 6049SOL     OW19045   6.278   5.439   1.123
 6049SOL    HW119046   6.179   5.436   1.137
 6049SOL    HW219047   6.300   5.515   1.063
 6050SOL     OW19048   5.205   4.561   5.552
 6050SOL    HW119049   5.236   4.535   5.460
 6050SOL    HW219050   5.270   4.627   5.591
 6051SOL     OW19051   2.295   2.048   3.400
 6051SOL    HW119052   2.327   2.032   3.306
 6051SOL    HW219053   2.242   2.133   3.402
 6052SOL     OW19054   6.671   1.230   0.443
 6052SOL    HW119055   6.643   1.288   0.520
 6052SOL    HW219056   6.670   1.135   0.472
 6053SOL     OW19057   1.905   0.183   6.184
 6053SOL    HW119058   1.921   0.276   6.215
 6053SOL    HW219059   1.892   0.123   6.263
 6054SOL     OW19060   2.514   4.585   6.800
 6054SOL    HW119061   2.491   4.681   6.818
 6054SOL    HW219062   2.562   4.546   6.878
 6055SOL     OW19063   5.087   0.785   3.989
 6055SOL    HW119064   5.116   0.729   4.066
 6055SOL    HW219065   4.995   0.821   4.006
 6056SOL     OW19066   5.123   3.131   6.568
 6056SOL    HW119067   5.193   3.161   6.634
 6056SOL    HW219068   5.034   3.128   6.613
 6057SOL     OW19069   2.915   0.515   6.276
 6057SOL    HW119070   2.885   0.439   6.334
 6057SOL    HW219071   3.003   0.550   6.308
 6058SOL     OW19072   5.559   1.263   3.937
 6058SOL    HW119073   5.477   1.250   3.992
 6058SOL    HW219074   5.639   1.232   3.988
 6059SOL     OW19075   6.666   6.008   6.446
 6059SOL    HW119076   6.670   6.061   6.530
 6059SOL    HW219077   6.573   5.975   6.431
 6060SOL     OW19078   3.062   6.368   6.331
 6060SOL    HW119079   2.984   6.424   6.304
 6060SOL    HW219080   3.140   6.427   6.350
 6061SOL     OW19081   1.817   1.760   6.371
 6061SOL    HW119082   1.916   1.755   6.363
 6061SOL    HW219083   1.792   1.828   6.440
 6062SOL     OW19084   1.861   0.486   4.292
 6062SOL    HW119085   1.942   0.534   4.259
 6062SOL    HW219086   1.795   0.552   4.329
 6063SOL     OW19087   4.820   6.871   0.133
 6063SOL    HW119088   4.778   6.913   0.053
 6063SOL    HW219089   4.851   6.943   0.196
 6064SOL     OW19090   0.537   5.676   3.677
 6064SOL    HW119091   0.614   5.630   3.721
 6064SOL    HW219092   0.478   5.716   3.747
 6065SOL     OW19093   6.196   6.864   1.073
 6065SOL    HW119094   6.107   6.818   1.069
 6065SOL    HW219095   6.258   6.809   1.129
 6066SOL     OW19096   4.114   2.319   6.869
 6066SOL    HW119097   4.090   2.393   6.931
 6066SOL    HW219098   4.181   2.259   6.912
 6067SOL     OW19099   5.707   2.198   6.844
 6067SOL    HW119100   5.801   2.232   6.844
 6067SOL    HW219101   5.644   2.276   6.843
 6068SOL     OW19102   5.021   1.995   5.062
 6068SOL    HW119103   4.988   2.080   5.103
 6068SOL    HW219104   5.042   1.929   5.133
 6069SOL     OW19105   6.200   4.000   4.245
 6069SOL    HW119106   6.116   3.968   4.201
 6069SOL    HW219107   6.278   3.948   4.209
 6070SOL     OW19108   3.793   2.799   6.994
 6070SOL    HW119109   3.856   2.790   6.918
 6070SOL    HW219110   3.720   2.864   6.970
 6071SOL     OW19111   4.743   6.304   5.394
 6071SOL    HW119112   4.828   6.262   5.362
 6071SOL    HW219113   4.671   6.235   5.396
 6072SOL     OW19114   6.931   1.795   0.698
 6072SOL    HW119115   6.958   1.864   0.766
 6072SOL    HW219116   6.958   1.705   0.730
 6073SOL     OW19117   6.506   1.931   1.129
 6073SOL    HW119118   6.576   1.974   1.187
 6073SOL    HW219119   6.437   1.999   1.103
 6074SOL     OW19120   0.634   0.493   4.650
 6074SOL    HW119121   0.729   0.460   4.651
 6074SOL    HW219122   0.577   0.431   4.704
 6075SOL     OW19123   4.864   4.422   6.706
 6075SOL    HW119124   4.776   4.389   6.740
 6075SOL    HW219125   4.932   4.416   6.779
 6076SOL     OW19126   2.292   0.011   3.703
 6076SOL    HW119127   2.222   0.060   3.755
 6076SOL    HW219128   2.280   6.935   3.715
 6077SOL     OW19129   5.572   5.561   2.665
 6077SOL    HW119130   5.517   5.562   2.582
 6077SOL    HW219131   5.669   5.561   2.640
 6078SOL     OW19132   2.366   4.694   3.495
 6078SOL    HW119133   2.332   4.658   3.409
 6078SOL    HW219134   2.421   4.624   3.541
 6079SOL     OW19135   2.101   1.372   0.552
 6079SOL    HW119136   2.028   1.339   0.612
 6079SOL    HW219137   2.170   1.301   0.540
 6080SOL     OW19138   5.839   2.251   2.849
 6080SOL    HW119139   5.904   2.223   2.920
 6080SOL    HW219140   5.887   2.298   2.775
 6081SOL     OW19141   0.602   3.685   2.546
 6081SOL    HW119142   0.636   3.602   2.503
 6081SOL    HW219143   0.671   3.720   2.609
 6082SOL     OW19144   3.633   1.772   4.259
 6082SOL    HW119145   3.725   1.733   4.267
 6082SOL    HW219146   3.635   1.850   4.196
 6083SOL     OW19147   1.943   6.929   0.344
 6083SOL    HW119148   2.024   6.872   0.362
 6083SOL    HW219149   1.880   6.879   0.284
 6084SOL     OW19150   0.164   4.884   6.199
 6084SOL    HW119151   0.252   4.855   6.160
 6084SOL    HW219152   0.180   4.933   6.284
 6085SOL     OW19153   5.063   4.455   1.373
 6085SOL    HW119154   4.993   4.428   1.440
 6085SOL    HW219155   5.119   4.376   1.349
 6086SOL     OW19156   2.680   1.715   3.080
 6086SOL    HW119157   2.764   1.698   3.131
 6086SOL    HW219158   2.653   1.811   3.091
 6087SOL     OW19159   3.950   0.042   0.531
 6087SOL    HW119160   4.048   0.026   0.545
 6087SOL    HW219161   3.936   0.136   0.500
 6088SOL     OW19162   7.012   0.047   5.699
 6088SOL    HW119163   0.032   6.996   5.647
 6088SOL    HW219164   6.920   0.064   5.664
 6089SOL     OW19165   6.646   3.361   0.133
 6089SOL    HW119166   6.686   3.434   0.189
 6089SOL    HW219167   6.570   3.318   0.182
 6090SOL     OW19168   0.389   5.686   3.899
 6090SOL    HW119169   0.310   5.724   3.946
 6090SOL    HW219170   0.455   5.652   3.966
 6091SOL     OW19171   5.939   1.761   1.799
 6091SOL    HW119172   5.905   1.854   1.811
 6091SOL    HW219173   5.893   1.700   1.863
 6092SOL     OW19174   1.524   2.463   1.038
 6092SOL    HW119175   1.438   2.455   1.089
 6092SOL    HW219176   1.600   2.437   1.098
 6093SOL     OW19177   1.229   3.328   0.771
 6093SOL    HW119178   1.272   3.416   0.752
 6093SOL    HW219179   1.269   3.258   0.712
 6094SOL     OW19180   0.877   0.904   0.955
 6094SOL    HW119181   0.846   0.811   0.932
 6094SOL    HW219182   0.972   0.915   0.925
 6095SOL     OW19183   6.348   4.174   5.244
 6095SOL    HW119184   6.306   4.263   5.230
 6095SOL    HW219185   6.385   4.140   5.158
 6096SOL     OW19186   3.677   1.628   3.188
 6096SOL    HW119187   3.588   1.654   3.224
 6096SOL    HW219188   3.748   1.686   3.229
 6097SOL     OW19189   3.386   1.899   1.761
 6097SOL    HW119190   3.437   1.931   1.841
 6097SOL    HW219191   3.292   1.880   1.788
 6098SOL     OW19192   1.266   1.184   6.286
 6098SOL    HW119193   1.251   1.142   6.376
 6098SOL    HW219194   1.341   1.249   6.292
 6099SOL     OW19195   5.870   4.930   4.760
 6099SOL    HW119196   5.797   4.866   4.737
 6099SOL    HW219197   5.958   4.892   4.732
 6100SOL     OW19198   0.010   2.014   0.288
 6100SOL    HW119199   6.993   2.028   0.379
 6100SOL    HW219200   6.960   2.011   0.220
 6101SOL     OW19201   5.574   1.063   4.284
 6101SOL    HW119202   5.632   1.110   4.351
 6101SOL    HW219203   5.629   0.995   4.236
 6102SOL     OW19204   2.958   0.705   5.014
 6102SOL    HW119205   2.882   0.723   5.076
 6102SOL    HW219206   3.023   0.781   5.017
 6103SOL     OW19207   6.247   0.862   5.308
 6103SOL    HW119208   6.213   0.772   5.279
 6103SOL    HW219209   6.262   0.861   5.406
 6104SOL     OW19210   1.904   3.490   0.901
 6104SOL    HW119211   1.975   3.503   0.969
 6104SOL    HW219212   1.921   3.405   0.850
 6105SOL     OW19213   3.160   5.386   4.843
 6105SOL    HW119214   3.139   5.303   4.791
 6105SOL    HW219215   3.191   5.360   4.935
 6106SOL     OW19216   3.238   5.292   4.509
 6106SOL    HW119217   3.194   5.249   4.588
 6106SOL    HW219218   3.195   5.380   4.490
 6107SOL     OW19219   2.233   5.117   5.674
 6107SOL    HW119220   2.271   5.207   5.691
 6107SOL    HW219221   2.306   5.053   5.650
 6108SOL     OW19222   6.339   1.910   4.265
 6108SOL    HW119223   6.416   1.902   4.202
 6108SOL    HW219224   6.273   1.837   4.247
 6109SOL     OW19225   6.367   4.276   1.803
 6109SOL    HW119226   6.315   4.231   1.731
 6109SOL    HW219227   6.426   4.209   1.848
 6110SOL     OW19228   3.554   1.947   4.006
 6110SOL    HW119229   3.547   1.852   3.975
 6110SOL    HW219230   3.497   2.005   3.948
 6111SOL     OW19231   0.437   4.679   3.058
 6111SOL    HW119232   0.486   4.629   3.129
 6111SOL    HW219233   0.499   4.698   2.982
 6112SOL     OW19234   1.285   2.166   1.941
 6112SOL    HW119235   1.267   2.075   1.905
 6112SOL    HW219236   1.225   2.184   2.019
 6113SOL     OW19237   2.086   5.571   5.089
 6113SOL    HW119238   2.154   5.612   5.151
 6113SOL    HW219239   2.035   5.501   5.139
 6114SOL     OW19240   5.246   5.457   1.072
 6114SOL    HW119241   5.276   5.402   0.993
 6114SOL    HW219242   5.184   5.529   1.042
 6115SOL     OW19243   6.395   4.649   2.515
 6115SOL    HW119244   6.343   4.590   2.453
 6115SOL    HW219245   6.492   4.624   2.512
 6116SOL     OW19246   3.268   2.464   0.967
 6116SOL    HW119247   3.259   2.376   1.014
 6116SOL    HW219248   3.304   2.532   1.030
 6117SOL     OW19249   5.589   6.679   4.200
 6117SOL    HW119250   5.682   6.682   4.163
 6117SOL    HW219251   5.584   6.610   4.272
 6118SOL     OW19252   5.920   0.218   2.916
 6118SOL    HW119253   5.892   0.137   2.968
 6118SOL    HW219254   5.839   0.274   2.897
 6119SOL     OW19255   6.374   5.484   3.692
 6119SOL    HW119256   6.344   5.421   3.621
 6119SOL    HW219257   6.453   5.445   3.741
 6120SOL     OW19258   2.593   0.991   3.230
 6120SOL    HW119259   2.664   0.929   3.261
 6120SOL    HW219260   2.592   1.072   3.289
 6121SOL     OW19261   6.859   2.043   4.388
 6121SOL    HW119262   6.826   2.132   4.420
 6121SOL    HW219263   6.856   1.978   4.463
 6122SOL     OW19264   4.556   6.032   3.793
 6122SOL    HW119265   4.472   6.010   3.743
 6122SOL    HW219266   4.545   6.120   3.838
 6123SOL     OW19267   6.908   1.329   1.793
 6123SOL    HW119268   6.904   1.428   1.808
 6123SOL    HW219269   6.828   1.301   1.739
 6124SOL     OW19270   2.764   0.459   5.237
 6124SOL    HW119271   2.686   0.480   5.296
 6124SOL    HW219272   2.749   0.500   5.147
 6125SOL     OW19273   2.017   4.830   2.455
 6125SOL    HW119274   2.106   4.875   2.456
 6125SOL    HW219275   2.020   4.752   2.392
 6126SOL     OW19276   4.483   5.752   2.212
 6126SOL    HW119277   4.472   5.696   2.130
 6126SOL    HW219278   4.393   5.767   2.254
 6127SOL     OW19279   1.980   3.800   2.236
 6127SOL    HW119280   1.900   3.776   2.292
 6127SOL    HW219281   1.950   3.822   2.143
 6128SOL     OW19282   4.868   2.383   1.028
 6128SOL    HW119283   4.956   2.428   1.015
 6128SOL    HW219284   4.847   2.378   1.126
 6129SOL     OW19285   5.893   4.206   3.417
 6129SOL    HW119286   5.950   4.124   3.426
 6129SOL    HW219287   5.816   4.200   3.480
 6130SOL     OW19288   5.533   4.340   2.910
 6130SOL    HW119289   5.494   4.401   2.841
 6130SOL    HW219290   5.601   4.280   2.868
 6131SOL     OW19291   6.456   0.909   5.113
 6131SOL    HW119292   6.424   0.988   5.061
 6131SOL    HW219293   6.386   0.882   5.179
 6132SOL     OW19294   6.348   2.231   0.515
 6132SOL    HW119295   6.315   2.149   0.561
 6132SOL    HW219296   6.271   2.291   0.494
 6133SOL     OW19297   1.530   4.676   0.463
 6133SOL    HW119298   1.462   4.629   0.519
 6133SOL    HW219299   1.604   4.707   0.522
 6134SOL     OW19300   4.592   3.154   0.280
 6134SOL    HW119301   4.537   3.084   0.326
 6134SOL    HW219302   4.626   3.219   0.348
 6135SOL     OW19303   5.569   0.323   2.155
 6135SOL    HW119304   5.669   0.326   2.159
 6135SOL    HW219305   5.532   0.340   2.247
 6136SOL     OW19306   7.018   1.364   2.278
 6136SOL    HW119307   0.088   1.400   2.264
 6136SOL    HW219308   6.971   1.420   2.346
 6137SOL     OW19309   2.954   6.705   5.854
 6137SOL    HW119310   2.975   6.663   5.943
 6137SOL    HW219311   2.910   6.794   5.869
 6138SOL     OW19312   4.545   6.912   3.053
 6138SOL    HW119313   4.550   6.858   2.968
 6138SOL    HW219314   4.455   6.900   3.094
 6139SOL     OW19315   2.463   5.625   4.000
 6139SOL    HW119316   2.381   5.623   4.057
 6139SOL    HW219317   2.448   5.568   3.919
 6140SOL     OW19318   1.806   5.945   1.485
 6140SOL    HW119319   1.883   5.882   1.477
 6140SOL    HW219320   1.766   5.961   1.395
 6141SOL     OW19321   6.666   5.948   5.614
 6141SOL    HW119322   6.675   5.920   5.518
 6141SOL    HW219323   6.743   5.912   5.666
 6142SOL     OW19324   0.443   3.960   2.672
 6142SOL    HW119325   0.359   4.012   2.660
 6142SOL    HW219326   0.426   3.863   2.655
 6143SOL     OW19327   6.659   4.247   6.320
 6143SOL    HW119328   6.670   4.339   6.356
 6143SOL    HW219329   6.674   4.180   6.393
 6144SOL     OW19330   0.132   5.046   4.215
 6144SOL    HW119331   0.097   4.969   4.267
 6144SOL    HW219332   0.065   5.120   4.215
 6145SOL     OW19333   5.128   5.501   3.468
 6145SOL    HW119334   5.175   5.585   3.496
 6145SOL    HW219335   5.129   5.436   3.544
 6146SOL     OW19336   5.422   1.344   3.230
 6146SOL    HW119337   5.469   1.347   3.142
 6146SOL    HW219338   5.401   1.249   3.253
 6147SOL     OW19339   1.077   3.536   3.147
 6147SOL    HW119340   1.010   3.606   3.121
 6147SOL    HW219341   1.035   3.474   3.214
 6148SOL     OW19342   5.805   6.003   3.950
 6148SOL    HW119343   5.856   6.016   4.035
 6148SOL    HW219344   5.747   5.922   3.958
 6149SOL     OW19345   2.311   0.094   4.671
 6149SOL    HW119346   2.335   0.011   4.720
 6149SOL    HW219347   2.241   0.145   4.721
 6150SOL     OW19348   4.115   5.653   5.809
 6150SOL    HW119349   4.018   5.654   5.835
 6150SOL    HW219350   4.154   5.744   5.821
 6151SOL     OW19351   4.605   0.913   5.802
 6151SOL    HW119352   4.566   0.996   5.761
 6151SOL    HW219353   4.548   0.835   5.778
 6152SOL     OW19354   6.501   5.145   5.819
 6152SOL    HW119355   6.594   5.111   5.835
 6152SOL    HW219356   6.435   5.076   5.847
 6153SOL     OW19357   4.880   4.116   0.198
 6153SOL    HW119358   4.873   4.202   0.148
 6153SOL    HW219359   4.869   4.039   0.135
 6154SOL     OW19360   4.905   2.921   3.280
 6154SOL    HW119361   4.954   2.912   3.366
 6154SOL    HW219362   4.970   2.915   3.204
 6155SOL     OW19363   1.827   3.719   4.087
 6155SOL    HW119364   1.883   3.786   4.135
 6155SOL    HW219365   1.883   3.640   4.062
 6156SOL     OW19366   6.391   0.721   4.360
 6156SOL    HW119367   6.300   0.735   4.321
 6156SOL    HW219368   6.383   0.708   4.459
 6157SOL     OW19369   1.246   1.627   3.597
 6157SOL    HW119370   1.317   1.556   3.600
 6157SOL    HW219371   1.289   1.717   3.610
 6158SOL     OW19372   4.381   0.555   0.574
 6158SOL    HW119373   4.359   0.650   0.597
 6158SOL    HW219374   4.312   0.495   0.614
 6159SOL     OW19375   5.469   3.070   7.015
 6159SOL    HW119376   5.513   3.154   0.025
 6159SOL    HW219377   5.538   2.998   7.006
 6160SOL     OW19378   6.637   4.815   1.513
 6160SOL    HW119379   6.542   4.785   1.509
 6160SOL    HW219380   6.645   4.896   1.571
 6161SOL     OW19381   5.770   0.549   6.315
 6161SOL    HW119382   5.734   0.585   6.401
 6161SOL    HW219383   5.856   0.594   6.293
 6162SOL     OW19384   6.099   5.112   3.893
 6162SOL    HW119385   6.026   5.066   3.943
 6162SOL    HW219386   6.062   5.192   3.846
 6163SOL     OW19387   0.050   4.162   2.182
 6163SOL    HW119388   0.030   4.234   2.116
 6163SOL    HW219389   0.147   4.139   2.178
 6164SOL     OW19390   4.575   2.823   0.508
 6164SOL    HW119391   4.501   2.838   0.443
 6164SOL    HW219392   4.546   2.759   0.579
 6165SOL     OW19393   4.375   6.652   0.536
 6165SOL    HW119394   4.417   6.568   0.503
 6165SOL    HW219395   4.436   6.729   0.516
 6166SOL     OW19396   3.625   1.357   6.839
 6166SOL    HW119397   3.677   1.354   6.924
 6166SOL    HW219398   3.544   1.299   6.847
 6167SOL     OW19399   0.125   5.073   3.256
 6167SOL    HW119400   0.057   5.009   3.292
 6167SOL    HW219401   0.084   5.163   3.246
 6168SOL     OW19402   0.485   2.611   1.492
 6168SOL    HW119403   0.503   2.608   1.590
 6168SOL    HW219404   0.521   2.528   1.449
 6169SOL     OW19405   1.907   4.173   1.884
 6169SOL    HW119406   1.811   4.200   1.877
 6169SOL    HW219407   1.961   4.223   1.816
 6170SOL     OW19408   6.887   1.864   3.484
 6170SOL    HW119409   6.973   1.837   3.528
 6170SOL    HW219410   6.815   1.871   3.554
 6171SOL     OW19411   6.455   0.817   6.557
 6171SOL    HW119412   6.510   0.847   6.634
 6171SOL    HW219413   6.494   0.734   6.518
 6172SOL     OW19414   1.348   4.328   3.899
 6172SOL    HW119415   1.371   4.295   3.991
 6172SOL    HW219416   1.336   4.427   3.901
 6173SOL     OW19417   5.828   6.458   3.492
 6173SOL    HW119418   5.913   6.427   3.451
 6173SOL    HW219419   5.751   6.405   3.456
 6174SOL     OW19420   6.326   2.658   2.130
 6174SOL    HW119421   6.291   2.676   2.038
 6174SOL    HW219422   6.368   2.568   2.133
 6175SOL     OW19423   3.586   2.167   6.307
 6175SOL    HW119424   3.527   2.235   6.351
 6175SOL    HW219425   3.661   2.143   6.369
 6176SOL     OW19426   3.520   3.762   6.263
 6176SOL    HW119427   3.434   3.711   6.270
 6176SOL    HW219428   3.554   3.758   6.169
 6177SOL     OW19429   5.854   6.592   1.445
 6177SOL    HW119430   5.828   6.639   1.361
 6177SOL    HW219431   5.889   6.659   1.511
 6178SOL     OW19432   4.168   4.645   1.838
 6178SOL    HW119433   4.174   4.554   1.796
 6178SOL    HW219434   4.074   4.678   1.834
 6179SOL     OW19435   5.529   4.867   4.938
 6179SOL    HW119436   5.472   4.905   5.012
 6179SOL    HW219437   5.550   4.940   4.872
 6180SOL     OW19438   3.042   4.744   6.406
 6180SOL    HW119439   3.018   4.823   6.464
 6180SOL    HW219440   3.136   4.753   6.375
 6181SOL     OW19441   6.066   6.175   6.928
 6181SOL    HW119442   6.114   6.107   6.874
 6181SOL    HW219443   6.059   6.260   6.876
 6182SOL     OW19444   3.055   2.392   0.314
 6182SOL    HW119445   3.154   2.404   0.313
 6182SOL    HW219446   3.033   2.298   0.341
 6183SOL     OW19447   6.911   6.583   0.866
 6183SOL    HW119448   6.832   6.521   0.871
 6183SOL    HW219449   6.984   6.539   0.814
 6184SOL     OW19450   3.415   6.415   5.557
 6184SOL    HW119451   3.323   6.450   5.578
 6184SOL    HW219452   3.463   6.395   5.642
 6185SOL     OW19453   3.956   3.426   4.914
 6185SOL    HW119454   3.921   3.482   4.838
 6185SOL    HW219455   4.033   3.473   4.957
 6186SOL     OW19456   1.048   1.878   2.213
 6186SOL    HW119457   1.002   1.915   2.132
 6186SOL    HW219458   0.979   1.848   2.279
 6187SOL     OW19459   3.321   1.470   6.255
 6187SOL    HW119460   3.310   1.406   6.179
 6187SOL    HW219461   3.380   1.546   6.226
 6188SOL     OW19462   2.010   1.372   5.002
 6188SOL    HW119463   1.944   1.429   5.050
 6188SOL    HW219464   2.103   1.403   5.023
 6189SOL     OW19465   6.705   5.223   0.857
 6189SOL    HW119466   6.624   5.165   0.852
 6189SOL    HW219467   6.787   5.167   0.855
 6190SOL     OW19468   0.617   3.201   4.111
 6190SOL    HW119469   0.587   3.134   4.043
 6190SOL    HW219470   0.707   3.236   4.085
 6191SOL     OW19471   3.172   3.780   0.467
 6191SOL    HW119472   3.187   3.689   0.505
 6191SOL    HW219473   3.254   3.810   0.418
 6192SOL     OW19474   2.905   1.773   1.159
 6192SOL    HW119475   2.844   1.816   1.225
 6192SOL    HW219476   2.895   1.673   1.164
 6193SOL     OW19477   4.069   5.720   6.875
 6193SOL    HW119478   4.159   5.695   6.839
 6193SOL    HW219479   3.999   5.700   6.807
 6194SOL     OW19480   5.554   6.963   6.813
 6194SOL    HW119481   5.485   6.893   6.796
 6194SOL    HW219482   5.623   6.927   6.875
 6195SOL     OW19483   5.609   6.355   6.451
 6195SOL    HW119484   5.631   6.328   6.545
 6195SOL    HW219485   5.573   6.277   6.401
 6196SOL     OW19486   6.125   3.245   2.931
 6196SOL    HW119487   6.064   3.293   2.993
 6196SOL    HW219488   6.216   3.237   2.972
 6197SOL     OW19489   0.562   5.273   1.039
 6197SOL    HW119490   0.616   5.200   1.080
 6197SOL    HW219491   0.586   5.282   0.942
 6198SOL     OW19492   5.483   1.588   6.618
 6198SOL    HW119493   5.486   1.659   6.548
 6198SOL    HW219494   5.563   1.528   6.608
 6199SOL     OW19495   1.661   6.771   6.240
 6199SOL    HW119496   1.682   6.693   6.181
 6199SOL    HW219497   1.638   6.850   6.183
 6200SOL     OW19498   1.818   0.439   0.925
 6200SOL    HW119499   1.754   0.419   0.851
 6200SOL    HW219500   1.873   0.519   0.901
 6201SOL     OW19501   0.207   4.521   3.081
 6201SOL    HW119502   0.146   4.519   3.002
 6201SOL    HW219503   0.277   4.590   3.068
 6202SOL     OW19504   5.808   1.122   2.746
 6202SOL    HW119505   5.729   1.153   2.798
 6202SOL    HW219506   5.891   1.133   2.802
 6203SOL     OW19507   6.099   0.168   1.946
 6203SOL    HW119508   6.184   0.211   1.977
 6203SOL    HW219509   6.028   0.183   2.015
 6204SOL     OW19510   1.022   6.198   4.932
 6204SOL    HW119511   1.017   6.142   4.850
 6204SOL    HW219512   1.065   6.286   4.909
 6205SOL     OW19513   5.655   4.458   3.701
 6205SOL    HW119514   5.611   4.523   3.639
 6205SOL    HW219515   5.748   4.490   3.723
 6206SOL     OW19516   5.857   1.952   3.513
 6206SOL    HW119517   5.777   1.932   3.458
 6206SOL    HW219518   5.876   1.875   3.574
 6207SOL     OW19519   0.446   5.954   4.083
 6207SOL    HW119520   0.506   5.981   4.008
 6207SOL    HW219521   0.426   6.034   4.139
 6208SOL     OW19522   4.732   3.789   5.521
 6208SOL    HW119523   4.767   3.793   5.427
 6208SOL    HW219524   4.687   3.701   5.537
 6209SOL     OW19525   3.645   2.087   1.462
 6209SOL    HW119526   3.704   2.143   1.402
 6209SOL    HW219527   3.612   2.008   1.410
 6210SOL     OW19528   5.671   1.626   4.453
 6210SOL    HW119529   5.759   1.668   4.432
 6210SOL    HW219530   5.600   1.697   4.457
 6211SOL     OW19531   5.873   3.775   5.102
 6211SOL    HW119532   5.809   3.718   5.051
 6211SOL    HW219533   5.946   3.806   5.041
 6212SOL     OW19534   5.544   4.395   4.772
 6212SOL    HW119535   5.529   4.297   4.756
 6212SOL    HW219536   5.474   4.447   4.722
 6213SOL     OW19537   4.004   5.566   0.656
 6213SOL    HW119538   3.933   5.611   0.709
 6213SOL    HW219539   3.997   5.467   0.668
 6214SOL     OW19540   6.051   6.901   0.208
 6214SOL    HW119541   6.071   6.903   0.110
 6214SOL    HW219542   6.131   6.934   0.259
 6215SOL     OW19543   5.824   2.348   4.974
 6215SOL    HW119544   5.804   2.355   5.071
 6215SOL    HW219545   5.794   2.431   4.927
 6216SOL     OW19546   4.321   1.380   4.624
 6216SOL    HW119547   4.389   1.428   4.680
 6216SOL    HW219548   4.335   1.282   4.632
 6217SOL     OW19549   0.805   4.346   2.541
 6217SOL    HW119550   0.836   4.296   2.461
 6217SOL    HW219551   0.860   4.320   2.620
 6218SOL     OW19552   4.496   6.429   0.452
 6218SOL    HW119553   4.525   6.396   0.362
 6218SOL    HW219554   4.513   6.358   0.520
 6219SOL     OW19555   1.947   1.102   6.963
 6219SOL    HW119556   1.995   1.032   7.015
 6219SOL    HW219557   1.860   1.123   7.009
 6220SOL     OW19558   3.425   6.237   0.899
 6220SOL    HW119559   3.329   6.265   0.891
 6220SOL    HW219560   3.482   6.318   0.905
 6221SOL     OW19561   5.080   5.638   6.305
 6221SOL    HW119562   4.987   5.645   6.340
 6221SOL    HW219563   5.125   5.558   6.344
 6222SOL     OW19564   6.773   1.635   2.110
 6222SOL    HW119565   6.839   1.674   2.174
 6222SOL    HW219566   6.684   1.678   2.124
 6223SOL     OW19567   0.073   5.139   4.555
 6223SOL    HW119568   0.056   5.045   4.524
 6223SOL    HW219569   0.032   5.203   4.491
 6224SOL     OW19570   3.772   6.931   0.228
 6224SOL    HW119571   3.825   7.012   0.206
 6224SOL    HW219572   3.793   6.902   0.321
 6225SOL     OW19573   4.885   6.240   6.426
 6225SOL    HW119574   4.969   6.201   6.463
 6225SOL    HW219575   4.887   6.235   6.326
 6226SOL     OW19576   0.888   0.852   4.153
 6226SOL    HW119577   0.844   0.789   4.088
 6226SOL    HW219578   0.903   0.805   4.240
 6227SOL     OW19579   3.184   4.561   5.854
 6227SOL    HW119580   3.180   4.565   5.754
 6227SOL    HW219581   3.093   4.542   5.890
 6228SOL     OW19582   1.135   3.013   3.646
 6228SOL    HW119583   1.216   2.978   3.693
 6228SOL    HW219584   1.060   3.020   3.712
 6229SOL     OW19585   0.681   3.742   4.211
 6229SOL    HW119586   0.612   3.771   4.145
 6229SOL    HW219587   0.761   3.801   4.204
 6230SOL     OW19588   0.541   1.105   1.293
 6230SOL    HW119589   0.607   1.046   1.247
 6230SOL    HW219590   0.566   1.115   1.390
 6231SOL     OW19591   2.067   5.409   5.718
 6231SOL    HW119592   2.159   5.379   5.695
 6231SOL    HW219593   2.016   5.333   5.758
 6232SOL     OW19594   4.356   0.651   6.388
 6232SOL    HW119595   4.434   0.635   6.328
 6232SOL    HW219596   4.348   0.749   6.407
 6233SOL     OW19597   0.013   3.479   1.251
 6233SOL    HW119598   6.947   3.440   1.275
 6233SOL    HW219599   0.083   3.448   1.316
 6234SOL     OW19600   5.052   4.834   4.456
 6234SOL    HW119601   5.105   4.897   4.398
 6234SOL    HW219602   4.959   4.869   4.466
 6235SOL     OW19603   0.075   0.771   2.017
 6235SOL    HW119604   0.079   0.710   1.939
 6235SOL    HW219605   0.114   0.860   1.992
 6236SOL     OW19606   6.809   5.560   1.343
 6236SOL    HW119607   6.779   5.653   1.365
 6236SOL    HW219608   6.893   5.564   1.288
 6237SOL     OW19609   3.152   1.330   2.191
 6237SOL    HW119610   3.183   1.401   2.254
 6237SOL    HW219611   3.091   1.371   2.123
 6238SOL     OW19612   2.538   0.877   3.552
 6238SOL    HW119613   2.597   0.949   3.588
 6238SOL    HW219614   2.444   0.910   3.548
 6239SOL     OW19615   4.714   1.156   4.427
 6239SOL    HW119616   4.777   1.082   4.402
 6239SOL    HW219617   4.700   1.156   4.526
 6240SOL     OW19618   4.119   3.745   3.719
 6240SOL    HW119619   4.089   3.801   3.642
 6240SOL    HW219620   4.150   3.656   3.685
 6241SOL     OW19621   3.612   0.040   3.550
 6241SOL    HW119622   3.633   0.135   3.574
 6241SOL    HW219623   3.598   7.010   3.634
 6242SOL     OW19624   3.002   2.064   3.866
 6242SOL    HW119625   2.911   2.079   3.904
 6242SOL    HW219626   3.066   2.130   3.906
 6243SOL     OW19627   4.294   1.729   6.937
 6243SOL    HW119628   4.256   1.690   7.021
 6243SOL    HW219629   4.247   1.815   6.917
 6244SOL     OW19630   4.492   2.473   1.842
 6244SOL    HW119631   4.458   2.490   1.935
 6244SOL    HW219632   4.449   2.392   1.805
 6245SOL     OW19633   0.184   5.332   2.366
 6245SOL    HW119634   0.283   5.327   2.379
 6245SOL    HW219635   0.158   5.280   2.285
 6246SOL     OW19636   6.899   0.078   4.554
 6246SOL    HW119637   6.998   0.067   4.566
 6246SOL    HW219638   6.864   0.002   4.498
 6247SOL     OW19639   6.529   6.192   3.403
 6247SOL    HW119640   6.523   6.249   3.321
 6247SOL    HW219641   6.531   6.096   3.377
 6248SOL     OW19642   4.005   3.147   4.948
 6248SOL    HW119643   3.975   3.241   4.932
 6248SOL    HW219644   4.085   3.148   5.009
 6249SOL     OW19645   5.431   3.501   2.661
 6249SOL    HW119646   5.465   3.595   2.653
 6249SOL    HW219647   5.385   3.476   2.575
 6250SOL     OW19648   5.242   6.745   6.530
 6250SOL    HW119649   5.240   6.680   6.454
 6250SOL    HW219650   5.296   6.824   6.505
 6251SOL     OW19651   2.687   1.280   4.616
 6251SOL    HW119652   2.647   1.235   4.536
 6251SOL    HW219653   2.786   1.284   4.606
 6252SOL     OW19654   3.396   5.279   0.051
 6252SOL    HW119655   3.355   5.360   0.093
 6252SOL    HW219656   3.406   5.294   6.975
 6253SOL     OW19657   3.931   6.341   3.896
 6253SOL    HW119658   3.939   6.292   3.809
 6253SOL    HW219659   3.950   6.438   3.882
 6254SOL     OW19660   0.524   0.246   1.724
 6254SOL    HW119661   0.528   0.308   1.803
 6254SOL    HW219662   0.607   0.191   1.720
 6255SOL     OW19663   1.177   1.670   0.794
 6255SOL    HW119664   1.216   1.692   0.705
 6255SOL    HW219665   1.078   1.681   0.792
 6256SOL     OW19666   5.980   5.573   1.999
 6256SOL    HW119667   6.034   5.632   2.059
 6256SOL    HW219668   5.916   5.629   1.947
 6257SOL     OW19669   3.722   4.689   0.802
 6257SOL    HW119670   3.665   4.660   0.879
 6257SOL    HW219671   3.722   4.618   0.732
 6258SOL     OW19672   4.380   5.656   4.592
 6258SOL    HW119673   4.282   5.673   4.595
 6258SOL    HW219674   4.405   5.622   4.501
 6259SOL     OW19675   4.466   1.068   5.493
 6259SOL    HW119676   4.462   1.132   5.416
 6259SOL    HW219677   4.390   1.003   5.486
 6260SOL     OW19678   2.351   1.497   0.837
 6260SOL    HW119679   2.280   1.554   0.797
 6260SOL    HW219680   2.440   1.541   0.824
 6261SOL     OW19681   3.427   0.142   0.939
 6261SOL    HW119682   3.466   0.050   0.927
 6261SOL    HW219683   3.335   0.144   0.901
 6262SOL     OW19684   6.116   1.020   2.554
 6262SOL    HW119685   6.161   0.943   2.600
 6262SOL    HW219686   6.143   1.106   2.598
 6263SOL     OW19687   6.418   6.002   6.096
 6263SOL    HW119688   6.347   6.046   6.151
 6263SOL    HW219689   6.508   6.039   6.121
 6264SOL     OW19690   2.374   5.886   0.268
 6264SOL    HW119691   2.438   5.961   0.251
 6264SOL    HW219692   2.284   5.924   0.292
 6265SOL     OW19693   4.244   6.136   6.009
 6265SOL    HW119694   4.170   6.164   6.070
 6265SOL    HW219695   4.330   6.173   6.042
 6266SOL     OW19696   3.888   5.490   2.789
 6266SOL    HW119697   3.939   5.407   2.810
 6266SOL    HW219698   3.806   5.466   2.736
 6267SOL     OW19699   0.869   6.180   4.609
 6267SOL    HW119700   0.960   6.181   4.651
 6267SOL    HW219701   0.811   6.248   4.654
 6268SOL     OW19702   3.099   1.756   0.949
 6268SOL    HW119703   3.020   1.741   1.008
 6268SOL    HW219704   3.182   1.728   0.997
 6269SOL     OW19705   6.999   5.675   6.718
 6269SOL    HW119706   6.906   5.682   6.753
 6269SOL    HW219707   7.002   5.610   6.642
 6270SOL     OW19708   1.868   6.606   0.987
 6270SOL    HW119709   1.782   6.656   1.002
 6270SOL    HW219710   1.870   6.525   1.046
 6271SOL     OW19711   6.825   3.058   5.989
 6271SOL    HW119712   6.785   2.968   6.008
 6271SOL    HW219713   6.919   3.047   5.958
 6272SOL     OW19714   0.238   1.117   6.776
 6272SOL    HW119715   0.141   1.140   6.768
 6272SOL    HW219716   0.287   1.195   6.814
 6273SOL     OW19717   0.504   6.550   2.900
 6273SOL    HW119718   0.487   6.613   2.824
 6273SOL    HW219719   0.589   6.576   2.945
 6274SOL     OW19720   3.029   5.721   3.740
 6274SOL    HW119721   3.083   5.724   3.825
 6274SOL    HW219722   2.960   5.793   3.742
 6275SOL     OW19723   2.717   6.245   6.761
 6275SOL    HW119724   2.749   6.202   6.677
 6275SOL    HW219725   2.779   6.223   6.836
 6276SOL     OW19726   1.671   5.180   2.657
 6276SOL    HW119727   1.721   5.266   2.675
 6276SOL    HW219728   1.701   5.111   2.724
 6277SOL     OW19729   5.078   2.542   1.149
 6277SOL    HW119730   5.063   2.461   1.206
 6277SOL    HW219731   5.056   2.624   1.201
 6278SOL     OW19732   4.512   2.202   0.685
 6278SOL    HW119733   4.538   2.282   0.631
 6278SOL    HW219734   4.420   2.215   0.722
 6279SOL     OW19735   3.270   6.640   1.565
 6279SOL    HW119736   3.350   6.656   1.623
 6279SOL    HW219737   3.280   6.553   1.518
 6280SOL     OW19738   5.146   2.180   6.687
 6280SOL    HW119739   5.074   2.112   6.677
 6280SOL    HW219740   5.235   2.138   6.670
 6281SOL     OW19741   5.078   4.696   5.970
 6281SOL    HW119742   5.076   4.702   6.070
 6281SOL    HW219743   5.133   4.771   5.933
 6282SOL     OW19744   0.742   3.638   5.947
 6282SOL    HW119745   0.654   3.599   5.918
 6282SOL    HW219746   0.728   3.696   6.027
 6283SOL     OW19747   2.599   6.658   4.875
 6283SOL    HW119748   2.674   6.683   4.814
 6283SOL    HW219749   2.582   6.559   4.867
 6284SOL     OW19750   1.581   2.968   5.744
 6284SOL    HW119751   1.592   3.049   5.686
 6284SOL    HW219752   1.511   2.908   5.705
 6285SOL     OW19753   1.287   3.338   2.709
 6285SOL    HW119754   1.318   3.424   2.749
 6285SOL    HW219755   1.323   3.262   2.764
 6286SOL     OW19756   0.705   1.995   6.641
 6286SOL    HW119757   0.698   2.056   6.720
 6286SOL    HW219758   0.638   2.024   6.572
 6287SOL     OW19759   4.158   4.787   4.808
 6287SOL    HW119760   4.098   4.834   4.873
 6287SOL    HW219761   4.252   4.789   4.841
 6288SOL     OW19762   2.784   3.897   5.515
 6288SOL    HW119763   2.792   3.954   5.596
 6288SOL    HW219764   2.873   3.892   5.469
 6289SOL     OW19765   2.068   4.865   4.489
 6289SOL    HW119766   2.146   4.822   4.534
 6289SOL    HW219767   2.055   4.957   4.525
 6290SOL     OW19768   5.922   0.372   3.949
 6290SOL    HW119769   5.828   0.385   3.915
 6290SOL    HW219770   5.986   0.378   3.872
 6291SOL     OW19771   3.657   3.732   2.103
 6291SOL    HW119772   3.624   3.662   2.167
 6291SOL    HW219773   3.730   3.695   2.047
 6292SOL     OW19774   1.548   4.842   4.759
 6292SOL    HW119775   1.496   4.757   4.771
 6292SOL    HW219776   1.611   4.853   4.835
 6293SOL     OW19777   2.806   1.603   6.409
 6293SOL    HW119778   2.814   1.668   6.334
 6293SOL    HW219779   2.897   1.580   6.443
 6294SOL     OW19780   2.023   1.363   2.155
 6294SOL    HW119781   1.981   1.348   2.244
 6294SOL    HW219782   2.009   1.282   2.097
 6295SOL     OW19783   4.389   3.523   6.434
 6295SOL    HW119784   4.412   3.500   6.340
 6295SOL    HW219785   4.450   3.595   6.467
 6296SOL     OW19786   0.594   2.613   6.759
 6296SOL    HW119787   0.671   2.630   6.697
 6296SOL    HW219788   0.537   2.694   6.764
 6297SOL     OW19789   6.647   1.100   3.751
 6297SOL    HW119790   6.622   1.084   3.846
 6297SOL    HW219791   6.747   1.103   3.742
 6298SOL     OW19792   0.169   6.480   0.804
 6298SOL    HW119793   0.258   6.519   0.781
 6298SOL    HW219794   0.147   6.499   0.899
 6299SOL     OW19795   3.889   1.689   4.253
 6299SOL    HW119796   3.829   1.609   4.244
 6299SOL    HW219797   3.912   1.724   4.163
 6300SOL     OW19798   2.939   2.176   0.668
 6300SOL    HW119799   2.956   2.267   0.705
 6300SOL    HW219800   2.973   2.172   0.574
 6301SOL     OW19801   4.020   6.425   6.488
 6301SOL    HW119802   4.086   6.483   6.537
 6301SOL    HW219803   4.012   6.337   6.535
 6302SOL     OW19804   1.382   3.432   6.963
 6302SOL    HW119805   1.422   3.524   6.954
 6302SOL    HW219806   1.326   3.412   6.883
 6303SOL     OW19807   0.351   4.927   4.445
 6303SOL    HW119808   0.330   5.024   4.438
 6303SOL    HW219809   0.266   4.874   4.443
 6304SOL     OW19810   2.721   0.944   4.222
 6304SOL    HW119811   2.793   0.939   4.152
 6304SOL    HW219812   2.757   0.990   4.303
 6305SOL     OW19813   0.671   6.114   5.942
 6305SOL    HW119814   0.613   6.135   5.863
 6305SOL    HW219815   0.634   6.158   6.023
 6306SOL     OW19816   0.351   4.397   4.598
 6306SOL    HW119817   0.316   4.476   4.548
 6306SOL    HW219818   0.432   4.424   4.650
 6307SOL     OW19819   3.967   3.136   2.196
 6307SOL    HW119820   3.953   3.183   2.284
 6307SOL    HW219821   4.063   3.140   2.171
 6308SOL     OW19822   1.003   2.172   0.518
 6308SOL    HW119823   0.952   2.216   0.593
 6308SOL    HW219824   1.101   2.190   0.530
 6309SOL     OW19825   1.990   6.341   4.732
 6309SOL    HW119826   2.015   6.265   4.792
 6309SOL    HW219827   1.919   6.396   4.774
 6310SOL     OW19828   1.159   0.010   3.870
 6310SOL    HW119829   1.200   7.000   3.785
 6310SOL    HW219830   1.081   0.069   3.851
 6311SOL     OW19831   6.427   1.486   6.463
 6311SOL    HW119832   6.366   1.565   6.453
 6311SOL    HW219833   6.441   1.443   6.373
 6312SOL     OW19834   3.135   5.780   0.489
 6312SOL    HW119835   3.233   5.800   0.489
 6312SOL    HW219836   3.121   5.682   0.500
 6313SOL     OW19837   5.828   4.665   3.824
 6313SOL    HW119838   5.831   4.715   3.738
 6313SOL    HW219839   5.922   4.646   3.854
 6314SOL     OW19840   1.708   6.220   2.814
 6314SOL    HW119841   1.645   6.142   2.818
 6314SOL    HW219842   1.693   6.270   2.728
 6315SOL     OW19843   2.290   1.508   3.659
 6315SOL    HW119844   2.275   1.599   3.699
 6315SOL    HW219845   2.225   1.443   3.699
 6316SOL     OW19846   4.389   0.713   5.060
 6316SOL    HW119847   4.445   0.730   5.141
 6316SOL    HW219848   4.350   0.621   5.065
 6317SOL     OW19849   4.744   4.662   2.777
 6317SOL    HW119850   4.831   4.701   2.807
 6317SOL    HW219851   4.723   4.693   2.685
 6318SOL     OW19852   6.295   6.884   6.887
 6318SOL    HW119853   6.355   6.892   6.808
 6318SOL    HW219854   6.328   6.811   6.946
 6319SOL     OW19855   4.515   1.982   4.386
 6319SOL    HW119856   4.453   1.955   4.460
 6319SOL    HW219857   4.499   1.924   4.306
 6320SOL     OW19858   6.578   1.445   5.618
 6320SOL    HW119859   6.526   1.508   5.560
 6320SOL    HW219860   6.629   1.497   5.687
 6321SOL     OW19861   0.327   2.712   0.232
 6321SOL    HW119862   0.264   2.708   0.309
 6321SOL    HW219863   0.276   2.697   0.147
 6322SOL     OW19864   1.446   1.426   3.221
 6322SOL    HW119865   1.493   1.400   3.137
 6322SOL    HW219866   1.359   1.470   3.198
 6323SOL     OW19867   2.126   4.859   0.773
 6323SOL    HW119868   2.046   4.808   0.803
 6323SOL    HW219869   2.138   4.940   0.830
 6324SOL     OW19870   4.637   3.515   1.449
 6324SOL    HW119871   4.734   3.534   1.462
 6324SOL    HW219872   4.616   3.422   1.481
 6325SOL     OW19873   1.656   2.960   3.941
 6325SOL    HW119874   1.733   3.015   3.909
 6325SOL    HW219875   1.647   2.969   4.040
 6326SOL     OW19876   5.342   5.326   5.314
 6326SOL    HW119877   5.410   5.303   5.383
 6326SOL    HW219878   5.359   5.273   5.231
 6327SOL     OW19879   0.793   1.345   3.420
 6327SOL    HW119880   0.718   1.300   3.470
 6327SOL    HW219881   0.826   1.422   3.474
 6328SOL     OW19882   4.831   3.824   5.278
 6328SOL    HW119883   4.796   3.734   5.250
 6328SOL    HW219884   4.886   3.863   5.205
 6329SOL     OW19885   0.974   2.395   5.960
 6329SOL    HW119886   0.917   2.369   6.038
 6329SOL    HW219887   1.001   2.313   5.910
 6330SOL     OW19888   4.398   1.585   3.942
 6330SOL    HW119889   4.451   1.588   3.857
 6330SOL    HW219890   4.300   1.586   3.920
 6331SOL     OW19891   1.341   3.291   3.749
 6331SOL    HW119892   1.309   3.295   3.654
 6331SOL    HW219893   1.434   3.256   3.751
 6332SOL     OW19894   3.393   1.736   0.223
 6332SOL    HW119895   3.295   1.715   0.228
 6332SOL    HW219896   3.423   1.772   0.312
 6333SOL     OW19897   5.500   0.606   0.622
 6333SOL    HW119898   5.547   0.652   0.547
 6333SOL    HW219899   5.561   0.539   0.664
 6334SOL     OW19900   1.874   1.141   1.549
 6334SOL    HW119901   1.789   1.144   1.496
 6334SOL    HW219902   1.927   1.224   1.532
 6335SOL     OW19903   6.916   3.874   5.987
 6335SOL    HW119904   6.849   3.949   5.995
 6335SOL    HW219905   6.905   3.829   5.899
 6336SOL     OW19906   0.446   4.085   5.420
 6336SOL    HW119907   0.354   4.124   5.423
 6336SOL    HW219908   0.462   4.031   5.502
 6337SOL     OW19909   5.985   6.940   5.044
 6337SOL    HW119910   6.069   6.970   4.997
 6337SOL    HW219911   5.943   7.019   5.089
 6338SOL     OW19912   1.323   1.204   3.347
 6338SOL    HW119913   1.369   1.210   3.436
 6338SOL    HW219914   1.349   1.282   3.290
 6339SOL     OW19915   0.094   3.700   3.177
 6339SOL    HW119916   0.143   3.625   3.135
 6339SOL    HW219917   0.146   3.785   3.167
 6340SOL     OW19918   2.754   4.891   0.373
 6340SOL    HW119919   2.712   4.872   0.284
 6340SOL    HW219920   2.689   4.871   0.446
 6341SOL     OW19921   6.882   5.305   1.961
 6341SOL    HW119922   6.935   5.374   1.912
 6341SOL    HW219923   6.853   5.234   1.897
 6342SOL     OW19924   2.218   0.978   1.680
 6342SOL    HW119925   2.230   0.942   1.773
 6342SOL    HW219926   2.123   0.965   1.651
 6343SOL     OW19927   1.213   5.519   0.460
 6343SOL    HW119928   1.235   5.539   0.365
 6343SOL    HW219929   1.136   5.575   0.489
 6344SOL     OW19930   1.306   1.349   4.406
 6344SOL    HW119931   1.230   1.410   4.384
 6344SOL    HW219932   1.293   1.313   4.499
 6345SOL     OW19933   5.797   2.813   2.821
 6345SOL    HW119934   5.880   2.865   2.804
 6345SOL    HW219935   5.821   2.720   2.851
 6346SOL     OW19936   0.304   4.271   5.064
 6346SOL    HW119937   0.274   4.303   4.974
 6346SOL    HW219938   0.267   4.180   5.082
 6347SOL     OW19939   2.033   2.715   3.838
 6347SOL    HW119940   1.984   2.726   3.752
 6347SOL    HW219941   2.008   2.788   3.901
 6348SOL     OW19942   1.073   2.827   6.604
 6348SOL    HW119943   1.097   2.782   6.518
 6348SOL    HW219944   1.147   2.814   6.670
 6349SOL     OW19945   5.796   0.632   0.915
 6349SOL    HW119946   5.789   0.729   0.938
 6349SOL    HW219947   5.779   0.619   0.817
 6350SOL     OW19948   0.697   6.153   1.557
 6350SOL    HW119949   0.760   6.079   1.579
 6350SOL    HW219950   0.603   6.119   1.557
 6351SOL     OW19951   5.961   3.532   1.403
 6351SOL    HW119952   5.863   3.523   1.421
 6351SOL    HW219953   6.011   3.530   1.489
 6352SOL     OW19954   3.786   0.654   4.526
 6352SOL    HW119955   3.713   0.613   4.580
 6352SOL    HW219956   3.821   0.586   4.461
 6353SOL     OW19957   3.543   6.079   5.322
 6353SOL    HW119958   3.597   6.021   5.262
 6353SOL    HW219959   3.508   6.157   5.271
 6354SOL     OW19960   5.148   5.179   2.291
 6354SOL    HW119961   5.182   5.175   2.385
 6354SOL    HW219962   5.048   5.175   2.292
 6355SOL     OW19963   3.652   5.789   1.069
 6355SOL    HW119964   3.629   5.724   1.142
 6355SOL    HW219965   3.619   5.880   1.094
 6356SOL     OW19966   0.243   6.261   6.568
 6356SOL    HW119967   0.235   6.254   6.667
 6356SOL    HW219968   0.165   6.313   6.532
 6357SOL     OW19969   4.715   1.377   3.153
 6357SOL    HW119970   4.743   1.283   3.173
 6357SOL    HW219971   4.782   1.441   3.192
 6358SOL     OW19972   1.159   1.698   4.475
 6358SOL    HW119973   1.072   1.737   4.507
 6358SOL    HW219974   1.234   1.735   4.529
 6359SOL     OW19975   5.550   5.830   1.729
 6359SOL    HW119976   5.470   5.788   1.686
 6359SOL    HW219977   5.632   5.778   1.703
 6360SOL     OW19978   2.036   2.176   1.196
 6360SOL    HW119979   2.047   2.103   1.128
 6360SOL    HW219980   2.123   2.192   1.243
 6361SOL     OW19981   0.445   1.362   1.242
 6361SOL    HW119982   0.485   1.272   1.228
 6361SOL    HW219983   0.465   1.394   1.335
 6362SOL     OW19984   1.674   5.089   0.303
 6362SOL    HW119985   1.579   5.090   0.334
 6362SOL    HW219986   1.706   5.182   0.289
 6363SOL     OW19987   1.498   3.215   2.025
 6363SOL    HW119988   1.592   3.238   2.049
 6363SOL    HW219989   1.493   3.118   1.999
 6364SOL     OW19990   2.668   1.664   3.740
 6364SOL    HW119991   2.667   1.575   3.787
 6364SOL    HW219992   2.601   1.725   3.782
 6365SOL     OW19993   6.083   6.889   2.849
 6365SOL    HW119994   6.044   6.877   2.941
 6365SOL    HW219995   6.011   6.920   2.787
 6366SOL     OW19996   5.578   0.841   5.295
 6366SOL    HW119997   5.481   0.862   5.287
 6366SOL    HW219998   5.619   0.836   5.205
 6367SOL     OW19999   1.271   2.332   3.805
 6367SOL    HW120000   1.359   2.297   3.773
 6367SOL    HW220001   1.211   2.348   3.726
 6368SOL     OW20002   4.963   3.441   4.865
 6368SOL    HW120003   5.048   3.397   4.894
 6368SOL    HW220004   4.902   3.452   4.943
 6369SOL     OW20005   4.265   4.765   0.464
 6369SOL    HW120006   4.189   4.829   0.477
 6369SOL    HW220007   4.289   4.723   0.552
 6370SOL     OW20008   5.779   4.495   4.558
 6370SOL    HW120009   5.855   4.475   4.496
 6370SOL    HW220010   5.718   4.415   4.562
 6371SOL     OW20011   5.542   4.606   0.991
 6371SOL    HW120012   5.619   4.644   1.041
 6371SOL    HW220013   5.478   4.679   0.968
 6372SOL     OW20014   6.644   1.564   1.661
 6372SOL    HW120015   6.663   1.485   1.603
 6372SOL    HW220016   6.546   1.567   1.682
 6373SOL     OW20017   4.965   3.088   2.179
 6373SOL    HW120018   4.906   3.067   2.101
 6373SOL    HW220019   5.059   3.100   2.148
 6374SOL     OW20020   4.853   3.415   6.245
 6374SOL    HW120021   4.845   3.414   6.345
 6374SOL    HW220022   4.885   3.505   6.215
 6375SOL     OW20023   5.014   1.134   2.022
 6375SOL    HW120024   5.056   1.102   2.107
 6375SOL    HW220025   4.915   1.127   2.029
 6376SOL     OW20026   2.861   0.085   0.315
 6376SOL    HW120027   2.856   0.082   0.215
 6376SOL    HW220028   2.898   7.021   0.349
 6377SOL     OW20029   7.018   0.741   6.930
 6377SOL    HW120030   6.984   0.759   7.022
 6377SOL    HW220031   0.030   0.647   6.925
 6378SOL     OW20032   5.839   4.398   2.304
 6378SOL    HW120033   5.918   4.363   2.254
 6378SOL    HW220034   5.860   4.489   2.340
 6379SOL     OW20035   2.008   5.369   6.240
 6379SOL    HW120036   1.974   5.451   6.193
 6379SOL    HW220037   2.065   5.396   6.317
 6380SOL     OW20038   1.400   3.046   5.487
 6380SOL    HW120039   1.381   2.984   5.562
 6380SOL    HW220040   1.459   3.001   5.420
 6381SOL     OW20041   3.787   4.196   0.433
 6381SOL    HW120042   3.837   4.282   0.442
 6381SOL    HW220043   3.707   4.209   0.375
 6382SOL     OW20044   1.794   1.163   0.503
 6382SOL    HW120045   1.768   1.258   0.520
 6382SOL    HW220046   1.728   1.122   0.440
 6383SOL     OW20047   2.481   2.540   2.299
 6383SOL    HW120048   2.535   2.488   2.234
 6383SOL    HW220049   2.471   2.487   2.384
 6384SOL     OW20050   6.644   2.789   1.979
 6384SOL    HW120051   6.581   2.730   1.930
 6384SOL    HW220052   6.603   2.880   1.991
 6385SOL     OW20053   6.583   3.784   0.553
 6385SOL    HW120054   6.563   3.851   0.625
 6385SOL    HW220055   6.635   3.707   0.593
 6386SOL     OW20056   3.170   3.215   0.145
 6386SOL    HW120057   3.185   3.212   0.244
 6386SOL    HW220058   3.072   3.213   0.126
 6387SOL     OW20059   6.678   6.999   6.776
 6387SOL    HW120060   6.741   7.000   6.854
 6387SOL    HW220061   6.618   0.056   6.781
 6388SOL     OW20062   5.774   5.406   2.009
 6388SOL    HW120063   5.857   5.457   1.985
 6388SOL    HW220064   5.798   5.319   2.051
 6389SOL     OW20065   6.760   6.558   0.497
 6389SOL    HW120066   6.747   6.509   0.410
 6389SOL    HW220067   6.857   6.559   0.520
 6390SOL     OW20068   5.321   0.061   0.047
 6390SOL    HW120069   5.252   7.020   0.011
 6390SOL    HW220070   5.408   0.013   0.057
 6391SOL     OW20071   1.593   2.017   4.936
 6391SOL    HW120072   1.542   2.098   4.965
 6391SOL    HW220073   1.598   2.014   4.836
 6392SOL     OW20074   4.607   0.493   4.271
 6392SOL    HW120075   4.561   0.567   4.222
 6392SOL    HW220076   4.692   0.468   4.225
 6393SOL     OW20077   1.755   4.456   0.733
 6393SOL    HW120078   1.783   4.377   0.787
 6393SOL    HW220079   1.664   4.485   0.761
 6394SOL     OW20080   2.055   5.043   1.627
 6394SOL    HW120081   2.089   5.097   1.703
 6394SOL    HW220082   2.017   4.957   1.661
 6395SOL     OW20083   1.987   4.310   4.328
 6395SOL    HW120084   2.033   4.255   4.398
 6395SOL    HW220085   2.026   4.402   4.327
 6396SOL     OW20086   2.099   2.913   5.668
 6396SOL    HW120087   2.000   2.908   5.680
 6396SOL    HW220088   2.133   2.823   5.638
 6397SOL     OW20089   6.456   3.425   5.001
 6397SOL    HW120090   6.476   3.523   4.998
 6397SOL    HW220091   6.357   3.412   4.993
 6398SOL     OW20092   2.148   0.474   2.617
 6398SOL    HW120093   2.238   0.452   2.581
 6398SOL    HW220094   2.144   0.452   2.715
 6399SOL     OW20095   3.298   6.835   0.262
 6399SOL    HW120096   3.307   6.810   0.165
 6399SOL    HW220097   3.349   6.920   0.279
 6400SOL     OW20098   0.672   0.017   2.740
 6400SOL    HW120099   0.723   6.953   2.741
 6400SOL    HW220100   0.706   0.075   2.665
 6401SOL     OW20101   4.134   5.251   2.648
 6401SOL    HW120102   4.038   5.224   2.659
 6401SOL    HW220103   4.143   5.312   2.569
 6402SOL     OW20104   3.190   4.562   5.590
 6402SOL    HW120105   3.183   4.516   5.501
 6402SOL    HW220106   3.249   4.642   5.581
 6403SOL     OW20107   5.155   5.397   5.745
 6403SOL    HW120108   5.105   5.402   5.658
 6403SOL    HW220109   5.090   5.388   5.820
 6404SOL     OW20110   4.781   5.904   0.225
 6404SOL    HW120111   4.715   5.890   0.298
 6404SOL    HW220112   4.850   5.970   0.256
 6405SOL     OW20113   4.303   1.225   2.820
 6405SOL    HW120114   4.330   1.156   2.753
 6405SOL    HW220115   4.382   1.250   2.876
 6406SOL     OW20116   0.284   3.380   2.676
 6406SOL    HW120117   0.229   3.463   2.666
 6406SOL    HW220118   0.224   3.301   2.685
 6407SOL     OW20119   0.490   6.953   2.297
 6407SOL    HW120120   0.534   6.918   2.214
 6407SOL    HW220121   0.438   6.880   2.342
 6408SOL     OW20122   0.038   1.107   1.952
 6408SOL    HW120123   7.018   1.194   1.927
 6408SOL    HW220124   0.081   1.115   2.042
 6409SOL     OW20125   5.545   4.510   3.432
 6409SOL    HW120126   5.535   4.524   3.333
 6409SOL    HW220127   5.491   4.431   3.460
 6410SOL     OW20128   2.009   1.332   0.270
 6410SOL    HW120129   2.036   1.348   0.365
 6410SOL    HW220130   1.915   1.364   0.256
 6411SOL     OW20131   0.543   2.941   2.325
 6411SOL    HW120132   0.595   3.020   2.358
 6411SOL    HW220133   0.447   2.951   2.351
 6412SOL     OW20134   3.859   0.656   6.755
 6412SOL    HW120135   3.916   0.682   6.677
 6412SOL    HW220136   3.763   0.664   6.731
 6413SOL     OW20137   5.151   6.465   3.391
 6413SOL    HW120138   5.234   6.422   3.426
 6413SOL    HW220139   5.116   6.414   3.312
 6414SOL     OW20140   2.910   0.681   0.506
 6414SOL    HW120141   2.830   0.648   0.455
 6414SOL    HW220142   2.954   0.603   0.552
 6415SOL     OW20143   0.950   1.927   3.649
 6415SOL    HW120144   1.011   1.888   3.718
 6415SOL    HW220145   0.857   1.933   3.686
 6416SOL     OW20146   3.269   5.051   0.111
 6416SOL    HW120147   3.340   4.992   0.150
 6416SOL    HW220148   3.308   5.140   0.089
 6417SOL     OW20149   4.375   2.851   6.853
 6417SOL    HW120150   4.333   2.763   6.828
 6417SOL    HW220151   4.325   2.926   6.811
 6418SOL     OW20152   5.195   4.990   0.486
 6418SOL    HW120153   5.141   4.971   0.569
 6418SOL    HW220154   5.201   5.089   0.473
 6419SOL     OW20155   0.724   6.293   7.016
 6419SOL    HW120156   0.796   6.233   6.982
 6419SOL    HW220157   0.656   6.307   6.945
 6420SOL     OW20158   2.687   4.792   3.790
 6420SOL    HW120159   2.695   4.789   3.890
 6420SOL    HW220160   2.775   4.817   3.750
 6421SOL     OW20161   4.816   6.869   1.614
 6421SOL    HW120162   4.847   6.952   1.568
 6421SOL    HW220163   4.845   6.789   1.561
 6422SOL     OW20164   6.989   3.130   4.497
 6422SOL    HW120165   0.011   3.041   4.487
 6422SOL    HW220166   0.035   3.202   4.482
 6423SOL     OW20167   0.970   4.288   4.898
 6423SOL    HW120168   0.926   4.333   4.976
 6423SOL    HW220169   0.908   4.220   4.859
 6424SOL     OW20170   6.920   4.526   5.908
 6424SOL    HW120171   6.889   4.543   5.815
 6424SOL    HW220172   6.841   4.514   5.968
 6425SOL     OW20173   6.957   6.117   4.326
 6425SOL    HW120174   0.030   6.088   4.333
 6425SOL    HW220175   6.935   6.141   4.231
 6426SOL     OW20176   4.702   5.215   4.510
 6426SOL    HW120177   4.704   5.247   4.415
 6426SOL    HW220178   4.611   5.231   4.548
 6427SOL     OW20179   4.122   3.508   3.188
 6427SOL    HW120180   4.062   3.444   3.237
 6427SOL    HW220181   4.157   3.464   3.105
 6428SOL     OW20182   5.703   3.262   0.329
 6428SOL    HW120183   5.644   3.268   0.248
 6428SOL    HW220184   5.658   3.206   0.398
 6429SOL     OW20185   2.168   1.587   5.673
 6429SOL    HW120186   2.250   1.555   5.721
 6429SOL    HW220187   2.189   1.603   5.577
 6430SOL     OW20188   6.067   1.081   5.231
 6430SOL    HW120189   6.144   1.018   5.243
 6430SOL    HW220190   6.040   1.083   5.135
 6431SOL     OW20191   3.695   5.238   2.345
 6431SOL    HW120192   3.634   5.189   2.406
 6431SOL    HW220193   3.734   5.174   2.279
 6432SOL     OW20194   4.855   2.992   5.759
 6432SOL    HW120195   4.776   3.053   5.748
 6432SOL    HW220196   4.910   2.994   5.675
 6433SOL     OW20197   3.653   5.035   5.702
 6433SOL    HW120198   3.612   5.107   5.646
 6433SOL    HW220199   3.732   5.071   5.751
 6434SOL     OW20200   5.474   5.261   5.967
 6434SOL    HW120201   5.481   5.360   5.984
 6434SOL    HW220202   5.459   5.246   5.869
 6435SOL     OW20203   4.714   1.147   0.893
 6435SOL    HW120204   4.693   1.139   0.991
 6435SOL    HW220205   4.671   1.071   0.844
 6436SOL     OW20206   0.468   3.473   3.682
 6436SOL    HW120207   0.430   3.474   3.774
 6436SOL    HW220208   0.438   3.391   3.634
 6437SOL     OW20209   1.299   2.873   6.046
 6437SOL    HW120210   1.249   2.787   6.036
 6437SOL    HW220211   1.336   2.901   5.958
 6438SOL     OW20212   0.594   5.383   0.159
 6438SOL    HW120213   0.604   5.367   0.061
 6438SOL    HW220214   0.524   5.453   0.174
 6439SOL     OW20215   5.606   6.846   2.191
 6439SOL    HW120216   5.626   6.754   2.227
 6439SOL    HW220217   5.608   6.911   2.266
 6440SOL     OW20218   2.778   1.555   5.944
 6440SOL    HW120219   2.784   1.507   6.032
 6440SOL    HW220220   2.733   1.643   5.957
 6441SOL     OW20221   0.256   2.208   1.953
 6441SOL    HW120222   0.320   2.142   1.915
 6441SOL    HW220223   0.163   2.187   1.922
 6442SOL     OW20224   2.408   2.281   4.714
 6442SOL    HW120225   2.383   2.191   4.749
 6442SOL    HW220226   2.368   2.352   4.772
 6443SOL     OW20227   3.679   3.169   6.509
 6443SOL    HW120228   3.702   3.167   6.412
 6443SOL    HW220229   3.704   3.258   6.547
 6444SOL     OW20230   6.957   4.158   4.837
 6444SOL    HW120231   6.952   4.059   4.849
 6444SOL    HW220232   0.009   4.180   4.774
 6445SOL     OW20233   3.894   3.065   3.398
 6445SOL    HW120234   3.875   3.062   3.300
 6445SOL    HW220235   3.836   2.999   3.445
 6446SOL     OW20236   1.201   0.994   0.258
 6446SOL    HW120237   1.253   0.940   0.324
 6446SOL    HW220238   1.153   0.933   0.195
 6447SOL     OW20239   5.825   3.591   2.147
 6447SOL    HW120240   5.761   3.593   2.071
 6447SOL    HW220241   5.782   3.628   2.229
 6448SOL     OW20242   4.567   4.646   1.248
 6448SOL    HW120243   4.651   4.608   1.286
 6448SOL    HW220244   4.556   4.615   1.154
 6449SOL     OW20245   3.683   5.184   0.572
 6449SOL    HW120246   3.678   5.106   0.633
 6449SOL    HW220247   3.591   5.206   0.538
 6450SOL     OW20248   6.227   3.452   6.561
 6450SOL    HW120249   6.221   3.378   6.628
 6450SOL    HW220250   6.136   3.470   6.523
 6451SOL     OW20251   4.228   2.704   1.680
 6451SOL    HW120252   4.201   2.799   1.666
 6451SOL    HW220253   4.317   2.701   1.725
 6452SOL     OW20254   3.901   2.104   5.057
 6452SOL    HW120255   3.962   2.027   5.076
 6452SOL    HW220256   3.925   2.181   5.116
 6453SOL     OW20257   1.763   0.401   2.901
 6453SOL    HW120258   1.735   0.480   2.845
 6453SOL    HW220259   1.781   0.431   2.994
 6454SOL     OW20260   5.129   2.708   4.456
 6454SOL    HW120261   5.053   2.772   4.458
 6454SOL    HW220262   5.152   2.680   4.549
 6455SOL     OW20263   6.823   3.111   3.757
 6455SOL    HW120264   6.800   3.052   3.835
 6455SOL    HW220265   6.781   3.075   3.674
 6456SOL     OW20266   6.497   2.133   2.147
 6456SOL    HW120267   6.571   2.110   2.210
 6456SOL    HW220268   6.410   2.132   2.196
 6457SOL     OW20269   2.564   6.317   2.621
 6457SOL    HW120270   2.565   6.412   2.653
 6457SOL    HW220271   2.475   6.276   2.643
 6458SOL     OW20272   0.167   0.051   4.678
 6458SOL    HW120273   0.244   0.105   4.644
 6458SOL    HW220274   0.145   0.081   4.771
 6459SOL     OW20275   0.381   3.147   3.100
 6459SOL    HW120276   0.411   3.078   3.033
 6459SOL    HW220277   0.462   3.191   3.140
 6460SOL     OW20278   1.576   5.288   6.302
 6460SOL    HW120279   1.654   5.226   6.313
 6460SOL    HW220280   1.538   5.278   6.210
 6461SOL     OW20281   0.859   6.195   1.039
 6461SOL    HW120282   0.907   6.179   0.953
 6461SOL    HW220283   0.854   6.293   1.056
 6462SOL     OW20284   1.933   3.783   5.096
 6462SOL    HW120285   2.002   3.795   5.168
 6462SOL    HW220286   1.866   3.715   5.125
 6463SOL     OW20287   5.119   2.978   1.113
 6463SOL    HW120288   5.196   3.039   1.135
 6463SOL    HW220289   5.033   3.026   1.128
 6464SOL     OW20290   0.664   4.248   3.622
 6464SOL    HW120291   0.650   4.149   3.614
 6464SOL    HW220292   0.761   4.269   3.610
 6465SOL     OW20293   2.844   0.804   3.828
 6465SOL    HW120294   2.904   0.871   3.872
 6465SOL    HW220295   2.844   0.818   3.729
 6466SOL     OW20296   6.941   5.102   6.715
 6466SOL    HW120297   6.856   5.144   6.684
 6466SOL    HW220298   6.935   5.080   6.812
 6467SOL     OW20299   2.180   2.029   6.254
 6467SOL    HW120300   2.125   2.060   6.332
 6467SOL    HW220301   2.119   1.991   6.184
 6468SOL     OW20302   1.711   0.293   1.422
 6468SOL    HW120303   1.670   0.324   1.337
 6468SOL    HW220304   1.662   0.335   1.500
 6469SOL     OW20305   2.449   1.079   1.559
 6469SOL    HW120306   2.368   1.053   1.611
 6469SOL    HW220307   2.531   1.053   1.609
 6470SOL     OW20308   6.475   1.470   0.066
 6470SOL    HW120309   6.396   1.499   0.119
 6470SOL    HW220310   6.556   1.465   0.125
 6471SOL     OW20311   0.222   6.354   5.774
 6471SOL    HW120312   0.165   6.354   5.856
 6471SOL    HW220313   0.315   6.383   5.799
 6472SOL     OW20314   6.933   6.441   2.520
 6472SOL    HW120315   6.896   6.404   2.435
 6472SOL    HW220316   6.881   6.403   2.597
 6473SOL     OW20317   2.592   0.846   2.972
 6473SOL    HW120318   2.625   0.930   2.928
 6473SOL    HW220319   2.553   0.869   3.062
 6474SOL     OW20320   3.585   6.402   3.934
 6474SOL    HW120321   3.668   6.379   3.984
 6474SOL    HW220322   3.589   6.362   3.842
 6475SOL     OW20323   5.515   5.584   3.115
 6475SOL    HW120324   5.517   5.484   3.105
 6475SOL    HW220325   5.541   5.627   3.029
 6476SOL     OW20326   4.625   3.249   6.217
 6476SOL    HW120327   4.712   3.298   6.216
 6476SOL    HW220328   4.580   3.261   6.306
 6477SOL     OW20329   0.513   6.361   0.940
 6477SOL    HW120330   0.593   6.408   0.901
 6477SOL    HW220331   0.486   6.286   0.879
 6478SOL     OW20332   1.991   6.123   1.258
 6478SOL    HW120333   1.941   6.130   1.344
 6478SOL    HW220334   2.087   6.103   1.276
 6479SOL     OW20335   4.748   6.066   3.159
 6479SOL    HW120336   4.846   6.060   3.141
 6479SOL    HW220337   4.732   6.071   3.258
 6480SOL     OW20338   3.538   1.690   5.942
 6480SOL    HW120339   3.441   1.711   5.958
 6480SOL    HW220340   3.567   1.618   6.006
 6481SOL     OW20341   4.231   3.313   1.867
 6481SOL    HW120342   4.240   3.384   1.797
 6481SOL    HW220343   4.285   3.233   1.840
 6482SOL     OW20344   5.017   3.336   5.406
 6482SOL    HW120345   5.111   3.348   5.436
 6482SOL    HW220346   5.004   3.382   5.318
 6483SOL     OW20347   1.849   5.799   5.072
 6483SOL    HW120348   1.866   5.735   5.147
 6483SOL    HW220349   1.922   5.791   5.004
 6484SOL     OW20350   4.127   1.253   3.456
 6484SOL    HW120351   4.102   1.174   3.511
 6484SOL    HW220352   4.145   1.332   3.515
 6485SOL     OW20353   2.445   5.494   4.846
 6485SOL    HW120354   2.371   5.432   4.872
 6485SOL    HW220355   2.501   5.515   4.925
 6486SOL     OW20356   6.929   4.638   2.358
 6486SOL    HW120357   6.920   4.673   2.451
 6486SOL    HW220358   6.927   4.538   2.360
 6487SOL     OW20359   6.616   5.076   3.721
 6487SOL    HW120360   6.621   5.176   3.722
 6487SOL    HW220361   6.680   5.041   3.652
 6488SOL     OW20362   3.451   5.173   4.346
 6488SOL    HW120363   3.445   5.074   4.339
 6488SOL    HW220364   3.372   5.208   4.397
 6489SOL     OW20365   5.471   3.246   4.491
 6489SOL    HW120366   5.444   3.298   4.410
 6489SOL    HW220367   5.389   3.209   4.536
 6490SOL     OW20368   2.203   2.612   0.377
 6490SOL    HW120369   2.180   2.690   0.319
 6490SOL    HW220370   2.120   2.562   0.400
 6491SOL     OW20371   1.775   6.674   1.692
 6491SOL    HW120372   1.872   6.694   1.709
 6491SOL    HW220373   1.721   6.709   1.769
 6492SOL     OW20374   4.119   3.740   3.981
 6492SOL    HW120375   4.052   3.813   3.963
 6492SOL    HW220376   4.166   3.717   3.896
 6493SOL     OW20377   1.275   4.593   3.932
 6493SOL    HW120378   1.270   4.663   4.004
 6493SOL    HW220379   1.204   4.611   3.864
 6494SOL     OW20380   6.130   0.748   1.042
 6494SOL    HW120381   6.186   0.780   0.965
 6494SOL    HW220382   6.068   0.676   1.011
 6495SOL     OW20383   6.897   6.997   3.410
 6495SOL    HW120384   6.960   6.939   3.461
 6495SOL    HW220385   6.928   0.069   3.413
 6496SOL     OW20386   3.285   2.129   1.940
 6496SOL    HW120387   3.283   2.105   1.842
 6496SOL    HW220388   3.380   2.132   1.971
 6497SOL     OW20389   0.013   1.623   0.921
 6497SOL    HW120390   0.073   1.623   0.841
 6497SOL    HW220391   0.063   1.589   1.000
 6498SOL     OW20392   2.348   4.362   4.457
 6498SOL    HW120393   2.368   4.440   4.516
 6498SOL    HW220394   2.341   4.392   4.362
 6499SOL     OW20395   4.481   2.487   3.564
 6499SOL    HW120396   4.474   2.408   3.624
 6499SOL    HW220397   4.455   2.461   3.471
 6500SOL     OW20398   1.175   3.653   3.413
 6500SOL    HW120399   1.272   3.673   3.425
 6500SOL    HW220400   1.162   3.591   3.336
 6501SOL     OW20401   6.014   1.348   3.027
 6501SOL    HW120402   6.015   1.249   3.042
 6501SOL    HW220403   5.959   1.392   3.099
 6502SOL     OW20404   0.480   3.394   1.422
 6502SOL    HW120405   0.562   3.337   1.421
 6502SOL    HW220406   0.462   3.428   1.329
 6503SOL     OW20407   6.634   3.314   5.655
 6503SOL    HW120408   6.632   3.395   5.596
 6503SOL    HW220409   6.551   3.312   5.711
 6504SOL     OW20410   3.397   0.220   6.353
 6504SOL    HW120411   3.465   0.148   6.364
 6504SOL    HW220412   3.391   0.274   6.437
 6505SOL     OW20413   0.264   6.731   0.958
 6505SOL    HW120414   0.318   6.701   0.880
 6505SOL    HW220415   0.223   6.651   1.003
 6506SOL     OW20416   0.509   3.674   2.153
 6506SOL    HW120417   0.598   3.684   2.108
 6506SOL    HW220418   0.503   3.585   2.197
 6507SOL     OW20419   4.058   5.412   1.027
 6507SOL    HW120420   4.129   5.421   1.097
 6507SOL    HW220421   4.096   5.440   0.939
 6508SOL     OW20422   6.738   0.746   3.585
 6508SOL    HW120423   6.751   0.648   3.603
 6508SOL    HW220424   6.645   0.761   3.553
 6509SOL     OW20425   2.680   1.806   0.197
 6509SOL    HW120426   2.610   1.735   0.203
 6509SOL    HW220427   2.692   1.833   0.101
 6510SOL     OW20428   3.204   5.252   5.100
 6510SOL    HW120429   3.300   5.240   5.123
 6510SOL    HW220430   3.148   5.249   5.183
 6511SOL     OW20431   2.969   2.145   0.380
 6511SOL    HW120432   3.010   2.120   0.293
 6511SOL    HW220433   2.869   2.137   0.374
 6512SOL     OW20434   5.108   0.763   0.178
 6512SOL    HW120435   5.206   0.772   0.159
 6512SOL    HW220436   5.068   0.694   0.117
 6513SOL     OW20437   2.712   4.768   3.144
 6513SOL    HW120438   2.663   4.693   3.099
 6513SOL    HW220439   2.655   4.806   3.217
 6514SOL     OW20440   5.211   6.015   5.428
 6514SOL    HW120441   5.121   6.024   5.470
 6514SOL    HW220442   5.261   5.942   5.472
 6515SOL     OW20443   0.679   4.835   2.866
 6515SOL    HW120444   0.606   4.788   2.815
 6515SOL    HW220445   0.662   4.934   2.865
 6516SOL     OW20446   6.408   2.533   2.691
 6516SOL    HW120447   6.485   2.564   2.636
 6516SOL    HW220448   6.410   2.579   2.780
 6517SOL     OW20449   6.452   3.863   0.320
 6517SOL    HW120450   6.498   3.834   0.404
 6517SOL    HW220451   6.430   3.961   0.328
 6518SOL     OW20452   1.078   0.979   2.076
 6518SOL    HW120453   1.056   0.937   1.988
 6518SOL    HW220454   1.177   0.992   2.083
 6519SOL     OW20455   1.482   1.286   2.828
 6519SOL    HW120456   1.383   1.277   2.834
 6519SOL    HW220457   1.512   1.360   2.889
 6520SOL     OW20458   6.540   5.563   0.197
 6520SOL    HW120459   6.590   5.593   0.278
 6520SOL    HW220460   6.503   5.471   0.213
 6521SOL     OW20461   1.637   4.812   4.177
 6521SOL    HW120462   1.658   4.717   4.197
 6521SOL    HW220463   1.584   4.852   4.252
 6522SOL     OW20464   2.694   3.007   5.377
 6522SOL    HW120465   2.635   2.958   5.441
 6522SOL    HW220466   2.639   3.055   5.310
 6523SOL     OW20467   6.425   6.737   0.896
 6523SOL    HW120468   6.456   6.717   0.802
 6523SOL    HW220469   6.352   6.674   0.920
 6524SOL     OW20470   3.250   3.040   1.250
 6524SOL    HW120471   3.254   3.137   1.226
 6524SOL    HW220472   3.177   2.996   1.197
 6525SOL     OW20473   1.335   4.787   3.496
 6525SOL    HW120474   1.336   4.839   3.581
 6525SOL    HW220475   1.292   4.698   3.512
 6526SOL     OW20476   6.985   6.345   0.604
 6526SOL    HW120477   0.035   6.377   0.665
 6526SOL    HW220478   6.896   6.372   0.641
 6527SOL     OW20479   5.873   1.774   1.290
 6527SOL    HW120480   5.817   1.705   1.244
 6527SOL    HW220481   5.845   1.783   1.385
 6528SOL     OW20482   4.439   6.963   0.478
 6528SOL    HW120483   4.400   6.924   0.395
 6528SOL    HW220484   4.539   6.965   0.471
 6529SOL     OW20485   4.679   0.287   2.004
 6529SOL    HW120486   4.596   0.342   1.992
 6529SOL    HW220487   4.667   0.227   2.083
 6530SOL     OW20488   0.487   2.613   3.318
 6530SOL    HW120489   0.398   2.600   3.361
 6530SOL    HW220490   0.489   2.701   3.270
 6531SOL     OW20491   3.900   3.949   3.918
 6531SOL    HW120492   3.887   4.009   3.996
 6531SOL    HW220493   3.811   3.914   3.888
 6532SOL     OW20494   1.014   6.176   0.772
 6532SOL    HW120495   0.977   6.108   0.708
 6532SOL    HW220496   1.075   6.238   0.724
 6533SOL     OW20497   4.801   4.645   1.411
 6533SOL    HW120498   4.842   4.558   1.438
 6533SOL    HW220499   4.746   4.681   1.486
 6534SOL     OW20500   6.948   4.524   3.452
 6534SOL    HW120501   7.018   4.498   3.385
 6534SOL    HW220502   6.857   4.517   3.411
 6535SOL     OW20503   5.250   4.122   5.506
 6535SOL    HW120504   5.189   4.080   5.439
 6535SOL    HW220505   5.196   4.162   5.580
 6536SOL     OW20506   0.239   4.665   5.556
 6536SOL    HW120507   0.264   4.668   5.652
 6536SOL    HW220508   0.287   4.590   5.511
 6537SOL     OW20509   0.024   5.536   3.856
 6537SOL    HW120510   0.040   5.611   3.920
 6537SOL    HW220511   6.959   5.491   3.877
 6538SOL     OW20512   1.084   2.689   4.444
 6538SOL    HW120513   1.092   2.781   4.408
 6538SOL    HW220514   1.037   2.631   4.378
 6539SOL     OW20515   4.298   6.499   6.520
 6539SOL    HW120516   4.244   6.445   6.455
 6539SOL    HW220517   4.354   6.565   6.470
 6540SOL     OW20518   0.075   2.912   5.586
 6540SOL    HW120519   0.025   2.965   5.655
 6540SOL    HW220520   0.065   2.957   5.497
 6541SOL     OW20521   4.618   1.832   5.601
 6541SOL    HW120522   4.608   1.760   5.533
 6541SOL    HW220523   4.565   1.808   5.683
 6542SOL     OW20524   1.726   3.951   2.792
 6542SOL    HW120525   1.799   3.887   2.814
 6542SOL    HW220526   1.751   4.005   2.712
 6543SOL     OW20527   3.758   1.422   4.609
 6543SOL    HW120528   3.798   1.513   4.597
 6543SOL    HW220529   3.828   1.352   4.594
 6544SOL     OW20530   0.439   0.433   0.414
 6544SOL    HW120531   0.443   0.533   0.414
 6544SOL    HW220532   0.481   0.398   0.330
 6545SOL     OW20533   4.859   6.148   0.905
 6545SOL    HW120534   4.889   6.071   0.962
 6545SOL    HW220535   4.923   6.159   0.829
 6546SOL     OW20536   4.677   5.110   5.836
 6546SOL    HW120537   4.581   5.133   5.850
 6546SOL    HW220538   4.707   5.047   5.909
 6547SOL     OW20539   0.702   6.262   5.320
 6547SOL    HW120540   0.722   6.358   5.340
 6547SOL    HW220541   0.692   6.250   5.221
 6548SOL     OW20542   0.855   1.930   6.083
 6548SOL    HW120543   0.848   1.920   5.983
 6548SOL    HW220544   0.787   1.996   6.114
 6549SOL     OW20545   3.534   1.801   2.683
 6549SOL    HW120546   3.621   1.772   2.644
 6549SOL    HW220547   3.466   1.809   2.610
 6550SOL     OW20548   5.926   6.607   2.406
 6550SOL    HW120549   5.849   6.622   2.467
 6550SOL    HW220550   5.896   6.555   2.325
 6551SOL     OW20551   3.056   5.164   0.688
 6551SOL    HW120552   3.031   5.256   0.718
 6551SOL    HW220553   3.135   5.132   0.740
 6552SOL     OW20554   2.182   4.581   6.892
 6552SOL    HW120555   2.110   4.650   6.892
 6552SOL    HW220556   2.164   4.512   6.962
 6553SOL     OW20557   0.729   2.147   3.648
 6553SOL    HW120558   0.697   2.077   3.712
 6553SOL    HW220559   0.694   2.127   3.557
 6554SOL     OW20560   1.481   2.638   3.966
 6554SOL    HW120561   1.571   2.673   3.938
 6554SOL    HW220562   1.436   2.596   3.887
 6555SOL     OW20563   1.425   3.717   4.444
 6555SOL    HW120564   1.362   3.751   4.374
 6555SOL    HW220565   1.481   3.792   4.478
 6556SOL     OW20566   4.742   2.923   2.769
 6556SOL    HW120567   4.662   2.982   2.755
 6556SOL    HW220568   4.751   2.860   2.692
 6557SOL     OW20569   2.241   1.136   2.022
 6557SOL    HW120570   2.148   1.116   1.991
 6557SOL    HW220571   2.245   1.133   2.121
 6558SOL     OW20572   5.502   5.980   1.143
 6558SOL    HW120573   5.490   5.979   1.242
 6558SOL    HW220574   5.534   5.891   1.112
 6559SOL     OW20575   0.037   2.296   6.117
 6559SOL    HW120576   7.021   2.319   6.206
 6559SOL    HW220577   7.001   2.229   6.072
 6560SOL     OW20578   6.306   4.352   6.429
 6560SOL    HW120579   6.355   4.315   6.507
 6560SOL    HW220580   6.334   4.446   6.412
 6561SOL     OW20581   2.591   4.547   0.696
 6561SOL    HW120582   2.558   4.453   0.691
 6561SOL    HW220583   2.518   4.606   0.730
 6562SOL     OW20584   4.816   2.609   1.456
 6562SOL    HW120585   4.804   2.703   1.488
 6562SOL    HW220586   4.897   2.570   1.498
 6563SOL     OW20587   6.550   5.240   5.365
 6563SOL    HW120588   6.516   5.327   5.399
 6563SOL    HW220589   6.522   5.166   5.427
 6564SOL     OW20590   5.238   3.385   2.501
 6564SOL    HW120591   5.277   3.297   2.529
 6564SOL    HW220592   5.226   3.386   2.402
 6565SOL     OW20593   5.336   6.872   2.112
 6565SOL    HW120594   5.311   6.894   2.018
 6565SOL    HW220595   5.435   6.883   2.123
 6566SOL     OW20596   5.210   5.336   3.666
 6566SOL    HW120597   5.167   5.387   3.741
 6566SOL    HW220598   5.295   5.294   3.699
 6567SOL     OW20599   3.606   0.519   2.478
 6567SOL    HW120600   3.542   0.448   2.447
 6567SOL    HW220601   3.680   0.529   2.412
 6568SOL     OW20602   4.946   0.911   0.630
 6568SOL    HW120603   4.935   1.007   0.656
 6568SOL    HW220604   5.012   0.905   0.554
 6569SOL     OW20605   1.062   5.033   4.150
 6569SOL    HW120606   1.012   5.088   4.217
 6569SOL    HW220607   1.142   4.993   4.194
 6570SOL     OW20608   4.216   0.358   2.309
 6570SOL    HW120609   4.164   0.300   2.247
 6570SOL    HW220610   4.306   0.376   2.270
 6571SOL     OW20611   2.950   6.133   3.234
 6571SOL    HW120612   3.019   6.146   3.306
 6571SOL    HW220613   2.931   6.220   3.189
 6572SOL     OW20614   1.560   6.180   3.671
 6572SOL    HW120615   1.528   6.087   3.690
 6572SOL    HW220616   1.513   6.244   3.731
 6573SOL     OW20617   0.041   2.278   3.016
 6573SOL    HW120618   7.004   2.202   3.042
 6573SOL    HW220619   0.079   2.320   3.097
 6574SOL     OW20620   1.580   4.685   2.060
 6574SOL    HW120621   1.623   4.772   2.087
 6574SOL    HW220622   1.522   4.699   1.980
 6575SOL     OW20623   7.012   1.906   3.212
 6575SOL    HW120624   6.976   1.897   3.305
 6575SOL    HW220625   6.965   1.980   3.165
 6576SOL     OW20626   3.710   0.063   1.588
 6576SOL    HW120627   3.707   0.079   1.687
 6576SOL    HW220628   3.676   0.143   1.540
 6577SOL     OW20629   3.545   0.959   4.525
 6577SOL    HW120630   3.506   0.868   4.532
 6577SOL    HW220631   3.553   0.985   4.429
 6578SOL     OW20632   1.553   4.593   0.849
 6578SOL    HW120633   1.454   4.594   0.864
 6578SOL    HW220634   1.587   4.687   0.844
 6579SOL     OW20635   1.233   1.170   3.780
 6579SOL    HW120636   1.154   1.208   3.731
 6579SOL    HW220637   1.204   1.088   3.830
 6580SOL     OW20638   2.663   2.090   0.309
 6580SOL    HW120639   2.643   2.005   0.260
 6580SOL    HW220640   2.578   2.140   0.325
 6581SOL     OW20641   0.610   2.014   1.116
 6581SOL    HW120642   0.678   2.075   1.158
 6581SOL    HW220643   0.532   2.004   1.177
 6582SOL     OW20644   5.280   0.640   3.191
 6582SOL    HW120645   5.198   0.680   3.233
 6582SOL    HW220646   5.329   0.585   3.259
 6583SOL     OW20647   3.048   4.259   0.611
 6583SOL    HW120648   3.061   4.282   0.515
 6583SOL    HW220649   2.992   4.329   0.656
 6584SOL     OW20650   4.127   2.247   6.553
 6584SOL    HW120651   4.138   2.151   6.529
 6584SOL    HW220652   4.114   2.255   6.652
 6585SOL     OW20653   5.628   0.068   1.808
 6585SOL    HW120654   5.612   0.164   1.783
 6585SOL    HW220655   5.664   0.064   1.901
 6586SOL     OW20656   6.662   1.288   6.251
 6586SOL    HW120657   6.759   1.308   6.233
 6586SOL    HW220658   6.656   1.218   6.322
 6587SOL     OW20659   2.963   5.033   4.969
 6587SOL    HW120660   2.878   5.011   5.016
 6587SOL    HW220661   2.971   5.132   4.958
 6588SOL     OW20662   0.980   1.950   0.367
 6588SOL    HW120663   0.993   2.036   0.417
 6588SOL    HW220664   0.968   1.969   0.270
 6589SOL     OW20665   6.533   6.383   2.013
 6589SOL    HW120666   6.613   6.324   2.028
 6589SOL    HW220667   6.451   6.327   2.007
 6590SOL     OW20668   1.334   6.147   4.437
 6590SOL    HW120669   1.416   6.193   4.401
 6590SOL    HW220670   1.260   6.214   4.447
 6591SOL     OW20671   6.095   3.331   3.740
 6591SOL    HW120672   6.144   3.250   3.774
 6591SOL    HW220673   6.148   3.372   3.666
 6592SOL     OW20674   6.288   0.539   3.916
 6592SOL    HW120675   6.236   0.518   3.833
 6592SOL    HW220676   6.306   0.454   3.967
 6593SOL     OW20677   2.286   1.514   2.125
 6593SOL    HW120678   2.314   1.491   2.032
 6593SOL    HW220679   2.209   1.455   2.152
 6594SOL     OW20680   5.106   6.859   7.001
 6594SOL    HW120681   5.092   6.760   6.996
 6594SOL    HW220682   5.107   6.887   0.074
 6595SOL     OW20683   1.023   1.833   5.231
 6595SOL    HW120684   0.979   1.922   5.245
 6595SOL    HW220685   1.062   1.830   5.138
 6596SOL     OW20686   5.124   1.092   2.244
 6596SOL    HW120687   5.198   1.143   2.288
 6596SOL    HW220688   5.048   1.080   2.309
 6597SOL     OW20689   0.948   4.597   1.064
 6597SOL    HW120690   1.015   4.525   1.083
 6597SOL    HW220691   0.918   4.590   0.969
 6598SOL     OW20692   1.154   5.414   3.307
 6598SOL    HW120693   1.192   5.505   3.289
 6598SOL    HW220694   1.119   5.411   3.401
 6599SOL     OW20695   0.465   5.766   6.457
 6599SOL    HW120696   0.391   5.768   6.390
 6599SOL    HW220697   0.450   5.838   6.525
 6600SOL     OW20698   4.745   6.730   4.712
 6600SOL    HW120699   4.843   6.747   4.727
 6600SOL    HW220700   4.713   6.785   4.635
 6601SOL     OW20701   1.478   2.660   1.834
 6601SOL    HW120702   1.511   2.566   1.838
 6601SOL    HW220703   1.416   2.670   1.756
 6602SOL     OW20704   7.002   5.508   1.120
 6602SOL    HW120705   6.965   5.417   1.100
 6602SOL    HW220706   7.012   5.559   1.035
 6603SOL     OW20707   0.194   4.472   2.203
 6603SOL    HW120708   0.138   4.432   2.276
 6603SOL    HW220709   0.272   4.413   2.183
 6604SOL     OW20710   1.765   5.663   3.246
 6604SOL    HW120711   1.827   5.733   3.280
 6604SOL    HW220712   1.818   5.591   3.202
 6605SOL     OW20713   0.103   5.277   1.274
 6605SOL    HW120714   0.019   5.262   1.221
 6605SOL    HW220715   0.175   5.310   1.213
 6606SOL     OW20716   1.522   3.790   2.869
 6606SOL    HW120717   1.585   3.722   2.907
 6606SOL    HW220718   1.574   3.864   2.827
 6607SOL     OW20719   6.357   3.161   4.117
 6607SOL    HW120720   6.370   3.116   4.206
 6607SOL    HW220721   6.294   3.238   4.128
 6608SOL     OW20722   1.178   0.268   5.762
 6608SOL    HW120723   1.092   0.316   5.745
 6608SOL    HW220724   1.248   0.334   5.792
 6609SOL     OW20725   3.785   2.281   0.120
 6609SOL    HW120726   3.754   2.300   0.213
 6609SOL    HW220727   3.806   2.367   0.074
 6610SOL     OW20728   2.807   6.120   1.003
 6610SOL    HW120729   2.741   6.104   0.930
 6610SOL    HW220730   2.776   6.075   1.087
 6611SOL     OW20731   2.900   1.865   4.627
 6611SOL    HW120732   2.872   1.853   4.532
 6611SOL    HW220733   2.996   1.894   4.630
 6612SOL     OW20734   0.921   6.933   0.136
 6612SOL    HW120735   0.969   7.019   0.123
 6612SOL    HW220736   0.951   6.867   0.067
 6613SOL     OW20737   4.536   6.189   0.610
 6613SOL    HW120738   4.611   6.253   0.621
 6613SOL    HW220739   4.564   6.098   0.641
 6614SOL     OW20740   4.249   4.643   1.293
 6614SOL    HW120741   4.342   4.671   1.269
 6614SOL    HW220742   4.190   4.724   1.296
 6615SOL     OW20743   3.397   5.517   5.734
 6615SOL    HW120744   3.320   5.461   5.704
 6615SOL    HW220745   3.388   5.537   5.831
 6616SOL     OW20746   4.128   1.195   6.973
 6616SOL    HW120747   4.123   1.290   7.003
 6616SOL    HW220748   4.166   1.139   0.025
 6617SOL     OW20749   3.345   0.668   3.640
 6617SOL    HW120750   3.258   0.628   3.668
 6617SOL    HW220751   3.361   0.752   3.692
 6618SOL     OW20752   5.786   2.267   4.131
 6618SOL    HW120753   5.829   2.201   4.070
 6618SOL    HW220754   5.850   2.294   4.203
 6619SOL     OW20755   5.053   5.068   3.863
 6619SOL    HW120756   5.015   5.029   3.779
 6619SOL    HW220757   5.003   5.152   3.885
 6620SOL     OW20758   1.277   2.782   3.183
 6620SOL    HW120759   1.202   2.812   3.242
 6620SOL    HW220760   1.281   2.841   3.102
 6621SOL     OW20761   3.012   3.440   4.035
 6621SOL    HW120762   2.953   3.457   4.114
 6621SOL    HW220763   2.958   3.448   3.951
 6622SOL     OW20764   0.181   4.858   1.148
 6622SOL    HW120765   0.169   4.920   1.071
 6622SOL    HW220766   0.161   4.905   1.233
 6623SOL     OW20767   2.969   3.867   3.565
 6623SOL    HW120768   2.886   3.876   3.619
 6623SOL    HW220769   3.030   3.801   3.608
 6624SOL     OW20770   2.673   2.316   2.826
 6624SOL    HW120771   2.687   2.294   2.729
 6624SOL    HW220772   2.762   2.323   2.871
 6625SOL     OW20773   6.801   4.017   5.471
 6625SOL    HW120774   6.773   3.987   5.562
 6625SOL    HW220775   6.794   4.117   5.465
 6626SOL     OW20776   3.303   5.578   5.180
 6626SOL    HW120777   3.305   5.674   5.208
 6626SOL    HW220778   3.350   5.569   5.091
 6627SOL     OW20779   2.589   5.870   4.338
 6627SOL    HW120780   2.601   5.895   4.434
 6627SOL    HW220781   2.491   5.865   4.317
 6628SOL     OW20782   3.732   0.029   3.260
 6628SOL    HW120783   3.706   0.097   3.191
 6628SOL    HW220784   3.762   0.076   3.343
 6629SOL     OW20785   4.681   5.556   5.252
 6629SOL    HW120786   4.617   5.619   5.208
 6629SOL    HW220787   4.747   5.523   5.185
 6630SOL     OW20788   1.565   0.720   0.266
 6630SOL    HW120789   1.648   0.773   0.251
 6630SOL    HW220790   1.498   0.777   0.315
 6631SOL     OW20791   2.274   3.107   5.908
 6631SOL    HW120792   2.211   3.117   5.831
 6631SOL    HW220793   2.367   3.091   5.873
 6632SOL     OW20794   1.348   0.609   6.809
 6632SOL    HW120795   1.404   0.528   6.793
 6632SOL    HW220796   1.340   0.624   6.907
 6633SOL     OW20797   4.228   5.552   6.387
 6633SOL    HW120798   4.265   5.552   6.295
 6633SOL    HW220799   4.265   5.474   6.438
 6634SOL     OW20800   3.377   2.069   4.192
 6634SOL    HW120801   3.445   2.034   4.128
 6634SOL    HW220802   3.304   2.116   4.142
 6635SOL     OW20803   5.082   5.371   5.445
 6635SOL    HW120804   5.014   5.420   5.391
 6635SOL    HW220805   5.171   5.373   5.398
 6636SOL     OW20806   4.274   1.036   0.162
 6636SOL    HW120807   4.362   1.005   0.127
 6636SOL    HW220808   4.286   1.123   0.210
 6637SOL     OW20809   0.104   2.033   7.005
 6637SOL    HW120810   0.183   1.972   7.005
 6637SOL    HW220811   0.052   2.020   6.920
 6638SOL     OW20812   3.183   3.455   3.553
 6638SOL    HW120813   3.256   3.521   3.535
 6638SOL    HW220814   3.223   3.369   3.586
 6639SOL     OW20815   5.095   2.425   1.451
 6639SOL    HW120816   5.162   2.351   1.450
 6639SOL    HW220817   5.059   2.436   1.543
 6640SOL     OW20818   1.446   4.131   4.856
 6640SOL    HW120819   1.469   4.034   4.849
 6640SOL    HW220820   1.362   4.141   4.908
 6641SOL     OW20821   6.166   2.348   7.007
 6641SOL    HW120822   6.200   2.429   6.960
 6641SOL    HW220823   6.244   2.292   0.014
 6642SOL     OW20824   1.327   5.787   6.938
 6642SOL    HW120825   1.329   5.788   0.016
 6642SOL    HW220826   1.305   5.695   6.906
 6643SOL     OW20827   3.096   6.148   6.106
 6643SOL    HW120828   3.169   6.102   6.157
 6643SOL    HW220829   3.073   6.234   6.150
 6644SOL     OW20830   1.995   6.689   4.230
 6644SOL    HW120831   2.083   6.724   4.196
 6644SOL    HW220832   1.943   6.651   4.154
 6645SOL     OW20833   5.112   2.578   6.029
 6645SOL    HW120834   5.020   2.608   6.006
 6645SOL    HW220835   5.136   2.609   6.121
 6646SOL     OW20836   4.045   6.990   5.144
 6646SOL    HW120837   4.073   0.014   5.059
 6646SOL    HW220838   3.972   0.020   5.188
 6647SOL     OW20839   3.898   5.031   0.243
 6647SOL    HW120840   3.846   5.067   0.166
 6647SOL    HW220841   3.912   5.103   0.311
 6648SOL     OW20842   3.029   5.600   5.179
 6648SOL    HW120843   3.127   5.581   5.164
 6648SOL    HW220844   2.980   5.514   5.187
 6649SOL     OW20845   4.562   2.798   6.080
 6649SOL    HW120846   4.625   2.721   6.072
 6649SOL    HW220847   4.613   2.882   6.097
 6650SOL     OW20848   1.742   1.316   5.546
 6650SOL    HW120849   1.774   1.273   5.630
 6650SOL    HW220850   1.799   1.287   5.469
 6651SOL     OW20851   0.052   1.985   5.660
 6651SOL    HW120852   0.009   1.949   5.742
 6651SOL    HW220853   7.010   2.043   5.610
 6652SOL     OW20854   0.015   4.416   6.949
 6652SOL    HW120855   7.008   4.358   6.872
 6652SOL    HW220856   0.096   4.468   6.922
 6653SOL     OW20857   5.780   4.194   6.834
 6653SOL    HW120858   5.810   4.266   6.771
 6653SOL    HW220859   5.715   4.134   6.787
 6654SOL     OW20860   6.329   3.003   3.283
 6654SOL    HW120861   6.337   2.912   3.324
 6654SOL    HW220862   6.338   2.996   3.184
 6655SOL     OW20863   0.245   6.101   1.754
 6655SOL    HW120864   0.172   6.149   1.706
 6655SOL    HW220865   0.285   6.161   1.823
 6656SOL     OW20866   4.073   1.069   2.910
 6656SOL    HW120867   4.114   0.978   2.903
 6656SOL    HW220868   4.144   1.139   2.906
 6657SOL     OW20869   5.274   1.451   4.639
 6657SOL    HW120870   5.283   1.463   4.541
 6657SOL    HW220871   5.177   1.450   4.664
 6658SOL     OW20872   6.891   5.883   5.206
 6658SOL    HW120873   6.958   5.956   5.218
 6658SOL    HW220874   6.872   5.870   5.109
 6659SOL     OW20875   0.823   5.473   1.250
 6659SOL    HW120876   0.759   5.516   1.185
 6659SOL    HW220877   0.802   5.505   1.342
 6660SOL     OW20878   0.133   0.591   4.873
 6660SOL    HW120879   0.060   0.640   4.922
 6660SOL    HW220880   0.165   0.516   4.930
 6661SOL     OW20881   4.148   5.654   3.594
 6661SOL    HW120882   4.203   5.637   3.675
 6661SOL    HW220883   4.107   5.745   3.599
 6662SOL     OW20884   3.520   6.424   2.494
 6662SOL    HW120885   3.606   6.425   2.441
 6662SOL    HW220886   3.487   6.330   2.501
 6663SOL     OW20887   1.156   4.405   5.666
 6663SOL    HW120888   1.081   4.465   5.638
 6663SOL    HW220889   1.236   4.422   5.609
 6664SOL     OW20890   3.358   0.390   1.528
 6664SOL    HW120891   3.433   0.351   1.582
 6664SOL    HW220892   3.336   0.329   1.452
 6665SOL     OW20893   2.520   0.367   6.922
 6665SOL    HW120894   2.581   0.438   6.887
 6665SOL    HW220895   2.566   0.315   6.993
 6666SOL     OW20896   3.786   6.229   5.308
 6666SOL    HW120897   3.689   6.214   5.330
 6666SOL    HW220898   3.841   6.156   5.348
 6667SOL     OW20899   1.510   5.678   6.573
 6667SOL    HW120900   1.509   5.645   6.478
 6667SOL    HW220901   1.596   5.724   6.591
 6668SOL     OW20902   6.888   3.988   0.008
 6668SOL    HW120903   6.914   3.946   6.943
 6668SOL    HW220904   6.857   3.917   0.071
 6669SOL     OW20905   1.661   2.265   3.421
 6669SOL    HW120906   1.687   2.281   3.326
 6669SOL    HW220907   1.638   2.352   3.464
 6670SOL     OW20908   3.553   3.510   0.593
 6670SOL    HW120909   3.552   3.551   0.502
 6670SOL    HW220910   3.558   3.583   0.662
 6671SOL     OW20911   4.700   5.086   0.202
 6671SOL    HW120912   4.751   5.070   0.117
 6671SOL    HW220913   4.611   5.042   0.196
 6672SOL     OW20914   1.376   2.149   1.371
 6672SOL    HW120915   1.467   2.120   1.403
 6672SOL    HW220916   1.350   2.093   1.292
 6673SOL     OW20917   6.515   2.727   4.056
 6673SOL    HW120918   6.549   2.727   3.962
 6673SOL    HW220919   6.436   2.666   4.063
 6674SOL     OW20920   0.049   0.769   0.790
 6674SOL    HW120921   6.977   0.800   0.803
 6674SOL    HW220922   0.050   0.685   0.736
 6675SOL     OW20923   5.057   0.373   0.413
 6675SOL    HW120924   5.124   0.384   0.487
 6675SOL    HW220925   5.104   0.341   0.330
 6676SOL     OW20926   0.839   3.784   4.502
 6676SOL    HW120927   0.828   3.732   4.417
 6676SOL    HW220928   0.898   3.732   4.565
 6677SOL     OW20929   0.473   1.809   6.375
 6677SOL    HW120930   0.488   1.824   6.277
 6677SOL    HW220931   0.529   1.732   6.406
 6678SOL     OW20932   2.883   4.268   6.418
 6678SOL    HW120933   2.877   4.367   6.408
 6678SOL    HW220934   2.924   4.228   6.337
 6679SOL     OW20935   1.955   0.385   3.879
 6679SOL    HW120936   2.030   0.400   3.944
 6679SOL    HW220937   1.994   0.363   3.789
 6680SOL     OW20938   6.416   5.272   1.321
 6680SOL    HW120939   6.327   5.240   1.354
 6680SOL    HW220940   6.402   5.348   1.257
 6681SOL     OW20941   2.820   5.866   1.825
 6681SOL    HW120942   2.809   5.850   1.923
 6681SOL    HW220943   2.888   5.802   1.788
 6682SOL     OW20944   3.232   5.283   5.672
 6682SOL    HW120945   3.304   5.214   5.666
 6682SOL    HW220946   3.143   5.240   5.654
 6683SOL     OW20947   6.978   5.315   5.858
 6683SOL    HW120948   6.893   5.316   5.806
 6683SOL    HW220949   6.961   5.274   5.948
 6684SOL     OW20950   2.677   5.729   6.918
 6684SOL    HW120951   2.695   5.657   6.985
 6684SOL    HW220952   2.738   5.807   6.936
 6685SOL     OW20953   4.953   2.716   0.772
 6685SOL    HW120954   4.911   2.644   0.828
 6685SOL    HW220955   5.027   2.759   0.824
 6686SOL     OW20956   4.987   4.923   5.026
 6686SOL    HW120957   5.063   4.864   5.053
 6686SOL    HW220958   4.918   4.924   5.098
 6687SOL     OW20959   0.095   1.308   1.621
 6687SOL    HW120960   0.024   1.309   1.691
 6687SOL    HW220961   0.062   1.352   1.538
 6688SOL     OW20962   4.168   5.442   0.267
 6688SOL    HW120963   4.178   5.536   0.302
 6688SOL    HW220964   4.223   5.432   0.184
 6689SOL     OW20965   2.968   4.162   5.545
 6689SOL    HW120966   3.034   4.204   5.482
 6689SOL    HW220967   3.013   4.091   5.598
 6690SOL     OW20968   0.616   0.996   6.987
 6690SOL    HW120969   0.638   0.990   6.890
 6690SOL    HW220970   0.701   1.003   0.017
 6691SOL     OW20971   2.803   1.615   2.484
 6691SOL    HW120972   2.888   1.564   2.480
 6691SOL    HW220973   2.745   1.580   2.558
 6692SOL     OW20974   4.450   6.034   2.710
 6692SOL    HW120975   4.477   6.119   2.665
 6692SOL    HW220976   4.473   6.039   2.807
 6693SOL     OW20977   3.290   0.991   5.264
 6693SOL    HW120978   3.255   1.055   5.332
 6693SOL    HW220979   3.386   0.969   5.285
 6694SOL     OW20980   4.236   4.076   1.418
 6694SOL    HW120981   4.236   3.977   1.433
 6694SOL    HW220982   4.260   4.095   1.322
 6695SOL     OW20983   2.664   2.456   0.603
 6695SOL    HW120984   2.576   2.456   0.554
 6695SOL    HW220985   2.657   2.514   0.684
 6696SOL     OW20986   4.006   3.237   4.213
 6696SOL    HW120987   3.924   3.225   4.157
 6696SOL    HW220988   4.086   3.245   4.154
 6697SOL     OW20989   4.733   2.124   2.105
 6697SOL    HW120990   4.802   2.183   2.146
 6697SOL    HW220991   4.664   2.101   2.173
 6698SOL     OW20992   3.810   4.458   1.460
 6698SOL    HW120993   3.730   4.405   1.489
 6698SOL    HW220994   3.891   4.425   1.508
 6699SOL     OW20995   1.099   3.293   5.882
 6699SOL    HW120996   1.190   3.323   5.852
 6699SOL    HW220997   1.057   3.364   5.938
 6700SOL     OW20998   5.689   0.026   0.900
 6700SOL    HW120999   5.597   0.047   0.865
 6700SOL    HW221000   5.701   6.949   0.905
 6701SOL     OW21001   6.093   6.846   1.834
 6701SOL    HW121002   6.072   6.858   1.932
 6701SOL    HW221003   6.186   6.879   1.816
 6702SOL     OW21004   3.546   2.909   0.921
 6702SOL    HW121005   3.614   2.836   0.924
 6702SOL    HW221006   3.467   2.883   0.976
 6703SOL     OW21007   0.126   1.119   0.482
 6703SOL    HW121008   0.106   1.143   0.387
 6703SOL    HW221009   0.124   1.020   0.493
 6704SOL     OW21010   3.578   6.897   5.349
 6704SOL    HW121011   3.541   6.980   5.308
 6704SOL    HW221012   3.512   6.822   5.339
 6705SOL     OW21013   0.043   4.364   2.382
 6705SOL    HW121014   0.013   4.282   2.332
 6705SOL    HW221015   0.028   4.350   2.480
 6706SOL     OW21016   0.418   6.904   1.207
 6706SOL    HW121017   0.422   6.806   1.229
 6706SOL    HW221018   0.458   6.920   1.117
 6707SOL     OW21019   3.876   1.138   2.535
 6707SOL    HW121020   3.938   1.215   2.519
 6707SOL    HW221021   3.840   1.144   2.628
 6708SOL     OW21022   0.663   3.223   6.971
 6708SOL    HW121023   0.671   3.270   0.037
 6708SOL    HW221024   0.685   3.126   6.982
 6709SOL     OW21025   2.236   4.148   2.214
 6709SOL    HW121026   2.290   4.096   2.147
 6709SOL    HW221027   2.179   4.215   2.166
 6710SOL     OW21028   4.655   1.436   0.883
 6710SOL    HW121029   4.579   1.438   0.948
 6710SOL    HW221030   4.688   1.343   0.872
 6711SOL     OW21031   3.455   5.848   5.881
 6711SOL    HW121032   3.426   5.944   5.885
 6711SOL    HW221033   3.400   5.800   5.813
 6712SOL     OW21034   5.364   4.746   1.372
 6712SOL    HW121035   5.311   4.686   1.431
 6712SOL    HW221036   5.413   4.813   1.428
 6713SOL     OW21037   1.288   4.903   4.614
 6713SOL    HW121038   1.261   4.807   4.606
 6713SOL    HW221039   1.376   4.909   4.660
 6714SOL     OW21040   5.530   1.155   1.571
 6714SOL    HW121041   5.519   1.204   1.485
 6714SOL    HW221042   5.510   1.058   1.557
 6715SOL     OW21043   1.707   0.397   6.441
 6715SOL    HW121044   1.799   0.396   6.403
 6715SOL    HW221045   1.666   0.307   6.432
 6716SOL     OW21046   0.284   5.776   2.101
 6716SOL    HW121047   0.354   5.843   2.075
 6716SOL    HW221048   0.324   5.684   2.099
 6717SOL     OW21049   5.660   1.854   5.908
 6717SOL    HW121050   5.586   1.787   5.915
 6717SOL    HW221051   5.745   1.808   5.884
 6718SOL     OW21052   4.965   1.226   0.818
 6718SOL    HW121053   4.870   1.194   0.812
 6718SOL    HW221054   4.966   1.322   0.846
 6719SOL     OW21055   1.683   1.746   6.986
 6719SOL    HW121056   1.759   1.681   6.993
 6719SOL    HW221057   1.597   1.698   7.005
 6720SOL     OW21058   1.512   0.947   6.030
 6720SOL    HW121059   1.421   0.987   6.043
 6720SOL    HW221060   1.554   0.987   5.949
 6721SOL     OW21061   6.361   6.838   1.439
 6721SOL    HW121062   6.316   6.752   1.464
 6721SOL    HW221063   6.315   6.914   1.484
 6722SOL     OW21064   5.612   3.579   0.279
 6722SOL    HW121065   5.552   3.502   0.262
 6722SOL    HW221066   5.627   3.589   0.378
 6723SOL     OW21067   1.060   3.011   5.840
 6723SOL    HW121068   1.082   3.106   5.816
 6723SOL    HW221069   1.044   3.005   5.938
 6724SOL     OW21070   2.196   3.935   4.408
 6724SOL    HW121071   2.201   3.915   4.310
 6724SOL    HW221072   2.141   3.865   4.453
 6725SOL     OW21073   5.044   2.910   3.956
 6725SOL    HW121074   5.052   2.850   4.035
 6725SOL    HW221075   4.959   2.963   3.963
 6726SOL     OW21076   0.611   0.800   6.022
 6726SOL    HW121077   0.691   0.838   6.069
 6726SOL    HW221078   0.552   0.753   6.087
 6727SOL     OW21079   1.539   5.311   5.738
 6727SOL    HW121080   1.464   5.368   5.705
 6727SOL    HW221081   1.613   5.310   5.670
 6728SOL     OW21082   3.836   1.268   3.717
 6728SOL    HW121083   3.804   1.306   3.630
 6728SOL    HW221084   3.935   1.256   3.714
 6729SOL     OW21085   4.008   0.970   2.298
 6729SOL    HW121086   4.020   1.033   2.221
 6729SOL    HW221087   3.997   1.023   2.382
 6730SOL     OW21088   6.666   1.892   0.598
 6730SOL    HW121089   6.751   1.858   0.638
 6730SOL    HW221090   6.635   1.972   0.650
 6731SOL     OW21091   4.184   0.539   6.210
 6731SOL    HW121092   4.219   0.450   6.181
 6731SOL    HW221093   4.235   0.571   6.290
 6732SOL     OW21094   6.886   4.890   5.675
 6732SOL    HW121095   6.936   4.955   5.618
 6732SOL    HW221096   6.834   4.940   5.744
 6733SOL     OW21097   4.816   4.948   5.241
 6733SOL    HW121098   4.756   4.986   5.170
 6733SOL    HW221099   4.804   5.000   5.325
 6734SOL     OW21100   6.043   1.936   4.493
 6734SOL    HW121101   6.026   2.029   4.463
 6734SOL    HW221102   6.141   1.920   4.502
 6735SOL     OW21103   6.394   2.533   3.624
 6735SOL    HW121104   6.352   2.483   3.699
 6735SOL    HW221105   6.425   2.469   3.554
 6736SOL     OW21106   4.160   3.551   0.771
 6736SOL    HW121107   4.133   3.473   0.827
 6736SOL    HW221108   4.203   3.519   0.686
 6737SOL     OW21109   6.740   3.548   0.607
 6737SOL    HW121110   6.791   3.547   0.693
 6737SOL    HW221111   6.651   3.505   0.621
 6738SOL     OW21112   1.879   6.078   4.231
 6738SOL    HW121113   1.940   6.107   4.305
 6738SOL    HW221114   1.908   5.989   4.196
 6739SOL     OW21115   0.047   0.340   5.646
 6739SOL    HW121116   0.069   0.243   5.636
 6739SOL    HW221117   7.011   0.369   5.571
 6740SOL     OW21118   0.061   0.138   2.471
 6740SOL    HW121119   0.005   0.151   2.553
 6740SOL    HW221120   0.027   0.199   2.399
 6741SOL     OW21121   3.700   1.889   0.412
 6741SOL    HW121122   3.683   1.796   0.444
 6741SOL    HW221123   3.715   1.888   0.313
 6742SOL     OW21124   5.846   4.483   3.445
 6742SOL    HW121125   5.770   4.546   3.426
 6742SOL    HW221126   5.822   4.392   3.413
 6743SOL     OW21127   4.060   3.877   0.219
 6743SOL    HW121128   4.109   3.791   0.226
 6743SOL    HW221129   3.962   3.861   0.233
 6744SOL     OW21130   6.469   6.782   5.804
 6744SOL    HW121131   6.451   6.705   5.866
 6744SOL    HW221132   6.481   6.748   5.711
 6745SOL     OW21133   0.203   4.396   5.299
 6745SOL    HW121134   0.197   4.321   5.366
 6745SOL    HW221135   0.263   4.368   5.223
 6746SOL     OW21136   1.090   2.565   2.968
 6746SOL    HW121137   1.147   2.484   2.958
 6746SOL    HW221138   1.135   2.630   3.029
 6747SOL     OW21139   0.988   6.235   5.308
 6747SOL    HW121140   0.891   6.236   5.331
 6747SOL    HW221141   0.999   6.264   5.213
 6748SOL     OW21142   1.832   0.564   5.019
 6748SOL    HW121143   1.872   0.600   4.935
 6748SOL    HW221144   1.872   0.474   5.039
 6749SOL     OW21145   4.426   4.746   2.336
 6749SOL    HW121146   4.360   4.736   2.262
 6749SOL    HW221147   4.505   4.687   2.318
 6750SOL     OW21148   3.581   1.104   5.010
 6750SOL    HW121149   3.675   1.135   5.024
 6750SOL    HW221150   3.550   1.054   5.091
 6751SOL     OW21151   4.447   0.228   4.783
 6751SOL    HW121152   4.401   0.232   4.871
 6751SOL    HW221153   4.400   0.162   4.724
 6752SOL     OW21154   2.054   4.680   2.223
 6752SOL    HW121155   2.004   4.595   2.205
 6752SOL    HW221156   2.125   4.692   2.153
 6753SOL     OW21157   3.981   3.279   6.776
 6753SOL    HW121158   4.040   3.299   6.697
 6753SOL    HW221159   4.038   3.253   6.854
 6754SOL     OW21160   6.200   1.483   0.501
 6754SOL    HW121161   6.210   1.567   0.449
 6754SOL    HW221162   6.241   1.407   0.450
 6755SOL     OW21163   2.888   5.865   6.011
 6755SOL    HW121164   2.970   5.808   6.020
 6755SOL    HW221165   2.915   5.961   6.012
 6756SOL     OW21166   3.771   2.802   6.374
 6756SOL    HW121167   3.692   2.790   6.434
 6756SOL    HW221168   3.846   2.845   6.425
 6757SOL     OW21169   4.155   0.412   1.324
 6757SOL    HW121170   4.126   0.322   1.290
 6757SOL    HW221171   4.169   0.473   1.246
 6758SOL     OW21172   5.405   2.616   3.260
 6758SOL    HW121173   5.469   2.666   3.318
 6758SOL    HW221174   5.314   2.657   3.267
 6759SOL     OW21175   0.641   1.818   2.525
 6759SOL    HW121176   0.598   1.907   2.540
 6759SOL    HW221177   0.581   1.746   2.559
 6760SOL     OW21178   5.138   2.252   4.732
 6760SOL    HW121179   5.049   2.208   4.745
 6760SOL    HW221180   5.211   2.186   4.750
 6761SOL     OW21181   3.428   1.710   5.111
 6761SOL    HW121182   3.341   1.732   5.067
 6761SOL    HW221183   3.467   1.628   5.069
 6762SOL     OW21184   6.579   5.154   4.626
 6762SOL    HW121185   6.523   5.077   4.655
 6762SOL    HW221186   6.632   5.188   4.703
 6763SOL     OW21187   5.980   6.250   4.448
 6763SOL    HW121188   6.019   6.322   4.391
 6763SOL    HW221189   5.880   6.256   4.446
 6764SOL     OW21190   0.910   4.841   1.146
 6764SOL    HW121191   0.978   4.855   1.218
 6764SOL    HW221192   0.917   4.748   1.111
 6765SOL     OW21193   0.309   3.716   2.617
 6765SOL    HW121194   0.224   3.663   2.615
 6765SOL    HW221195   0.387   3.655   2.606
 6766SOL     OW21196   5.691   0.252   1.393
 6766SOL    HW121197   5.753   0.254   1.472
 6766SOL    HW221198   5.709   0.170   1.338
 6767SOL     OW21199   3.274   0.459   0.763
 6767SOL    HW121200   3.229   0.517   0.831
 6767SOL    HW221201   3.251   0.492   0.672
 6768SOL     OW21202   1.609   0.761   6.883
 6768SOL    HW121203   1.702   0.732   6.858
 6768SOL    HW221204   1.563   0.685   6.930
 6769SOL     OW21205   4.501   2.748   1.759
 6769SOL    HW121206   4.520   2.661   1.806
 6769SOL    HW221207   4.553   2.821   1.802
 6770SOL     OW21208   0.007   0.796   1.578
 6770SOL    HW121209   0.092   0.746   1.597
 6770SOL    HW221210   0.029   0.885   1.537
 6771SOL     OW21211   4.759   1.799   3.267
 6771SOL    HW121212   4.677   1.831   3.221
 6771SOL    HW221213   4.826   1.873   3.270
 6772SOL     OW21214   3.424   1.385   3.997
 6772SOL    HW121215   3.512   1.344   4.022
 6772SOL    HW221216   3.386   1.433   4.076
 6773SOL     OW21217   0.318   3.948   1.025
 6773SOL    HW121218   0.386   3.923   1.093
 6773SOL    HW221219   0.302   3.871   0.964
 6774SOL     OW21220   0.692   2.617   6.274
 6774SOL    HW121221   0.646   2.612   6.185
 6774SOL    HW221222   0.624   2.623   6.346
 6775SOL     OW21223   2.141   4.553   0.297
 6775SOL    HW121224   2.235   4.570   0.324
 6775SOL    HW221225   2.094   4.503   0.370
 6776SOL     OW21226   5.911   5.679   6.972
 6776SOL    HW121227   5.925   5.721   6.882
 6776SOL    HW221228   5.834   5.616   6.968
 6777SOL     OW21229   4.874   4.845   6.704
 6777SOL    HW121230   4.857   4.756   6.662
 6777SOL    HW221231   4.957   4.885   6.665
 6778SOL     OW21232   0.258   5.726   3.164
 6778SOL    HW121233   0.253   5.716   3.264
 6778SOL    HW221234   0.306   5.810   3.141
 6779SOL     OW21235   0.380   4.198   6.705
 6779SOL    HW121236   0.290   4.190   6.662
 6779SOL    HW221237   0.373   4.176   6.802
 6780SOL     OW21238   0.545   2.564   1.807
 6780SOL    HW121239   0.560   2.663   1.807
 6780SOL    HW221240   0.483   2.539   1.882
 6781SOL     OW21241   5.931   4.622   5.494
 6781SOL    HW121242   5.979   4.658   5.414
 6781SOL    HW221243   5.885   4.697   5.541
 6782SOL     OW21244   6.145   1.561   2.697
 6782SOL    HW121245   6.130   1.634   2.765
 6782SOL    HW221246   6.110   1.591   2.608
 6783SOL     OW21247   0.444   6.119   6.832
 6783SOL    HW121248   0.367   6.181   6.846
 6783SOL    HW221249   0.412   6.035   6.788
 6784SOL     OW21250   3.455   2.964   0.413
 6784SOL    HW121251   3.460   3.061   0.435
 6784SOL    HW221252   3.478   2.910   0.494
 6785SOL     OW21253   5.734   6.108   2.033
 6785SOL    HW121254   5.710   6.015   2.061
 6785SOL    HW221255   5.828   6.128   2.061
 6786SOL     OW21256   1.881   3.013   6.468
 6786SOL    HW121257   1.928   3.038   6.553
 6786SOL    HW221258   1.925   3.060   6.391
 6787SOL     OW21259   1.275   3.630   1.963
 6787SOL    HW121260   1.245   3.637   2.058
 6787SOL    HW221261   1.362   3.580   1.959
 6788SOL     OW21262   2.910   4.917   0.898
 6788SOL    HW121263   2.952   4.830   0.871
 6788SOL    HW221264   2.811   4.904   0.908
 6789SOL     OW21265   0.219   6.108   3.434
 6789SOL    HW121266   0.294   6.166   3.468
 6789SOL    HW221267   0.202   6.129   3.337
 6790SOL     OW21268   1.497   3.441   0.181
 6790SOL    HW121269   1.443   3.437   0.096
 6790SOL    HW221270   1.593   3.454   0.158
 6791SOL     OW21271   3.754   3.662   6.396
 6791SOL    HW121272   3.773   3.564   6.394
 6791SOL    HW221273   3.712   3.690   6.309
 6792SOL     OW21274   0.268   4.847   0.708
 6792SOL    HW121275   0.274   4.753   0.742
 6792SOL    HW221276   0.348   4.867   0.651
 6793SOL     OW21277   6.125   1.890   1.165
 6793SOL    HW121278   6.115   1.860   1.260
 6793SOL    HW221279   6.057   1.845   1.108
 6794SOL     OW21280   4.664   0.915   4.995
 6794SOL    HW121281   4.673   0.848   5.069
 6794SOL    HW221282   4.570   0.948   4.992
 6795SOL     OW21283   2.820   6.246   0.016
 6795SOL    HW121284   2.736   6.297   0.034
 6795SOL    HW221285   2.892   6.279   0.077
 6796SOL     OW21286   4.268   2.274   2.901
 6796SOL    HW121287   4.183   2.248   2.946
 6796SOL    HW221288   4.276   2.226   2.814
 6797SOL     OW21289   6.978   3.303   2.319
 6797SOL    HW121290   6.941   3.235   2.383
 6797SOL    HW221291   0.025   3.259   2.261
 6798SOL     OW21292   6.439   6.725   2.009
 6798SOL    HW121293   6.397   6.774   2.085
 6798SOL    HW221294   6.439   6.627   2.028
 6799SOL     OW21295   5.436   6.102   1.801
 6799SOL    HW121296   5.436   6.110   1.901
 6799SOL    HW221297   5.454   6.008   1.775
 6800SOL     OW21298   3.104   4.450   6.998
 6800SOL    HW121299   3.143   4.363   0.006
 6800SOL    HW221300   3.032   4.432   6.931
 6801SOL     OW21301   1.423   1.926   2.563
 6801SOL    HW121302   1.511   1.883   2.543
 6801SOL    HW221303   1.428   1.972   2.651
 6802SOL     OW21304   2.024   5.291   2.642
 6802SOL    HW121305   2.064   5.301   2.551
 6802SOL    HW221306   2.094   5.258   2.705
 6803SOL     OW21307   5.254   2.752   0.206
 6803SOL    HW121308   5.163   2.750   0.247
 6803SOL    HW221309   5.291   2.845   0.211
 6804SOL     OW21310   1.793   6.949   3.976
 6804SOL    HW121311   1.794   6.887   3.898
 6804SOL    HW221312   1.742   0.009   3.953
 6805SOL     OW21313   5.129   0.730   4.545
 6805SOL    HW121314   5.162   0.640   4.574
 6805SOL    HW221315   5.198   0.799   4.566
 6806SOL     OW21316   4.688   0.072   5.516
 6806SOL    HW121317   4.785   0.056   5.534
 6806SOL    HW221318   4.645   7.008   5.489
 6807SOL     OW21319   3.067   2.739   0.091
 6807SOL    HW121320   3.058   2.640   0.079
 6807SOL    HW221321   2.995   2.785   0.038
 6808SOL     OW21322   1.819   3.076   4.981
 6808SOL    HW121323   1.794   3.172   4.995
 6808SOL    HW221324   1.917   3.064   4.996
 6809SOL     OW21325   2.142   3.975   6.575
 6809SOL    HW121326   2.174   3.981   6.670
 6809SOL    HW221327   2.057   3.923   6.572
 6810SOL     OW21328   5.584   1.867   2.599
 6810SOL    HW121329   5.514   1.858   2.669
 6810SOL    HW221330   5.674   1.846   2.639
 6811SOL     OW21331   5.197   5.526   1.458
 6811SOL    HW121332   5.151   5.491   1.540
 6811SOL    HW221333   5.132   5.528   1.382
 6812SOL     OW21334   3.775   2.950   2.381
 6812SOL    HW121335   3.692   2.935   2.434
 6812SOL    HW221336   3.767   2.905   2.292
 6813SOL     OW21337   4.585   3.863   1.449
 6813SOL    HW121338   4.658   3.821   1.503
 6813SOL    HW221339   4.537   3.930   1.505
 6814SOL     OW21340   2.465   3.894   0.514
 6814SOL    HW121341   2.369   3.889   0.487
 6814SOL    HW221342   2.472   3.914   0.611
 6815SOL     OW21343   2.222   7.005   1.894
 6815SOL    HW121344   2.225   7.018   1.795
 6815SOL    HW221345   2.175   0.061   1.936
 6816SOL     OW21346   6.286   4.218   1.529
 6816SOL    HW121347   6.218   4.249   1.462
 6816SOL    HW221348   6.351   4.157   1.484
 6817SOL     OW21349   0.301   1.991   5.782
 6817SOL    HW121350   0.222   2.001   5.722
 6817SOL    HW221351   0.271   1.951   5.869
 6818SOL     OW21352   3.276   5.884   2.387
 6818SOL    HW121353   3.363   5.897   2.435
 6818SOL    HW221354   3.222   5.968   2.394
 6819SOL     OW21355   2.992   0.986   3.956
 6819SOL    HW121356   3.079   0.974   3.909
 6819SOL    HW221357   2.978   1.084   3.975
 6820SOL     OW21358   1.495   4.087   3.765
 6820SOL    HW121359   1.429   4.113   3.694
 6820SOL    HW221360   1.522   4.168   3.816
 6821SOL     OW21361   2.241   2.065   4.776
 6821SOL    HW121362   2.167   1.999   4.777
 6821SOL    HW221363   2.326   2.020   4.804
 6822SOL     OW21364   4.915   2.232   6.113
 6822SOL    HW121365   4.863   2.296   6.170
 6822SOL    HW221366   4.869   2.221   6.024
 6823SOL     OW21367   3.061   2.847   1.795
 6823SOL    HW121368   3.044   2.762   1.845
 6823SOL    HW221369   3.081   2.920   1.860
 6824SOL     OW21370   1.452   4.597   6.384
 6824SOL    HW121371   1.474   4.509   6.342
 6824SOL    HW221372   1.440   4.665   6.312
 6825SOL     OW21373   4.608   0.219   4.285
 6825SOL    HW121374   4.692   0.196   4.334
 6825SOL    HW221375   4.605   0.317   4.269
 6826SOL     OW21376   1.208   2.894   2.919
 6826SOL    HW121377   1.161   2.873   2.833
 6826SOL    HW221378   1.245   2.987   2.915
 6827SOL     OW21379   5.829   6.226   5.146
 6827SOL    HW121380   5.847   6.129   5.131
 6827SOL    HW221381   5.735   6.239   5.176
 6828SOL     OW21382   1.667   2.108   1.418
 6828SOL    HW121383   1.632   2.151   1.334
 6828SOL    HW221384   1.755   2.150   1.441
 6829SOL     OW21385   4.836   5.014   3.503
 6829SOL    HW121386   4.855   4.955   3.582
 6829SOL    HW221387   4.921   5.059   3.474
 6830SOL     OW21388   5.436   2.172   3.810
 6830SOL    HW121389   5.463   2.254   3.861
 6830SOL    HW221390   5.352   2.135   3.850
 6831SOL     OW21391   0.044   1.183   5.653
 6831SOL    HW121392   6.998   1.183   5.726
 6831SOL    HW221393   0.136   1.187   5.693
 6832SOL     OW21394   3.103   4.824   2.548
 6832SOL    HW121395   3.167   4.787   2.481
 6832SOL    HW221396   3.014   4.839   2.505
 6833SOL     OW21397   3.893   5.529   0.322
 6833SOL    HW121398   3.984   5.488   0.323
 6833SOL    HW221399   3.901   5.627   0.306
 6834SOL     OW21400   4.132   5.373   2.389
 6834SOL    HW121401   4.040   5.371   2.351
 6834SOL    HW221402   4.182   5.291   2.361
 6835SOL     OW21403   4.068   6.677   4.626
 6835SOL    HW121404   4.065   6.757   4.686
 6835SOL    HW221405   4.062   6.594   4.682
 6836SOL     OW21406   2.984   5.953   6.780
 6836SOL    HW121407   3.026   6.042   6.763
 6836SOL    HW221408   3.054   5.882   6.782
 6837SOL     OW21409   1.245   3.025   2.077
 6837SOL    HW121410   1.330   2.992   2.036
 6837SOL    HW221411   1.168   3.007   2.016
 6838SOL     OW21412   2.593   1.714   6.949
 6838SOL    HW121413   2.673   1.759   6.908
 6838SOL    HW221414   2.510   1.765   6.925
 6839SOL     OW21415   3.858   0.640   1.161
 6839SOL    HW121416   3.814   0.566   1.110
 6839SOL    HW221417   3.810   0.726   1.144
 6840SOL     OW21418   1.096   1.624   6.360
 6840SOL    HW121419   1.004   1.652   6.332
 6840SOL    HW221420   1.153   1.612   6.278
 6841SOL     OW21421   6.647   3.550   5.967
 6841SOL    HW121422   6.674   3.631   6.019
 6841SOL    HW221423   6.729   3.503   5.934
 6842SOL     OW21424   2.274   4.220   3.166
 6842SOL    HW121425   2.287   4.256   3.258
 6842SOL    HW221426   2.237   4.291   3.107
 6843SOL     OW21427   4.123   6.708   0.228
 6843SOL    HW121428   4.119   6.620   0.275
 6843SOL    HW221429   4.050   6.712   0.160
 6844SOL     OW21430   5.251   0.297   5.553
 6844SOL    HW121431   5.206   0.355   5.621
 6844SOL    HW221432   5.259   0.204   5.590
 6845SOL     OW21433   5.228   1.980   2.198
 6845SOL    HW121434   5.269   1.951   2.284
 6845SOL    HW221435   5.286   1.950   2.121
 6846SOL     OW21436   2.273   3.908   0.236
 6846SOL    HW121437   2.186   3.858   0.230
 6846SOL    HW221438   2.258   3.994   0.286
 6847SOL     OW21439   6.888   3.371   3.922
 6847SOL    HW121440   6.813   3.314   3.886
 6847SOL    HW221441   6.872   3.389   4.019
 6848SOL     OW21442   6.119   4.512   3.403
 6848SOL    HW121443   6.119   4.499   3.304
 6848SOL    HW221444   6.025   4.510   3.437
 6849SOL     OW21445   2.907   4.017   6.546
 6849SOL    HW121446   2.866   4.094   6.496
 6849SOL    HW221447   2.956   3.958   6.482
 6850SOL     OW21448   4.182   1.233   4.295
 6850SOL    HW121449   4.131   1.287   4.228
 6850SOL    HW221450   4.132   1.232   4.381
 6851SOL     OW21451   2.183   3.148   3.302
 6851SOL    HW121452   2.184   3.244   3.328
 6851SOL    HW221453   2.210   3.092   3.380
 6852SOL     OW21454   3.068   4.370   0.368
 6852SOL    HW121455   3.156   4.416   0.358
 6852SOL    HW221456   2.995   4.429   0.333
 6853SOL     OW21457   4.955   3.697   6.220
 6853SOL    HW121458   5.029   3.666   6.161
 6853SOL    HW221459   4.920   3.784   6.186
 6854SOL     OW21460   5.597   6.148   6.284
 6854SOL    HW121461   5.634   6.157   6.192
 6854SOL    HW221462   5.574   6.053   6.302
 6855SOL     OW21463   4.135   4.891   3.727
 6855SOL    HW121464   4.104   4.982   3.701
 6855SOL    HW221465   4.231   4.879   3.702
 6856SOL     OW21466   0.238   2.096   6.278
 6856SOL    HW121467   0.285   2.136   6.357
 6856SOL    HW221468   0.157   2.150   6.256
 6857SOL     OW21469   0.564   3.828   5.079
 6857SOL    HW121470   0.588   3.750   5.022
 6857SOL    HW221471   0.625   3.905   5.056
 6858SOL     OW21472   2.329   3.816   1.672
 6858SOL    HW121473   2.352   3.719   1.670
 6858SOL    HW221474   2.241   3.828   1.719
 6859SOL     OW21475   1.695   1.897   2.470
 6859SOL    HW121476   1.785   1.910   2.428
 6859SOL    HW221477   1.656   1.810   2.438
 6860SOL     OW21478   0.987   6.406   1.600
 6860SOL    HW121479   1.035   6.323   1.572
 6860SOL    HW221480   0.912   6.382   1.661
 6861SOL     OW21481   6.440   3.193   5.900
 6861SOL    HW121482   6.513   3.245   5.946
 6861SOL    HW221483   6.389   3.140   5.967
 6862SOL     OW21484   0.856   4.420   4.351
 6862SOL    HW121485   0.839   4.440   4.254
 6862SOL    HW221486   0.922   4.346   4.359
 6863SOL     OW21487   5.754   1.203   5.216
 6863SOL    HW121488   5.828   1.246   5.165
 6863SOL    HW221489   5.784   1.115   5.253
 6864SOL     OW21490   1.083   3.879   5.911
 6864SOL    HW121491   1.028   3.870   5.828
 6864SOL    HW221492   1.150   3.953   5.899
 6865SOL     OW21493   2.401   0.000   3.437
 6865SOL    HW121494   2.427   7.018   3.533
 6865SOL    HW221495   2.341   0.079   3.422
 6866SOL     OW21496   1.347   4.783   0.230
 6866SOL    HW121497   1.394   4.767   0.316
 6866SOL    HW221498   1.383   4.721   0.160
 6867SOL     OW21499   2.242   3.721   6.273
 6867SOL    HW121500   2.176   3.662   6.320
 6867SOL    HW221501   2.316   3.666   6.235
 6868SOL     OW21502   2.863   5.536   3.614
 6868SOL    HW121503   2.896   5.529   3.520
 6868SOL    HW221504   2.929   5.587   3.669
 6869SOL     OW21505   3.526   1.022   6.249
 6869SOL    HW121506   3.576   0.936   6.243
 6869SOL    HW221507   3.528   1.055   6.343
 6870SOL     OW21508   5.929   2.103   0.546
 6870SOL    HW121509   5.970   2.137   0.631
 6870SOL    HW221510   5.949   2.167   0.471
 6871SOL     OW21511   6.609   3.589   2.471
 6871SOL    HW121512   6.686   3.629   2.422
 6871SOL    HW221513   6.627   3.591   2.569
 6872SOL     OW21514   1.944   3.888   0.852
 6872SOL    HW121515   1.848   3.893   0.826
 6872SOL    HW221516   1.983   3.801   0.821
 6873SOL     OW21517   0.842   4.260   3.252
 6873SOL    HW121518   0.917   4.208   3.210
 6873SOL    HW221519   0.777   4.197   3.293
 6874SOL     OW21520   5.468   6.620   3.435
 6874SOL    HW121521   5.473   6.544   3.371
 6874SOL    HW221522   5.375   6.656   3.438
 6875SOL     OW21523   2.624   1.361   0.358
 6875SOL    HW121524   2.703   1.327   0.307
 6875SOL    HW221525   2.540   1.330   0.314
 6876SOL     OW21526   5.093   5.155   3.477
 6876SOL    HW121527   5.182   5.114   3.456
 6876SOL    HW221528   5.104   5.224   3.548
 6877SOL     OW21529   0.882   3.504   1.464
 6877SOL    HW121530   0.860   3.442   1.389
 6877SOL    HW221531   0.978   3.492   1.490
 6878SOL     OW21532   1.964   0.667   4.813
 6878SOL    HW121533   1.931   0.758   4.790
 6878SOL    HW221534   2.052   0.674   4.859
 6879SOL     OW21535   1.650   1.094   0.954
 6879SOL    HW121536   1.623   1.063   0.863
 6879SOL    HW221537   1.598   1.176   0.978
 6880SOL     OW21538   1.468   5.249   0.032
 6880SOL    HW121539   1.419   5.182   6.999
 6880SOL    HW221540   1.413   5.274   0.111
 6881SOL     OW21541   0.518   2.852   0.370
 6881SOL    HW121542   0.593   2.792   0.397
 6881SOL    HW221543   0.449   2.799   0.321
 6882SOL     OW21544   2.364   6.404   6.804
 6882SOL    HW121545   2.268   6.421   6.823
 6882SOL    HW221546   2.390   6.314   6.841
 6883SOL     OW21547   4.586   0.321   1.217
 6883SOL    HW121548   4.609   0.309   1.121
 6883SOL    HW221549   4.584   0.419   1.239
 6884SOL     OW21550   1.751   4.055   3.184
 6884SOL    HW121551   1.775   3.958   3.182
 6884SOL    HW221552   1.823   4.108   3.139
 6885SOL     OW21553   5.916   5.317   4.545
 6885SOL    HW121554   6.005   5.297   4.586
 6885SOL    HW221555   5.911   5.413   4.520
 6886SOL     OW21556   4.957   2.720   0.226
 6886SOL    HW121557   4.920   2.812   0.239
 6886SOL    HW221558   4.976   2.679   0.315
 6887SOL     OW21559   5.831   5.572   5.940
 6887SOL    HW121560   5.903   5.627   5.984
 6887SOL    HW221561   5.856   5.555   5.845
 6888SOL     OW21562   5.884   4.381   6.660
 6888SOL    HW121563   5.968   4.337   6.627
 6888SOL    HW221564   5.823   4.397   6.583
 6889SOL     OW21565   6.907   2.777   6.197
 6889SOL    HW121566   6.947   2.816   6.279
 6889SOL    HW221567   6.969   2.792   6.119
 6890SOL     OW21568   4.618   4.419   3.579
 6890SOL    HW121569   4.629   4.432   3.677
 6890SOL    HW221570   4.529   4.453   3.550
 6891SOL     OW21571   2.042   1.351   1.440
 6891SOL    HW121572   1.985   1.382   1.363
 6891SOL    HW221573   2.114   1.292   1.405
 6892SOL     OW21574   3.217   1.017   4.393
 6892SOL    HW121575   3.225   1.102   4.341
 6892SOL    HW221576   3.125   0.979   4.381
 6893SOL     OW21577   6.526   3.213   0.778
 6893SOL    HW121578   6.455   3.171   0.834
 6893SOL    HW221579   6.499   3.306   0.754
 6894SOL     OW21580   6.126   4.892   0.556
 6894SOL    HW121581   6.167   4.801   0.569
 6894SOL    HW221582   6.126   4.914   0.459
 6895SOL     OW21583   0.698   6.617   2.262
 6895SOL    HW121584   0.710   6.534   2.317
 6895SOL    HW221585   0.604   6.651   2.273
 6896SOL     OW21586   4.855   1.214   4.843
 6896SOL    HW121587   4.941   1.261   4.863
 6896SOL    HW221588   4.794   1.222   4.922
 6897SOL     OW21589   4.887   2.760   4.978
 6897SOL    HW121590   4.799   2.716   4.995
 6897SOL    HW221591   4.931   2.717   4.899
 6898SOL     OW21592   1.576   6.116   1.342
 6898SOL    HW121593   1.660   6.158   1.377
 6898SOL    HW221594   1.583   6.106   1.243
 6899SOL     OW21595   6.175   5.993   2.082
 6899SOL    HW121596   6.181   5.907   2.033
 6899SOL    HW221597   6.260   6.009   2.132
 6900SOL     OW21598   6.488   3.718   4.991
 6900SOL    HW121599   6.407   3.773   5.012
 6900SOL    HW221600   6.567   3.753   5.041
 6901SOL     OW21601   5.094   4.924   6.954
 6901SOL    HW121602   5.058   4.858   7.020
 6901SOL    HW221603   5.168   4.976   6.997
 6902SOL     OW21604   0.365   5.950   6.067
 6902SOL    HW121605   0.441   5.944   6.001
 6902SOL    HW221606   0.299   5.878   6.048
 6903SOL     OW21607   1.162   5.862   4.505
 6903SOL    HW121608   1.119   5.799   4.440
 6903SOL    HW221609   1.232   5.814   4.557
 6904SOL     OW21610   6.797   0.438   6.434
 6904SOL    HW121611   6.891   0.440   6.400
 6904SOL    HW221612   6.756   0.349   6.414
 6905SOL     OW21613   5.151   5.979   5.748
 6905SOL    HW121614   5.087   6.050   5.721
 6905SOL    HW221615   5.235   5.987   5.695
 6906SOL     OW21616   3.213   0.954   3.773
 6906SOL    HW121617   3.120   0.964   3.737
 6906SOL    HW221618   3.267   1.035   3.749
 6907SOL     OW21619   5.596   2.277   1.030
 6907SOL    HW121620   5.595   2.225   1.116
 6907SOL    HW221621   5.641   2.222   0.959
 6908SOL     OW21622   3.141   5.508   0.538
 6908SOL    HW121623   3.190   5.431   0.497
 6908SOL    HW221624   3.062   5.474   0.589
 6909SOL     OW21625   5.682   4.753   2.062
 6909SOL    HW121626   5.750   4.686   2.034
 6909SOL    HW221627   5.603   4.748   2.002
 6910SOL     OW21628   1.079   2.828   2.706
 6910SOL    HW121629   0.981   2.831   2.725
 6910SOL    HW221630   1.102   2.893   2.634
 6911SOL     OW21631   1.520   6.355   5.810
 6911SOL    HW121632   1.609   6.354   5.764
 6911SOL    HW221633   1.468   6.275   5.784
 6912SOL     OW21634   2.564   3.905   6.816
 6912SOL    HW121635   2.523   3.932   6.904
 6912SOL    HW221636   2.521   3.820   6.785
 6913SOL     OW21637   4.696   6.178   5.852
 6913SOL    HW121638   4.699   6.104   5.785
 6913SOL    HW221639   4.650   6.258   5.812
 6914SOL     OW21640   6.021   2.884   2.197
 6914SOL    HW121641   6.120   2.871   2.209
 6914SOL    HW221642   5.972   2.811   2.243
 6915SOL     OW21643   6.781   3.617   3.696
 6915SOL    HW121644   6.699   3.562   3.679
 6915SOL    HW221645   6.768   3.668   3.782
 6916SOL     OW21646   4.964   5.928   6.489
 6916SOL    HW121647   4.943   6.002   6.552
 6916SOL    HW221648   4.892   5.921   6.420
 6917SOL     OW21649   3.916   6.785   1.763
 6917SOL    HW121650   3.921   6.731   1.679
 6917SOL    HW221651   3.965   6.737   1.836
 6918SOL     OW21652   2.454   3.596   0.640
 6918SOL    HW121653   2.378   3.630   0.696
 6918SOL    HW221654   2.419   3.565   0.552
 6919SOL     OW21655   5.435   6.065   3.675
 6919SOL    HW121656   5.486   5.991   3.631
 6919SOL    HW221657   5.345   6.074   3.631
 6920SOL     OW21658   6.250   1.223   6.242
 6920SOL    HW121659   6.203   1.152   6.189
 6920SOL    HW221660   6.265   1.190   6.335
 6921SOL     OW21661   4.305   0.145   4.283
 6921SOL    HW121662   4.391   0.166   4.328
 6921SOL    HW221663   4.303   0.049   4.257
 6922SOL     OW21664   2.003   4.829   6.328
 6922SOL    HW121665   2.029   4.896   6.259
 6922SOL    HW221666   1.905   4.836   6.347
 6923SOL     OW21667   6.040   6.860   2.125
 6923SOL    HW121668   6.121   6.859   2.183
 6923SOL    HW221669   5.971   6.920   2.165
 6924SOL     OW21670   3.178   5.574   2.162
 6924SOL    HW121671   3.232   5.578   2.246
 6924SOL    HW221672   3.168   5.667   2.125
 6925SOL     OW21673   5.941   6.751   5.419
 6925SOL    HW121674   5.966   6.847   5.432
 6925SOL    HW221675   5.850   6.735   5.458
 6926SOL     OW21676   3.324   2.394   0.300
 6926SOL    HW121677   3.377   2.477   0.287
 6926SOL    HW221678   3.385   2.317   0.317
 6927SOL     OW21679   4.616   0.389   0.680
 6927SOL    HW121680   4.590   0.481   0.650
 6927SOL    HW221681   4.566   0.321   0.626
 6928SOL     OW21682   3.943   5.389   0.010
 6928SOL    HW121683   4.007   5.396   6.956
 6928SOL    HW221684   3.993   5.397   0.096
 6929SOL     OW21685   5.528   5.172   2.165
 6929SOL    HW121686   5.441   5.147   2.121
 6929SOL    HW221687   5.564   5.093   2.215
 6930SOL     OW21688   0.461   6.723   1.553
 6930SOL    HW121689   0.430   6.693   1.463
 6930SOL    HW221690   0.525   6.799   1.544
 6931SOL     OW21691   3.007   3.336   1.034
 6931SOL    HW121692   2.973   3.370   1.121
 6931SOL    HW221693   2.957   3.379   0.959
 6932SOL     OW21694   4.045   6.802   6.637
 6932SOL    HW121695   4.048   6.707   6.668
 6932SOL    HW221696   4.136   6.832   6.610
 6933SOL     OW21697   3.406   5.584   6.014
 6933SOL    HW121698   3.426   5.556   6.108
 6933SOL    HW221699   3.492   5.604   5.967
 6934SOL     OW21700   4.785   4.990   6.952
 6934SOL    HW121701   4.876   4.951   6.936
 6934SOL    HW221702   4.719   4.946   6.891
 6935SOL     OW21703   4.139   6.116   1.400
 6935SOL    HW121704   4.071   6.138   1.470
 6935SOL    HW221705   4.100   6.134   1.309
 6936SOL     OW21706   0.234   1.882   5.465
 6936SOL    HW121707   0.283   1.962   5.432
 6936SOL    HW221708   0.161   1.911   5.528
 6937SOL     OW21709   5.564   5.196   0.193
 6937SOL    HW121710   5.552   5.097   0.199
 6937SOL    HW221711   5.559   5.224   0.097
 6938SOL     OW21712   2.823   1.519   4.899
 6938SOL    HW121713   2.842   1.519   4.997
 6938SOL    HW221714   2.903   1.484   4.850
 6939SOL     OW21715   5.610   3.208   3.369
 6939SOL    HW121716   5.567   3.297   3.350
 6939SOL    HW221717   5.562   3.137   3.317
 6940SOL     OW21718   2.603   6.076   0.839
 6940SOL    HW121719   2.571   6.005   0.775
 6940SOL    HW221720   2.582   6.166   0.801
 6941SOL     OW21721   3.430   3.658   2.773
 6941SOL    HW121722   3.501   3.589   2.777
 6941SOL    HW221723   3.377   3.646   2.689
 6942SOL     OW21724   6.124   5.508   2.539
 6942SOL    HW121725   6.027   5.506   2.563
 6942SOL    HW221726   6.171   5.576   2.596
 6943SOL     OW21727   4.589   4.349   6.510
 6943SOL    HW121728   4.612   4.439   6.546
 6943SOL    HW221729   4.544   4.295   6.581
 6944SOL     OW21730   1.224   4.157   5.013
 6944SOL    HW121731   1.233   4.182   5.110
 6944SOL    HW221732   1.160   4.219   4.968
 6945SOL     OW21733   5.207   1.397   1.113
 6945SOL    HW121734   5.262   1.358   1.039
 6945SOL    HW221735   5.185   1.325   1.179
 6946SOL     OW21736   5.319   6.304   3.116
 6946SOL    HW121737   5.225   6.335   3.130
 6946SOL    HW221738   5.366   6.366   3.053
 6947SOL     OW21739   6.334   4.345   4.930
 6947SOL    HW121740   6.424   4.389   4.929
 6947SOL    HW221741   6.345   4.249   4.957
 6948SOL     OW21742   0.296   4.575   6.795
 6948SOL    HW121743   0.328   4.549   6.705
 6948SOL    HW221744   0.299   4.675   6.805
 6949SOL     OW21745   2.493   2.020   3.613
 6949SOL    HW121746   2.567   1.981   3.559
 6949SOL    HW221747   2.420   2.051   3.553
 6950SOL     OW21748   0.506   1.201   4.439
 6950SOL    HW121749   0.480   1.269   4.507
 6950SOL    HW221750   0.534   1.116   4.485
 6951SOL     OW21751   0.801   4.624   6.870
 6951SOL    HW121752   0.879   4.581   6.915
 6951SOL    HW221753   0.720   4.618   6.929
 6952SOL     OW21754   5.236   5.334   4.078
 6952SOL    HW121755   5.269   5.386   4.000
 6952SOL    HW221756   5.298   5.347   4.156
 6953SOL     OW21757   6.334   1.686   1.162
 6953SOL    HW121758   6.399   1.757   1.136
 6953SOL    HW221759   6.243   1.727   1.174
 6954SOL     OW21760   6.936   4.565   6.702
 6954SOL    HW121761   6.928   4.465   6.702
 6954SOL    HW221762   6.852   4.605   6.739
 6955SOL     OW21763   5.046   6.319   3.155
 6955SOL    HW121764   4.984   6.393   3.126
 6955SOL    HW221765   4.997   6.232   3.151
 6956SOL     OW21766   5.625   5.344   2.350
 6956SOL    HW121767   5.610   5.286   2.270
 6956SOL    HW221768   5.590   5.298   2.431
 6957SOL     OW21769   6.154   5.584   5.270
 6957SOL    HW121770   6.090   5.517   5.232
 6957SOL    HW221771   6.109   5.634   5.344
 6958SOL     OW21772   3.153   3.618   2.873
 6958SOL    HW121773   3.085   3.685   2.904
 6958SOL    HW221774   3.223   3.665   2.819
 6959SOL     OW21775   1.564   4.133   2.981
 6959SOL    HW121776   1.606   4.088   3.060
 6959SOL    HW221777   1.589   4.084   2.898
 6960SOL     OW21778   3.736   4.367   6.860
 6960SOL    HW121779   3.787   4.408   6.785
 6960SOL    HW221780   3.796   4.306   6.911
 6961SOL     OW21781   4.699   2.366   5.242
 6961SOL    HW121782   4.606   2.331   5.258
 6961SOL    HW221783   4.715   2.445   5.301
 6962SOL     OW21784   2.310   6.472   6.459
 6962SOL    HW121785   2.241   6.413   6.418
 6962SOL    HW221786   2.268   6.558   6.487
 6963SOL     OW21787   6.211   5.792   0.336
 6963SOL    HW121788   6.213   5.882   0.292
 6963SOL    HW221789   6.150   5.732   0.286
 6964SOL     OW21790   2.006   1.411   5.325
 6964SOL    HW121791   2.035   1.500   5.360
 6964SOL    HW221792   2.069   1.340   5.358
 6965SOL     OW21793   1.421   1.345   0.499
 6965SOL    HW121794   1.495   1.285   0.469
 6965SOL    HW221795   1.420   1.428   0.443
 6966SOL     OW21796   1.292   6.144   1.396
 6966SOL    HW121797   1.261   6.051   1.375
 6966SOL    HW221798   1.389   6.142   1.420
 6967SOL     OW21799   4.291   1.161   6.724
 6967SOL    HW121800   4.247   1.169   6.635
 6967SOL    HW221801   4.221   1.161   6.796
 6968SOL     OW21802   3.908   6.855   3.061
 6968SOL    HW121803   3.816   6.818   3.070
 6968SOL    HW221804   3.906   6.940   3.009
 6969SOL     OW21805   2.243   2.199   2.135
 6969SOL    HW121806   2.165   2.137   2.137
 6969SOL    HW221807   2.219   2.285   2.180
 6970SOL     OW21808   3.845   5.009   5.087
 6970SOL    HW121809   3.808   4.991   4.996
 6970SOL    HW221810   3.820   4.933   5.148
 6971SOL     OW21811   6.373   4.127   0.348
 6971SOL    HW121812   6.425   4.181   0.414
 6971SOL    HW221813   6.403   4.150   0.255
 6972SOL     OW21814   5.412   4.212   1.248
 6972SOL    HW121815   5.423   4.304   1.209
 6972SOL    HW221816   5.492   4.191   1.304
 6973SOL     OW21817   1.461   2.055   2.957
 6973SOL    HW121818   1.493   2.088   2.868
 6973SOL    HW221819   1.462   2.131   3.022
 6974SOL     OW21820   3.958   3.959   2.677
 6974SOL    HW121821   3.978   3.938   2.773
 6974SOL    HW221822   4.011   3.898   2.618
 6975SOL     OW21823   3.092   5.519   4.431
 6975SOL    HW121824   3.064   5.593   4.370
 6975SOL    HW221825   3.050   5.433   4.400
 6976SOL     OW21826   4.650   3.985   5.915
 6976SOL    HW121827   4.715   3.938   5.855
 6976SOL    HW221828   4.681   4.079   5.932
 6977SOL     OW21829   4.716   4.953   2.419
 6977SOL    HW121830   4.789   4.950   2.350
 6977SOL    HW221831   4.657   5.032   2.401
 6978SOL     OW21832   0.382   3.360   1.078
 6978SOL    HW121833   0.317   3.284   1.078
 6978SOL    HW221834   0.333   3.445   1.097
 6979SOL     OW21835   1.210   3.897   2.563
 6979SOL    HW121836   1.225   3.921   2.467
 6979SOL    HW221837   1.251   3.967   2.622
 6980SOL     OW21838   1.979   5.236   2.991
 6980SOL    HW121839   2.042   5.219   2.916
 6980SOL    HW221840   2.021   5.297   3.058
 6981SOL     OW21841   4.043   2.540   7.019
 6981SOL    HW121842   3.945   2.546   0.016
 6981SOL    HW221843   4.093   2.602   0.058
 6982SOL     OW21844   1.216   0.685   2.322
 6982SOL    HW121845   1.126   0.716   2.353
 6982SOL    HW221846   1.211   0.660   2.225
 6983SOL     OW21847   6.370   0.996   4.110
 6983SOL    HW121848   6.346   0.920   4.050
 6983SOL    HW221849   6.292   1.019   4.168
 6984SOL     OW21850   1.552   2.718   3.145
 6984SOL    HW121851   1.615   2.735   3.221
 6984SOL    HW221852   1.458   2.734   3.176
 6985SOL     OW21853   5.618   3.215   6.258
 6985SOL    HW121854   5.533   3.215   6.206
 6985SOL    HW221855   5.618   3.290   6.324
 6986SOL     OW21856   4.996   4.723   5.299
 6986SOL    HW121857   5.046   4.744   5.383
 6986SOL    HW221858   5.059   4.725   5.221
 6987SOL     OW21859   0.304   0.864   6.720
 6987SOL    HW121860   0.261   0.952   6.741
 6987SOL    HW221861   0.244   0.811   6.660
 6988SOL     OW21862   2.488   1.296   6.711
 6988SOL    HW121863   2.584   1.322   6.700
 6988SOL    HW221864   2.431   1.355   6.653
 6989SOL     OW21865   0.690   4.062   2.667
 6989SOL    HW121866   0.714   4.149   2.624
 6989SOL    HW221867   0.592   4.046   2.658
 6990SOL     OW21868   3.784   3.711   0.249
 6990SOL    HW121869   3.741   3.714   0.158
 6990SOL    HW221870   3.731   3.768   0.312
 6991SOL     OW21871   5.985   3.432   2.480
 6991SOL    HW121872   6.037   3.433   2.565
 6991SOL    HW221873   6.048   3.435   2.402
 6992SOL     OW21874   0.849   5.413   0.187
 6992SOL    HW121875   0.753   5.409   0.157
 6992SOL    HW221876   0.855   5.389   0.284
 6993SOL     OW21877   4.191   2.093   1.648
 6993SOL    HW121878   4.111   2.086   1.707
 6993SOL    HW221879   4.228   2.186   1.652
 6994SOL     OW21880   2.844   1.342   3.115
 6994SOL    HW121881   2.762   1.362   3.167
 6994SOL    HW221882   2.843   1.247   3.084
 6995SOL     OW21883   6.714   4.088   0.909
 6995SOL    HW121884   6.813   4.095   0.910
 6995SOL    HW221885   6.677   4.138   0.988
 6996SOL     OW21886   0.781   1.141   6.705
 6996SOL    HW121887   0.732   1.225   6.728
 6996SOL    HW221888   0.716   1.071   6.678
 6997SOL     OW21889   6.244   6.191   6.249
 6997SOL    HW121890   6.200   6.232   6.328
 6997SOL    HW221891   6.304   6.259   6.206
 6998SOL     OW21892   7.022   1.293   0.680
 6998SOL    HW121893   6.996   1.358   0.608
 6998SOL    HW221894   0.052   1.218   0.640
 6999SOL     OW21895   6.842   3.102   6.747
 6999SOL    HW121896   6.777   3.164   6.791
 6999SOL    HW221897   6.795   3.018   6.719
 7000SOL     OW21898   0.047   5.540   3.425
 7000SOL    HW121899   0.042   5.622   3.483
 7000SOL    HW221900   0.139   5.502   3.429
 7001SOL     OW21901   6.607   2.021   4.195
 7001SOL    HW121902   6.675   2.024   4.267
 7001SOL    HW221903   6.639   2.072   4.115
 7002SOL     OW21904   0.779   5.482   2.850
 7002SOL    HW121905   0.683   5.481   2.822
 7002SOL    HW221906   0.837   5.468   2.770
 7003SOL     OW21907   0.495   4.291   0.673
 7003SOL    HW121908   0.457   4.249   0.755
 7003SOL    HW221909   0.488   4.227   0.596
 7004SOL     OW21910   1.775   0.129   0.384
 7004SOL    HW121911   1.822   0.216   0.374
 7004SOL    HW221912   1.842   0.054   0.382
 7005SOL     OW21913   1.127   5.228   0.533
 7005SOL    HW121914   1.158   5.134   0.521
 7005SOL    HW221915   1.180   5.288   0.473
 7006SOL     OW21916   0.438   0.083   3.961
 7006SOL    HW121917   0.378   0.003   3.960
 7006SOL    HW221918   0.437   0.124   4.052
 7007SOL     OW21919   2.324   0.598   5.964
 7007SOL    HW121920   2.287   0.641   5.881
 7007SOL    HW221921   2.418   0.568   5.947
 7008SOL     OW21922   5.725   3.576   3.177
 7008SOL    HW121923   5.711   3.613   3.085
 7008SOL    HW221924   5.644   3.524   3.204
 7009SOL     OW21925   5.141   6.065   2.616
 7009SOL    HW121926   5.133   6.021   2.526
 7009SOL    HW221927   5.198   6.008   2.676
 7010SOL     OW21928   4.889   3.530   2.442
 7010SOL    HW121929   4.893   3.583   2.358
 7010SOL    HW221930   4.902   3.433   2.420
 7011SOL     OW21931   2.734   6.920   6.326
 7011SOL    HW121932   2.708   6.939   6.421
 7011SOL    HW221933   2.667   6.857   6.285
 7012SOL     OW21934   6.855   2.926   0.000
 7012SOL    HW121935   6.865   3.020   0.032
 7012SOL    HW221936   6.777   2.884   0.047
 7013SOL     OW21937   3.138   2.720   0.362
 7013SOL    HW121938   3.042   2.712   0.390
 7013SOL    HW221939   3.144   2.721   0.262
 7014SOL     OW21940   5.563   3.309   0.811
 7014SOL    HW121941   5.514   3.242   0.756
 7014SOL    HW221942   5.563   3.280   0.907
 7015SOL     OW21943   5.859   6.304   1.207
 7015SOL    HW121944   5.813   6.317   1.295
 7015SOL    HW221945   5.808   6.237   1.153
 7016SOL     OW21946   3.520   5.438   1.072
 7016SOL    HW121947   3.496   5.350   1.031
 7016SOL    HW221948   3.437   5.485   1.102
 7017SOL     OW21949   5.977   4.481   5.712
 7017SOL    HW121950   5.952   4.520   5.624
 7017SOL    HW221951   6.070   4.445   5.708
 7018SOL     OW21952   5.119   3.830   4.716
 7018SOL    HW121953   5.138   3.872   4.805
 7018SOL    HW221954   5.143   3.894   4.643
 7019SOL     OW21955   4.274   5.534   2.225
 7019SOL    HW121956   4.273   5.625   2.267
 7019SOL    HW221957   4.213   5.473   2.275
 7020SOL     OW21958   0.821   2.641   6.636
 7020SOL    HW121959   0.841   2.687   6.550
 7020SOL    HW221960   0.887   2.670   6.705
 7021SOL     OW21961   0.542   1.998   4.697
 7021SOL    HW121962   0.571   1.997   4.601
 7021SOL    HW221963   0.513   2.091   4.722
 7022SOL     OW21964   2.984   2.753   0.722
 7022SOL    HW121965   3.075   2.777   0.687
 7022SOL    HW221966   2.949   2.675   0.671
 7023SOL     OW21967   0.391   1.261   0.819
 7023SOL    HW121968   0.414   1.260   0.722
 7023SOL    HW221969   0.457   1.206   0.870
 7024SOL     OW21970   3.272   3.658   4.702
 7024SOL    HW121971   3.336   3.733   4.713
 7024SOL    HW221972   3.181   3.694   4.681
 7025SOL     OW21973   3.115   0.579   0.991
 7025SOL    HW121974   3.140   0.675   0.986
 7025SOL    HW221975   3.148   0.539   1.076
 7026SOL     OW21976   3.351   2.784   1.078
 7026SOL    HW121977   3.379   2.708   1.137
 7026SOL    HW221978   3.278   2.754   1.017
 7027SOL     OW21979   3.210   4.865   2.831
 7027SOL    HW121980   3.120   4.851   2.873
 7027SOL    HW221981   3.213   4.820   2.742
 7028SOL     OW21982   3.422   0.036   3.317
 7028SOL    HW121983   3.507   0.004   3.358
 7028SOL    HW221984   3.440   0.075   3.227
 7029SOL     OW21985   3.361   3.648   3.505
 7029SOL    HW121986   3.343   3.696   3.419
 7029SOL    HW221987   3.458   3.655   3.528
 7030SOL     OW21988   6.770   0.711   4.776
 7030SOL    HW121989   6.762   0.620   4.737
 7030SOL    HW221990   6.742   0.779   4.708
 7031SOL     OW21991   4.877   6.429   0.423
 7031SOL    HW121992   4.966   6.382   0.429
 7031SOL    HW221993   4.885   6.506   0.360
 7032SOL     OW21994   4.582   5.143   4.146
 7032SOL    HW121995   4.505   5.100   4.098
 7032SOL    HW221996   4.654   5.075   4.159
 7033SOL     OW21997   1.771   1.738   5.350
 7033SOL    HW121998   1.739   1.825   5.388
 7033SOL    HW221999   1.823   1.756   5.266
 7034SOL     OW22000   6.252   0.847   2.715
 7034SOL    HW122001   6.329   0.785   2.730
 7034SOL    HW222002   6.240   0.906   2.794
 7035SOL     OW22003   2.465   0.975   1.204
 7035SOL    HW122004   2.515   1.042   1.259
 7035SOL    HW222005   2.510   0.963   1.116
 7036SOL     OW22006   6.488   1.493   2.104
 7036SOL    HW122007   6.540   1.558   2.159
 7036SOL    HW222008   6.405   1.537   2.070
 7037SOL     OW22009   1.343   0.408   5.977
 7037SOL    HW122010   1.380   0.342   6.042
 7037SOL    HW222011   1.284   0.473   6.025
 7038SOL     OW22012   1.478   3.710   0.400
 7038SOL    HW122013   1.564   3.689   0.446
 7038SOL    HW222014   1.491   3.703   0.301
 7039SOL     OW22015   0.065   6.804   2.124
 7039SOL    HW122016   6.999   6.813   2.170
 7039SOL    HW222017   0.099   6.895   2.100
 7040SOL     OW22018   5.837   2.710   4.690
 7040SOL    HW122019   5.934   2.712   4.667
 7040SOL    HW222020   5.826   2.687   4.787
 7041SOL     OW22021   1.270   6.768   4.163
 7041SOL    HW122022   1.328   6.827   4.220
 7041SOL    HW222023   1.203   6.824   4.115
 7042SOL     OW22024   5.640   5.761   5.260
 7042SOL    HW122025   5.625   5.846   5.310
 7042SOL    HW222026   5.559   5.740   5.204
 7043SOL     OW22027   1.742   5.688   0.802
 7043SOL    HW122028   1.815   5.711   0.867
 7043SOL    HW222029   1.778   5.629   0.730
 7044SOL     OW22030   5.661   6.324   4.915
 7044SOL    HW122031   5.568   6.289   4.912
 7044SOL    HW222032   5.709   6.284   4.994
 7045SOL     OW22033   6.224   5.556   1.710
 7045SOL    HW122034   6.250   5.648   1.678
 7045SOL    HW222035   6.293   5.523   1.774
 7046SOL     OW22036   1.706   1.432   3.974
 7046SOL    HW122037   1.640   1.397   4.040
 7046SOL    HW222038   1.723   1.529   3.992
 7047SOL     OW22039   1.231   6.366   0.680
 7047SOL    HW122040   1.311   6.320   0.643
 7047SOL    HW222041   1.255   6.411   0.767
 7048SOL     OW22042   0.175   6.422   3.835
 7048SOL    HW122043   0.094   6.451   3.885
 7048SOL    HW222044   0.165   6.325   3.811
 7049SOL     OW22045   3.712   1.312   3.982
 7049SOL    HW122046   3.727   1.289   3.886
 7049SOL    HW222047   3.782   1.269   4.038
 7050SOL     OW22048   4.142   4.414   0.571
 7050SOL    HW122049   4.134   4.417   0.671
 7050SOL    HW222050   4.231   4.448   0.544
 7051SOL     OW22051   1.359   1.525   1.680
 7051SOL    HW122052   1.382   1.601   1.618
 7051SOL    HW222053   1.410   1.536   1.766
 7052SOL     OW22054   4.458   1.583   2.937
 7052SOL    HW122055   4.478   1.488   2.911
 7052SOL    HW222056   4.438   1.636   2.855
 7053SOL     OW22057   1.361   3.997   3.159
 7053SOL    HW122058   1.437   3.935   3.145
 7053SOL    HW222059   1.284   3.948   3.199
 7054SOL     OW22060   5.293   0.738   6.870
 7054SOL    HW122061   5.199   0.725   6.902
 7054SOL    HW222062   5.342   0.652   6.876
 7055SOL     OW22063   2.700   0.659   0.335
 7055SOL    HW122064   2.736   0.622   0.249
 7055SOL    HW222065   2.668   0.753   0.320
 7056SOL     OW22066   6.733   4.876   0.953
 7056SOL    HW122067   6.677   4.829   0.885
 7056SOL    HW222068   6.676   4.942   1.002
 7057SOL     OW22069   2.916   5.771   4.972
 7057SOL    HW122070   2.945   5.728   5.058
 7057SOL    HW222071   2.910   5.702   4.901
 7058SOL     OW22072   6.271   2.764   6.166
 7058SOL    HW122073   6.354   2.747   6.219
 7058SOL    HW222074   6.242   2.679   6.122
 7059SOL     OW22075   1.863   6.920   5.289
 7059SOL    HW122076   1.861   7.007   5.241
 7059SOL    HW222077   1.848   6.935   5.387
 7060SOL     OW22078   3.190   2.234   1.138
 7060SOL    HW122079   3.091   2.216   1.138
 7060SOL    HW222080   3.225   2.223   1.231
 7061SOL     OW22081   1.137   0.935   1.328
 7061SOL    HW122082   1.160   0.951   1.424
 7061SOL    HW222083   1.220   0.909   1.278
 7062SOL     OW22084   3.089   0.424   3.773
 7062SOL    HW122085   2.992   0.420   3.748
 7062SOL    HW222086   3.098   0.417   3.873
 7063SOL     OW22087   6.603   1.122   1.218
 7063SOL    HW122088   6.523   1.177   1.242
 7063SOL    HW222089   6.680   1.149   1.277
 7064SOL     OW22090   3.034   1.287   5.023
 7064SOL    HW122091   3.000   1.301   5.116
 7064SOL    HW222092   3.122   1.240   5.027
 7065SOL     OW22093   3.976   5.538   5.192
 7065SOL    HW122094   3.908   5.562   5.260
 7065SOL    HW222095   4.067   5.567   5.223
 7066SOL     OW22096   3.448   0.314   1.165
 7066SOL    HW122097   3.466   0.250   1.090
 7066SOL    HW222098   3.460   0.407   1.133
 7067SOL     OW22099   2.041   3.860   6.130
 7067SOL    HW122100   2.106   3.798   6.173
 7067SOL    HW222101   2.091   3.933   6.083
 7068SOL     OW22102   5.488   4.077   4.501
 7068SOL    HW122103   5.400   4.058   4.544
 7068SOL    HW222104   5.495   4.175   4.482
 7069SOL     OW22105   4.881   0.678   5.789
 7069SOL    HW122106   4.973   0.686   5.749
 7069SOL    HW222107   4.882   0.716   5.881
 7070SOL     OW22108   0.526   0.476   5.796
 7070SOL    HW122109   0.551   0.538   5.722
 7070SOL    HW222110   0.442   0.427   5.772
 7071SOL     OW22111   4.893   6.114   6.692
 7071SOL    HW122112   4.841   6.193   6.723
 7071SOL    HW222113   4.986   6.142   6.668
 7072SOL     OW22114   0.929   3.938   6.131
 7072SOL    HW122115   0.982   3.927   6.048
 7072SOL    HW222116   0.980   3.994   6.197
 7073SOL     OW22117   4.811   1.674   3.850
 7073SOL    HW122118   4.808   1.580   3.884
 7073SOL    HW222119   4.743   1.729   3.897
 7074SOL     OW22120   5.559   3.984   2.906
 7074SOL    HW122121   5.595   4.040   2.831
 7074SOL    HW222122   5.467   4.015   2.930
 7075SOL     OW22123   2.374   5.460   3.131
 7075SOL    HW122124   2.351   5.364   3.145
 7075SOL    HW222125   2.449   5.486   3.191
 7076SOL     OW22126   5.328   2.581   1.515
 7076SOL    HW122127   5.249   2.524   1.491
 7076SOL    HW222128   5.395   2.526   1.566
 7077SOL     OW22129   3.726   6.276   1.680
 7077SOL    HW122130   3.645   6.218   1.684
 7077SOL    HW222131   3.799   6.229   1.631
 7078SOL     OW22132   6.554   0.616   6.814
 7078SOL    HW122133   6.592   0.709   6.823
 7078SOL    HW222134   6.627   0.549   6.828
 7079SOL     OW22135   1.695   5.762   4.757
 7079SOL    HW122136   1.712   5.811   4.672
 7079SOL    HW222137   1.623   5.808   4.809
 7080SOL     OW22138   3.930   1.885   6.205
 7080SOL    HW122139   3.867   1.887   6.127
 7080SOL    HW222140   3.950   1.978   6.234
 7081SOL     OW22141   2.670   6.612   0.708
 7081SOL    HW122142   2.666   6.517   0.676
 7081SOL    HW222143   2.674   6.613   0.808
 7082SOL     OW22144   0.493   3.874   2.354
 7082SOL    HW122145   0.524   3.834   2.441
 7082SOL    HW222146   0.507   3.808   2.280
 7083SOL     OW22147   5.156   2.723   3.305
 7083SOL    HW122148   5.121   2.778   3.381
 7083SOL    HW222149   5.123   2.629   3.313
 7084SOL     OW22150   0.963   5.187   0.067
 7084SOL    HW122151   0.929   5.273   0.106
 7084SOL    HW222152   1.005   5.205   7.001
 7085SOL     OW22153   0.750   4.126   2.165
 7085SOL    HW122154   0.664   4.106   2.214
 7085SOL    HW222155   0.762   4.062   2.090
 7086SOL     OW22156   5.435   1.144   3.702
 7086SOL    HW122157   5.382   1.228   3.687
 7086SOL    HW222158   5.491   1.155   3.785
 7087SOL     OW22159   4.657   2.744   3.545
 7087SOL    HW122160   4.721   2.719   3.472
 7087SOL    HW222161   4.576   2.686   3.539
 7088SOL     OW22162   6.342   2.218   5.070
 7088SOL    HW122163   6.396   2.294   5.105
 7088SOL    HW222164   6.323   2.232   4.973
 7089SOL     OW22165   2.390   5.533   1.348
 7089SOL    HW122166   2.452   5.580   1.285
 7089SOL    HW222167   2.439   5.505   1.430
 7090SOL     OW22168   4.170   3.213   1.172
 7090SOL    HW122169   4.120   3.149   1.114
 7090SOL    HW222170   4.112   3.241   1.249
 7091SOL     OW22171   0.349   6.756   0.514
 7091SOL    HW122172   0.408   6.833   0.489
 7091SOL    HW222173   0.261   6.790   0.547
 7092SOL     OW22174   4.298   6.892   6.659
 7092SOL    HW122175   4.302   6.991   6.673
 7092SOL    HW222176   4.300   6.846   6.747
 7093SOL     OW22177   3.481   2.858   0.662
 7093SOL    HW122178   3.464   2.762   0.681
 7093SOL    HW222179   3.486   2.910   0.747
 7094SOL     OW22180   3.836   0.268   5.525
 7094SOL    HW122181   3.885   0.347   5.488
 7094SOL    HW222182   3.739   0.276   5.504
 7095SOL     OW22183   2.517   5.119   4.494
 7095SOL    HW122184   2.597   5.107   4.553
 7095SOL    HW222185   2.435   5.129   4.550
 7096SOL     OW22186   6.559   0.162   1.074
 7096SOL    HW122187   6.518   0.140   1.163
 7096SOL    HW222188   6.648   0.117   1.066
 7097SOL     OW22189   4.616   1.503   2.491
 7097SOL    HW122190   4.536   1.488   2.550
 7097SOL    HW222191   4.677   1.569   2.534
 7098SOL     OW22192   1.110   1.065   3.323
 7098SOL    HW122193   1.120   0.971   3.291
 7098SOL    HW222194   1.198   1.100   3.355
 7099SOL     OW22195   3.514   1.795   4.496
 7099SOL    HW122196   3.493   1.699   4.517
 7099SOL    HW222197   3.557   1.801   4.406
 7100SOL     OW22198   6.794   4.113   1.367
 7100SOL    HW122199   6.729   4.113   1.443
 7100SOL    HW222200   6.842   4.025   1.365
 7101SOL     OW22201   2.469   5.986   4.846
 7101SOL    HW122202   2.545   5.967   4.909
 7101SOL    HW222203   2.421   5.901   4.826
 7102SOL     OW22204   5.306   1.251   2.369
 7102SOL    HW122205   5.394   1.211   2.394
 7102SOL    HW222206   5.290   1.334   2.424
 7103SOL     OW22207   5.037   3.598   3.639
 7103SOL    HW122208   5.026   3.695   3.615
 7103SOL    HW222209   4.961   3.569   3.697
 7104SOL     OW22210   4.877   2.801   4.515
 7104SOL    HW122211   4.788   2.777   4.553
 7104SOL    HW222212   4.870   2.889   4.468
 7105SOL     OW22213   2.874   3.413   2.982
 7105SOL    HW122214   2.910   3.432   3.074
 7105SOL    HW222215   2.791   3.466   2.968
 7106SOL     OW22216   3.351   1.687   2.470
 7106SOL    HW122217   3.272   1.660   2.415
 7106SOL    HW222218   3.425   1.716   2.410
 7107SOL     OW22219   3.925   0.637   6.255
 7107SOL    HW122220   4.024   0.627   6.240
 7107SOL    HW222221   3.889   0.554   6.298
 7108SOL     OW22222   4.188   0.410   2.024
 7108SOL    HW122223   4.115   0.478   2.018
 7108SOL    HW222224   4.273   0.454   2.051
 7109SOL     OW22225   3.219   5.807   6.776
 7109SOL    HW122226   3.206   5.803   6.677
 7109SOL    HW222227   3.314   5.832   6.796
 7110SOL     OW22228   2.962   6.493   4.896
 7110SOL    HW122229   2.952   6.401   4.857
 7110SOL    HW222230   3.006   6.553   4.830
 7111SOL     OW22231   6.481   0.645   5.130
 7111SOL    HW122232   6.409   0.609   5.071
 7111SOL    HW222233   6.496   0.742   5.110
 7112SOL     OW22234   1.253   4.886   5.053
 7112SOL    HW122235   1.333   4.936   5.088
 7112SOL    HW222236   1.195   4.949   5.001
 7113SOL     OW22237   3.243   6.545   4.694
 7113SOL    HW122238   3.299   6.620   4.729
 7113SOL    HW222239   3.214   6.567   4.601
 7114SOL     OW22240   5.951   4.051   1.101
 7114SOL    HW122241   5.882   4.115   1.068
 7114SOL    HW222242   5.909   3.986   1.165
 7115SOL     OW22243   5.549   3.094   5.932
 7115SOL    HW122244   5.561   3.025   6.004
 7115SOL    HW222245   5.453   3.096   5.904
 7116SOL     OW22246   0.295   3.947   4.686
 7116SOL    HW122247   0.294   3.937   4.785
 7116SOL    HW222248   0.268   3.860   4.643
 7117SOL     OW22249   5.153   6.669   2.998
 7117SOL    HW122250   5.124   6.632   2.910
 7117SOL    HW222251   5.111   6.759   3.012
 7118SOL     OW22252   4.374   4.307   6.320
 7118SOL    HW122253   4.411   4.332   6.410
 7118SOL    HW222254   4.405   4.215   6.295
 7119SOL     OW22255   3.414   6.163   5.774
 7119SOL    HW122256   3.440   6.090   5.710
 7119SOL    HW222257   3.486   6.231   5.778
 7120SOL     OW22258   4.318   1.333   0.726
 7120SOL    HW122259   4.375   1.254   0.703
 7120SOL    HW222260   4.355   1.379   0.806
 7121SOL     OW22261   1.299   5.656   2.470
 7121SOL    HW122262   1.326   5.569   2.510
 7121SOL    HW222263   1.285   5.723   2.542
 7122SOL     OW22264   3.604   2.068   6.784
 7122SOL    HW122265   3.654   2.041   6.867
 7122SOL    HW222266   3.662   2.054   6.704
 7123SOL     OW22267   5.799   4.980   5.884
 7123SOL    HW122268   5.832   5.071   5.908
 7123SOL    HW222269   5.852   4.911   5.933
 7124SOL     OW22270   1.766   3.127   1.149
 7124SOL    HW122271   1.782   3.141   1.246
 7124SOL    HW222272   1.845   3.079   1.108
 7125SOL     OW22273   0.437   6.670   2.324
 7125SOL    HW122274   0.411   6.611   2.401
 7125SOL    HW222275   0.364   6.670   2.256
 7126SOL     OW22276   3.647   5.613   1.314
 7126SOL    HW122277   3.733   5.621   1.365
 7126SOL    HW222278   3.655   5.538   1.248
 7127SOL     OW22279   2.563   6.498   6.346
 7127SOL    HW122280   2.623   6.494   6.427
 7127SOL    HW222281   2.473   6.463   6.370
 7128SOL     OW22282   3.151   4.187   0.080
 7128SOL    HW122283   3.077   4.129   0.047
 7128SOL    HW222284   3.166   4.171   0.178
 7129SOL     OW22285   0.478   0.307   0.165
 7129SOL    HW122286   0.459   0.360   0.082
 7129SOL    HW222287   0.553   0.244   0.148
 7130SOL     OW22288   3.135   6.942   3.969
 7130SOL    HW122289   3.211   6.938   4.033
 7130SOL    HW222290   3.058   6.888   4.004
 7131SOL     OW22291   2.320   1.399   1.874
 7131SOL    HW122292   2.289   1.419   1.781
 7131SOL    HW222293   2.266   1.324   1.912
 7132SOL     OW22294   5.034   4.153   1.009
 7132SOL    HW122295   5.045   4.074   0.949
 7132SOL    HW222296   4.976   4.129   1.086
 7133SOL     OW22297   4.985   6.093   2.998
 7133SOL    HW122298   5.032   6.175   2.966
 7133SOL    HW222299   5.008   6.016   2.939
 7134SOL     OW22300   5.152   5.242   6.882
 7134SOL    HW122301   5.213   5.163   6.879
 7134SOL    HW222302   5.203   5.322   6.913
 7135SOL     OW22303   1.878   3.736   1.428
 7135SOL    HW122304   1.892   3.651   1.479
 7135SOL    HW222305   1.912   3.813   1.482
 7136SOL     OW22306   1.120   2.641   1.958
 7136SOL    HW122307   1.178   2.585   2.017
 7136SOL    HW222308   1.176   2.681   1.885
 7137SOL     OW22309   2.844   1.102   1.621
 7137SOL    HW122310   2.827   1.187   1.671
 7137SOL    HW222311   2.775   1.034   1.647
 7138SOL     OW22312   0.509   3.339   0.302
 7138SOL    HW122313   0.485   3.304   0.393
 7138SOL    HW222314   0.425   3.365   0.253
 7139SOL     OW22315   5.902   6.438   0.994
 7139SOL    HW122316   5.902   6.367   1.065
 7139SOL    HW222317   5.820   6.495   1.004
 7140SOL     OW22318   6.760   4.186   6.904
 7140SOL    HW122319   6.669   4.165   6.939
 7140SOL    HW222320   6.828   4.138   6.959
 7141SOL     OW22321   3.143   0.851   0.898
 7141SOL    HW122322   3.045   0.837   0.882
 7141SOL    HW222323   3.194   0.834   0.814
 7142SOL     OW22324   4.294   0.042   4.664
 7142SOL    HW122325   4.267   6.976   4.703
 7142SOL    HW222326   4.225   0.071   4.598
 7143SOL     OW22327   2.695   3.327   6.177
 7143SOL    HW122328   2.762   3.356   6.245
 7143SOL    HW222329   2.649   3.408   6.139
 7144SOL     OW22330   6.955   0.953   6.254
 7144SOL    HW122331   6.912   0.985   6.169
 7144SOL    HW222332   6.979   0.856   6.244
 7145SOL     OW22333   5.837   1.611   6.188
 7145SOL    HW122334   5.890   1.527   6.178
 7145SOL    HW222335   5.740   1.587   6.199
 7146SOL     OW22336   1.105   2.223   5.435
 7146SOL    HW122337   1.072   2.278   5.511
 7146SOL    HW222338   1.142   2.282   5.364
 7147SOL     OW22339   6.303   6.258   1.976
 7147SOL    HW122340   6.295   6.168   2.020
 7147SOL    HW222341   6.219   6.277   1.924
 7148SOL     OW22342   6.836   7.001   1.368
 7148SOL    HW122343   6.810   6.909   1.340
 7148SOL    HW222344   6.930   7.001   1.402
 7149SOL     OW22345   5.693   4.558   5.693
 7149SOL    HW122346   5.631   4.499   5.640
 7149SOL    HW222347   5.774   4.505   5.720
 7150SOL     OW22348   3.032   2.467   0.029
 7150SOL    HW122349   3.055   2.429   0.119
 7150SOL    HW222350   3.020   2.392   6.987
 7151SOL     OW22351   5.423   1.388   6.868
 7151SOL    HW122352   5.507   1.423   6.910
 7151SOL    HW222353   5.416   1.422   6.774
 7152SOL     OW22354   4.769   0.437   5.802
 7152SOL    HW122355   4.809   0.400   5.886
 7152SOL    HW222356   4.811   0.525   5.781
 7153SOL     OW22357   3.554   6.036   0.339
 7153SOL    HW122358   3.475   5.977   0.355
 7153SOL    HW222359   3.626   6.014   0.404
 7154SOL     OW22360   4.348   1.347   2.166
 7154SOL    HW122361   4.413   1.272   2.159
 7154SOL    HW222362   4.273   1.322   2.226
 7155SOL     OW22363   1.527   0.571   1.912
 7155SOL    HW122364   1.449   0.538   1.964
 7155SOL    HW222365   1.527   0.530   1.821
 7156SOL     OW22366   6.667   3.552   5.498
 7156SOL    HW122367   6.614   3.608   5.560
 7156SOL    HW222368   6.736   3.608   5.451
 7157SOL     OW22369   0.423   4.395   5.931
 7157SOL    HW122370   0.519   4.391   5.957
 7157SOL    HW222371   0.404   4.325   5.861
 7158SOL     OW22372   5.200   6.944   3.972
 7158SOL    HW122373   5.259   7.021   3.999
 7158SOL    HW222374   5.157   6.965   3.884
 7159SOL     OW22375   0.545   6.287   2.990
 7159SOL    HW122376   0.546   6.381   2.955
 7159SOL    HW222377   0.488   6.283   3.072
 7160SOL     OW22378   5.947   0.053   3.345
 7160SOL    HW122379   5.992   7.021   3.415
 7160SOL    HW222380   6.004   0.132   3.323
 7161SOL     OW22381   3.628   3.989   2.159
 7161SOL    HW122382   3.719   3.995   2.200
 7161SOL    HW222383   3.614   3.897   2.122
 7162SOL     OW22384   0.623   6.458   1.364
 7162SOL    HW122385   0.705   6.405   1.341
 7162SOL    HW222386   0.645   6.524   1.436
 7163SOL     OW22387   6.759   0.724   0.898
 7163SOL    HW122388   6.666   0.690   0.907
 7163SOL    HW222389   6.757   0.824   0.889
 7164SOL     OW22390   0.999   0.859   6.899
 7164SOL    HW122391   0.946   0.939   6.925
 7164SOL    HW222392   1.048   0.877   6.813
 7165SOL     OW22393   6.033   2.154   0.108
 7165SOL    HW122394   6.072   2.231   0.057
 7165SOL    HW222395   6.067   2.155   0.202
 7166SOL     OW22396   6.756   5.792   6.073
 7166SOL    HW122397   6.672   5.748   6.106
 7166SOL    HW222398   6.835   5.748   6.115
 7167SOL     OW22399   6.960   2.700   5.214
 7167SOL    HW122400   6.901   2.654   5.148
 7167SOL    HW222401   0.016   2.739   5.167
 7168SOL     OW22402   1.847   2.000   2.231
 7168SOL    HW122403   1.793   2.058   2.170
 7168SOL    HW222404   1.917   2.055   2.276
 7169SOL     OW22405   1.621   4.766   5.270
 7169SOL    HW122406   1.580   4.675   5.262
 7169SOL    HW222407   1.720   4.758   5.274
 7170SOL     OW22408   3.528   1.529   1.225
 7170SOL    HW122409   3.530   1.429   1.224
 7170SOL    HW222410   3.481   1.561   1.307
 7171SOL     OW22411   6.854   3.778   0.833
 7171SOL    HW122412   6.884   3.773   0.737
 7171SOL    HW222413   6.899   3.856   0.877
 7172SOL     OW22414   0.435   2.543   3.778
 7172SOL    HW122415   0.348   2.499   3.800
 7172SOL    HW222416   0.418   2.640   3.760
 7173SOL     OW22417   4.587   5.473   5.972
 7173SOL    HW122418   4.667   5.485   6.030
 7173SOL    HW222419   4.597   5.390   5.917
 7174SOL     OW22420   6.677   4.281   2.340
 7174SOL    HW122421   6.602   4.220   2.363
 7174SOL    HW222422   6.667   4.311   2.245
 7175SOL     OW22423   6.586   3.953   5.286
 7175SOL    HW122424   6.629   3.985   5.370
 7175SOL    HW222425   6.567   4.031   5.226
 7176SOL     OW22426   0.139   1.272   6.156
 7176SOL    HW122427   0.209   1.324   6.107
 7176SOL    HW222428   0.050   1.318   6.145
 7177SOL     OW22429   1.221   6.128   3.689
 7177SOL    HW122430   1.212   6.224   3.663
 7177SOL    HW222431   1.242   6.121   3.786
 7178SOL     OW22432   1.534   6.864   5.013
 7178SOL    HW122433   1.526   6.891   5.109
 7178SOL    HW222434   1.443   6.861   4.972
 7179SOL     OW22435   4.104   4.920   6.091
 7179SOL    HW122436   4.128   4.837   6.040
 7179SOL    HW222437   4.185   4.979   6.098
 7180SOL     OW22438   1.899   2.955   1.731
 7180SOL    HW122439   1.885   2.896   1.652
 7180SOL    HW222440   1.816   3.008   1.748
 7181SOL     OW22441   1.985   1.353   6.869
 7181SOL    HW122442   1.931   1.374   6.787
 7181SOL    HW222443   1.988   1.254   6.883
 7182SOL     OW22444   1.647   1.243   3.769
 7182SOL    HW122445   1.649   1.299   3.852
 7182SOL    HW222446   1.723   1.270   3.709
 7183SOL     OW22447   1.474   6.914   2.116
 7183SOL    HW122448   1.428   6.829   2.141
 7183SOL    HW222449   1.426   6.991   2.159
 7184SOL     OW22450   6.499   0.883   3.686
 7184SOL    HW122451   6.551   0.968   3.692
 7184SOL    HW222452   6.529   0.820   3.758
 7185SOL     OW22453   4.275   0.539   4.053
 7185SOL    HW122454   4.192   0.584   4.022
 7185SOL    HW222455   4.327   0.601   4.111
 7186SOL     OW22456   6.239   0.725   6.975
 7186SOL    HW122457   6.297   0.806   6.964
 7186SOL    HW222458   6.283   0.661   0.016
 7187SOL     OW22459   3.709   3.781   3.827
 7187SOL    HW122460   3.710   3.687   3.793
 7187SOL    HW222461   3.646   3.788   3.905
 7188SOL     OW22462   4.429   4.653   0.041
 7188SOL    HW122463   4.501   4.613   0.098
 7188SOL    HW222464   4.345   4.662   0.094
 7189SOL     OW22465   6.865   2.667   5.885
 7189SOL    HW122466   6.960   2.636   5.878
 7189SOL    HW222467   6.832   2.694   5.795
 7190SOL     OW22468   5.963   5.215   6.770
 7190SOL    HW122469   5.866   5.232   6.749
 7190SOL    HW222470   5.974   5.202   6.868
 7191SOL     OW22471   6.724   4.916   2.852
 7191SOL    HW122472   6.769   4.827   2.844
 7191SOL    HW222473   6.690   4.928   2.945
 7192SOL     OW22474   2.445   4.189   5.821
 7192SOL    HW122475   2.407   4.111   5.872
 7192SOL    HW222476   2.427   4.273   5.871
 7193SOL     OW22477   3.233   1.817   3.139
 7193SOL    HW122478   3.239   1.917   3.128
 7193SOL    HW222479   3.199   1.777   3.054
 7194SOL     OW22480   3.065   2.472   6.271
 7194SOL    HW122481   3.090   2.563   6.306
 7194SOL    HW222482   3.079   2.404   6.344
 7195SOL     OW22483   0.657   4.126   5.231
 7195SOL    HW122484   0.632   4.176   5.148
 7195SOL    HW222485   0.574   4.105   5.283
 7196SOL     OW22486   3.606   4.201   1.994
 7196SOL    HW122487   3.640   4.129   2.054
 7196SOL    HW222488   3.520   4.172   1.953
 7197SOL     OW22489   3.297   4.305   6.593
 7197SOL    HW122490   3.241   4.338   6.517
 7197SOL    HW222491   3.313   4.207   6.584
 7198SOL     OW22492   0.756   0.729   1.725
 7198SOL    HW122493   0.661   0.749   1.751
 7198SOL    HW222494   0.760   0.638   1.683
 7199SOL     OW22495   6.085   1.636   2.446
 7199SOL    HW122496   6.066   1.724   2.403
 7199SOL    HW222497   6.126   1.574   2.379
 7200SOL     OW22498   0.748   2.695   0.127
 7200SOL    HW122499   0.745   2.709   0.226
 7200SOL    HW222500   0.688   2.761   0.082
 7201SOL     OW22501   6.226   5.587   3.909
 7201SOL    HW122502   6.258   5.679   3.929
 7201SOL    HW222503   6.256   5.560   3.818
 7202SOL     OW22504   4.409   6.435   5.792
 7202SOL    HW122505   4.374   6.523   5.824
 7202SOL    HW222506   4.333   6.380   5.755
 7203SOL     OW22507   0.153   1.417   1.163
 7203SOL    HW122508   0.247   1.414   1.198
 7203SOL    HW222509   0.132   1.331   1.117
 7204SOL     OW22510   6.694   0.775   2.462
 7204SOL    HW122511   6.764   0.846   2.460
 7204SOL    HW222512   6.663   0.755   2.369
 7205SOL     OW22513   2.769   1.986   4.277
 7205SOL    HW122514   2.676   1.951   4.292
 7205SOL    HW222515   2.785   2.064   4.337
 7206SOL     OW22516   1.928   4.082   6.874
 7206SOL    HW122517   1.979   4.145   6.933
 7206SOL    HW222518   1.894   4.006   6.929
 7207SOL     OW22519   1.952   1.097   3.505
 7207SOL    HW122520   1.936   1.120   3.409
 7207SOL    HW222521   1.905   1.012   3.527
 7208SOL     OW22522   3.214   0.605   4.232
 7208SOL    HW122523   3.127   0.625   4.277
 7208SOL    HW222524   3.206   0.519   4.180
 7209SOL     OW22525   3.461   1.275   1.707
 7209SOL    HW122526   3.387   1.242   1.649
 7209SOL    HW222527   3.500   1.198   1.758
 7210SOL     OW22528   3.235   1.253   3.484
 7210SOL    HW122529   3.172   1.183   3.451
 7210SOL    HW222530   3.216   1.339   3.437
 7211SOL     OW22531   4.330   6.356   5.469
 7211SOL    HW122532   4.249   6.343   5.526
 7211SOL    HW222533   4.348   6.454   5.460
 7212SOL     OW22534   0.747   5.163   5.600
 7212SOL    HW122535   0.783   5.094   5.664
 7212SOL    HW222536   0.727   5.247   5.650
 7213SOL     OW22537   4.046   1.977   0.069
 7213SOL    HW122538   4.081   1.931   7.010
 7213SOL    HW222539   4.061   1.920   0.150
 7214SOL     OW22540   5.908   6.980   6.561
 7214SOL    HW122541   5.828   0.017   6.577
 7214SOL    HW222542   5.901   6.938   6.471
 7215SOL     OW22543   6.422   1.439   2.447
 7215SOL    HW122544   6.502   1.381   2.432
 7215SOL    HW222545   6.342   1.382   2.469
 7216SOL     OW22546   4.311   6.803   3.190
 7216SOL    HW122547   4.320   6.715   3.236
 7216SOL    HW222548   4.234   6.853   3.230
 7217SOL     OW22549   0.967   2.882   3.048
 7217SOL    HW122550   0.925   2.967   3.017
 7217SOL    HW222551   1.060   2.875   3.011
 7218SOL     OW22552   6.410   2.762   4.401
 7218SOL    HW122553   6.330   2.790   4.454
 7218SOL    HW222554   6.440   2.671   4.432
 7219SOL     OW22555   3.040   6.207   2.823
 7219SOL    HW122556   2.954   6.256   2.811
 7219SOL    HW222557   3.061   6.202   2.921
 7220SOL     OW22558   6.389   4.693   3.811
 7220SOL    HW122559   6.446   4.612   3.821
 7220SOL    HW222560   6.341   4.690   3.723
 7221SOL     OW22561   4.074   5.320   3.840
 7221SOL    HW122562   4.058   5.287   3.747
 7221SOL    HW222563   4.105   5.415   3.837
 7222SOL     OW22564   6.583   6.026   4.163
 7222SOL    HW122565   6.657   6.090   4.145
 7222SOL    HW222566   6.497   6.066   4.131
 7223SOL     OW22567   0.131   4.459   1.439
 7223SOL    HW122568   0.226   4.478   1.415
 7223SOL    HW222569   0.127   4.419   1.531
 7224SOL     OW22570   4.318   2.143   2.653
 7224SOL    HW122571   4.391   2.165   2.588
 7224SOL    HW222572   4.230   2.147   2.607
 7225SOL     OW22573   1.432   5.345   0.587
 7225SOL    HW122574   1.419   5.247   0.570
 7225SOL    HW222575   1.357   5.397   0.548
 7226SOL     OW22576   0.043   6.437   0.355
 7226SOL    HW122577   0.056   6.419   0.452
 7226SOL    HW222578   0.119   6.493   0.321
 7227SOL     OW22579   1.773   1.292   2.384
 7227SOL    HW122580   1.744   1.199   2.362
 7227SOL    HW222581   1.835   1.290   2.462
 7228SOL     OW22582   6.440   3.370   2.028
 7228SOL    HW122583   6.434   3.463   2.065
 7228SOL    HW222584   6.374   3.311   2.075
 7229SOL     OW22585   6.403   1.230   5.281
 7229SOL    HW122586   6.344   1.173   5.224
 7229SOL    HW222587   6.384   1.210   5.377
 7230SOL     OW22588   2.276   5.034   4.689
 7230SOL    HW122589   2.300   4.946   4.649
 7230SOL    HW222590   2.178   5.051   4.675
 7231SOL     OW22591   4.422   2.789   5.822
 7231SOL    HW122592   4.461   2.812   5.732
 7231SOL    HW222593   4.495   2.781   5.889
 7232SOL     OW22594   4.854   6.425   3.686
 7232SOL    HW122595   4.872   6.348   3.624
 7232SOL    HW222596   4.828   6.505   3.633
 7233SOL     OW22597   0.591   1.370   4.936
 7233SOL    HW122598   0.615   1.316   5.017
 7233SOL    HW222599   0.528   1.443   4.962
 7234SOL     OW22600   5.188   4.398   3.634
 7234SOL    HW122601   5.268   4.345   3.605
 7234SOL    HW222602   5.215   4.461   3.708
 7235SOL     OW22603   6.344   6.418   1.471
 7235SOL    HW122604   6.262   6.475   1.463
 7235SOL    HW222605   6.384   6.428   1.562
 7236SOL     OW22606   1.390   3.598   2.739
 7236SOL    HW122607   1.466   3.663   2.742
 7236SOL    HW222608   1.306   3.646   2.712
 7237SOL     OW22609   5.814   0.847   0.654
 7237SOL    HW122610   5.725   0.845   0.699
 7237SOL    HW222611   5.822   0.931   0.600
 7238SOL     OW22612   4.097   3.375   7.014
 7238SOL    HW122613   4.000   3.384   0.014
 7238SOL    HW222614   4.128   3.457   6.967
 7239SOL     OW22615   6.182   2.434   2.338
 7239SOL    HW122616   6.125   2.498   2.287
 7239SOL    HW222617   6.269   2.421   2.289
 7240SOL     OW22618   6.707   1.836   0.312
 7240SOL    HW122619   6.661   1.913   0.358
 7240SOL    HW222620   6.657   1.752   0.331
 7241SOL     OW22621   2.491   0.977   2.316
 7241SOL    HW122622   2.571   1.037   2.308
 7241SOL    HW222623   2.407   1.032   2.307
 7242SOL     OW22624   7.018   4.279   4.476
 7242SOL    HW122625   0.036   4.225   4.549
 7242SOL    HW222626   0.062   4.290   4.402
 7243SOL     OW22627   5.737   4.530   6.460
 7243SOL    HW122628   5.714   4.536   6.363
 7243SOL    HW222629   5.657   4.502   6.512
 7244SOL     OW22630   0.077   6.037   0.338
 7244SOL    HW122631   0.110   6.066   0.248
 7244SOL    HW222632   7.018   6.090   0.362
 7245SOL     OW22633   0.949   3.270   0.792
 7245SOL    HW122634   1.037   3.299   0.829
 7245SOL    HW222635   0.949   3.281   0.693
 7246SOL     OW22636   4.749   6.809   3.255
 7246SOL    HW122637   4.677   6.828   3.188
 7246SOL    HW222638   4.837   6.837   3.218
 7247SOL     OW22639   3.403   3.873   4.691
 7247SOL    HW122640   3.465   3.900   4.765
 7247SOL    HW222641   3.440   3.905   4.604
 7248SOL     OW22642   2.925   1.376   5.270
 7248SOL    HW122643   2.899   1.451   5.208
 7248SOL    HW222644   3.009   1.400   5.318
 7249SOL     OW22645   4.396   4.907   2.547
 7249SOL    HW122646   4.472   4.972   2.538
 7249SOL    HW222647   4.407   4.834   2.479
 7250SOL     OW22648   5.408   5.138   5.106
 7250SOL    HW122649   5.487   5.163   5.050
 7250SOL    HW222650   5.437   5.075   5.178
 7251SOL     OW22651   0.108   6.112   5.419
 7251SOL    HW122652   0.052   6.132   5.339
 7251SOL    HW222653   0.202   6.144   5.403
 7252SOL     OW22654   3.452   4.144   2.273
 7252SOL    HW122655   3.507   4.069   2.237
 7252SOL    HW222656   3.454   4.221   2.210
 7253SOL     OW22657   2.699   5.435   4.739
 7253SOL    HW122658   2.779   5.462   4.793
 7253SOL    HW222659   2.618   5.431   4.797
 7254SOL     OW22660   5.963   3.117   4.125
 7254SOL    HW122661   5.926   3.205   4.155
 7254SOL    HW222662   6.010   3.073   4.200
 7255SOL     OW22663   4.983   3.613   6.933
 7255SOL    HW122664   4.946   3.571   7.016
 7255SOL    HW222665   5.078   3.642   6.949
 7256SOL     OW22666   3.276   0.061   4.785
 7256SOL    HW122667   3.191   0.049   4.734
 7256SOL    HW222668   3.280   0.155   4.821
 7257SOL     OW22669   0.803   1.374   4.537
 7257SOL    HW122670   0.734   1.438   4.571
 7257SOL    HW222671   0.769   1.329   4.455
 7258SOL     OW22672   5.723   2.676   2.595
 7258SOL    HW122673   5.738   2.717   2.685
 7258SOL    HW222674   5.770   2.730   2.525
 7259SOL     OW22675   1.482   4.115   2.529
 7259SOL    HW122676   1.476   4.026   2.483
 7259SOL    HW222677   1.561   4.166   2.494
 7260SOL     OW22678   5.804   3.177   0.697
 7260SOL    HW122679   5.744   3.252   0.725
 7260SOL    HW222680   5.882   3.171   0.759
 7261SOL     OW22681   6.749   4.203   0.181
 7261SOL    HW122682   6.828   4.263   0.190
 7261SOL    HW222683   6.775   4.120   0.131
 7262SOL     OW22684   5.973   1.282   4.717
 7262SOL    HW122685   5.882   1.308   4.750
 7262SOL    HW222686   6.008   1.353   4.656
 7263SOL     OW22687   0.150   5.899   7.006
 7263SOL    HW122688   0.179   5.973   0.044
 7263SOL    HW222689   0.052   5.908   6.987
 7264SOL     OW22690   5.962   1.360   0.610
 7264SOL    HW122691   6.011   1.300   0.673
 7264SOL    HW222692   6.027   1.424   0.568
 7265SOL     OW22693   3.653   6.788   5.594
 7265SOL    HW122694   3.614   6.823   5.510
 7265SOL    HW222695   3.683   6.693   5.580
 7266SOL     OW22696   0.600   0.768   3.565
 7266SOL    HW122697   0.579   0.791   3.660
 7266SOL    HW222698   0.665   0.692   3.563
 7267SOL     OW22699   6.488   4.754   4.628
 7267SOL    HW122700   6.491   4.747   4.728
 7267SOL    HW222701   6.568   4.803   4.595
 7268SOL     OW22702   6.309   0.009   4.394
 7268SOL    HW122703   6.359   0.033   4.311
 7268SOL    HW222704   6.215   7.007   4.370
 7269SOL     OW22705   2.609   4.668   4.802
 7269SOL    HW122706   2.677   4.653   4.873
 7269SOL    HW222707   2.652   4.714   4.724
 7270SOL     OW22708   0.898   1.121   4.651
 7270SOL    HW122709   0.942   1.100   4.563
 7270SOL    HW222710   0.845   1.205   4.641
 7271SOL     OW22711   0.811   4.773   3.131
 7271SOL    HW122712   0.822   4.859   3.180
 7271SOL    HW222713   0.768   4.791   3.042
 7272SOL     OW22714   6.674   4.500   1.868
 7272SOL    HW122715   6.709   4.446   1.791
 7272SOL    HW222716   6.633   4.585   1.833
 7273SOL     OW22717   0.960   2.616   5.336
 7273SOL    HW122718   0.916   2.706   5.341
 7273SOL    HW222719   0.962   2.575   5.427
 7274SOL     OW22720   0.586   4.703   0.020
 7274SOL    HW122721   0.609   4.748   0.106
 7274SOL    HW222722   0.491   4.720   7.020
 7275SOL     OW22723   0.402   6.973   3.102
 7275SOL    HW122724   0.393   0.049   3.121
 7275SOL    HW222725   0.493   6.955   3.064
 7276SOL     OW22726   5.646   6.895   4.437
 7276SOL    HW122727   5.634   6.799   4.462
 7276SOL    HW222728   5.568   6.948   4.469
 7277SOL     OW22729   4.787   0.173   6.451
 7277SOL    HW122730   4.750   0.106   6.387
 7277SOL    HW222731   4.712   0.221   6.496
 7278SOL     OW22732   3.399   2.859   2.091
 7278SOL    HW122733   3.360   2.824   2.006
 7278SOL    HW222734   3.482   2.808   2.112
 7279SOL     OW22735   3.278   6.385   6.037
 7279SOL    HW122736   3.212   6.440   5.985
 7279SOL    HW222737   3.274   6.411   6.133
 7280SOL     OW22738   4.915   1.301   5.966
 7280SOL    HW122739   5.014   1.294   5.978
 7280SOL    HW222740   4.872   1.215   5.994
 7281SOL     OW22741   4.967   1.559   5.952
 7281SOL    HW122742   5.028   1.592   5.880
 7281SOL    HW222743   4.952   1.461   5.940
 7282SOL     OW22744   5.877   5.423   2.405
 7282SOL    HW122745   5.781   5.427   2.376
 7282SOL    HW222746   5.897   5.333   2.443
 7283SOL     OW22747   1.817   0.862   3.564
 7283SOL    HW122748   1.842   0.765   3.561
 7283SOL    HW222749   1.759   0.883   3.485
 7284SOL     OW22750   0.106   3.025   4.938
 7284SOL    HW122751   0.036   3.093   4.960
 7284SOL    HW222752   0.180   3.069   4.887
 7285SOL     OW22753   5.273   5.337   1.920
 7285SOL    HW122754   5.335   5.415   1.924
 7285SOL    HW222755   5.280   5.284   2.005
 7286SOL     OW22756   2.008   3.546   1.561
 7286SOL    HW122757   2.056   3.471   1.516
 7286SOL    HW222758   2.059   3.574   1.642
 7287SOL     OW22759   5.981   1.757   6.491
 7287SOL    HW122760   5.992   1.804   6.404
 7287SOL    HW222761   5.910   1.802   6.546
 7288SOL     OW22762   3.121   6.189   6.832
 7288SOL    HW122763   3.063   6.263   6.865
 7288SOL    HW222764   3.173   6.151   6.909
 7289SOL     OW22765   5.030   1.855   3.484
 7289SOL    HW122766   4.982   1.885   3.402
 7289SOL    HW222767   5.121   1.822   3.459
 7290SOL     OW22768   3.116   5.242   3.953
 7290SOL    HW122769   3.183   5.313   3.935
 7290SOL    HW222770   3.054   5.234   3.874
 7291SOL     OW22771   2.758   5.172   2.314
 7291SOL    HW122772   2.696   5.238   2.272
 7291SOL    HW222773   2.711   5.125   2.388
 7292SOL     OW22774   2.643   6.942   4.621
 7292SOL    HW122775   2.734   6.908   4.641
 7292SOL    HW222776   2.628   6.941   4.522
 7293SOL     OW22777   1.694   2.480   5.667
 7293SOL    HW122778   1.703   2.551   5.598
 7293SOL    HW222779   1.598   2.467   5.690
 7294SOL     OW22780   3.486   5.355   0.679
 7294SOL    HW122781   3.461   5.359   0.582
 7294SOL    HW222782   3.496   5.448   0.715
 7295SOL     OW22783   5.901   0.272   1.577
 7295SOL    HW122784   5.909   0.179   1.611
 7295SOL    HW222785   5.993   0.310   1.561
 7296SOL     OW22786   4.136   4.859   2.144
 7296SOL    HW122787   4.191   4.779   2.120
 7296SOL    HW222788   4.048   4.830   2.179
 7297SOL     OW22789   5.173   0.135   1.560
 7297SOL    HW122790   5.088   0.118   1.611
 7297SOL    HW222791   5.171   0.227   1.522
 7298SOL     OW22792   6.172   3.663   4.373
 7298SOL    HW122793   6.075   3.639   4.377
 7298SOL    HW222794   6.200   3.703   4.460
 7299SOL     OW22795   6.268   3.776   6.508
 7299SOL    HW122796   6.225   3.686   6.518
 7299SOL    HW222797   6.360   3.765   6.471
 7300SOL     OW22798   4.412   4.901   0.978
 7300SOL    HW122799   4.399   4.880   1.075
 7300SOL    HW222800   4.374   4.992   0.959
 7301SOL     OW22801   6.601   0.607   6.419
 7301SOL    HW122802   6.688   0.558   6.413
 7301SOL    HW222803   6.583   0.655   6.333
 7302SOL     OW22804   5.080   1.223   6.316
 7302SOL    HW122805   4.986   1.251   6.296
 7302SOL    HW222806   5.118   1.281   6.388
 7303SOL     OW22807   3.861   1.279   0.454
 7303SOL    HW122808   3.853   1.191   0.406
 7303SOL    HW222809   3.830   1.269   0.548
 7304SOL     OW22810   3.426   4.116   5.411
 7304SOL    HW122811   3.472   4.181   5.351
 7304SOL    HW222812   3.454   4.023   5.385
 7305SOL     OW22813   5.366   1.385   0.152
 7305SOL    HW122814   5.454   1.432   0.158
 7305SOL    HW222815   5.319   1.413   0.068
 7306SOL     OW22816   4.699   4.826   1.609
 7306SOL    HW122817   4.647   4.888   1.550
 7306SOL    HW222818   4.751   4.879   1.675
 7307SOL     OW22819   4.185   6.822   2.455
 7307SOL    HW122820   4.176   6.852   2.550
 7307SOL    HW222821   4.207   6.900   2.397
 7308SOL     OW22822   6.425   1.600   4.449
 7308SOL    HW122823   6.382   1.615   4.538
 7308SOL    HW222824   6.495   1.530   4.458
 7309SOL     OW22825   4.786   6.092   1.488
 7309SOL    HW122826   4.881   6.064   1.497
 7309SOL    HW222827   4.767   6.167   1.551
 7310SOL     OW22828   2.822   5.372   1.648
 7310SOL    HW122829   2.759   5.434   1.696
 7310SOL    HW222830   2.776   5.284   1.632
 7311SOL     OW22831   2.780   2.195   1.809
 7311SOL    HW122832   2.817   2.244   1.888
 7311SOL    HW222833   2.809   2.240   1.725
 7312SOL     OW22834   6.625   1.666   5.807
 7312SOL    HW122835   6.605   1.761   5.779
 7312SOL    HW222836   6.590   1.651   5.900
 7313SOL     OW22837   4.244   2.611   6.793
 7313SOL    HW122838   4.204   2.545   6.857
 7313SOL    HW222839   4.209   2.593   6.701
 7314SOL     OW22840   0.475   3.452   4.178
 7314SOL    HW122841   0.488   3.474   4.275
 7314SOL    HW222842   0.555   3.403   4.144
 7315SOL     OW22843   6.965   0.375   4.986
 7315SOL    HW122844   6.935   0.438   4.914
 7315SOL    HW222845   7.019   0.426   5.053
 7316SOL     OW22846   3.650   3.906   5.426
 7316SOL    HW122847   3.630   3.888   5.522
 7316SOL    HW222848   3.716   3.839   5.392
 7317SOL     OW22849   3.589   1.009   4.065
 7317SOL    HW122850   3.597   1.030   3.968
 7317SOL    HW222851   3.509   0.951   4.080
 7318SOL     OW22852   2.151   1.986   1.472
 7318SOL    HW122853   2.202   1.983   1.558
 7318SOL    HW222854   2.184   2.063   1.417
 7319SOL     OW22855   6.207   4.878   6.553
 7319SOL    HW122856   6.232   4.835   6.467
 7319SOL    HW222857   6.108   4.892   6.557
 7320SOL     OW22858   0.091   2.862   1.852
 7320SOL    HW122859   0.078   2.809   1.768
 7320SOL    HW222860   0.004   2.866   1.902
 7321SOL     OW22861   2.952   1.247   4.517
 7321SOL    HW122862   2.992   1.252   4.609
 7321SOL    HW222863   2.975   1.330   4.466
 7322SOL     OW22864   0.566   3.653   2.866
 7322SOL    HW122865   0.491   3.718   2.860
 7322SOL    HW222866   0.651   3.697   2.837
 7323SOL     OW22867   2.147   3.427   3.255
 7323SOL    HW122868   2.163   3.452   3.350
 7323SOL    HW222869   2.153   3.509   3.198
 7324SOL     OW22870   5.584   6.402   3.094
 7324SOL    HW122871   5.683   6.403   3.105
 7324SOL    HW222872   5.548   6.312   3.122
 7325SOL     OW22873   2.999   6.453   6.919
 7325SOL    HW122874   2.919   6.397   6.938
 7325SOL    HW222875   2.994   6.538   6.973
 7326SOL     OW22876   3.186   6.461   5.717
 7326SOL    HW122877   3.087   6.452   5.728
 7326SOL    HW222878   3.227   6.371   5.702
 7327SOL     OW22879   1.271   3.122   6.107
 7327SOL    HW122880   1.289   3.026   6.088
 7327SOL    HW222881   1.180   3.147   6.076
 7328SOL     OW22882   2.659   0.226   0.092
 7328SOL    HW122883   2.601   0.204   0.171
 7328SOL    HW222884   2.696   0.141   0.054
 7329SOL     OW22885   4.397   3.058   1.469
 7329SOL    HW122886   4.438   2.967   1.463
 7329SOL    HW222887   4.316   3.062   1.411
 7330SOL     OW22888   3.723   1.408   0.080
 7330SOL    HW122889   3.794   1.479   0.078
 7330SOL    HW222890   3.634   1.450   0.096
 7331SOL     OW22891   5.413   0.658   1.380
 7331SOL    HW122892   5.490   0.608   1.340
 7331SOL    HW222893   5.448   0.736   1.432
 7332SOL     OW22894   3.724   5.241   1.356
 7332SOL    HW122895   3.777   5.292   1.288
 7332SOL    HW222896   3.706   5.149   1.322
 7333SOL     OW22897   1.020   4.993   2.550
 7333SOL    HW122898   1.106   4.946   2.531
 7333SOL    HW222899   1.040   5.082   2.591
 7334SOL     OW22900   3.937   6.573   4.243
 7334SOL    HW122901   3.855   6.560   4.299
 7334SOL    HW222902   3.911   6.614   4.155
 7335SOL     OW22903   1.809   2.363   3.184
 7335SOL    HW122904   1.737   2.395   3.122
 7335SOL    HW222905   1.870   2.440   3.205
 7336SOL     OW22906   1.850   0.035   3.712
 7336SOL    HW122907   1.821   6.982   3.652
 7336SOL    HW222908   1.770   0.074   3.758
 7337SOL     OW22909   5.841   2.863   2.433
 7337SOL    HW122910   5.892   2.936   2.478
 7337SOL    HW222911   5.771   2.903   2.374
 7338SOL     OW22912   6.373   3.065   0.299
 7338SOL    HW122913   6.354   3.035   0.205
 7338SOL    HW222914   6.442   3.138   0.296
 7339SOL     OW22915   0.314   5.277   4.816
 7339SOL    HW122916   0.293   5.356   4.759
 7339SOL    HW222917   0.413   5.272   4.831
 7340SOL     OW22918   1.989   0.209   6.670
 7340SOL    HW122919   2.062   0.147   6.699
 7340SOL    HW222920   2.023   0.270   6.599
 7341SOL     OW22921   6.497   2.490   0.149
 7341SOL    HW122922   6.501   2.501   0.248
 7341SOL    HW222923   6.564   2.552   0.106
 7342SOL     OW22924   6.823   6.976   2.399
 7342SOL    HW122925   6.922   6.967   2.391
 7342SOL    HW222926   6.782   6.975   2.307
 7343SOL     OW22927   5.213   3.006   0.534
 7343SOL    HW122928   5.227   3.089   0.479
 7343SOL    HW222929   5.144   2.948   0.490
 7344SOL     OW22930   1.222   6.674   5.964
 7344SOL    HW122931   1.282   6.749   5.988
 7344SOL    HW222932   1.132   6.687   6.006
 7345SOL     OW22933   3.255   5.252   6.155
 7345SOL    HW122934   3.331   5.317   6.149
 7345SOL    HW222935   3.175   5.297   6.195
 7346SOL     OW22936   4.918   4.934   2.841
 7346SOL    HW122937   4.905   4.891   2.930
 7346SOL    HW222938   4.960   5.024   2.853
 7347SOL     OW22939   5.883   2.153   6.478
 7347SOL    HW122940   5.932   2.179   6.395
 7347SOL    HW222941   5.950   2.134   6.551
 7348SOL     OW22942   6.856   4.391   1.673
 7348SOL    HW122943   6.857   4.386   1.573
 7348SOL    HW222944   6.941   4.353   1.710
 7349SOL     OW22945   3.955   1.782   2.089
 7349SOL    HW122946   3.938   1.864   2.034
 7349SOL    HW222947   4.008   1.716   2.035
 7350SOL     OW22948   3.272   0.347   4.554
 7350SOL    HW122949   3.295   0.443   4.540
 7350SOL    HW222950   3.175   0.338   4.576
 7351SOL     OW22951   3.257   4.978   3.943
 7351SOL    HW122952   3.304   4.913   4.003
 7351SOL    HW222953   3.259   5.069   3.984
 7352SOL     OW22954   6.573   2.658   3.787
 7352SOL    HW122955   6.507   2.601   3.738
 7352SOL    HW222956   6.665   2.625   3.770
 7353SOL     OW22957   6.171   0.304   6.294
 7353SOL    HW122958   6.264   0.309   6.257
 7353SOL    HW222959   6.137   0.211   6.286
 7354SOL     OW22960   0.423   1.798   2.955
 7354SOL    HW122961   0.346   1.840   3.004
 7354SOL    HW222962   0.509   1.827   2.997
 7355SOL     OW22963   2.314   2.055   0.066
 7355SOL    HW122964   2.332   1.958   0.082
 7355SOL    HW222965   2.346   2.080   6.997
 7356SOL     OW22966   4.350   4.013   5.950
 7356SOL    HW122967   4.319   3.998   6.044
 7356SOL    HW222968   4.438   3.968   5.936
 7357SOL     OW22969   5.187   5.772   2.589
 7357SOL    HW122970   5.096   5.782   2.550
 7357SOL    HW222971   5.179   5.746   2.685
 7358SOL     OW22972   5.750   0.847   3.333
 7358SOL    HW122973   5.728   0.932   3.382
 7358SOL    HW222974   5.671   0.820   3.278
 7359SOL     OW22975   4.903   0.265   1.292
 7359SOL    HW122976   4.869   0.325   1.220
 7359SOL    HW222977   4.894   0.169   1.263
 7360SOL     OW22978   3.187   3.582   4.976
 7360SOL    HW122979   3.209   3.491   5.010
 7360SOL    HW222980   3.191   3.583   4.876
 7361SOL     OW22981   5.644   0.525   3.502
 7361SOL    HW122982   5.688   0.441   3.533
 7361SOL    HW222983   5.656   0.597   3.571
 7362SOL     OW22984   3.364   4.864   6.849
 7362SOL    HW122985   3.370   4.908   6.939
 7362SOL    HW222986   3.390   4.768   6.858
 7363SOL     OW22987   3.676   0.818   0.596
 7363SOL    HW122988   3.769   0.780   0.596
 7363SOL    HW222989   3.645   0.830   0.690
 7364SOL     OW22990   5.834   6.773   1.264
 7364SOL    HW122991   5.828   6.777   1.164
 7364SOL    HW222992   5.897   6.843   1.296
 7365SOL     OW22993   5.535   5.179   2.545
 7365SOL    HW122994   5.598   5.115   2.501
 7365SOL    HW222995   5.536   5.165   2.644
 7366SOL     OW22996   1.891   0.696   3.909
 7366SOL    HW122997   1.932   0.680   3.819
 7366SOL    HW222998   1.948   0.654   3.980
 7367SOL     OW22999   4.278   0.103   6.847
 7367SOL    HW123000   4.371   0.108   6.883
 7367SOL    HW223001   4.221   0.171   6.894
 7368SOL     OW23002   3.706   3.886   3.300
 7368SOL    HW123003   3.783   3.912   3.241
 7368SOL    HW223004   3.674   3.795   3.273
 7369SOL     OW23005   5.147   2.093   0.479
 7369SOL    HW123006   5.111   2.164   0.540
 7369SOL    HW223007   5.241   2.072   0.505
 7370SOL     OW23008   1.579   1.003   4.553
 7370SOL    HW123009   1.528   0.971   4.474
 7370SOL    HW223010   1.532   1.081   4.594
 7371SOL     OW23011   3.623   1.011   3.791
 7371SOL    HW123012   3.566   1.072   3.737
 7371SOL    HW223013   3.675   0.951   3.730
 7372SOL     OW23014   5.580   1.215   5.418
 7372SOL    HW123015   5.586   1.142   5.486
 7372SOL    HW223016   5.627   1.186   5.334
 7373SOL     OW23017   5.906   3.626   4.428
 7373SOL    HW123018   5.896   3.575   4.514
 7373SOL    HW223019   5.862   3.716   4.438
 7374SOL     OW23020   6.545   2.398   5.132
 7374SOL    HW123021   6.535   2.497   5.137
 7374SOL    HW223022   6.642   2.374   5.132
 7375SOL     OW23023   1.713   3.493   2.276
 7375SOL    HW123024   1.756   3.481   2.187
 7375SOL    HW223025   1.681   3.404   2.309
 7376SOL     OW23026   6.810   3.511   0.316
 7376SOL    HW123027   6.799   3.420   0.355
 7376SOL    HW223028   6.789   3.580   0.387
 7377SOL     OW23029   2.278   6.090   1.318
 7377SOL    HW123030   2.358   6.085   1.258
 7377SOL    HW223031   2.243   6.183   1.318
 7378SOL     OW23032   1.091   5.380   4.420
 7378SOL    HW123033   1.048   5.421   4.501
 7378SOL    HW223034   1.023   5.366   4.349
 7379SOL     OW23035   3.837   0.965   1.379
 7379SOL    HW123036   3.740   0.989   1.378
 7379SOL    HW223037   3.892   1.048   1.378
 7380SOL     OW23038   5.201   4.016   1.885
 7380SOL    HW123039   5.108   4.017   1.923
 7380SOL    HW223040   5.267   4.002   1.959
 7381SOL     OW23041   3.624   0.857   1.113
 7381SOL    HW123042   3.648   0.815   1.200
 7381SOL    HW223043   3.534   0.900   1.120
 7382SOL     OW23044   6.501   1.114   6.075
 7382SOL    HW123045   6.556   1.179   6.128
 7382SOL    HW223046   6.409   1.109   6.114
 7383SOL     OW23047   2.209   0.180   0.864
 7383SOL    HW123048   2.171   0.157   0.775
 7383SOL    HW223049   2.139   0.226   0.920
 7384SOL     OW23050   6.837   6.836   0.918
 7384SOL    HW123051   6.763   6.808   0.980
 7384SOL    HW223052   6.899   6.759   0.903
 7385SOL     OW23053   5.924   4.294   2.893
 7385SOL    HW123054   5.938   4.277   2.990
 7385SOL    HW223055   5.988   4.365   2.862
 7386SOL     OW23056   5.483   3.532   6.941
 7386SOL    HW123057   5.554   3.602   6.929
 7386SOL    HW223058   5.481   3.472   6.861
 7387SOL     OW23059   6.709   5.706   5.403
 7387SOL    HW123060   6.755   5.773   5.345
 7387SOL    HW223061   6.610   5.717   5.394
 7388SOL     OW23062   2.210   4.986   3.438
 7388SOL    HW123063   2.201   4.910   3.503
 7388SOL    HW223064   2.186   5.071   3.484
 7389SOL     OW23065   5.745   2.393   0.264
 7389SOL    HW123066   5.681   2.468   0.246
 7389SOL    HW223067   5.731   2.320   0.198
 7390SOL     OW23068   2.234   2.825   3.354
 7390SOL    HW123069   2.239   2.857   3.259
 7390SOL    HW223070   2.191   2.895   3.411
 7391SOL     OW23071   3.597   3.659   3.174
 7391SOL    HW123072   3.502   3.629   3.165
 7391SOL    HW223073   3.635   3.677   3.084
 7392SOL     OW23074   3.028   6.509   6.641
 7392SOL    HW123075   3.012   6.500   6.739
 7392SOL    HW223076   2.997   6.598   6.610
 7393SOL     OW23077   5.546   5.279   4.039
 7393SOL    HW123078   5.582   5.231   4.119
 7393SOL    HW223079   5.478   5.221   3.994
 7394SOL     OW23080   3.035   1.879   5.732
 7394SOL    HW123081   2.968   1.846   5.665
 7394SOL    HW223082   3.119   1.826   5.723
 7395SOL     OW23083   2.499   6.105   1.171
 7395SOL    HW123084   2.512   6.130   1.075
 7395SOL    HW223085   2.586   6.111   1.220
 7396SOL     OW23086   2.276   5.078   2.239
 7396SOL    HW123087   2.372   5.051   2.233
 7396SOL    HW223088   2.220   5.010   2.193
 7397SOL     OW23089   5.966   4.349   3.981
 7397SOL    HW123090   5.984   4.262   3.937
 7397SOL    HW223091   5.989   4.424   3.918
 7398SOL     OW23092   2.733   4.660   2.540
 7398SOL    HW123093   2.745   4.665   2.639
 7398SOL    HW223094   2.743   4.566   2.509
 7399SOL     OW23095   5.394   2.182   5.692
 7399SOL    HW123096   5.422   2.088   5.672
 7399SOL    HW223097   5.318   2.181   5.756
 7400SOL     OW23098   5.510   3.024   5.520
 7400SOL    HW123099   5.419   2.992   5.547
 7400SOL    HW223100   5.548   2.961   5.452
 7401SOL     OW23101   1.451   3.156   4.172
 7401SOL    HW123102   1.523   3.087   4.175
 7401SOL    HW223103   1.382   3.129   4.105
 7402SOL     OW23104   3.771   5.660   4.314
 7402SOL    HW123105   3.726   5.710   4.388
 7402SOL    HW223106   3.709   5.589   4.280
 7403SOL     OW23107   1.764   3.938   4.388
 7403SOL    HW123108   1.733   3.997   4.314
 7403SOL    HW223109   1.812   3.992   4.457
 7404SOL     OW23110   3.488   3.569   1.041
 7404SOL    HW123111   3.465   3.619   1.125
 7404SOL    HW223112   3.442   3.481   1.041
 7405SOL     OW23113   3.599   6.896   3.774
 7405SOL    HW123114   3.632   6.962   3.842
 7405SOL    HW223115   3.630   6.804   3.799
 7406SOL     OW23116   1.041   1.786   5.546
 7406SOL    HW123117   1.084   1.698   5.566
 7406SOL    HW223118   0.993   1.781   5.459
 7407SOL     OW23119   0.821   5.882   5.643
 7407SOL    HW123120   0.767   5.814   5.691
 7407SOL    HW223121   0.763   5.962   5.623
 7408SOL     OW23122   4.091   5.195   5.335
 7408SOL    HW123123   4.157   5.238   5.397
 7408SOL    HW223124   4.091   5.243   5.248
 7409SOL     OW23125   6.670   3.761   1.326
 7409SOL    HW123126   6.627   3.807   1.403
 7409SOL    HW223127   6.769   3.768   1.333
 7410SOL     OW23128   0.181   0.802   1.213
 7410SOL    HW123129   0.184   0.776   1.116
 7410SOL    HW223130   0.086   0.798   1.245
 7411SOL     OW23131   2.328   1.738   5.207
 7411SOL    HW123132   2.327   1.766   5.111
 7411SOL    HW223133   2.243   1.690   5.229
 7412SOL     OW23134   3.826   6.811   0.512
 7412SOL    HW123135   3.904   6.754   0.488
 7412SOL    HW223136   3.854   6.907   0.515
 7413SOL     OW23137   4.888   0.038   2.928
 7413SOL    HW123138   4.857   0.045   2.833
 7413SOL    HW223139   4.823   0.085   2.987
 7414SOL     OW23140   3.287   1.247   4.266
 7414SOL    HW123141   3.276   1.319   4.334
 7414SOL    HW223142   3.262   1.282   4.176
 7415SOL     OW23143   3.782   6.655   6.531
 7415SOL    HW123144   3.783   6.703   6.443
 7415SOL    HW223145   3.846   6.579   6.527
 7416SOL     OW23146   1.458   0.782   1.667
 7416SOL    HW123147   1.484   0.878   1.667
 7416SOL    HW223148   1.517   0.731   1.604
 7417SOL     OW23149   0.227   0.973   2.729
 7417SOL    HW123150   0.298   0.949   2.663
 7417SOL    HW223151   0.242   1.066   2.762
 7418SOL     OW23152   1.336   4.340   5.895
 7418SOL    HW123153   1.298   4.357   5.804
 7418SOL    HW223154   1.261   4.339   5.962
 7419SOL     OW23155   6.943   3.954   4.047
 7419SOL    HW123156   6.844   3.939   4.054
 7419SOL    HW223157   6.978   3.903   3.968
 7420SOL     OW23158   0.127   7.002   1.799
 7420SOL    HW123159   0.086   0.051   1.743
 7420SOL    HW223160   0.069   6.920   1.797
 7421SOL     OW23161   5.486   3.584   1.039
 7421SOL    HW123162   5.547   3.601   1.116
 7421SOL    HW223163   5.516   3.637   0.960
 7422SOL     OW23164   5.466   2.821   2.519
 7422SOL    HW123165   5.445   2.782   2.429
 7422SOL    HW223166   5.535   2.764   2.564
 7423SOL     OW23167   5.154   1.929   5.669
 7423SOL    HW123168   5.184   1.975   5.753
 7423SOL    HW223169   5.234   1.894   5.620
 7424SOL     OW23170   0.252   2.345   3.485
 7424SOL    HW123171   0.219   2.264   3.534
 7424SOL    HW223172   0.347   2.363   3.510
 7425SOL     OW23173   5.744   0.702   1.300
 7425SOL    HW123174   5.738   0.791   1.255
 7425SOL    HW223175   5.785   0.714   1.391
 7426SOL     OW23176   3.948   3.085   5.791
 7426SOL    HW123177   3.878   3.152   5.766
 7426SOL    HW223178   4.030   3.133   5.821
 7427SOL     OW23179   2.974   1.021   3.630
 7427SOL    HW123180   2.880   1.055   3.641
 7427SOL    HW223181   2.993   1.008   3.533
 7428SOL     OW23182   4.496   6.329   4.635
 7428SOL    HW123183   4.545   6.243   4.649
 7428SOL    HW223184   4.528   6.396   4.702
 7429SOL     OW23185   0.972   6.968   2.855
 7429SOL    HW123186   1.024   7.000   2.775
 7429SOL    HW223187   1.036   6.950   2.930
 7430SOL     OW23188   6.509   5.319   2.556
 7430SOL    HW123189   6.566   5.238   2.573
 7430SOL    HW223190   6.554   5.400   2.595
 7431SOL     OW23191   1.504   1.879   3.193
 7431SOL    HW123192   1.404   1.875   3.202
 7431SOL    HW223193   1.528   1.931   3.111
 7432SOL     OW23194   2.374   0.832   3.225
 7432SOL    HW123195   2.441   0.907   3.230
 7432SOL    HW223196   2.302   0.856   3.160
 7433SOL     OW23197   2.665   6.963   6.576
 7433SOL    HW123198   2.631   6.906   6.651
 7433SOL    HW223199   2.634   0.034   6.589
 7434SOL     OW23200   3.898   6.832   4.442
 7434SOL    HW123201   3.976   6.769   4.447
 7434SOL    HW223202   3.841   6.808   4.364
 7435SOL     OW23203   5.070   4.149   2.820
 7435SOL    HW123204   5.077   4.109   2.728
 7435SOL    HW223205   4.974   4.145   2.850
 7436SOL     OW23206   5.411   2.742   6.113
 7436SOL    HW123207   5.411   2.713   6.209
 7436SOL    HW223208   5.324   2.786   6.092
 7437SOL     OW23209   2.953   0.422   0.597
 7437SOL    HW123210   2.890   0.435   0.674
 7437SOL    HW223211   2.985   0.327   0.597
 7438SOL     OW23212   1.921   0.671   0.069
 7438SOL    HW123213   1.932   0.718   7.003
 7438SOL    HW223214   1.924   0.573   0.054
 7439SOL     OW23215   1.243   4.478   6.612
 7439SOL    HW123216   1.252   4.552   6.680
 7439SOL    HW223217   1.279   4.510   6.524
 7440SOL     OW23218   5.765   3.730   4.118
 7440SOL    HW123219   5.709   3.738   4.035
 7440SOL    HW223220   5.767   3.634   4.147
 7441SOL     OW23221   6.015   5.672   0.896
 7441SOL    HW123222   6.112   5.682   0.914
 7441SOL    HW223223   5.969   5.759   0.912
 7442SOL     OW23224   5.453   0.966   5.652
 7442SOL    HW123225   5.483   0.873   5.673
 7442SOL    HW223226   5.429   1.014   5.736
 7443SOL     OW23227   0.720   1.269   2.322
 7443SOL    HW123228   0.767   1.287   2.408
 7443SOL    HW223229   0.784   1.275   2.246
 7444SOL     OW23230   1.754   6.394   0.204
 7444SOL    HW123231   1.709   6.432   0.123
 7444SOL    HW223232   1.685   6.375   0.274
 7445SOL     OW23233   3.490   6.050   1.703
 7445SOL    HW123234   3.505   5.982   1.632
 7445SOL    HW223235   3.392   6.061   1.719
 7446SOL     OW23236   5.340   4.396   0.127
 7446SOL    HW123237   5.310   4.300   0.125
 7446SOL    HW223238   5.384   4.418   0.039
 7447SOL     OW23239   0.175   4.335   0.469
 7447SOL    HW123240   0.168   4.262   0.401
 7447SOL    HW223241   0.226   4.412   0.430
 7448SOL     OW23242   4.663   5.937   6.835
 7448SOL    HW123243   4.716   5.878   6.774
 7448SOL    HW223244   4.567   5.935   6.807
 7449SOL     OW23245   6.825   4.633   5.660
 7449SOL    HW123246   6.853   4.726   5.683
 7449SOL    HW223247   6.894   4.590   5.603
 7450SOL     OW23248   5.669   2.150   5.405
 7450SOL    HW123249   5.655   2.093   5.486
 7450SOL    HW223250   5.581   2.177   5.368
 7451SOL     OW23251   4.821   4.370   3.314
 7451SOL    HW123252   4.870   4.322   3.241
 7451SOL    HW223253   4.826   4.316   3.398
 7452SOL     OW23254   5.906   5.447   5.699
 7452SOL    HW123255   5.895   5.434   5.600
 7452SOL    HW223256   5.981   5.389   5.732
 7453SOL     OW23257   3.684   5.764   5.997
 7453SOL    HW123258   3.758   5.821   5.964
 7453SOL    HW223259   3.596   5.807   5.975
 7454SOL     OW23260   4.445   1.956   1.233
 7454SOL    HW123261   4.431   2.017   1.155
 7454SOL    HW223262   4.383   1.877   1.225
 7455SOL     OW23263   6.568   2.188   2.821
 7455SOL    HW123264   6.525   2.098   2.819
 7455SOL    HW223265   6.631   2.197   2.744
 7456SOL     OW23266   2.613   1.974   6.518
 7456SOL    HW123267   2.608   2.008   6.424
 7456SOL    HW223268   2.525   1.934   6.544
 7457SOL     OW23269   1.698   1.034   2.337
 7457SOL    HW123270   1.598   1.040   2.333
 7457SOL    HW223271   1.733   0.998   2.251
 7458SOL     OW23272   1.899   5.404   5.246
 7458SOL    HW123273   1.875   5.485   5.299
 7458SOL    HW223274   1.830   5.390   5.175
 7459SOL     OW23275   5.726   0.375   2.575
 7459SOL    HW123276   5.733   0.468   2.611
 7459SOL    HW223277   5.658   0.324   2.628
 7460SOL     OW23278   1.776   6.285   1.413
 7460SOL    HW123279   1.818   6.324   1.331
 7460SOL    HW223280   1.747   6.359   1.474
 7461SOL     OW23281   2.240   4.303   5.555
 7461SOL    HW123282   2.285   4.216   5.576
 7461SOL    HW223283   2.242   4.318   5.456
 7462SOL     OW23284   1.446   4.077   0.792
 7462SOL    HW123285   1.420   4.135   0.869
 7462SOL    HW223286   1.403   4.112   0.709
 7463SOL     OW23287   4.256   5.144   1.042
 7463SOL    HW123288   4.159   5.142   1.067
 7463SOL    HW223289   4.299   5.223   1.085
 7464SOL     OW23290   5.692   6.638   5.579
 7464SOL    HW123291   5.604   6.592   5.567
 7464SOL    HW223292   5.730   6.615   5.669
 7465SOL     OW23293   2.094   4.408   0.071
 7465SOL    HW123294   1.999   4.383   0.092
 7465SOL    HW223295   2.132   4.458   0.149
 7466SOL     OW23296   0.408   0.709   5.307
 7466SOL    HW123297   0.454   0.703   5.218
 7466SOL    HW223298   0.311   0.730   5.294
 7467SOL     OW23299   0.913   3.557   5.099
 7467SOL    HW123300   0.939   3.578   5.004
 7467SOL    HW223301   0.896   3.642   5.148
 7468SOL     OW23302   5.959   3.141   5.608
 7468SOL    HW123303   5.967   3.226   5.660
 7468SOL    HW223304   5.917   3.071   5.665
 7469SOL     OW23305   0.175   1.629   0.706
 7469SOL    HW123306   0.202   1.683   0.627
 7469SOL    HW223307   0.238   1.552   0.718
 7470SOL     OW23308   5.660   2.743   3.403
 7470SOL    HW123309   5.716   2.705   3.477
 7470SOL    HW223310   5.687   2.701   3.316
 7471SOL     OW23311   3.874   6.152   6.288
 7471SOL    HW123312   3.857   6.101   6.373
 7471SOL    HW223313   3.972   6.173   6.282
 7472SOL     OW23314   6.552   0.143   6.154
 7472SOL    HW123315   6.503   0.230   6.158
 7472SOL    HW223316   6.647   0.157   6.181
 7473SOL     OW23317   3.349   5.919   3.884
 7473SOL    HW123318   3.297   5.837   3.908
 7473SOL    HW223319   3.438   5.916   3.930
 7474SOL     OW23320   6.013   1.972   6.948
 7474SOL    HW123321   6.023   2.024   0.011
 7474SOL    HW223322   5.916   1.961   6.927
 7475SOL     OW23323   5.057   1.747   0.873
 7475SOL    HW123324   5.073   1.760   0.775
 7475SOL    HW223325   5.080   1.831   0.923
 7476SOL     OW23326   1.898   0.260   3.338
 7476SOL    HW123327   1.920   0.232   3.245
 7476SOL    HW223328   1.969   0.227   3.401
 7477SOL     OW23329   1.005   3.282   5.080
 7477SOL    HW123330   0.930   3.219   5.101
 7477SOL    HW223331   0.971   3.376   5.081
 7478SOL     OW23332   0.416   1.043   5.703
 7478SOL    HW123333   0.343   1.037   5.771
 7478SOL    HW223334   0.377   1.066   5.613
 7479SOL     OW23335   5.201   2.835   0.893
 7479SOL    HW123336   5.169   2.872   0.981
 7479SOL    HW223337   5.246   2.747   0.908
 7480SOL     OW23338   3.495   4.951   2.521
 7480SOL    HW123339   3.593   4.946   2.505
 7480SOL    HW223340   3.448   4.881   2.468
 7481SOL     OW23341   0.144   3.782   6.617
 7481SOL    HW123342   0.212   3.832   6.564
 7481SOL    HW223343   0.147   3.814   6.712
 7482SOL     OW23344   5.455   1.840   2.884
 7482SOL    HW123345   5.376   1.792   2.922
 7482SOL    HW223346   5.456   1.934   2.917
 7483SOL     OW23347   4.845   2.228   5.842
 7483SOL    HW123348   4.843   2.271   5.751
 7483SOL    HW223349   4.752   2.199   5.866
 7484SOL     OW23350   2.880   0.094   3.930
 7484SOL    HW123351   2.957   0.065   3.986
 7484SOL    HW223352   2.883   0.193   3.918
 7485SOL     OW23353   3.514   6.685   6.186
 7485SOL    HW123354   3.447   6.759   6.195
 7485SOL    HW223355   3.606   6.722   6.201
 7486SOL     OW23356   2.787   6.396   0.967
 7486SOL    HW123357   2.730   6.432   1.040
 7486SOL    HW223358   2.812   6.301   0.988
 7487SOL     OW23359   3.779   6.190   4.527
 7487SOL    HW123360   3.821   6.280   4.516
 7487SOL    HW223361   3.818   6.144   4.607
 7488SOL     OW23362   0.819   5.605   4.335
 7488SOL    HW123363   0.819   5.516   4.290
 7488SOL    HW223364   0.911   5.624   4.371
 7489SOL     OW23365   5.439   3.165   6.489
 7489SOL    HW123366   5.446   3.070   6.520
 7489SOL    HW223367   5.389   3.168   6.403
 7490SOL     OW23368   1.135   2.866   2.309
 7490SOL    HW123369   1.182   2.895   2.392
 7490SOL    HW223370   1.151   2.932   2.236
 7491SOL     OW23371   4.080   3.597   0.178
 7491SOL    HW123372   3.988   3.564   0.158
 7491SOL    HW223373   4.143   3.566   0.107
 7492SOL     OW23374   1.384   0.185   4.103
 7492SOL    HW123375   1.347   0.107   4.153
 7492SOL    HW223376   1.483   0.187   4.113
 7493SOL     OW23377   6.498   4.728   4.897
 7493SOL    HW123378   6.511   4.631   4.916
 7493SOL    HW223379   6.519   4.781   4.979
 7494SOL     OW23380   6.407   1.249   1.698
 7494SOL    HW123381   6.462   1.276   1.777
 7494SOL    HW223382   6.448   1.170   1.653
 7495SOL     OW23383   1.370   3.308   5.009
 7495SOL    HW123384   1.461   3.269   5.021
 7495SOL    HW223385   1.311   3.280   5.085
 7496SOL     OW23386   5.788   4.135   2.393
 7496SOL    HW123387   5.799   4.221   2.344
 7496SOL    HW223388   5.856   4.128   2.466
 7497SOL     OW23389   6.879   6.726   1.300
 7497SOL    HW123390   6.949   6.717   1.370
 7497SOL    HW223391   6.859   6.636   1.261
 7498SOL     OW23392   3.177   6.225   3.088
 7498SOL    HW123393   3.241   6.294   3.055
 7498SOL    HW223394   3.100   6.270   3.134
 7499SOL     OW23395   2.916   1.495   4.118
 7499SOL    HW123396   2.856   1.555   4.065
 7499SOL    HW223397   2.991   1.549   4.158
 7500SOL     OW23398   3.869   0.662   3.104
 7500SOL    HW123399   3.828   0.645   3.193
 7500SOL    HW223400   3.858   0.759   3.080
 7501SOL     OW23401   6.432   2.685   5.799
 7501SOL    HW123402   6.433   2.619   5.723
 7501SOL    HW223403   6.518   2.736   5.800
 7502SOL     OW23404   4.455   0.710   4.180
 7502SOL    HW123405   4.411   0.776   4.119
 7502SOL    HW223406   4.462   0.749   4.272
 7503SOL     OW23407   1.793   5.507   2.156
 7503SOL    HW123408   1.879   5.559   2.163
 7503SOL    HW223409   1.781   5.451   2.237
 7504SOL     OW23410   6.106   6.324   4.723
 7504SOL    HW123411   6.047   6.403   4.709
 7504SOL    HW223412   6.071   6.270   4.800
 7505SOL     OW23413   0.084   6.607   4.950
 7505SOL    HW123414   0.123   6.690   4.911
 7505SOL    HW223415   0.134   6.527   4.916
 7506SOL     OW23416   3.618   1.854   3.642
 7506SOL    HW123417   3.570   1.942   3.637
 7506SOL    HW223418   3.709   1.868   3.681
 7507SOL     OW23419   6.336   4.601   5.619
 7507SOL    HW123420   6.256   4.638   5.665
 7507SOL    HW223421   6.380   4.674   5.566
 7508SOL     OW23422   2.607   5.791   0.406
 7508SOL    HW123423   2.681   5.792   0.339
 7508SOL    HW223424   2.520   5.808   0.360
 7509SOL     OW23425   6.093   4.859   2.223
 7509SOL    HW123426   6.143   4.873   2.138
 7509SOL    HW223427   6.063   4.948   2.259
 7510SOL     OW23428   3.273   3.635   2.490
 7510SOL    HW123429   3.286   3.728   2.456
 7510SOL    HW223430   3.218   3.583   2.425
 7511SOL     OW23431   4.812   6.779   4.154
 7511SOL    HW123432   4.769   6.702   4.201
 7511SOL    HW223433   4.791   6.775   4.056
 7512SOL     OW23434   3.828   1.027   0.417
 7512SOL    HW123435   3.826   0.963   0.340
 7512SOL    HW223436   3.762   0.998   0.486
 7513SOL     OW23437   1.613   2.161   2.479
 7513SOL    HW123438   1.705   2.192   2.456
 7513SOL    HW223439   1.603   2.065   2.455
 7514SOL     OW23440   1.308   6.038   1.804
 7514SOL    HW123441   1.405   6.032   1.830
 7514SOL    HW223442   1.301   6.067   1.709
 7515SOL     OW23443   0.806   4.951   5.028
 7515SOL    HW123444   0.805   4.883   4.955
 7515SOL    HW223445   0.895   4.996   5.030
 7516SOL     OW23446   1.495   6.304   5.465
 7516SOL    HW123447   1.399   6.329   5.473
 7516SOL    HW223448   1.542   6.325   5.551
 7517SOL     OW23449   1.128   1.842   6.070
 7517SOL    HW123450   1.038   1.859   6.110
 7517SOL    HW223451   1.122   1.766   6.005
 7518SOL     OW23452   4.847   2.122   4.031
 7518SOL    HW123453   4.799   2.042   4.067
 7518SOL    HW223454   4.788   2.202   4.037
 7519SOL     OW23455   3.873   6.084   4.272
 7519SOL    HW123456   3.856   6.183   4.266
 7519SOL    HW223457   3.865   6.054   4.367
 7520SOL     OW23458   1.665   1.654   0.335
 7520SOL    HW123459   1.695   1.727   0.274
 7520SOL    HW223460   1.620   1.693   0.415
 7521SOL     OW23461   3.759   1.571   5.441
 7521SOL    HW123462   3.761   1.600   5.536
 7521SOL    HW223463   3.694   1.627   5.390
 7522SOL     OW23464   1.636   0.265   3.439
 7522SOL    HW123465   1.730   0.283   3.412
 7522SOL    HW223466   1.593   0.204   3.372
 7523SOL     OW23467   5.584   0.866   0.775
 7523SOL    HW123468   5.518   0.865   0.699
 7523SOL    HW223469   5.536   0.860   0.862
 7524SOL     OW23470   0.774   3.318   4.417
 7524SOL    HW123471   0.807   3.306   4.511
 7524SOL    HW223472   0.716   3.399   4.412
 7525SOL     OW23473   3.744   5.527   6.174
 7525SOL    HW123474   3.827   5.520   6.228
 7525SOL    HW223475   3.692   5.608   6.201
 7526SOL     OW23476   2.478   3.484   1.386
 7526SOL    HW123477   2.410   3.520   1.322
 7526SOL    HW223478   2.536   3.558   1.418
 7527SOL     OW23479   3.895   5.157   3.170
 7527SOL    HW123480   3.866   5.228   3.235
 7527SOL    HW223481   3.816   5.100   3.146
 7528SOL     OW23482   6.651   2.745   6.100
 7528SOL    HW123483   6.727   2.796   6.143
 7528SOL    HW223484   6.682   2.653   6.078
 7529SOL     OW23485   6.018   3.465   4.025
 7529SOL    HW123486   6.053   3.421   3.942
 7529SOL    HW223487   6.077   3.443   4.102
 7530SOL     OW23488   0.826   2.119   1.732
 7530SOL    HW123489   0.749   2.057   1.719
 7530SOL    HW223490   0.794   2.213   1.731
 7531SOL     OW23491   4.055   2.127   3.986
 7531SOL    HW123492   4.015   2.151   3.897
 7531SOL    HW223493   3.982   2.095   4.048
 7532SOL     OW23494   4.768   5.362   6.499
 7532SOL    HW123495   4.803   5.312   6.420
 7532SOL    HW223496   4.768   5.301   6.579
 7533SOL     OW23497   4.565   4.373   1.647
 7533SOL    HW123498   4.517   4.346   1.564
 7533SOL    HW223499   4.531   4.321   1.724
 7534SOL     OW23500   4.009   6.876   4.811
 7534SOL    HW123501   3.940   6.892   4.741
 7534SOL    HW223502   4.013   6.955   4.872
 7535SOL     OW23503   0.667   6.496   4.085
 7535SOL    HW123504   0.654   6.473   4.182
 7535SOL    HW223505   0.580   6.487   4.037
 7536SOL     OW23506   5.671   6.226   4.480
 7536SOL    HW123507   5.611   6.258   4.553
 7536SOL    HW223508   5.655   6.129   4.463
 7537SOL     OW23509   2.459   6.473   2.952
 7537SOL    HW123510   2.518   6.510   2.879
 7537SOL    HW223511   2.412   6.548   2.998
 7538SOL     OW23512   0.574   3.874   0.758
 7538SOL    HW123513   0.636   3.951   0.745
 7538SOL    HW223514   0.481   3.900   0.731
 7539SOL     OW23515   6.798   0.447   4.707
 7539SOL    HW123516   6.750   0.450   4.619
 7539SOL    HW223517   6.897   0.445   4.692
 7540SOL     OW23518   5.808   5.363   3.026
 7540SOL    HW123519   5.831   5.456   3.053
 7540SOL    HW223520   5.722   5.336   3.069
 7541SOL     OW23521   2.716   3.997   5.825
 7541SOL    HW123522   2.703   3.959   5.916
 7541SOL    HW223523   2.636   4.052   5.800
 7542SOL     OW23524   6.052   5.662   4.846
 7542SOL    HW123525   5.990   5.726   4.801
 7542SOL    HW223526   6.113   5.622   4.778
 7543SOL     OW23527   2.455   1.081   6.551
 7543SOL    HW123528   2.491   1.164   6.593
 7543SOL    HW223529   2.415   1.022   6.621
 7544SOL     OW23530   6.432   1.548   3.953
 7544SOL    HW123531   6.414   1.515   4.045
 7544SOL    HW223532   6.471   1.640   3.957
 7545SOL     OW23533   1.692   5.280   5.962
 7545SOL    HW123534   1.678   5.186   5.991
 7545SOL    HW223535   1.627   5.304   5.890
 7546SOL     OW23536   2.414   2.617   1.997
 7546SOL    HW123537   2.460   2.607   2.085
 7546SOL    HW223538   2.481   2.637   1.926
 7547SOL     OW23539   4.007   0.274   1.555
 7547SOL    HW123540   3.933   0.278   1.487
 7547SOL    HW223541   4.086   0.324   1.520
 7548SOL     OW23542   3.791   3.131   6.259
 7548SOL    HW123543   3.872   3.184   6.282
 7548SOL    HW223544   3.817   3.051   6.205
 7549SOL     OW23545   5.452   1.431   4.334
 7549SOL    HW123546   5.400   1.507   4.372
 7549SOL    HW223547   5.541   1.464   4.303
 7550SOL     OW23548   2.878   4.967   4.410
 7550SOL    HW123549   2.892   5.062   4.439
 7550SOL    HW223550   2.858   4.965   4.312
 7551SOL     OW23551   6.777   2.506   6.134
 7551SOL    HW123552   6.817   2.530   6.045
 7551SOL    HW223553   6.807   2.572   6.203
 7552SOL     OW23554   2.411   6.886   5.250
 7552SOL    HW123555   2.435   6.914   5.157
 7552SOL    HW223556   2.473   6.931   5.316
 7553SOL     OW23557   5.591   6.238   5.272
 7553SOL    HW123558   5.609   6.250   5.369
 7553SOL    HW223559   5.508   6.288   5.247
 7554SOL     OW23560   4.573   0.977   0.736
 7554SOL    HW123561   4.524   0.896   0.767
 7554SOL    HW223562   4.512   1.035   0.684
 7555SOL     OW23563   4.421   5.593   4.318
 7555SOL    HW123564   4.373   5.506   4.311
 7555SOL    HW223565   4.516   5.581   4.289
 7556SOL     OW23566   0.812   6.645   1.768
 7556SOL    HW123567   0.775   6.624   1.859
 7556SOL    HW223568   0.783   6.575   1.704
 7557SOL     OW23569   4.941   6.994   1.106
 7557SOL    HW123570   5.025   6.943   1.089
 7557SOL    HW223571   4.916   6.987   1.203
 7558SOL     OW23572   0.844   1.729   3.958
 7558SOL    HW123573   0.939   1.714   3.932
 7558SOL    HW223574   0.817   1.660   4.025
 7559SOL     OW23575   2.853   1.990   5.264
 7559SOL    HW123576   2.883   1.957   5.175
 7559SOL    HW223577   2.881   2.085   5.276
 7560SOL     OW23578   1.263   1.492   6.032
 7560SOL    HW123579   1.327   1.542   5.973
 7560SOL    HW223580   1.313   1.456   6.111
 7561SOL     OW23581   6.151   1.642   5.640
 7561SOL    HW123582   6.165   1.544   5.626
 7561SOL    HW223583   6.158   1.690   5.552
 7562SOL     OW23584   1.953   6.059   3.559
 7562SOL    HW123585   2.052   6.069   3.569
 7562SOL    HW223586   1.907   6.102   3.637
 7563SOL     OW23587   3.991   5.865   2.253
 7563SOL    HW123588   3.985   5.866   2.153
 7563SOL    HW223589   4.069   5.808   2.280
 7564SOL     OW23590   3.598   1.790   5.341
 7564SOL    HW123591   3.511   1.785   5.292
 7564SOL    HW223592   3.636   1.882   5.332
 7565SOL     OW23593   6.349   3.884   5.883
 7565SOL    HW123594   6.268   3.857   5.831
 7565SOL    HW223595   6.328   3.883   5.981
 7566SOL     OW23596   4.168   4.777   1.579
 7566SOL    HW123597   4.111   4.698   1.601
 7566SOL    HW223598   4.263   4.748   1.568
 7567SOL     OW23599   0.784   7.015   4.038
 7567SOL    HW123600   0.710   0.045   4.081
 7567SOL    HW223601   0.852   0.055   4.000
 7568SOL     OW23602   5.994   5.705   1.278
 7568SOL    HW123603   5.996   5.608   1.252
 7568SOL    HW223604   6.055   5.719   1.356
 7569SOL     OW23605   4.885   3.500   0.155
 7569SOL    HW123606   4.952   3.493   0.229
 7569SOL    HW223607   4.814   3.566   0.180
 7570SOL     OW23608   0.662   3.400   2.500
 7570SOL    HW123609   0.608   3.433   2.578
 7570SOL    HW223610   0.631   3.309   2.474
 7571SOL     OW23611   4.920   2.061   2.534
 7571SOL    HW123612   4.933   2.126   2.459
 7571SOL    HW223613   4.876   1.978   2.499
 7572SOL     OW23614   4.731   0.444   3.550
 7572SOL    HW123615   4.651   0.480   3.503
 7572SOL    HW223616   4.760   0.359   3.505
 7573SOL     OW23617   3.992   6.311   5.634
 7573SOL    HW123618   3.968   6.334   5.728
 7573SOL    HW223619   3.981   6.392   5.576
 7574SOL     OW23620   0.856   2.746   3.821
 7574SOL    HW123621   0.840   2.672   3.885
 7574SOL    HW223622   0.948   2.739   3.783
 7575SOL     OW23623   0.283   6.618   2.077
 7575SOL    HW123624   0.272   6.519   2.070
 7575SOL    HW223625   0.194   6.660   2.097
 7576SOL     OW23626   5.077   2.754   0.462
 7576SOL    HW123627   5.011   2.798   0.524
 7576SOL    HW223628   5.141   2.699   0.514
 7577SOL     OW23629   0.978   0.099   0.564
 7577SOL    HW123630   0.894   0.075   0.613
 7577SOL    HW223631   1.039   0.020   0.561
 7578SOL     OW23632   6.590   5.965   3.258
 7578SOL    HW123633   6.573   6.002   3.167
 7578SOL    HW223634   6.508   5.918   3.291
 7579SOL     OW23635   0.722   1.391   6.900
 7579SOL    HW123636   0.792   1.442   6.951
 7579SOL    HW223637   0.657   1.351   6.964
 7580SOL     OW23638   2.154   4.854   3.671
 7580SOL    HW123639   2.066   4.894   3.694
 7580SOL    HW223640   2.158   4.760   3.704
 7581SOL     OW23641   6.895   0.981   2.390
 7581SOL    HW123642   6.990   0.951   2.380
 7581SOL    HW223643   6.859   1.009   2.300
 7582SOL     OW23644   2.337   1.681   6.355
 7582SOL    HW123645   2.393   1.712   6.432
 7582SOL    HW223646   2.373   1.720   6.270
 7583SOL     OW23647   5.085   2.926   3.045
 7583SOL    HW123648   5.108   3.007   2.991
 7583SOL    HW223649   5.165   2.865   3.050
 7584SOL     OW23650   0.451   0.984   3.205
 7584SOL    HW123651   0.390   0.915   3.245
 7584SOL    HW223652   0.539   0.982   3.253
 7585SOL     OW23653   0.923   1.502   6.552
 7585SOL    HW123654   0.984   1.547   6.486
 7585SOL    HW223655   0.831   1.541   6.544
 7586SOL     OW23656   1.851   0.471   2.320
 7586SOL    HW123657   1.785   0.499   2.390
 7586SOL    HW223658   1.901   0.391   2.353
 7587SOL     OW23659   4.200   0.382   0.682
 7587SOL    HW123660   4.234   0.311   0.744
 7587SOL    HW223661   4.142   0.445   0.733
 7588SOL     OW23662   2.386   2.772   4.549
 7588SOL    HW123663   2.422   2.708   4.617
 7588SOL    HW223664   2.453   2.785   4.476
 7589SOL     OW23665   0.527   0.414   2.727
 7589SOL    HW123666   0.522   0.464   2.640
 7589SOL    HW223667   0.544   0.478   2.802
 7590SOL     OW23668   6.687   0.830   0.095
 7590SOL    HW123669   6.691   0.836   7.018
 7590SOL    HW223670   6.668   0.921   0.132
 7591SOL     OW23671   3.716   2.932   4.421
 7591SOL    HW123672   3.813   2.957   4.423
 7591SOL    HW223673   3.685   2.915   4.515
 7592SOL     OW23674   6.666   6.963   4.379
 7592SOL    HW123675   6.740   6.913   4.423
 7592SOL    HW223676   6.582   6.909   4.383
 7593SOL     OW23677   0.544   1.381   5.512
 7593SOL    HW123678   0.593   1.469   5.508
 7593SOL    HW223679   0.484   1.373   5.432
 7594SOL     OW23680   0.269   4.131   6.967
 7594SOL    HW123681   0.356   4.096   7.002
 7594SOL    HW223682   0.260   4.228   6.992
 7595SOL     OW23683   1.077   3.752   6.596
 7595SOL    HW123684   1.073   3.780   6.692
 7595SOL    HW223685   1.164   3.705   6.579
 7596SOL     OW23686   3.054   1.526   5.898
 7596SOL    HW123687   3.096   1.532   5.989
 7596SOL    HW223688   2.957   1.550   5.905
 7597SOL     OW23689   1.424   4.736   1.586
 7597SOL    HW123690   1.504   4.776   1.541
 7597SOL    HW223691   1.358   4.707   1.517
 7598SOL     OW23692   6.091   0.866   2.326
 7598SOL    HW123693   6.090   0.931   2.402
 7598SOL    HW223694   6.181   0.868   2.282
 7599SOL     OW23695   3.324   3.943   1.187
 7599SOL    HW123696   3.280   3.901   1.267
 7599SOL    HW223697   3.287   3.901   1.104
 7600SOL     OW23698   1.835   6.500   4.367
 7600SOL    HW123699   1.743   6.477   4.336
 7600SOL    HW223700   1.859   6.592   4.334
 7601SOL     OW23701   3.198   6.624   2.332
 7601SOL    HW123702   3.198   6.653   2.427
 7601SOL    HW223703   3.226   6.699   2.273
 7602SOL     OW23704   0.668   1.424   0.611
 7602SOL    HW123705   0.685   1.442   0.708
 7602SOL    HW223706   0.586   1.474   0.582
 7603SOL     OW23707   4.035   0.382   5.966
 7603SOL    HW123708   4.087   0.298   5.952
 7603SOL    HW223709   4.096   0.461   5.959
 7604SOL     OW23710   0.869   2.248   5.088
 7604SOL    HW123711   0.915   2.333   5.113
 7604SOL    HW223712   0.783   2.269   5.040
 7605SOL     OW23713   2.135   6.401   6.979
 7605SOL    HW123714   2.080   6.323   6.949
 7605SOL    HW223715   2.192   6.374   0.034
 7606SOL     OW23716   6.882   1.291   2.866
 7606SOL    HW123717   6.875   1.240   2.781
 7606SOL    HW223718   6.791   1.323   2.893
 7607SOL     OW23719   1.923   6.123   5.721
 7607SOL    HW123720   1.947   6.167   5.808
 7607SOL    HW223721   1.915   6.024   5.735
 7608SOL     OW23722   5.961   2.530   6.354
 7608SOL    HW123723   5.904   2.481   6.289
 7608SOL    HW223724   5.964   2.627   6.330
 7609SOL     OW23725   1.758   1.777   4.900
 7609SOL    HW123726   1.688   1.708   4.915
 7609SOL    HW223727   1.726   1.865   4.937
 7610SOL     OW23728   4.227   5.387   4.296
 7610SOL    HW123729   4.131   5.415   4.293
 7610SOL    HW223730   4.237   5.310   4.359
 7611SOL     OW23731   4.864   2.923   0.615
 7611SOL    HW123732   4.770   2.956   0.608
 7611SOL    HW223733   4.867   2.842   0.674
 7612SOL     OW23734   3.901   1.847   3.183
 7612SOL    HW123735   3.826   1.857   3.117
 7612SOL    HW223736   3.985   1.883   3.143
 7613SOL     OW23737   0.870   1.230   1.042
 7613SOL    HW123738   0.903   1.315   1.000
 7613SOL    HW223739   0.941   1.160   1.034
 7614SOL     OW23740   5.215   3.767   0.220
 7614SOL    HW123741   5.208   3.719   0.307
 7614SOL    HW223742   5.308   3.802   0.209
 7615SOL     OW23743   5.998   3.152   5.058
 7615SOL    HW123744   5.914   3.150   5.003
 7615SOL    HW223745   5.973   3.152   5.155
 7616SOL     OW23746   6.088   0.252   3.220
 7616SOL    HW123747   6.107   0.339   3.267
 7616SOL    HW223748   6.151   0.242   3.143
 7617SOL     OW23749   6.141   4.095   3.648
 7617SOL    HW123750   6.226   4.045   3.632
 7617SOL    HW223751   6.159   4.193   3.643
 7618SOL     OW23752   2.115   3.035   0.588
 7618SOL    HW123753   2.080   2.944   0.612
 7618SOL    HW223754   2.168   3.071   0.665
 7619SOL     OW23755   1.547   1.544   4.493
 7619SOL    HW123756   1.575   1.635   4.464
 7619SOL    HW223757   1.464   1.517   4.442
 7620SOL     OW23758   3.713   4.920   1.163
 7620SOL    HW123759   3.746   4.883   1.250
 7620SOL    HW223760   3.627   4.876   1.138
 7621SOL     OW23761   6.221   3.949   7.021
 7621SOL    HW123762   6.158   3.987   0.067
 7621SOL    HW223763   6.286   3.888   0.044
 7622SOL     OW23764   3.224   3.857   1.445
 7622SOL    HW123765   3.186   3.920   1.513
 7622SOL    HW223766   3.254   3.773   1.490
 7623SOL     OW23767   5.077   4.178   1.683
 7623SOL    HW123768   5.030   4.255   1.727
 7623SOL    HW223769   5.089   4.104   1.749
 7624SOL     OW23770   1.146   3.640   2.657
 7624SOL    HW123771   1.145   3.718   2.594
 7624SOL    HW223772   1.060   3.589   2.648
 7625SOL     OW23773   5.149   0.656   1.668
 7625SOL    HW123774   5.064   0.631   1.621
 7625SOL    HW223775   5.174   0.750   1.645
 7626SOL     OW23776   4.608   0.384   6.232
 7626SOL    HW123777   4.694   0.436   6.230
 7626SOL    HW223778   4.610   0.320   6.309
 7627SOL     OW23779   4.260   3.049   6.715
 7627SOL    HW123780   4.295   3.129   6.763
 7627SOL    HW223781   4.277   3.059   6.617
 7628SOL     OW23782   3.677   2.677   0.525
 7628SOL    HW123783   3.704   2.703   0.432
 7628SOL    HW223784   3.681   2.577   0.534
 7629SOL     OW23785   5.576   2.279   2.923
 7629SOL    HW123786   5.560   2.377   2.940
 7629SOL    HW223787   5.673   2.265   2.902
 7630SOL     OW23788   1.086   6.574   4.289
 7630SOL    HW123789   1.138   6.624   4.219
 7630SOL    HW223790   1.048   6.491   4.248
 7631SOL     OW23791   0.922   0.358   5.721
 7631SOL    HW123792   0.895   0.406   5.638
 7631SOL    HW223793   0.882   0.403   5.801
 7632SOL     OW23794   4.458   5.964   0.167
 7632SOL    HW123795   4.496   5.922   0.249
 7632SOL    HW223796   4.532   6.002   0.112
 7633SOL     OW23797   6.146   1.390   1.382
 7633SOL    HW123798   6.078   1.400   1.455
 7633SOL    HW223799   6.099   1.375   1.295
 7634SOL     OW23800   6.954   2.230   0.050
 7634SOL    HW123801   6.986   2.297   0.116
 7634SOL    HW223802   0.008   2.172   0.020
 7635SOL     OW23803   2.126   3.393   5.618
 7635SOL    HW123804   2.171   3.311   5.652
 7635SOL    HW223805   2.166   3.419   5.530
 7636SOL     OW23806   0.154   3.673   4.638
 7636SOL    HW123807   0.193   3.620   4.713
 7636SOL    HW223808   0.061   3.642   4.619
 7637SOL     OW23809   1.276   5.254   4.898
 7637SOL    HW123810   1.351   5.248   4.831
 7637SOL    HW223811   1.218   5.333   4.876
 7638SOL     OW23812   0.335   6.028   1.427
 7638SOL    HW123813   0.330   6.033   1.327
 7638SOL    HW223814   0.248   5.992   1.462
 7639SOL     OW23815   1.672   1.059   0.053
 7639SOL    HW123816   1.642   0.985   7.015
 7639SOL    HW223817   1.619   1.141   0.034
 7640SOL     OW23818   3.230   1.166   0.932
 7640SOL    HW123819   3.265   1.245   0.982
 7640SOL    HW223820   3.184   1.196   0.849
 7641SOL     OW23821   0.409   4.020   3.989
 7641SOL    HW123822   0.464   4.098   3.959
 7641SOL    HW223823   0.468   3.940   4.000
 7642SOL     OW23824   5.495   0.832   3.178
 7642SOL    HW123825   5.424   0.762   3.186
 7642SOL    HW223826   5.501   0.863   3.083
 7643SOL     OW23827   5.320   3.404   4.091
 7643SOL    HW123828   5.406   3.356   4.108
 7643SOL    HW223829   5.261   3.348   4.032
 7644SOL     OW23830   5.263   3.486   1.149
 7644SOL    HW123831   5.340   3.499   1.086
 7644SOL    HW223832   5.239   3.574   1.190
 7645SOL     OW23833   3.441   4.613   6.934
 7645SOL    HW123834   3.397   4.577   7.017
 7645SOL    HW223835   3.437   4.544   6.862
 7646SOL     OW23836   6.317   1.255   0.411
 7646SOL    HW123837   6.348   1.245   0.317
 7646SOL    HW223838   6.344   1.175   0.464
 7647SOL     OW23839   0.278   2.285   4.124
 7647SOL    HW123840   0.257   2.197   4.167
 7647SOL    HW223841   0.366   2.318   4.157
 7648SOL     OW23842   2.446   2.236   1.931
 7648SOL    HW123843   2.493   2.166   1.877
 7648SOL    HW223844   2.386   2.193   1.998
 7649SOL     OW23845   4.077   1.160   6.526
 7649SOL    HW123846   4.000   1.223   6.528
 7649SOL    HW223847   4.105   1.143   6.432
 7650SOL     OW23848   4.294   2.659   0.426
 7650SOL    HW123849   4.247   2.746   0.411
 7650SOL    HW223850   4.262   2.618   0.512
 7651SOL     OW23851   3.722   4.701   6.519
 7651SOL    HW123852   3.678   4.786   6.548
 7651SOL    HW223853   3.679   4.668   6.435
 7652SOL     OW23854   1.428   0.444   3.840
 7652SOL    HW123855   1.361   0.433   3.913
 7652SOL    HW223856   1.520   0.432   3.878
 7653SOL     OW23857   1.776   0.841   6.417
 7653SOL    HW123858   1.757   0.937   6.397
 7653SOL    HW223859   1.846   0.807   6.353
 7654SOL     OW23860   5.965   2.081   6.103
 7654SOL    HW123861   5.965   1.986   6.135
 7654SOL    HW223862   5.996   2.141   6.177
 7655SOL     OW23863   3.337   1.438   3.742
 7655SOL    HW123864   3.384   1.498   3.677
 7655SOL    HW223865   3.388   1.437   3.829
 7656SOL     OW23866   6.441   4.064   6.918
 7656SOL    HW123867   6.360   4.009   6.940
 7656SOL    HW223868   6.457   4.130   6.991
 7657SOL     OW23869   1.101   4.403   4.647
 7657SOL    HW123870   1.055   4.366   4.728
 7657SOL    HW223871   1.072   4.351   4.566
 7658SOL     OW23872   2.357   0.727   1.238
 7658SOL    HW123873   2.376   0.820   1.209
 7658SOL    HW223874   2.434   0.668   1.216
 7659SOL     OW23875   4.926   3.890   5.731
 7659SOL    HW123876   4.882   3.854   5.649
 7659SOL    HW223877   5.025   3.876   5.725
 7660SOL     OW23878   6.864   5.258   5.376
 7660SOL    HW123879   6.766   5.244   5.389
 7660SOL    HW223880   6.915   5.189   5.428
 7661SOL     OW23881   3.956   1.615   5.228
 7661SOL    HW123882   3.885   1.620   5.298
 7661SOL    HW223883   4.019   1.540   5.249
 7662SOL     OW23884   6.786   6.224   1.523
 7662SOL    HW123885   6.719   6.159   1.487
 7662SOL    HW223886   6.739   6.293   1.579
 7663SOL     OW23887   0.216   5.419   5.244
 7663SOL    HW123888   0.232   5.367   5.328
 7663SOL    HW223889   0.281   5.496   5.240
 7664SOL     OW23890   3.727   2.124   2.320
 7664SOL    HW123891   3.697   2.143   2.227
 7664SOL    HW223892   3.682   2.188   2.383
 7665SOL     OW23893   3.824   0.527   5.906
 7665SOL    HW123894   3.761   0.460   5.868
 7665SOL    HW223895   3.907   0.480   5.938
 7666SOL     OW23896   5.419   4.279   3.549
 7666SOL    HW123897   5.442   4.208   3.482
 7666SOL    HW223898   5.419   4.239   3.641
 7667SOL     OW23899   4.351   6.357   2.524
 7667SOL    HW123900   4.367   6.447   2.485
 7667SOL    HW223901   4.426   6.333   2.586
 7668SOL     OW23902   2.084   5.675   0.591
 7668SOL    HW123903   2.179   5.696   0.567
 7668SOL    HW223904   2.038   5.758   0.622
 7669SOL     OW23905   2.044   0.976   6.717
 7669SOL    HW123906   1.999   1.009   6.634
 7669SOL    HW223907   2.038   1.046   6.788
 7670SOL     OW23908   0.704   0.223   1.103
 7670SOL    HW123909   0.691   0.269   1.015
 7670SOL    HW223910   0.779   0.157   1.095
 7671SOL     OW23911   3.376   6.712   0.946
 7671SOL    HW123912   3.308   6.686   0.877
 7671SOL    HW223913   3.467   6.709   0.905
 7672SOL     OW23914   4.860   4.596   2.085
 7672SOL    HW123915   4.760   4.602   2.077
 7672SOL    HW223916   4.884   4.581   2.181
 7673SOL     OW23917   1.529   6.420   4.925
 7673SOL    HW123918   1.565   6.513   4.916
 7673SOL    HW223919   1.545   6.388   5.018
 7674SOL     OW23920   4.734   6.172   4.678
 7674SOL    HW123921   4.771   6.098   4.621
 7674SOL    HW223922   4.810   6.224   4.717
 7675SOL     OW23923   5.362   6.061   3.086
 7675SOL    HW123924   5.300   5.997   3.131
 7675SOL    HW223925   5.325   6.153   3.093
 7676SOL     OW23926   3.757   3.006   5.439
 7676SOL    HW123927   3.703   2.995   5.355
 7676SOL    HW223928   3.776   3.103   5.453
 7677SOL     OW23929   6.362   4.443   0.052
 7677SOL    HW123930   6.435   4.491   0.004
 7677SOL    HW223931   6.300   4.401   7.008
 7678SOL     OW23932   2.566   1.461   5.096
 7678SOL    HW123933   2.610   1.551   5.105
 7678SOL    HW223934   2.545   1.425   5.186
 7679SOL     OW23935   3.772   5.807   4.900
 7679SOL    HW123936   3.738   5.730   4.846
 7679SOL    HW223937   3.870   5.795   4.916
 7680SOL     OW23938   1.990   0.014   4.341
 7680SOL    HW123939   2.079   0.059   4.353
 7680SOL    HW223940   1.929   0.041   4.416
 7681SOL     OW23941   2.173   3.026   6.153
 7681SOL    HW123942   2.255   2.992   6.199
 7681SOL    HW223943   2.200   3.071   6.067
 7682SOL     OW23944   2.885   0.876   2.895
 7682SOL    HW123945   2.982   0.881   2.872
 7682SOL    HW223946   2.856   0.781   2.902
 7683SOL     OW23947   0.212   4.630   4.420
 7683SOL    HW123948   0.179   4.595   4.333
 7683SOL    HW223949   0.312   4.632   4.419
 7684SOL     OW23950   5.022   3.201   1.510
 7684SOL    HW123951   5.009   3.107   1.543
 7684SOL    HW223952   5.060   3.199   1.417
 7685SOL     OW23953   2.656   0.476   0.520
 7685SOL    HW123954   2.571   0.498   0.568
 7685SOL    HW223955   2.689   0.558   0.473
 7686SOL     OW23956   6.800   6.772   5.146
 7686SOL    HW123957   6.838   6.680   5.141
 7686SOL    HW223958   6.803   6.815   5.055
 7687SOL     OW23959   5.578   3.866   6.214
 7687SOL    HW123960   5.673   3.895   6.223
 7687SOL    HW223961   5.558   3.846   6.118
 7688SOL     OW23962   6.708   3.733   6.147
 7688SOL    HW123963   6.701   3.833   6.150
 7688SOL    HW223964   6.799   3.705   6.178
 7689SOL     OW23965   4.731   1.054   1.980
 7689SOL    HW123966   4.702   0.977   2.036
 7689SOL    HW223967   4.687   1.049   1.891
 7690SOL     OW23968   5.923   5.190   2.126
 7690SOL    HW123969   5.934   5.139   2.212
 7690SOL    HW223970   6.013   5.215   2.091
 7691SOL     OW23971   4.884   3.198   3.964
 7691SOL    HW123972   4.850   3.149   4.044
 7691SOL    HW223973   4.831   3.172   3.883
 7692SOL     OW23974   2.910   6.663   2.449
 7692SOL    HW123975   2.906   6.605   2.367
 7692SOL    HW223976   2.957   6.748   2.427
 7693SOL     OW23977   2.812   0.599   1.708
 7693SOL    HW123978   2.721   0.639   1.702
 7693SOL    HW223979   2.860   0.636   1.787
 7694SOL     OW23980   4.510   1.405   5.685
 7694SOL    HW123981   4.493   1.307   5.691
 7694SOL    HW223982   4.608   1.422   5.694
 7695SOL     OW23983   4.553   0.136   3.583
 7695SOL    HW123984   4.470   0.193   3.581
 7695SOL    HW223985   4.534   0.050   3.537
 7696SOL     OW23986   1.948   2.921   6.030
 7696SOL    HW123987   1.883   2.891   6.101
 7696SOL    HW223988   2.039   2.932   6.071
 7697SOL     OW23989   5.532   0.141   3.509
 7697SOL    HW123990   5.603   0.189   3.457
 7697SOL    HW223991   5.486   0.204   3.571
 7698SOL     OW23992   6.277   3.246   1.143
 7698SOL    HW123993   6.376   3.245   1.160
 7698SOL    HW223994   6.229   3.271   1.226
 7699SOL     OW23995   4.621   5.768   5.628
 7699SOL    HW123996   4.544   5.729   5.678
 7699SOL    HW223997   4.700   5.707   5.637
 7700SOL     OW23998   5.078   5.998   1.993
 7700SOL    HW123999   5.086   5.968   1.898
 7700SOL    HW224000   5.087   6.098   1.998
 7701SOL     OW24001   1.452   2.431   6.251
 7701SOL    HW124002   1.509   2.487   6.311
 7701SOL    HW224003   1.356   2.451   6.269
 7702SOL     OW24004   4.723   0.084   4.712
 7702SOL    HW124005   4.663   0.026   4.657
 7702SOL    HW224006   4.670   0.157   4.754
 7703SOL     OW24007   0.025   6.816   5.610
 7703SOL    HW124008   7.015   6.799   5.518
 7703SOL    HW224009   6.993   6.763   5.675
 7704SOL     OW24010   0.962   1.689   4.839
 7704SOL    HW124011   0.881   1.646   4.879
 7704SOL    HW224012   0.934   1.757   4.771
 7705SOL     OW24013   1.283   5.005   6.887
 7705SOL    HW124014   1.356   4.937   6.895
 7705SOL    HW224015   1.247   5.028   6.977
 7706SOL     OW24016   3.957   3.107   2.508
 7706SOL    HW124017   4.037   3.047   2.500
 7706SOL    HW224018   3.876   3.059   2.475
 7707SOL     OW24019   6.814   3.811   6.775
 7707SOL    HW124020   6.716   3.820   6.757
 7707SOL    HW224021   6.866   3.843   6.696
 7708SOL     OW24022   2.007   0.723   4.252
 7708SOL    HW124023   2.049   0.801   4.204
 7708SOL    HW224024   1.989   0.748   4.347
 7709SOL     OW24025   6.984   4.715   1.460
 7709SOL    HW124026   6.932   4.684   1.381
 7709SOL    HW224027   6.925   4.717   1.541
 7710SOL     OW24028   6.747   2.733   0.969
 7710SOL    HW124029   6.770   2.822   1.009
 7710SOL    HW224030   6.820   2.706   0.906
 7711SOL     OW24031   0.222   4.455   4.883
 7711SOL    HW124032   0.246   4.472   4.787
 7711SOL    HW224033   0.260   4.528   4.940
 7712SOL     OW24034   0.171   5.069   5.769
 7712SOL    HW124035   0.178   4.978   5.812
 7712SOL    HW224036   0.198   5.139   5.835
 7713SOL     OW24037   1.288   4.403   0.186
 7713SOL    HW124038   1.329   4.418   0.276
 7713SOL    HW224039   1.291   4.488   0.133
 7714SOL     OW24040   6.516   1.907   4.507
 7714SOL    HW124041   6.540   1.904   4.410
 7714SOL    HW224042   6.472   1.821   4.532
 7715SOL     OW24043   3.643   3.286   5.079
 7715SOL    HW124044   3.674   3.233   5.000
 7715SOL    HW224045   3.648   3.383   5.057
 7716SOL     OW24046   0.979   6.732   6.069
 7716SOL    HW124047   0.983   6.789   6.151
 7716SOL    HW224048   0.950   6.788   5.991
 7717SOL     OW24049   0.010   2.384   6.371
 7717SOL    HW124050   0.094   2.417   6.328
 7717SOL    HW224051   6.978   2.462   6.402
 7718SOL     OW24052   0.567   3.376   2.915
 7718SOL    HW124053   0.561   3.476   2.919
 7718SOL    HW224054   0.576   3.340   3.008
 7719SOL     OW24055   1.680   5.356   5.085
 7719SOL    HW124056   1.584   5.333   5.105
 7719SOL    HW224057   1.684   5.444   5.039
 7720SOL     OW24058   4.679   1.419   6.483
 7720SOL    HW124059   4.580   1.415   6.497
 7720SOL    HW224060   4.718   1.488   6.545
 7721SOL     OW24061   6.871   6.961   2.669
 7721SOL    HW124062   6.921   6.883   2.705
 7721SOL    HW224063   6.848   6.945   2.573
 7722SOL     OW24064   0.848   5.741   3.941
 7722SOL    HW124065   0.815   5.658   3.895
 7722SOL    HW224066   0.839   5.819   3.879
 7723SOL     OW24067   4.781   3.605   6.759
 7723SOL    HW124068   4.866   3.607   6.811
 7723SOL    HW224069   4.795   3.644   6.669
 7724SOL     OW24070   2.314   3.570   1.210
 7724SOL    HW124071   2.274   3.638   1.271
 7724SOL    HW224072   2.243   3.535   1.149
 7725SOL     OW24073   5.668   2.515   4.599
 7725SOL    HW124074   5.703   2.594   4.650
 7725SOL    HW224075   5.680   2.531   4.501
 7726SOL     OW24076   1.400   3.399   6.515
 7726SOL    HW124077   1.464   3.352   6.454
 7726SOL    HW224078   1.419   3.375   6.610
 7727SOL     OW24079   4.137   1.124   2.103
 7727SOL    HW124080   4.166   1.136   2.008
 7727SOL    HW224081   4.125   1.213   2.146
 7728SOL     OW24082   2.061   4.327   4.713
 7728SOL    HW124083   2.143   4.358   4.761
 7728SOL    HW224084   2.086   4.267   4.638
 7729SOL     OW24085   6.605   1.314   2.969
 7729SOL    HW124086   6.524   1.353   2.925
 7729SOL    HW224087   6.579   1.278   3.059
 7730SOL     OW24088   6.684   4.570   5.215
 7730SOL    HW124089   6.679   4.661   5.255
 7730SOL    HW224090   6.776   4.532   5.229
 7731SOL     OW24091   6.948   0.074   6.171
 7731SOL    HW124092   6.912   0.001   6.229
 7731SOL    HW224093   7.015   0.127   6.223
 7732SOL     OW24094   3.702   0.195   6.467
 7732SOL    HW124095   3.653   0.137   6.401
 7732SOL    HW224096   3.679   0.165   6.560
 7733SOL     OW24097   6.613   5.438   1.732
 7733SOL    HW124098   6.690   5.462   1.673
 7733SOL    HW224099   6.585   5.344   1.715
 7734SOL     OW24100   3.622   4.137   3.893
 7734SOL    HW124101   3.606   4.128   3.795
 7734SOL    HW224102   3.536   4.157   3.940
 7735SOL     OW24103   0.670   6.622   1.115
 7735SOL    HW124104   0.759   6.580   1.132
 7735SOL    HW224105   0.669   6.659   1.022
 7736SOL     OW24106   1.332   2.624   0.066
 7736SOL    HW124107   1.289   2.703   0.108
 7736SOL    HW224108   1.310   2.542   0.119
 7737SOL     OW24109   4.614   4.265   0.011
 7737SOL    HW124110   4.703   4.303   7.010
 7737SOL    HW224111   4.544   4.307   6.975
 7738SOL     OW24112   2.048   0.422   5.454
 7738SOL    HW124113   2.071   0.517   5.476
 7738SOL    HW224114   1.980   0.389   5.519
 7739SOL     OW24115   2.040   2.209   0.551
 7739SOL    HW124116   1.992   2.229   0.636
 7739SOL    HW224117   2.131   2.173   0.570
 7740SOL     OW24118   2.018   0.367   5.041
 7740SOL    HW124119   2.039   0.332   5.133
 7740SOL    HW224120   2.087   0.435   5.015
 7741SOL     OW24121   0.603   5.048   6.056
 7741SOL    HW124122   0.612   5.052   5.956
 7741SOL    HW224123   0.693   5.037   6.097
 7742SOL     OW24124   4.663   2.301   4.037
 7742SOL    HW124125   4.632   2.392   4.013
 7742SOL    HW224126   4.629   2.276   4.128
 7743SOL     OW24127   4.166   1.777   6.307
 7743SOL    HW124128   4.167   1.678   6.324
 7743SOL    HW224129   4.082   1.802   6.259
 7744SOL     OW24130   1.373   6.618   4.677
 7744SOL    HW124131   1.421   6.575   4.753
 7744SOL    HW224132   1.371   6.555   4.599
 7745SOL     OW24133   3.380   6.867   1.147
 7745SOL    HW124134   3.397   6.806   1.070
 7745SOL    HW224135   3.317   6.939   1.119
 7746SOL     OW24136   0.904   5.686   1.662
 7746SOL    HW124137   0.857   5.655   1.580
 7746SOL    HW224138   0.871   5.777   1.686
 7747SOL     OW24139   0.290   5.832   0.983
 7747SOL    HW124140   0.223   5.892   1.027
 7747SOL    HW224141   0.336   5.882   0.910
 7748SOL     OW24142   4.569   1.902   6.144
 7748SOL    HW124143   4.575   1.860   6.234
 7748SOL    HW224144   4.562   2.001   6.153
 7749SOL     OW24145   3.883   3.994   3.126
 7749SOL    HW124146   3.790   4.001   3.089
 7749SOL    HW224147   3.925   4.085   3.126
 7750SOL     OW24148   5.397   4.761   5.610
 7750SOL    HW124149   5.458   4.766   5.531
 7750SOL    HW224150   5.451   4.747   5.693
 7751SOL     OW24151   7.018   1.807   4.251
 7751SOL    HW124152   6.994   1.712   4.270
 7751SOL    HW224153   6.943   1.867   4.279
 7752SOL     OW24154   6.144   5.189   5.327
 7752SOL    HW124155   6.046   5.170   5.334
 7752SOL    HW224156   6.183   5.133   5.253
 7753SOL     OW24157   2.730   0.780   5.201
 7753SOL    HW124158   2.742   0.719   5.280
 7753SOL    HW224159   2.635   0.776   5.171
 7754SOL     OW24160   6.352   0.830   1.523
 7754SOL    HW124161   6.266   0.812   1.570
 7754SOL    HW224162   6.345   0.800   1.427
 7755SOL     OW24163   1.201   5.880   5.327
 7755SOL    HW124164   1.183   5.930   5.242
 7755SOL    HW224165   1.121   5.886   5.386
 7756SOL     OW24166   3.957   5.758   2.889
 7756SOL    HW124167   3.930   5.677   2.837
 7756SOL    HW224168   3.905   5.761   2.974
 7757SOL     OW24169   3.824   6.726   5.858
 7757SOL    HW124170   3.793   6.785   5.784
 7757SOL    HW224171   3.744   6.690   5.907
 7758SOL     OW24172   3.241   2.619   6.418
 7758SOL    HW124173   3.302   2.602   6.496
 7758SOL    HW224174   3.213   2.715   6.419
 7759SOL     OW24175   1.912   1.127   5.045
 7759SOL    HW124176   1.901   1.135   5.144
 7759SOL    HW224177   1.950   1.212   5.009
 7760SOL     OW24178   5.005   1.533   3.528
 7760SOL    HW124179   4.953   1.503   3.448
 7760SOL    HW224180   5.039   1.626   3.513
 7761SOL     OW24181   4.225   0.163   6.408
 7761SOL    HW124182   4.240   0.215   6.324
 7761SOL    HW224183   4.127   0.153   6.424
 7762SOL     OW24184   1.897   2.271   0.790
 7762SOL    HW124185   1.945   2.300   0.872
 7762SOL    HW224186   1.801   2.302   0.795
 7763SOL     OW24187   2.447   2.450   1.064
 7763SOL    HW124188   2.517   2.520   1.056
 7763SOL    HW224189   2.363   2.490   1.101
 7764SOL     OW24190   3.990   3.730   2.531
 7764SOL    HW124191   4.030   3.700   2.618
 7764SOL    HW224192   3.893   3.707   2.528
 7765SOL     OW24193   0.070   1.805   2.201
 7765SOL    HW124194   0.023   1.892   2.214
 7765SOL    HW224195   0.061   1.777   2.105
 7766SOL     OW24196   6.985   3.589   0.098
 7766SOL    HW124197   6.955   3.552   0.010
 7766SOL    HW224198   6.920   3.563   0.170
 7767SOL     OW24199   5.788   4.206   5.586
 7767SOL    HW124200   5.794   4.282   5.521
 7767SOL    HW224201   5.878   4.166   5.599
 7768SOL     OW24202   4.059   5.704   1.991
 7768SOL    HW124203   3.986   5.647   2.029
 7768SOL    HW224204   4.130   5.645   1.951
 7769SOL     OW24205   6.182   2.017   1.826
 7769SOL    HW124206   6.196   1.924   1.791
 7769SOL    HW224207   6.220   2.083   1.762
 7770SOL     OW24208   3.595   5.483   1.642
 7770SOL    HW124209   3.509   5.432   1.635
 7770SOL    HW224210   3.585   5.571   1.597
 7771SOL     OW24211   2.062   1.379   4.706
 7771SOL    HW124212   2.015   1.467   4.708
 7771SOL    HW224213   2.048   1.332   4.794
 7772SOL     OW24214   5.502   0.980   4.992
 7772SOL    HW124215   5.431   0.922   4.952
 7772SOL    HW224216   5.496   1.071   4.953
 7773SOL     OW24217   4.121   4.368   5.396
 7773SOL    HW124218   4.178   4.409   5.325
 7773SOL    HW224219   4.029   4.407   5.391
 7774SOL     OW24220   4.747   1.749   6.623
 7774SOL    HW124221   4.829   1.693   6.617
 7774SOL    HW224222   4.711   1.765   6.531
 7775SOL     OW24223   3.072   6.854   2.008
 7775SOL    HW124224   3.148   6.858   2.073
 7775SOL    HW224225   3.104   6.883   1.918
 7776SOL     OW24226   3.909   3.983   0.615
 7776SOL    HW124227   3.827   3.926   0.605
 7776SOL    HW224228   3.904   4.060   0.551
 7777SOL     OW24229   1.387   0.876   6.734
 7777SOL    HW124230   1.481   0.858   6.762
 7777SOL    HW224231   1.333   0.792   6.743
 7778SOL     OW24232   5.148   0.841   1.334
 7778SOL    HW124233   5.117   0.893   1.254
 7778SOL    HW224234   5.202   0.763   1.304
 7779SOL     OW24235   3.609   3.222   0.185
 7779SOL    HW124236   3.613   3.132   0.230
 7779SOL    HW224237   3.597   3.210   0.087
 7780SOL     OW24238   1.087   6.972   4.716
 7780SOL    HW124239   1.001   6.923   4.732
 7780SOL    HW224240   1.115   6.960   4.621
 7781SOL     OW24241   1.488   4.987   5.129
 7781SOL    HW124242   1.536   4.918   5.182
 7781SOL    HW224243   1.553   5.033   5.068
 7782SOL     OW24244   3.426   4.375   6.824
 7782SOL    HW124245   3.408   4.373   6.726
 7782SOL    HW224246   3.517   4.337   6.842
 7783SOL     OW24247   3.208   5.238   6.497
 7783SOL    HW124248   3.276   5.176   6.460
 7783SOL    HW224249   3.161   5.286   6.423
 7784SOL     OW24250   6.966   2.800   6.805
 7784SOL    HW124251   0.031   2.846   6.790
 7784SOL    HW224252   6.911   2.853   6.869
 7785SOL     OW24253   2.306   5.876   4.367
 7785SOL    HW124254   2.272   5.959   4.411
 7785SOL    HW224255   2.294   5.798   4.428
 7786SOL     OW24256   3.246   3.994   4.351
 7786SOL    HW124257   3.319   4.059   4.331
 7786SOL    HW224258   3.167   4.044   4.387
 7787SOL     OW24259   2.964   2.246   5.286
 7787SOL    HW124260   2.896   2.296   5.234
 7787SOL    HW224261   3.052   2.250   5.239
 7788SOL     OW24262   0.498   1.151   0.314
 7788SOL    HW124263   0.424   1.136   0.248
 7788SOL    HW224264   0.462   1.202   0.393
 7789SOL     OW24265   1.964   0.173   1.480
 7789SOL    HW124266   1.881   0.227   1.481
 7789SOL    HW224267   2.025   0.207   1.409
 7790SOL     OW24268   6.305   3.847   2.880
 7790SOL    HW124269   6.280   3.938   2.912
 7790SOL    HW224270   6.404   3.834   2.893
 7791SOL     OW24271   1.236   4.632   4.620
 7791SOL    HW124272   1.192   4.544   4.634
 7791SOL    HW224273   1.330   4.618   4.588
 7792SOL     OW24274   2.561   5.555   6.147
 7792SOL    HW124275   2.469   5.538   6.111
 7792SOL    HW224276   2.629   5.514   6.087
 7793SOL     OW24277   0.655   0.711   6.576
 7793SOL    HW124278   0.742   0.668   6.552
 7793SOL    HW224279   0.602   0.649   6.634
 7794SOL     OW24280   5.301   5.709   3.582
 7794SOL    HW124281   5.384   5.676   3.536
 7794SOL    HW224282   5.291   5.807   3.565
 7795SOL     OW24283   2.015   5.151   5.299
 7795SOL    HW124284   1.982   5.243   5.275
 7795SOL    HW224285   2.080   5.120   5.230
 7796SOL     OW24286   3.779   3.493   3.747
 7796SOL    HW124287   3.842   3.511   3.822
 7796SOL    HW224288   3.830   3.476   3.662
 7797SOL     OW24289   1.100   0.306   3.014
 7797SOL    HW124290   1.015   0.252   3.015
 7797SOL    HW224291   1.097   0.373   2.940
 7798SOL     OW24292   4.372   6.078   6.580
 7798SOL    HW124293   4.424   6.154   6.620
 7798SOL    HW224294   4.380   5.998   6.639
 7799SOL     OW24295   6.175   4.784   1.208
 7799SOL    HW124296   6.259   4.731   1.206
 7799SOL    HW224297   6.107   4.737   1.265
 7800SOL     OW24298   0.826   5.955   2.212
 7800SOL    HW124299   0.912   5.962   2.263
 7800SOL    HW224300   0.755   6.009   2.258
 7801SOL     OW24301   3.791   2.499   6.350
 7801SOL    HW124302   3.725   2.573   6.350
 7801SOL    HW224303   3.848   2.505   6.268
 7802SOL     OW24304   5.664   2.166   1.290
 7802SOL    HW124305   5.740   2.109   1.260
 7802SOL    HW224306   5.679   2.194   1.385
 7803SOL     OW24307   3.607   4.099   5.666
 7803SOL    HW124308   3.612   4.180   5.725
 7803SOL    HW224309   3.573   4.127   5.575
 7804SOL     OW24310   5.099   1.824   6.483
 7804SOL    HW124311   5.037   1.857   6.554
 7804SOL    HW224312   5.060   1.844   6.393
 7805SOL     OW24313   5.384   4.001   2.109
 7805SOL    HW124314   5.474   3.980   2.146
 7805SOL    HW224315   5.314   3.958   2.166
 7806SOL     OW24316   4.895   3.057   6.712
 7806SOL    HW124317   4.814   3.002   6.694
 7806SOL    HW224318   4.867   3.149   6.739
 7807SOL     OW24319   0.326   3.935   6.267
 7807SOL    HW124320   0.227   3.950   6.267
 7807SOL    HW224321   0.350   3.866   6.198
 7808SOL     OW24322   0.759   1.598   4.971
 7808SOL    HW124323   0.681   1.654   4.942
 7808SOL    HW224324   0.739   1.502   4.951
 7809SOL     OW24325   2.101   5.660   5.666
 7809SOL    HW124326   2.095   5.562   5.680
 7809SOL    HW224327   2.141   5.679   5.577
 7810SOL     OW24328   2.329   1.188   6.895
 7810SOL    HW124329   2.260   1.244   6.941
 7810SOL    HW224330   2.389   1.247   6.841
 7811SOL     OW24331   0.147   4.165   4.675
 7811SOL    HW124332   0.212   4.241   4.680
 7811SOL    HW224333   0.196   4.078   4.678
 7812SOL     OW24334   0.641   1.603   3.567
 7812SOL    HW124335   0.600   1.687   3.603
 7812SOL    HW224336   0.715   1.574   3.626
 7813SOL     OW24337   6.217   2.407   0.727
 7813SOL    HW124338   6.166   2.494   0.727
 7813SOL    HW224339   6.249   2.388   0.820
 7814SOL     OW24340   1.936   3.498   3.973
 7814SOL    HW124341   2.015   3.436   3.967
 7814SOL    HW224342   1.852   3.444   3.975
 7815SOL     OW24343   6.848   1.751   6.066
 7815SOL    HW124344   6.891   1.769   6.154
 7815SOL    HW224345   6.754   1.719   6.081
 7816SOL     OW24346   0.949   3.797   5.221
 7816SOL    HW124347   0.946   3.892   5.190
 7816SOL    HW224348   1.034   3.781   5.271
 7817SOL     OW24349   5.342   3.532   4.861
 7817SOL    HW124350   5.374   3.622   4.892
 7817SOL    HW224351   5.332   3.532   4.762
 7818SOL     OW24352   5.095   5.361   2.559
 7818SOL    HW124353   5.000   5.332   2.550
 7818SOL    HW224354   5.155   5.281   2.555
 7819SOL     OW24355   6.760   1.239   1.577
 7819SOL    HW124356   6.810   1.236   1.490
 7819SOL    HW224357   6.697   1.162   1.581
 7820SOL     OW24358   1.843   7.006   6.353
 7820SOL    HW124359   1.808   7.011   6.446
 7820SOL    HW224360   1.780   6.955   6.296
 7821SOL     OW24361   2.809   5.724   1.250
 7821SOL    HW124362   2.863   5.724   1.166
 7821SOL    HW224363   2.833   5.643   1.304
 7822SOL     OW24364   1.401   5.698   5.290
 7822SOL    HW124365   1.341   5.774   5.316
 7822SOL    HW224366   1.476   5.734   5.234
 7823SOL     OW24367   1.443   4.196   5.367
 7823SOL    HW124368   1.348   4.199   5.333
 7823SOL    HW224369   1.481   4.105   5.352
 7824SOL     OW24370   0.693   3.423   5.539
 7824SOL    HW124371   0.751   3.455   5.463
 7824SOL    HW224372   0.751   3.386   5.612
 7825SOL     OW24373   3.010   0.877   6.503
 7825SOL    HW124374   3.018   0.784   6.467
 7825SOL    HW224375   3.010   0.874   6.603
 7826SOL     OW24376   0.571   3.070   6.078
 7826SOL    HW124377   0.664   3.103   6.059
 7826SOL    HW224378   0.517   3.145   6.116
 7827SOL     OW24379   6.592   5.484   4.696
 7827SOL    HW124380   6.634   5.394   4.713
 7827SOL    HW224381   6.646   5.533   4.627
 7828SOL     OW24382   0.570   5.035   0.019
 7828SOL    HW124383   0.554   4.991   0.108
 7828SOL    HW224384   0.668   5.034   7.022
 7829SOL     OW24385   3.758   3.306   0.619
 7829SOL    HW124386   3.703   3.324   0.539
 7829SOL    HW224387   3.798   3.391   0.653
 7830SOL     OW24388   2.506   5.365   3.734
 7830SOL    HW124389   2.420   5.416   3.740
 7830SOL    HW224390   2.495   5.288   3.671
 7831SOL     OW24391   1.500   0.368   6.835
 7831SOL    HW124392   1.456   0.311   6.766
 7831SOL    HW224393   1.597   0.382   6.811
 7832SOL     OW24394   6.147   1.072   4.279
 7832SOL    HW124395   6.127   0.997   4.342
 7832SOL    HW224396   6.066   1.130   4.271
 7833SOL     OW24397   1.508   0.791   3.107
 7833SOL    HW124398   1.535   0.697   3.086
 7833SOL    HW224399   1.472   0.834   3.024
 7834SOL     OW24400   6.085   3.426   5.290
 7834SOL    HW124401   5.991   3.456   5.301
 7834SOL    HW224402   6.114   3.376   5.372
 7835SOL     OW24403   4.480   2.608   5.494
 7835SOL    HW124404   4.447   2.554   5.417
 7835SOL    HW224405   4.517   2.547   5.564
 7836SOL     OW24406   3.257   3.348   3.870
 7836SOL    HW124407   3.159   3.368   3.879
 7836SOL    HW224408   3.271   3.280   3.798
 7837SOL     OW24409   0.156   5.689   0.190
 7837SOL    HW124410   0.176   5.772   0.138
 7837SOL    HW224411   0.090   5.711   0.263
 7838SOL     OW24412   4.550   5.781   2.623
 7838SOL    HW124413   4.629   5.808   2.568
 7838SOL    HW224414   4.502   5.862   2.654
 7839SOL     OW24415   6.273   2.837   4.162
 7839SOL    HW124416   6.340   2.893   4.114
 7839SOL    HW224417   6.318   2.788   4.236
 7840SOL     OW24418   1.864   3.220   4.343
 7840SOL    HW124419   1.942   3.161   4.322
 7840SOL    HW224420   1.897   3.309   4.373
 7841SOL     OW24421   3.447   1.824   6.674
 7841SOL    HW124422   3.512   1.756   6.707
 7841SOL    HW224423   3.497   1.901   6.635
 7842SOL     OW24424   1.029   0.560   1.612
 7842SOL    HW124425   1.022   0.546   1.513
 7842SOL    HW224426   0.943   0.532   1.655
 7843SOL     OW24427   0.161   6.149   3.168
 7843SOL    HW124428   0.123   6.060   3.143
 7843SOL    HW224429   0.098   6.221   3.141
 7844SOL     OW24430   3.875   0.869   2.629
 7844SOL    HW124431   3.782   0.844   2.601
 7844SOL    HW224432   3.898   0.958   2.590
 7845SOL     OW24433   0.008   3.021   0.631
 7845SOL    HW124434   0.012   3.119   0.652
 7845SOL    HW224435   6.937   2.997   0.607
 7846SOL     OW24436   1.104   1.307   0.199
 7846SOL    HW124437   1.198   1.282   0.176
 7846SOL    HW224438   1.087   1.290   0.296
 7847SOL     OW24439   5.491   4.250   6.152
 7847SOL    HW124440   5.489   4.203   6.240
 7847SOL    HW224441   5.553   4.202   6.090
 7848SOL     OW24442   3.689   4.278   1.106
 7848SOL    HW124443   3.696   4.216   1.028
 7848SOL    HW224444   3.647   4.364   1.076
 7849SOL     OW24445   4.437   5.108   0.019
 7849SOL    HW124446   4.490   5.191   0.036
 7849SOL    HW224447   4.450   5.043   0.094
 7850SOL     OW24448   0.128   1.328   4.119
 7850SOL    HW124449   0.174   1.257   4.173
 7850SOL    HW224450   0.036   1.297   4.096
 7851SOL     OW24451   7.003   4.679   1.022
 7851SOL    HW124452   0.056   4.724   1.069
 7851SOL    HW224453   6.916   4.719   1.051
 7852SOL     OW24454   1.304   2.721   6.753
 7852SOL    HW124455   1.335   2.636   6.796
 7852SOL    HW224456   1.368   2.748   6.681
 7853SOL     OW24457   4.171   2.975   1.707
 7853SOL    HW124458   4.116   3.005   1.784
 7853SOL    HW224459   4.264   3.013   1.716
 7854SOL     OW24460   4.728   1.684   7.020
 7854SOL    HW124461   4.636   1.722   0.010
 7854SOL    HW224462   4.762   1.707   6.929
 7855SOL     OW24463   5.089   6.775   4.161
 7855SOL    HW124464   4.989   6.780   4.160
 7855SOL    HW224465   5.126   6.831   4.087
 7856SOL     OW24466   2.073   6.803   4.546
 7856SOL    HW124467   2.122   6.717   4.535
 7856SOL    HW224468   2.033   6.830   4.459
 7857SOL     OW24469   5.973   4.683   1.419
 7857SOL    HW124470   5.967   4.583   1.427
 7857SOL    HW224471   5.881   4.722   1.416
 7858SOL     OW24472   6.645   4.479   6.463
 7858SOL    HW124473   6.660   4.455   6.559
 7858SOL    HW224474   6.731   4.511   6.423
 7859SOL     OW24475   5.134   1.784   0.586
 7859SOL    HW124476   5.129   1.794   0.486
 7859SOL    HW224477   5.206   1.845   0.621
 7860SOL     OW24478   2.703   1.730   4.796
 7860SOL    HW124479   2.746   1.659   4.851
 7860SOL    HW224480   2.771   1.800   4.774
 7861SOL     OW24481   2.162   6.760   0.367
 7861SOL    HW124482   2.187   6.682   0.424
 7861SOL    HW224483   2.187   6.741   0.272
 7862SOL     OW24484   1.796   5.807   6.912
 7862SOL    HW124485   1.717   5.859   6.878
 7862SOL    HW224486   1.880   5.858   6.893
 7863SOL     OW24487   1.047   4.056   3.530
 7863SOL    HW124488   1.013   4.145   3.558
 7863SOL    HW224489   1.008   3.985   3.589
 7864SOL     OW24490   2.267   6.335   5.493
 7864SOL    HW124491   2.336   6.313   5.425
 7864SOL    HW224492   2.182   6.363   5.448
 7865SOL     OW24493   5.561   4.273   3.216
 7865SOL    HW124494   5.646   4.271   3.162
 7865SOL    HW224495   5.519   4.363   3.207
 7866SOL     OW24496   0.803   1.090   5.988
 7866SOL    HW124497   0.731   1.115   5.922
 7866SOL    HW224498   0.879   1.156   5.980
 7867SOL     OW24499   4.394   4.903   3.496
 7867SOL    HW124500   4.424   4.960   3.420
 7867SOL    HW224501   4.392   4.957   3.580
 7868SOL     OW24502   2.928   6.295   1.414
 7868SOL    HW124503   2.935   6.245   1.501
 7868SOL    HW224504   3.019   6.308   1.376
 7869SOL     OW24505   5.656   4.455   6.882
 7869SOL    HW124506   5.566   4.482   6.917
 7869SOL    HW224507   5.653   4.359   6.854
 7870SOL     OW24508   5.688   5.968   4.373
 7870SOL    HW124509   5.758   6.002   4.311
 7870SOL    HW224510   5.608   5.939   4.321
 7871SOL     OW24511   4.973   1.324   0.196
 7871SOL    HW124512   4.953   1.319   0.294
 7871SOL    HW224513   5.048   1.263   0.173
 7872SOL     OW24514   1.531   5.792   3.309
 7872SOL    HW124515   1.562   5.865   3.370
 7872SOL    HW224516   1.610   5.745   3.271
 7873SOL     OW24517   4.793   1.852   0.298
 7873SOL    HW124518   4.707   1.899   0.319
 7873SOL    HW224519   4.775   1.755   0.282
 7874SOL     OW24520   6.075   2.651   0.696
 7874SOL    HW124521   6.069   2.624   0.792
 7874SOL    HW224522   6.048   2.747   0.686
 7875SOL     OW24523   5.912   4.488   5.982
 7875SOL    HW124524   6.005   4.466   6.013
 7875SOL    HW224525   5.907   4.479   5.883
 7876SOL     OW24526   0.950   0.172   3.858
 7876SOL    HW124527   0.985   0.203   3.946
 7876SOL    HW224528   0.856   0.204   3.846
 7877SOL     OW24529   6.909   2.732   3.286
 7877SOL    HW124530   6.838   2.663   3.300
 7877SOL    HW224531   6.867   2.819   3.261
 7878SOL     OW24532   4.101   5.510   3.189
 7878SOL    HW124533   4.011   5.470   3.205
 7878SOL    HW224534   4.093   5.610   3.185
 7879SOL     OW24535   2.991   4.820   3.245
 7879SOL    HW124536   3.006   4.866   3.333
 7879SOL    HW224537   2.897   4.787   3.240
 7880SOL     OW24538   1.168   4.733   2.138
 7880SOL    HW124539   1.102   4.661   2.114
 7880SOL    HW224540   1.261   4.700   2.118
 7881SOL     OW24541   4.788   4.033   3.436
 7881SOL    HW124542   4.854   3.995   3.371
 7881SOL    HW224543   4.830   4.109   3.486
 7882SOL     OW24544   0.996   3.560   6.972
 7882SOL    HW124545   1.029   3.468   6.951
 7882SOL    HW224546   0.950   3.559   0.039
 7883SOL     OW24547   0.752   0.853   5.254
 7883SOL    HW124548   0.707   0.796   5.187
 7883SOL    HW224549   0.684   0.896   5.314
 7884SOL     OW24550   1.242   2.601   4.644
 7884SOL    HW124551   1.318   2.666   4.647
 7884SOL    HW224552   1.182   2.623   4.567
 7885SOL     OW24553   6.559   6.210   6.644
 7885SOL    HW124554   6.476   6.167   6.680
 7885SOL    HW224555   6.536   6.266   6.565
 7886SOL     OW24556   5.169   4.426   0.632
 7886SOL    HW124557   5.098   4.434   0.563
 7886SOL    HW224558   5.227   4.507   0.629
 7887SOL     OW24559   4.892   2.897   6.153
 7887SOL    HW124560   4.874   2.844   6.236
 7887SOL    HW224561   4.816   2.960   6.137
 7888SOL     OW24562   5.382   6.535   4.402
 7888SOL    HW124563   5.470   6.546   4.449
 7888SOL    HW224564   5.359   6.437   4.398
 7889SOL     OW24565   0.298   4.944   2.787
 7889SOL    HW124566   0.233   4.979   2.719
 7889SOL    HW224567   0.303   5.007   2.864
 7890SOL     OW24568   2.067   2.672   2.510
 7890SOL    HW124569   2.131   2.700   2.581
 7890SOL    HW224570   2.117   2.657   2.424
 7891SOL     OW24571   0.910   4.646   2.804
 7891SOL    HW124572   1.000   4.659   2.846
 7891SOL    HW224573   0.848   4.603   2.870
 7892SOL     OW24574   2.092   2.462   6.154
 7892SOL    HW124575   2.125   2.378   6.112
 7892SOL    HW224576   2.152   2.538   6.129
 7893SOL     OW24577   6.052   6.276   1.842
 7893SOL    HW124578   6.045   6.201   1.776
 7893SOL    HW224579   6.008   6.358   1.804
 7894SOL     OW24580   2.960   6.882   1.543
 7894SOL    HW124581   2.938   6.786   1.524
 7894SOL    HW224582   2.892   6.921   1.605
 7895SOL     OW24583   6.821   1.269   3.308
 7895SOL    HW124584   6.895   1.213   3.271
 7895SOL    HW224585   6.857   1.357   3.338
 7896SOL     OW24586   4.443   1.573   6.484
 7896SOL    HW124587   4.445   1.550   6.581
 7896SOL    HW224588   4.349   1.568   6.450
 7897SOL     OW24589   2.960   2.789   6.597
 7897SOL    HW124590   3.015   2.828   6.522
 7897SOL    HW224591   2.960   2.852   6.674
 7898SOL     OW24592   4.626   2.094   3.379
 7898SOL    HW124593   4.648   2.078   3.283
 7898SOL    HW224594   4.710   2.093   3.433
 7899SOL     OW24595   4.518   1.286   2.954
 7899SOL    HW124596   4.581   1.332   3.016
 7899SOL    HW224597   4.510   1.190   2.979
 7900SOL     OW24598   1.406   5.033   0.810
 7900SOL    HW124599   1.485   5.075   0.764
 7900SOL    HW224600   1.359   5.103   0.864
 7901SOL     OW24601   5.733   5.311   1.056
 7901SOL    HW124602   5.638   5.337   1.074
 7901SOL    HW224603   5.736   5.219   1.018
 7902SOL     OW24604   4.801   4.957   6.065
 7902SOL    HW124605   4.788   5.038   6.123
 7902SOL    HW224606   4.747   4.881   6.102
 7903SOL     OW24607   0.209   2.622   6.946
 7903SOL    HW124608   0.228   2.714   6.911
 7903SOL    HW224609   0.289   2.564   6.932
 7904SOL     OW24610   6.366   1.263   2.200
 7904SOL    HW124611   6.412   1.347   2.170
 7904SOL    HW224612   6.412   1.184   2.161
 7905SOL     OW24613   2.719   2.160   1.266
 7905SOL    HW124614   2.666   2.164   1.350
 7905SOL    HW224615   2.657   2.145   1.189
 7906SOL     OW24616   0.459   5.200   0.326
 7906SOL    HW124617   0.516   5.263   0.274
 7906SOL    HW224618   0.362   5.223   0.313
 7907SOL     OW24619   5.840   2.946   2.017
 7907SOL    HW124620   5.923   2.920   2.065
 7907SOL    HW224621   5.762   2.944   2.080
 7908SOL     OW24622   6.334   1.509   3.049
 7908SOL    HW124623   6.324   1.592   3.103
 7908SOL    HW224624   6.306   1.430   3.103
 7909SOL     OW24625   4.462   5.722   5.173
 7909SOL    HW124626   4.427   5.782   5.101
 7909SOL    HW224627   4.478   5.776   5.256
 7910SOL     OW24628   5.913   3.628   6.224
 7910SOL    HW124629   5.967   3.596   6.146
 7910SOL    HW224630   5.950   3.715   6.257
 7911SOL     OW24631   6.923   4.956   6.970
 7911SOL    HW124632   7.019   4.928   6.982
 7911SOL    HW224633   6.880   4.966   0.037
 7912SOL     OW24634   0.088   5.414   5.621
 7912SOL    HW124635   0.064   5.394   5.715
 7912SOL    HW224636   0.011   5.460   5.575
 7913SOL     OW24637   0.873   6.198   6.610
 7913SOL    HW124638   0.958   6.161   6.574
 7913SOL    HW224639   0.847   6.279   6.558
 7914SOL     OW24640   6.752   3.426   1.961
 7914SOL    HW124641   6.654   3.417   1.978
 7914SOL    HW224642   6.766   3.489   1.884
 7915SOL     OW24643   4.296   0.894   2.112
 7915SOL    HW124644   4.222   0.961   2.122
 7915SOL    HW224645   4.359   0.901   2.189
 7916SOL     OW24646   5.068   3.738   5.433
 7916SOL    HW124647   5.006   3.660   5.441
 7916SOL    HW224648   5.129   3.725   5.355
 7917SOL     OW24649   3.394   4.085   3.501
 7917SOL    HW124650   3.310   4.087   3.554
 7917SOL    HW224651   3.471   4.060   3.560
 7918SOL     OW24652   6.376   2.390   2.159
 7918SOL    HW124653   6.456   2.344   2.199
 7918SOL    HW224654   6.350   2.343   2.074
 7919SOL     OW24655   6.301   4.736   1.921
 7919SOL    HW124656   6.308   4.790   2.006
 7919SOL    HW224657   6.215   4.758   1.875
 7920SOL     OW24658   0.509   6.342   2.173
 7920SOL    HW124659   0.412   6.356   2.192
 7920SOL    HW224660   0.520   6.301   2.083
 7921SOL     OW24661   2.935   6.241   2.081
 7921SOL    HW124662   2.872   6.191   2.141
 7921SOL    HW224663   3.014   6.184   2.060
 7922SOL     OW24664   0.841   5.017   6.183
 7922SOL    HW124665   0.891   5.103   6.193
 7922SOL    HW224666   0.903   4.945   6.152
 7923SOL     OW24667   0.686   1.863   3.034
 7923SOL    HW124668   0.745   1.926   3.084
 7923SOL    HW224669   0.733   1.775   3.023
 7924SOL     OW24670   2.391   1.267   3.572
 7924SOL    HW124671   2.429   1.263   3.665
 7924SOL    HW224672   2.359   1.359   3.553
 7925SOL     OW24673   0.595   1.132   6.398
 7925SOL    HW124674   0.672   1.075   6.426
 7925SOL    HW224675   0.511   1.079   6.402
 7926SOL     OW24676   3.400   6.879   1.766
 7926SOL    HW124677   3.305   6.899   1.787
 7926SOL    HW224678   3.447   6.963   1.739
 7927SOL     OW24679   4.865   4.470   4.223
 7927SOL    HW124680   4.927   4.501   4.296
 7927SOL    HW224681   4.891   4.378   4.194
 7928SOL     OW24682   0.965   4.762   6.715
 7928SOL    HW124683   0.975   4.750   6.616
 7928SOL    HW224684   0.917   4.682   6.753
 7929SOL     OW24685   4.053   3.773   4.288
 7929SOL    HW124686   4.126   3.800   4.225
 7929SOL    HW224687   4.082   3.691   4.338
 7930SOL     OW24688   5.287   6.024   4.062
 7930SOL    HW124689   5.292   6.123   4.072
 7930SOL    HW224690   5.239   6.001   3.977
 7931SOL     OW24691   2.317   3.275   0.009
 7931SOL    HW124692   2.332   3.244   6.937
 7931SOL    HW224693   2.403   3.268   0.060
 7932SOL     OW24694   3.067   6.729   0.837
 7932SOL    HW124695   2.988   6.753   0.780
 7932SOL    HW224696   3.069   6.790   0.917
 7933SOL     OW24697   1.264   1.052   6.044
 7933SOL    HW124698   1.276   1.120   5.972
 7933SOL    HW224699   1.259   1.097   6.133
 7934SOL     OW24700   4.003   2.889   5.620
 7934SOL    HW124701   4.060   2.816   5.658
 7934SOL    HW224702   3.992   2.961   5.688
 7935SOL     OW24703   4.999   5.852   1.468
 7935SOL    HW124704   5.067   5.913   1.427
 7935SOL    HW224705   5.042   5.798   1.540
 7936SOL     OW24706   4.325   5.925   3.034
 7936SOL    HW124707   4.272   6.010   3.039
 7936SOL    HW224708   4.287   5.865   2.965
 7937SOL     OW24709   6.521   0.151   5.876
 7937SOL    HW124710   6.518   0.060   5.835
 7937SOL    HW224711   6.562   0.145   5.967
 7938SOL     OW24712   6.020   4.890   4.408
 7938SOL    HW124713   6.031   4.868   4.505
 7938SOL    HW224714   6.005   4.988   4.398
 7939SOL     OW24715   0.474   6.990   4.421
 7939SOL    HW124716   0.388   6.966   4.377
 7939SOL    HW224717   0.523   6.907   4.448
 7940SOL     OW24718   1.809   6.019   0.523
 7940SOL    HW124719   1.888   6.027   0.584
 7940SOL    HW224720   1.832   5.959   0.446
 7941SOL     OW24721   0.044   0.549   0.636
 7941SOL    HW124722   6.968   0.547   0.621
 7941SOL    HW224723   0.071   0.467   0.687
 7942SOL     OW24724   1.444   1.306   1.017
 7942SOL    HW124725   1.509   1.375   0.984
 7942SOL    HW224726   1.382   1.280   0.943
 7943SOL     OW24727   5.784   2.046   0.131
 7943SOL    HW124728   5.761   2.023   0.036
 7943SOL    HW224729   5.876   2.085   0.135
 7944SOL     OW24730   0.084   3.548   2.606
 7944SOL    HW124731   0.054   3.562   2.512
 7944SOL    HW224732   0.007   3.515   2.661
 7945SOL     OW24733   5.512   6.839   1.124
 7945SOL    HW124734   5.466   6.753   1.145
 7945SOL    HW224735   5.447   6.901   1.081
 7946SOL     OW24736   1.412   1.847   6.057
 7946SOL    HW124737   1.450   1.897   6.135
 7946SOL    HW224738   1.313   1.841   6.066
 7947SOL     OW24739   4.434   4.851   5.961
 7947SOL    HW124740   4.363   4.781   5.954
 7947SOL    HW224741   4.477   4.847   6.051
 7948SOL     OW24742   0.643   4.931   6.358
 7948SOL    HW124743   0.710   4.966   6.293
 7948SOL    HW224744   0.671   4.841   6.390
 7949SOL     OW24745   6.664   3.984   4.028
 7949SOL    HW124746   6.616   3.896   4.031
 7949SOL    HW224747   6.608   4.054   4.072
 7950SOL     OW24748   3.428   4.893   4.325
 7950SOL    HW124749   3.439   4.866   4.229
 7950SOL    HW224750   3.334   4.877   4.354
 7951SOL     OW24751   3.440   3.689   0.796
 7951SOL    HW124752   3.350   3.732   0.797
 7951SOL    HW224753   3.466   3.663   0.889
 7952SOL     OW24754   5.056   5.127   0.218
 7952SOL    HW124755   5.045   5.190   0.142
 7952SOL    HW224756   5.112   5.170   0.289
 7953SOL     OW24757   2.195   2.950   3.108
 7953SOL    HW124758   2.182   3.029   3.169
 7953SOL    HW224759   2.111   2.933   3.057
 7954SOL     OW24760   5.137   5.342   4.818
 7954SOL    HW124761   5.048   5.341   4.773
 7954SOL    HW224762   5.164   5.249   4.841
 7955SOL     OW24763   1.440   0.265   6.215
 7955SOL    HW124764   1.423   0.362   6.230
 7955SOL    HW224765   1.516   0.235   6.273
 7956SOL     OW24766   6.100   0.382   3.712
 7956SOL    HW124767   6.179   0.333   3.673
 7956SOL    HW224768   6.037   0.406   3.638
 7957SOL     OW24769   0.786   2.420   1.040
 7957SOL    HW124770   0.776   2.378   1.130
 7957SOL    HW224771   0.739   2.509   1.040
 7958SOL     OW24772   1.779   5.429   3.523
 7958SOL    HW124773   1.750   5.513   3.570
 7958SOL    HW224774   1.878   5.419   3.533
 7959SOL     OW24775   4.834   5.162   0.619
 7959SOL    HW124776   4.760   5.218   0.656
 7959SOL    HW224777   4.848   5.185   0.523
 7960SOL     OW24778   2.110   2.778   0.795
 7960SOL    HW124779   2.182   2.716   0.766
 7960SOL    HW224780   2.143   2.836   0.870
 7961SOL     OW24781   1.724   5.566   0.018
 7961SOL    HW124782   1.739   5.586   0.115
 7961SOL    HW224783   1.731   5.650   6.987
 7962SOL     OW24784   1.667   0.059   2.046
 7962SOL    HW124785   1.633   0.151   2.066
 7962SOL    HW224786   1.590   7.021   2.028
 7963SOL     OW24787   0.899   6.781   4.675
 7963SOL    HW124788   0.980   6.727   4.650
 7963SOL    HW224789   0.877   6.765   4.771
 7964SOL     OW24790   6.367   5.835   3.342
 7964SOL    HW124791   6.285   5.792   3.305
 7964SOL    HW224792   6.354   5.852   3.440
 7965SOL     OW24793   5.622   1.922   0.774
 7965SOL    HW124794   5.661   1.936   0.683
 7965SOL    HW224795   5.654   1.995   0.835
 7966SOL     OW24796   6.548   6.368   3.595
 7966SOL    HW124797   6.585   6.449   3.551
 7966SOL    HW224798   6.546   6.292   3.530
 7967SOL     OW24799   2.860   6.898   3.177
 7967SOL    HW124800   2.822   6.986   3.208
 7967SOL    HW224801   2.860   6.895   3.077
 7968SOL     OW24802   2.192   0.511   1.178
 7968SOL    HW124803   2.128   0.583   1.154
 7968SOL    HW224804   2.266   0.549   1.232
 7969SOL     OW24805   3.224   1.759   3.453
 7969SOL    HW124806   3.146   1.697   3.460
 7969SOL    HW224807   3.234   1.789   3.358
 7970SOL     OW24808   0.554   5.158   3.387
 7970SOL    HW124809   0.483   5.089   3.399
 7970SOL    HW224810   0.614   5.159   3.467
 7971SOL     OW24811   2.659   1.544   1.925
 7971SOL    HW124812   2.605   1.623   1.953
 7971SOL    HW224813   2.735   1.532   1.989
 7972SOL     OW24814   0.373   5.232   1.636
 7972SOL    HW124815   0.279   5.266   1.623
 7972SOL    HW224816   0.370   5.141   1.677
 7973SOL     OW24817   4.595   2.120   2.547
 7973SOL    HW124818   4.601   2.025   2.578
 7973SOL    HW224819   4.650   2.178   2.607
 7974SOL     OW24820   5.513   6.919   3.989
 7974SOL    HW124821   5.423   6.940   4.027
 7974SOL    HW224822   5.514   6.825   3.955
 7975SOL     OW24823   2.326   0.709   2.807
 7975SOL    HW124824   2.417   0.749   2.823
 7975SOL    HW224825   2.302   0.719   2.711
 7976SOL     OW24826   0.757   6.246   6.218
 7976SOL    HW124827   0.659   6.230   6.204
 7976SOL    HW224828   0.782   6.334   6.179
 7977SOL     OW24829   4.760   6.465   1.375
 7977SOL    HW124830   4.747   6.395   1.445
 7977SOL    HW224831   4.671   6.496   1.341
 7978SOL     OW24832   3.829   2.557   5.844
 7978SOL    HW124833   3.756   2.529   5.907
 7978SOL    HW224834   3.889   2.479   5.826
 7979SOL     OW24835   4.615   6.969   4.238
 7979SOL    HW124836   4.707   6.960   4.202
 7979SOL    HW224837   4.590   0.043   4.243
 7980SOL     OW24838   2.540   0.503   1.998
 7980SOL    HW124839   2.629   0.460   2.011
 7980SOL    HW224840   2.552   0.601   1.980
 7981SOL     OW24841   1.194   6.187   3.068
 7981SOL    HW124842   1.265   6.225   3.009
 7981SOL    HW224843   1.234   6.117   3.127
 7982SOL     OW24844   0.337   2.277   0.423
 7982SOL    HW124845   0.247   2.317   0.403
 7982SOL    HW224846   0.332   2.178   0.414
 7983SOL     OW24847   4.606   2.535   2.173
 7983SOL    HW124848   4.658   2.613   2.137
 7983SOL    HW224849   4.637   2.515   2.266
 7984SOL     OW24850   0.097   0.374   0.159
 7984SOL    HW124851   0.036   0.339   0.231
 7984SOL    HW224852   0.144   0.456   0.193
 7985SOL     OW24853   0.278   1.046   1.251
 7985SOL    HW124854   0.264   0.947   1.238
 7985SOL    HW224855   0.376   1.066   1.249
 7986SOL     OW24856   4.546   2.676   0.073
 7986SOL    HW124857   4.607   2.685   7.017
 7986SOL    HW224858   4.496   2.762   0.086
 7987SOL     OW24859   0.668   2.662   4.541
 7987SOL    HW124860   0.735   2.731   4.569
 7987SOL    HW224861   0.602   2.703   4.478
 7988SOL     OW24862   2.906   2.099   5.799
 7988SOL    HW124863   2.947   2.010   5.780
 7988SOL    HW224864   2.887   2.147   5.713
 7989SOL     OW24865   3.521   3.529   5.597
 7989SOL    HW124866   3.531   3.468   5.519
 7989SOL    HW224867   3.495   3.620   5.565
 7990SOL     OW24868   2.124   2.692   4.953
 7990SOL    HW124869   2.194   2.686   5.025
 7990SOL    HW224870   2.165   2.672   4.864
 7991SOL     OW24871   0.617   3.081   4.756
 7991SOL    HW124872   0.631   3.063   4.659
 7991SOL    HW224873   0.705   3.103   4.799
 7992SOL     OW24874   2.262   0.695   0.521
 7992SOL    HW124875   2.173   0.719   0.562
 7992SOL    HW224876   2.292   0.607   0.559
 7993SOL     OW24877   2.123   6.620   6.116
 7993SOL    HW124878   2.054   6.577   6.058
 7993SOL    HW224879   2.099   6.606   6.212
 7994SOL     OW24880   5.791   0.793   4.336
 7994SOL    HW124881   5.844   0.851   4.397
 7994SOL    HW224882   5.731   0.733   4.389
 7995SOL     OW24883   4.498   5.823   3.510
 7995SOL    HW124884   4.461   5.884   3.580
 7995SOL    HW224885   4.423   5.779   3.461
 7996SOL     OW24886   3.935   0.795   5.289
 7996SOL    HW124887   3.904   0.883   5.324
 7996SOL    HW224888   3.951   0.802   5.190
 7997SOL     OW24889   5.356   2.635   2.292
 7997SOL    HW124890   5.283   2.699   2.269
 7997SOL    HW224891   5.317   2.547   2.318
 7998SOL     OW24892   5.936   4.876   6.606
 7998SOL    HW124893   5.853   4.923   6.635
 7998SOL    HW224894   5.929   4.779   6.629
 7999SOL     OW24895   1.252   0.474   5.508
 7999SOL    HW124896   1.253   0.399   5.574
 7999SOL    HW224897   1.338   0.526   5.515
 8000SOL     OW24898   5.457   0.099   5.896
 8000SOL    HW124899   5.496   0.007   5.895
 8000SOL    HW224900   5.531   0.166   5.892
 8001SOL     OW24901   2.594   6.464   1.169
 8001SOL    HW124902   2.503   6.424   1.173
 8001SOL    HW224903   2.634   6.466   1.260
 8002SOL     OW24904   5.275   2.976   5.661
 8002SOL    HW124905   5.188   2.990   5.614
 8002SOL    HW224906   5.272   3.022   5.750
 8003SOL     OW24907   3.938   5.693   3.906
 8003SOL    HW124908   3.943   5.753   3.986
 8003SOL    HW224909   3.908   5.746   3.827
 8004SOL     OW24910   1.246   4.179   2.683
 8004SOL    HW124911   1.325   4.166   2.622
 8004SOL    HW224912   1.260   4.126   2.766
 8005SOL     OW24913   2.866   0.563   2.298
 8005SOL    HW124914   2.947   0.513   2.267
 8005SOL    HW224915   2.784   0.517   2.263
 8006SOL     OW24916   3.601   6.437   0.918
 8006SOL    HW124917   3.663   6.448   0.840
 8006SOL    HW224918   3.604   6.518   0.975
 8007SOL     OW24919   0.267   1.112   4.237
 8007SOL    HW124920   0.293   1.063   4.154
 8007SOL    HW224921   0.347   1.158   4.275
 8008SOL     OW24922   5.911   5.317   0.575
 8008SOL    HW124923   5.889   5.222   0.595
 8008SOL    HW224924   5.909   5.371   0.660
 8009SOL     OW24925   6.701   0.012   3.961
 8009SOL    HW124926   6.676   6.960   4.022
 8009SOL    HW224927   6.667   7.015   3.869
 8010SOL     OW24928   1.702   2.938   6.926
 8010SOL    HW124929   1.646   3.018   6.905
 8010SOL    HW224930   1.645   2.856   6.926
 8011SOL     OW24931   2.232   2.366   0.817
 8011SOL    HW124932   2.147   2.414   0.837
 8011SOL    HW224933   2.290   2.367   0.898
 8012SOL     OW24934   3.098   0.128   3.323
 8012SOL    HW124935   3.113   0.177   3.409
 8012SOL    HW224936   3.120   0.031   3.335
 8013SOL     OW24937   5.937   5.491   5.057
 8013SOL    HW124938   5.987   5.551   4.994
 8013SOL    HW224939   5.946   5.397   5.026
 8014SOL     OW24940   1.984   0.506   6.741
 8014SOL    HW124941   1.984   0.422   6.796
 8014SOL    HW224942   2.052   0.498   6.668
 8015SOL     OW24943   1.546   2.146   6.558
 8015SOL    HW124944   1.620   2.208   6.532
 8015SOL    HW224945   1.527   2.156   6.656
 8016SOL     OW24946   3.613   6.846   1.482
 8016SOL    HW124947   3.515   6.842   1.466
 8016SOL    HW224948   3.636   6.932   1.526
 8017SOL     OW24949   5.635   4.147   5.172
 8017SOL    HW124950   5.731   4.169   5.192
 8017SOL    HW224951   5.619   4.050   5.185
 8018SOL     OW24952   5.394   2.703   4.447
 8018SOL    HW124953   5.428   2.621   4.493
 8018SOL    HW224954   5.294   2.704   4.450
 8019SOL     OW24955   2.412   5.164   1.555
 8019SOL    HW124956   2.450   5.255   1.567
 8019SOL    HW224957   2.341   5.166   1.485
 8020SOL     OW24958   5.796   6.487   6.187
 8020SOL    HW124959   5.818   6.550   6.262
 8020SOL    HW224960   5.754   6.405   6.225
 8021SOL     OW24961   0.523   0.897   0.744
 8021SOL    HW124962   0.598   0.840   0.777
 8021SOL    HW224963   0.542   0.925   0.650
 8022SOL     OW24964   4.362   5.760   3.279
 8022SOL    HW124965   4.363   5.824   3.202
 8022SOL    HW224966   4.292   5.691   3.265
 8023SOL     OW24967   6.293   6.704   3.774
 8023SOL    HW124968   6.218   6.647   3.810
 8023SOL    HW224969   6.378   6.651   3.774
 8024SOL     OW24970   4.912   5.315   4.673
 8024SOL    HW124971   4.974   5.356   4.607
 8024SOL    HW224972   4.841   5.263   4.624
 8025SOL     OW24973   3.065   6.151   0.385
 8025SOL    HW124974   3.083   6.056   0.361
 8025SOL    HW224975   3.151   6.197   0.408
 8026SOL     OW24976   1.943   2.818   0.615
 8026SOL    HW124977   2.007   2.795   0.689
 8026SOL    HW224978   1.855   2.775   0.634
 8027SOL     OW24979   5.147   3.424   5.689
 8027SOL    HW124980   5.219   3.479   5.731
 8027SOL    HW224981   5.106   3.364   5.757
 8028SOL     OW24982   5.201   5.251   0.398
 8028SOL    HW124983   5.300   5.264   0.400
 8028SOL    HW224984   5.161   5.284   0.484
 8029SOL     OW24985   3.105   4.662   0.515
 8029SOL    HW124986   3.012   4.625   0.525
 8029SOL    HW224987   3.099   4.761   0.499
 8030SOL     OW24988   5.639   3.748   6.921
 8030SOL    HW124989   5.612   3.773   7.014
 8030SOL    HW224990   5.721   3.798   6.895
 8031SOL     OW24991   3.472   5.991   1.389
 8031SOL    HW124992   3.471   5.982   1.289
 8031SOL    HW224993   3.561   6.025   1.419
 8032SOL     OW24994   4.790   4.758   5.625
 8032SOL    HW124995   4.863   4.720   5.681
 8032SOL    HW224996   4.707   4.702   5.636
 8033SOL     OW24997   6.078   2.165   0.802
 8033SOL    HW124998   6.029   2.185   0.887
 8033SOL    HW224999   6.119   2.249   0.767
 8034SOL     OW25000   6.021   1.139   4.955
 8034SOL    HW125001   6.100   1.193   4.984
 8034SOL    HW225002   5.993   1.168   4.863
 8035SOL     OW25003   5.578   5.823   0.198
 8035SOL    HW125004   5.668   5.822   0.241
 8035SOL    HW225005   5.512   5.868   0.258
 8036SOL     OW25006   1.992   4.642   1.436
 8036SOL    HW125007   1.903   4.668   1.398
 8036SOL    HW225008   2.003   4.685   1.526
 8037SOL     OW25009   2.089   3.455   1.081
 8037SOL    HW125010   2.099   3.365   1.040
 8037SOL    HW225011   2.010   3.456   1.141
 8038SOL     OW25012   6.872   1.522   3.751
 8038SOL    HW125013   6.933   1.455   3.707
 8038SOL    HW225014   6.892   1.525   3.849
 8039SOL     OW25015   3.050   6.747   4.752
 8039SOL    HW125016   2.988   6.759   4.675
 8039SOL    HW225017   3.144   6.751   4.720
 8040SOL     OW25018   6.569   5.698   1.069
 8040SOL    HW125019   6.621   5.613   1.061
 8040SOL    HW225020   6.604   5.766   1.004
 8041SOL     OW25021   3.876   2.015   0.748
 8041SOL    HW125022   3.787   2.023   0.794
 8041SOL    HW225023   3.908   1.921   0.755
 8042SOL     OW25024   2.675   3.718   0.898
 8042SOL    HW125025   2.593   3.680   0.941
 8042SOL    HW225026   2.688   3.675   0.808
 8043SOL     OW25027   2.556   0.133   1.232
 8043SOL    HW125028   2.522   0.043   1.204
 8043SOL    HW225029   2.613   0.124   1.313
 8044SOL     OW25030   3.260   4.224   1.721
 8044SOL    HW125031   3.292   4.149   1.778
 8044SOL    HW225032   3.317   4.305   1.737
 8045SOL     OW25033   6.371   3.123   3.543
 8045SOL    HW125034   6.371   3.058   3.619
 8045SOL    HW225035   6.334   3.080   3.461
 8046SOL     OW25036   0.117   5.148   6.107
 8046SOL    HW125037   0.130   5.070   6.167
 8046SOL    HW225038   0.019   5.162   6.092
 8047SOL     OW25039   2.789   6.273   4.111
 8047SOL    HW125040   2.807   6.322   4.026
 8047SOL    HW225041   2.719   6.203   4.094
 8048SOL     OW25042   6.696   0.796   5.952
 8048SOL    HW125043   6.734   0.707   5.979
 8048SOL    HW225044   6.679   0.797   5.854
 8049SOL     OW25045   1.605   6.027   0.719
 8049SOL    HW125046   1.660   6.014   0.636
 8049SOL    HW225047   1.546   5.948   0.732
 8050SOL     OW25048   0.915   3.026   0.959
 8050SOL    HW125049   0.948   3.101   0.900
 8050SOL    HW225050   0.880   2.952   0.901
 8051SOL     OW25051   3.498   1.725   3.871
 8051SOL    HW125052   3.421   1.686   3.923
 8051SOL    HW225053   3.465   1.758   3.783
 8052SOL     OW25054   3.291   2.094   3.023
 8052SOL    HW125055   3.280   2.115   3.120
 8052SOL    HW225056   3.226   2.147   2.969
 8053SOL     OW25057   3.851   3.366   1.850
 8053SOL    HW125058   3.800   3.406   1.774
 8053SOL    HW225059   3.861   3.434   1.923
 8054SOL     OW25060   4.307   5.886   4.010
 8054SOL    HW125061   4.259   5.815   4.061
 8054SOL    HW225062   4.402   5.858   3.995
 8055SOL     OW25063   1.150   6.777   5.099
 8055SOL    HW125064   1.177   6.790   5.004
 8055SOL    HW225065   1.232   6.770   5.156
 8056SOL     OW25066   4.185   1.636   3.063
 8056SOL    HW125067   4.264   1.589   3.022
 8056SOL    HW225068   4.105   1.577   3.056
 8057SOL     OW25069   3.718   0.287   3.572
 8057SOL    HW125070   3.777   0.278   3.492
 8057SOL    HW225071   3.651   0.360   3.556
 8058SOL     OW25072   2.190   6.858   3.293
 8058SOL    HW125073   2.252   6.889   3.365
 8058SOL    HW225074   2.181   6.929   3.223
 8059SOL     OW25075   2.672   1.378   4.209
 8059SOL    HW125076   2.610   1.455   4.224
 8059SOL    HW225077   2.761   1.412   4.178
 8060SOL     OW25078   0.704   1.941   5.054
 8060SOL    HW125079   0.783   1.975   5.106
 8060SOL    HW225080   0.736   1.878   4.983
 8061SOL     OW25081   6.916   5.906   1.754
 8061SOL    HW125082   6.889   5.815   1.786
 8061SOL    HW225083   6.966   5.953   1.827
 8062SOL     OW25084   2.080   3.563   2.154
 8062SOL    HW125085   2.054   3.654   2.186
 8062SOL    HW225086   2.145   3.572   2.079
 8063SOL     OW25087   2.746   3.432   6.940
 8063SOL    HW125088   2.727   3.477   6.853
 8063SOL    HW225089   2.717   3.491   7.015
 8064SOL     OW25090   6.009   3.109   7.008
 8064SOL    HW125091   6.002   3.030   6.947
 8064SOL    HW225092   5.940   3.177   6.984
 8065SOL     OW25093   4.398   6.984   6.289
 8065SOL    HW125094   4.320   0.008   6.331
 8065SOL    HW225095   4.399   7.001   6.191
 8066SOL     OW25096   2.611   0.204   1.762
 8066SOL    HW125097   2.702   0.246   1.772
 8066SOL    HW225098   2.596   0.141   1.838
 8067SOL     OW25099   4.992   1.936   2.080
 8067SOL    HW125100   4.963   2.027   2.049
 8067SOL    HW225101   5.078   1.944   2.130
 8068SOL     OW25102   6.877   4.396   3.921
 8068SOL    HW125103   6.793   4.435   3.885
 8068SOL    HW225104   6.856   4.329   3.992
 8069SOL     OW25105   1.354   5.968   2.382
 8069SOL    HW125106   1.362   6.016   2.469
 8069SOL    HW225107   1.350   6.034   2.307
 8070SOL     OW25108   3.627   0.030   2.309
 8070SOL    HW125109   3.620   0.039   2.209
 8070SOL    HW225110   3.723   0.015   2.334
 8071SOL     OW25111   3.881   6.456   0.413
 8071SOL    HW125112   3.808   6.511   0.372
 8071SOL    HW225113   3.940   6.420   0.340
 8072SOL     OW25114   5.319   0.928   2.356
 8072SOL    HW125115   5.361   0.860   2.297
 8072SOL    HW225116   5.239   0.968   2.310
 8073SOL     OW25117   4.356   6.756   5.744
 8073SOL    HW125118   4.374   6.853   5.730
 8073SOL    HW225119   4.259   6.742   5.763
 8074SOL     OW25120   3.257   3.878   6.807
 8074SOL    HW125121   3.241   3.842   6.899
 8074SOL    HW225122   3.241   3.805   6.740
 8075SOL     OW25123   5.852   1.818   2.729
 8075SOL    HW125124   5.949   1.841   2.720
 8075SOL    HW225125   5.835   1.777   2.818
 8076SOL     OW25126   5.220   2.641   6.304
 8076SOL    HW125127   5.182   2.732   6.316
 8076SOL    HW225128   5.240   2.601   6.393
 8077SOL     OW25129   1.400   0.494   0.341
 8077SOL    HW125130   1.436   0.447   0.422
 8077SOL    HW225131   1.447   0.581   0.329
 8078SOL     OW25132   5.873   3.456   0.481
 8078SOL    HW125133   5.816   3.402   0.419
 8078SOL    HW225134   5.814   3.509   0.542
 8079SOL     OW25135   0.944   1.653   1.715
 8079SOL    HW125136   0.864   1.673   1.771
 8079SOL    HW225137   0.922   1.580   1.650
 8080SOL     OW25138   3.462   5.469   0.407
 8080SOL    HW125139   3.455   5.371   0.389
 8080SOL    HW225140   3.518   5.512   0.336
 8081SOL     OW25141   6.080   1.351   5.359
 8081SOL    HW125142   5.996   1.405   5.365
 8081SOL    HW225143   6.064   1.269   5.305
 8082SOL     OW25144   6.199   3.348   4.187
 8082SOL    HW125145   6.276   3.397   4.228
 8082SOL    HW225146   6.154   3.293   4.257
 8083SOL     OW25147   5.472   2.129   4.467
 8083SOL    HW125148   5.556   2.147   4.517
 8083SOL    HW225149   5.445   2.212   4.418
 8084SOL     OW25150   6.927   0.022   1.087
 8084SOL    HW125151   6.908   6.975   1.018
 8084SOL    HW225152   6.875   0.003   1.170
 8085SOL     OW25153   6.646   1.828   0.919
 8085SOL    HW125154   6.601   1.867   0.999
 8085SOL    HW225155   6.706   1.752   0.948
 8086SOL     OW25156   3.136   6.149   5.860
 8086SOL    HW125157   3.232   6.173   5.847
 8086SOL    HW225158   3.114   6.151   5.957
 8087SOL     OW25159   2.710   3.006   0.830
 8087SOL    HW125160   2.808   3.022   0.824
 8087SOL    HW225161   2.674   3.049   0.913
 8088SOL     OW25162   4.573   0.426   2.472
 8088SOL    HW125163   4.515   0.504   2.447
 8088SOL    HW225164   4.523   0.366   2.534
 8089SOL     OW25165   5.924   3.120   0.301
 8089SOL    HW125166   5.986   3.104   0.378
 8089SOL    HW225167   5.861   3.194   0.323
 8090SOL     OW25168   4.478   2.369   4.979
 8090SOL    HW125169   4.385   2.384   5.014
 8090SOL    HW225170   4.503   2.273   4.992
 8091SOL     OW25171   3.020   5.192   5.864
 8091SOL    HW125172   3.091   5.232   5.921
 8091SOL    HW225173   2.937   5.249   5.869
 8092SOL     OW25174   6.962   2.012   3.771
 8092SOL    HW125175   6.969   2.103   3.729
 8092SOL    HW225176   0.006   2.005   3.846
 8093SOL     OW25177   5.638   5.693   1.076
 8093SOL    HW125178   5.638   5.667   0.979
 8093SOL    HW225179   5.596   5.621   1.130
 8094SOL     OW25180   1.451   3.954   4.226
 8094SOL    HW125181   1.389   3.878   4.208
 8094SOL    HW225182   1.419   4.005   4.307
 8095SOL     OW25183   6.061   3.610   4.807
 8095SOL    HW125184   6.083   3.562   4.892
 8095SOL    HW225185   5.980   3.569   4.766
 8096SOL     OW25186   3.536   0.321   0.593
 8096SOL    HW125187   3.468   0.394   0.588
 8096SOL    HW225188   3.613   0.351   0.649
 8097SOL     OW25189   4.371   1.104   4.603
 8097SOL    HW125190   4.396   1.093   4.506
 8097SOL    HW225191   4.438   1.057   4.660
 8098SOL     OW25192   2.796   1.028   4.478
 8098SOL    HW125193   2.829   0.941   4.517
 8098SOL    HW225194   2.858   1.101   4.505
 8099SOL     OW25195   5.178   6.588   4.768
 8099SOL    HW125196   5.253   6.635   4.722
 8099SOL    HW225197   5.094   6.641   4.758
 8100SOL     OW25198   0.496   5.932   0.831
 8100SOL    HW125199   0.485   6.031   0.815
 8100SOL    HW225200   0.588   5.904   0.803
 8101SOL     OW25201   0.645   5.334   2.586
 8101SOL    HW125202   0.602   5.390   2.656
 8101SOL    HW225203   0.743   5.354   2.582
 8102SOL     OW25204   0.372   7.020   6.542
 8102SOL    HW125205   0.428   6.991   6.465
 8102SOL    HW225206   0.382   6.955   6.618
 8103SOL     OW25207   2.653   1.800   2.343
 8103SOL    HW125208   2.717   1.736   2.386
 8103SOL    HW225209   2.628   1.871   2.409
 8104SOL     OW25210   2.642   5.888   6.118
 8104SOL    HW125211   2.640   5.884   6.218
 8104SOL    HW225212   2.733   5.864   6.086
 8105SOL     OW25213   2.050   2.397   2.969
 8105SOL    HW125214   2.075   2.492   2.990
 8105SOL    HW225215   2.061   2.340   3.050
 8106SOL     OW25216   0.195   4.028   5.165
 8106SOL    HW125217   0.131   3.994   5.235
 8106SOL    HW225218   0.222   3.952   5.106
 8107SOL     OW25219   1.244   5.842   6.524
 8107SOL    HW125220   1.233   5.839   6.424
 8107SOL    HW225221   1.325   5.790   6.550
 8108SOL     OW25222   1.988   3.381   5.165
 8108SOL    HW125223   2.000   3.461   5.224
 8108SOL    HW225224   2.076   3.354   5.128
 8109SOL     OW25225   1.192   5.513   5.259
 8109SOL    HW125226   1.250   5.454   5.315
 8109SOL    HW225227   1.235   5.602   5.248
 8110SOL     OW25228   1.287   4.519   0.921
 8110SOL    HW125229   1.277   4.519   1.021
 8110SOL    HW225230   1.197   4.508   0.879
 8111SOL     OW25231   2.986   5.887   4.356
 8111SOL    HW125232   3.079   5.862   4.328
 8111SOL    HW225233   2.923   5.869   4.280
 8112SOL     OW25234   4.090   1.043   4.935
 8112SOL    HW125235   4.104   1.049   4.836
 8112SOL    HW225236   4.054   0.953   4.959
 8113SOL     OW25237   4.112   2.713   6.321
 8113SOL    HW125238   4.040   2.656   6.281
 8113SOL    HW225239   4.158   2.765   6.248
 8114SOL     OW25240   3.283   3.688   1.677
 8114SOL    HW125241   3.238   3.716   1.762
 8114SOL    HW225242   3.373   3.650   1.698
 8115SOL     OW25243   3.997   2.292   0.759
 8115SOL    HW125244   3.934   2.364   0.728
 8115SOL    HW225245   3.951   2.204   0.754
 8116SOL     OW25246   5.059   0.981   5.737
 8116SOL    HW125247   5.066   1.063   5.680
 8116SOL    HW225248   4.966   0.973   5.772
 8117SOL     OW25249   2.650   1.765   6.029
 8117SOL    HW125250   2.662   1.852   5.982
 8117SOL    HW225251   2.562   1.765   6.077
 8118SOL     OW25252   1.245   2.351   4.183
 8118SOL    HW125253   1.277   2.257   4.198
 8118SOL    HW225254   1.162   2.349   4.128
 8119SOL     OW25255   1.405   5.771   1.733
 8119SOL    HW125256   1.434   5.808   1.645
 8119SOL    HW225257   1.329   5.825   1.769
 8120SOL     OW25258   4.728   4.125   1.831
 8120SOL    HW125259   4.636   4.159   1.848
 8120SOL    HW225260   4.729   4.073   1.745
 8121SOL     OW25261   6.495   6.764   3.357
 8121SOL    HW125262   6.415   6.795   3.307
 8121SOL    HW225263   6.550   6.843   3.385
 8122SOL     OW25264   0.529   5.796   1.396
 8122SOL    HW125265   0.467   5.869   1.427
 8122SOL    HW225266   0.560   5.816   1.303
 8123SOL     OW25267   0.526   5.656   0.420
 8123SOL    HW125268   0.510   5.653   0.321
 8123SOL    HW225269   0.456   5.602   0.467
 8124SOL     OW25270   0.880   6.046   3.120
 8124SOL    HW125271   0.817   6.084   3.187
 8124SOL    HW225272   0.959   6.106   3.110
 8125SOL     OW25273   5.845   5.596   2.688
 8125SOL    HW125274   5.822   5.619   2.783
 8125SOL    HW225275   5.864   5.679   2.637
 8126SOL     OW25276   6.695   4.642   2.605
 8126SOL    HW125277   6.737   4.657   2.694
 8126SOL    HW225278   6.715   4.720   2.545
 8127SOL     OW25279   3.522   4.525   1.051
 8127SOL    HW125280   3.472   4.501   0.968
 8127SOL    HW225281   3.502   4.620   1.076
 8128SOL     OW25282   3.656   2.056   5.356
 8128SOL    HW125283   3.564   2.087   5.329
 8128SOL    HW225284   3.721   2.131   5.345
 8129SOL     OW25285   4.892   5.985   6.978
 8129SOL    HW125286   4.861   5.924   0.028
 8129SOL    HW225287   4.827   5.984   6.903
 8130SOL     OW25288   0.972   6.816   0.585
 8130SOL    HW125289   0.950   6.739   0.525
 8130SOL    HW225290   1.055   6.796   0.636
 8131SOL     OW25291   1.538   1.141   0.357
 8131SOL    HW125292   1.529   1.154   0.258
 8131SOL    HW225293   1.506   1.050   0.381
 8132SOL     OW25294   6.182   4.384   2.904
 8132SOL    HW125295   6.275   4.387   2.867
 8132SOL    HW225296   6.184   4.409   3.001
 8133SOL     OW25297   0.660   5.775   2.103
 8133SOL    HW125298   0.727   5.845   2.131
 8133SOL    HW225299   0.649   5.709   2.177
 8134SOL     OW25300   2.084   2.742   2.194
 8134SOL    HW125301   2.144   2.815   2.228
 8134SOL    HW225302   2.042   2.772   2.108
 8135SOL     OW25303   3.883   6.135   2.577
 8135SOL    HW125304   3.966   6.180   2.542
 8135SOL    HW225305   3.834   6.092   2.501
 8136SOL     OW25306   2.844   6.110   1.666
 8136SOL    HW125307   2.830   6.022   1.713
 8136SOL    HW225308   2.755   6.148   1.639
 8137SOL     OW25309   3.358   3.292   4.854
 8137SOL    HW125310   3.388   3.196   4.857
 8137SOL    HW225311   3.343   3.324   4.948
 8138SOL     OW25312   5.166   0.520   3.870
 8138SOL    HW125313   5.245   0.495   3.925
 8138SOL    HW225314   5.140   0.615   3.890
 8139SOL     OW25315   1.898   3.247   4.705
 8139SOL    HW125316   1.919   3.282   4.796
 8139SOL    HW225317   1.923   3.316   4.636
 8140SOL     OW25318   4.642   1.124   1.150
 8140SOL    HW125319   4.669   1.194   1.215
 8140SOL    HW225320   4.593   1.051   1.197
 8141SOL     OW25321   6.043   0.246   5.442
 8141SOL    HW125322   6.003   0.336   5.458
 8141SOL    HW225323   6.141   0.249   5.461
 8142SOL     OW25324   2.403   5.422   0.536
 8142SOL    HW125325   2.499   5.429   0.508
 8142SOL    HW225326   2.363   5.339   0.498
 8143SOL     OW25327   5.840   4.661   0.629
 8143SOL    HW125328   5.913   4.710   0.676
 8143SOL    HW225329   5.774   4.726   0.592
 8144SOL     OW25330   0.788   5.652   0.478
 8144SOL    HW125331   0.767   5.744   0.510
 8144SOL    HW225332   0.715   5.621   0.417
 8145SOL     OW25333   5.481   5.650   0.010
 8145SOL    HW125334   5.557   5.650   0.075
 8145SOL    HW225335   5.447   5.744   7.021
 8146SOL     OW25336   6.711   6.614   4.744
 8146SOL    HW125337   6.802   6.655   4.748
 8146SOL    HW225338   6.659   6.638   4.825
 8147SOL     OW25339   1.768   0.805   6.043
 8147SOL    HW125340   1.672   0.799   6.070
 8147SOL    HW225341   1.775   0.857   5.958
 8148SOL     OW25342   4.584   4.005   0.509
 8148SOL    HW125343   4.671   4.053   0.520
 8148SOL    HW225344   4.547   4.024   0.418
 8149SOL     OW25345   0.779   0.213   5.419
 8149SOL    HW125346   0.862   0.157   5.414
 8149SOL    HW225347   0.804   0.306   5.447
 8150SOL     OW25348   0.287   3.929   0.683
 8150SOL    HW125349   0.247   3.867   0.751
 8150SOL    HW225350   0.217   3.992   0.650
 8151SOL     OW25351   6.426   5.719   3.010
 8151SOL    HW125352   6.394   5.658   2.937
 8151SOL    HW225353   6.473   5.666   3.080
 8152SOL     OW25354   4.998   1.548   2.702
 8152SOL    HW125355   5.079   1.501   2.666
 8152SOL    HW225356   4.981   1.517   2.796
 8153SOL     OW25357   0.315   1.713   2.344
 8153SOL    HW125358   0.384   1.782   2.366
 8153SOL    HW225359   0.247   1.752   2.282
 8154SOL     OW25360   1.622   1.147   2.657
 8154SOL    HW125361   1.582   1.056   2.640
 8154SOL    HW225362   1.564   1.197   2.721
 8155SOL     OW25363   1.744   4.750   3.767
 8155SOL    HW125364   1.784   4.719   3.681
 8155SOL    HW225365   1.692   4.675   3.808
 8156SOL     OW25366   0.826   4.143   0.683
 8156SOL    HW125367   0.852   4.207   0.612
 8156SOL    HW225368   0.890   4.066   0.684
 8157SOL     OW25369   6.863   4.429   4.671
 8157SOL    HW125370   6.927   4.374   4.619
 8157SOL    HW225371   6.820   4.373   4.742
 8158SOL     OW25372   5.994   5.735   6.712
 8158SOL    HW125373   5.992   5.636   6.722
 8158SOL    HW225374   5.964   5.760   6.620
 8159SOL     OW25375   2.660   0.181   5.266
 8159SOL    HW125376   2.581   0.223   5.222
 8159SOL    HW225377   2.741   0.236   5.248
 8160SOL     OW25378   5.531   1.534   1.948
 8160SOL    HW125379   5.598   1.609   1.956
 8160SOL    HW225380   5.494   1.514   2.038
 8161SOL     OW25381   6.168   2.730   1.893
 8161SOL    HW125382   6.103   2.680   1.951
 8161SOL    HW225383   6.154   2.704   1.798
 8162SOL     OW25384   0.644   5.445   5.121
 8162SOL    HW125385   0.584   5.472   5.196
 8162SOL    HW225386   0.732   5.414   5.158
 8163SOL     OW25387   4.507   4.737   5.680
 8163SOL    HW125388   4.468   4.645   5.688
 8163SOL    HW225389   4.516   4.778   5.770
 8164SOL     OW25390   5.611   1.673   0.536
 8164SOL    HW125391   5.514   1.696   0.529
 8164SOL    HW225392   5.665   1.757   0.537
 8165SOL     OW25393   0.657   1.573   6.418
 8165SOL    HW125394   0.596   1.544   6.491
 8165SOL    HW225395   0.683   1.495   6.362
 8166SOL     OW25396   1.676   2.037   5.326
 8166SOL    HW125397   1.627   2.115   5.366
 8166SOL    HW225398   1.774   2.058   5.322
 8167SOL     OW25399   1.955   3.005   3.529
 8167SOL    HW125400   1.922   3.073   3.595
 8167SOL    HW225401   2.054   3.000   3.534
 8168SOL     OW25402   1.987   0.292   2.468
 8168SOL    HW125403   1.975   0.315   2.565
 8168SOL    HW225404   2.066   0.341   2.432
 8169SOL     OW25405   4.921   3.449   0.753
 8169SOL    HW125406   5.010   3.488   0.777
 8169SOL    HW225407   4.877   3.415   0.836
 8170SOL     OW25408   6.829   5.221   2.415
 8170SOL    HW125409   6.923   5.200   2.388
 8170SOL    HW225410   6.824   5.232   2.514
 8171SOL     OW25411   2.649   1.544   0.937
 8171SOL    HW125412   2.614   1.561   1.030
 8171SOL    HW225413   2.655   1.445   0.923
 8172SOL     OW25414   1.519   2.606   0.788
 8172SOL    HW125415   1.537   2.554   0.872
 8172SOL    HW225416   1.420   2.616   0.776
 8173SOL     OW25417   5.774   0.829   1.642
 8173SOL    HW125418   5.817   0.740   1.629
 8173SOL    HW225419   5.790   0.861   1.736
 8174SOL     OW25420   2.689   6.433   3.689
 8174SOL    HW125421   2.640   6.347   3.677
 8174SOL    HW225422   2.739   6.455   3.605
 8175SOL     OW25423   1.114   2.155   6.162
 8175SOL    HW125424   1.195   2.146   6.220
 8175SOL    HW225425   1.045   2.209   6.211
 8176SOL     OW25426   2.881   4.536   0.248
 8176SOL    HW125427   2.915   4.598   0.178
 8176SOL    HW225428   2.840   4.588   0.322
 8177SOL     OW25429   3.124   1.322   4.055
 8177SOL    HW125430   3.132   1.353   3.960
 8177SOL    HW225431   3.061   1.382   4.104
 8178SOL     OW25432   3.072   6.411   1.108
 8178SOL    HW125433   2.990   6.430   1.053
 8178SOL    HW225434   3.121   6.497   1.125
 8179SOL     OW25435   5.441   0.856   3.739
 8179SOL    HW125436   5.384   0.784   3.698
 8179SOL    HW225437   5.423   0.943   3.693
 8180SOL     OW25438   4.982   5.986   0.442
 8180SOL    HW125439   5.022   6.012   0.354
 8180SOL    HW225440   5.026   5.903   0.475
 8181SOL     OW25441   6.993   0.249   6.749
 8181SOL    HW125442   6.976   0.208   6.660
 8181SOL    HW225443   6.913   0.301   6.778
 8182SOL     OW25444   3.193   3.672   3.948
 8182SOL    HW125445   3.185   3.704   4.042
 8182SOL    HW225446   3.182   3.572   3.946
 8183SOL     OW25447   6.939   0.542   5.770
 8183SOL    HW125448   6.991   0.461   5.742
 8183SOL    HW225449   6.975   0.623   5.724
 8184SOL     OW25450   6.917   5.853   6.368
 8184SOL    HW125451   6.830   5.897   6.345
 8184SOL    HW225452   6.988   5.923   6.376
 8185SOL     OW25453   0.107   6.138   5.697
 8185SOL    HW125454   0.158   6.222   5.717
 8185SOL    HW225455   0.097   6.128   5.598
 8186SOL     OW25456   1.829   5.290   0.080
 8186SOL    HW125457   1.907   5.247   0.033
 8186SOL    HW225458   1.861   5.330   0.165
 8187SOL     OW25459   1.531   0.055   5.186
 8187SOL    HW125460   1.472   0.136   5.178
 8187SOL    HW225461   1.626   0.082   5.170
 8188SOL     OW25462   1.868   2.852   2.802
 8188SOL    HW125463   1.905   2.939   2.833
 8188SOL    HW225464   1.873   2.847   2.702
 8189SOL     OW25465   5.785   5.185   3.547
 8189SOL    HW125466   5.872   5.234   3.546
 8189SOL    HW225467   5.774   5.138   3.635
 8190SOL     OW25468   6.296   4.126   2.997
 8190SOL    HW125469   6.277   4.219   3.029
 8190SOL    HW225470   6.380   4.093   3.039
 8191SOL     OW25471   4.259   5.266   1.526
 8191SOL    HW125472   4.198   5.227   1.457
 8191SOL    HW225473   4.207   5.325   1.588
 8192SOL     OW25474   0.558   5.856   3.276
 8192SOL    HW125475   0.573   5.946   3.317
 8192SOL    HW225476   0.518   5.866   3.185
 8193SOL     OW25477   0.963   4.665   3.957
 8193SOL    HW125478   0.910   4.743   3.991
 8193SOL    HW225479   1.025   4.695   3.886
 8194SOL     OW25480   4.484   0.142   1.789
 8194SOL    HW125481   4.492   0.214   1.719
 8194SOL    HW225482   4.389   0.133   1.817
 8195SOL     OW25483   6.370   0.304   4.037
 8195SOL    HW125484   6.309   0.225   4.039
 8195SOL    HW225485   6.465   0.274   4.027
 8196SOL     OW25486   4.617   1.075   1.724
 8196SOL    HW125487   4.693   1.034   1.674
 8196SOL    HW225488   4.639   1.170   1.748
 8197SOL     OW25489   3.553   2.148   3.112
 8197SOL    HW125490   3.480   2.091   3.074
 8197SOL    HW225491   3.618   2.172   3.039
 8198SOL     OW25492   1.470   5.855   1.492
 8198SOL    HW125493   1.494   5.948   1.467
 8198SOL    HW225494   1.468   5.798   1.410
 8199SOL     OW25495   5.710   2.778   0.403
 8199SOL    HW125496   5.800   2.780   0.357
 8199SOL    HW225497   5.711   2.841   0.480
 8200SOL     OW25498   4.399   3.324   0.810
 8200SOL    HW125499   4.307   3.288   0.824
 8200SOL    HW225500   4.402   3.379   0.727
 8201SOL     OW25501   6.317   6.952   5.618
 8201SOL    HW125502   6.336   6.917   5.527
 8201SOL    HW225503   6.373   6.903   5.685
 8202SOL     OW25504   0.748   6.450   2.007
 8202SOL    HW125505   0.710   6.359   1.991
 8202SOL    HW225506   0.714   6.485   2.095
 8203SOL     OW25507   1.661   3.675   1.131
 8203SOL    HW125508   1.672   3.759   1.185
 8203SOL    HW225509   1.751   3.631   1.121
 8204SOL     OW25510   2.736   2.686   0.771
 8204SOL    HW125511   2.657   2.734   0.732
 8204SOL    HW225512   2.818   2.741   0.757
 8205SOL     OW25513   1.088   4.093   6.882
 8205SOL    HW125514   1.099   4.147   6.965
 8205SOL    HW225515   1.176   4.083   6.836
 8206SOL     OW25516   3.075   0.965   1.139
 8206SOL    HW125517   3.126   0.942   1.056
 8206SOL    HW225518   3.050   1.061   1.138
 8207SOL     OW25519   3.823   3.876   4.355
 8207SOL    HW125520   3.894   3.815   4.321
 8207SOL    HW225521   3.823   3.960   4.302
 8208SOL     OW25522   1.773   0.846   0.209
 8208SOL    HW125523   1.762   0.935   0.164
 8208SOL    HW225524   1.824   0.784   0.150
 8209SOL     OW25525   6.262   1.612   4.681
 8209SOL    HW125526   6.268   1.545   4.755
 8209SOL    HW225527   6.176   1.600   4.632
 8210SOL     OW25528   1.932   2.693   6.684
 8210SOL    HW125529   1.998   2.619   6.679
 8210SOL    HW225530   1.868   2.676   6.759
 8211SOL     OW25531   3.901   4.925   1.456
 8211SOL    HW125532   3.909   4.836   1.501
 8211SOL    HW225533   3.833   4.980   1.505
 8212SOL     OW25534   1.798   2.835   3.289
 8212SOL    HW125535   1.785   2.929   3.319
 8212SOL    HW225536   1.846   2.834   3.202
 8213SOL     OW25537   6.523   5.038   1.202
 8213SOL    HW125538   6.498   5.129   1.234
 8213SOL    HW225539   6.607   5.008   1.249
 8214SOL     OW25540   5.621   3.668   3.613
 8214SOL    HW125541   5.714   3.633   3.625
 8214SOL    HW225542   5.558   3.591   3.599
 8215SOL     OW25543   3.473   4.936   2.884
 8215SOL    HW125544   3.378   4.911   2.864
 8215SOL    HW225545   3.508   4.993   2.810
 8216SOL     OW25546   5.556   4.189   4.068
 8216SOL    HW125547   5.523   4.282   4.082
 8216SOL    HW225548   5.484   4.124   4.089
 8217SOL     OW25549   2.002   5.895   0.731
 8217SOL    HW125550   2.044   5.916   0.820
 8217SOL    HW225551   1.909   5.860   0.746
 8218SOL     OW25552   6.425   2.271   0.008
 8218SOL    HW125553   6.453   2.353   0.059
 8218SOL    HW225554   6.505   2.211   7.019
 8219SOL     OW25555   5.747   1.939   6.910
 8219SOL    HW125556   5.690   1.868   6.868
 8219SOL    HW225557   5.728   2.027   6.866
 8220SOL     OW25558   4.180   3.763   1.725
 8220SOL    HW125559   4.104   3.701   1.744
 8220SOL    HW225560   4.162   3.853   1.765
 8221SOL     OW25561   5.165   5.552   2.746
 8221SOL    HW125562   5.157   5.474   2.683
 8221SOL    HW225563   5.093   5.546   2.815
 8222SOL     OW25564   6.455   2.222   1.900
 8222SOL    HW125565   6.515   2.297   1.872
 8222SOL    HW225566   6.482   2.189   1.991
 8223SOL     OW25567   0.319   5.279   5.973
 8223SOL    HW125568   0.243   5.234   6.019
 8223SOL    HW225569   0.397   5.284   6.035
 8224SOL     OW25570   1.608   3.137   3.559
 8224SOL    HW125571   1.639   3.205   3.626
 8224SOL    HW225572   1.644   3.160   3.469
 8225SOL     OW25573   5.005   1.279   0.487
 8225SOL    HW125574   5.074   1.349   0.472
 8225SOL    HW225575   4.943   1.308   0.560
 8226SOL     OW25576   4.344   0.351   0.371
 8226SOL    HW125577   4.438   0.378   0.352
 8226SOL    HW225578   4.338   0.310   0.461
 8227SOL     OW25579   6.119   3.441   2.715
 8227SOL    HW125580   6.133   3.538   2.735
 8227SOL    HW225581   6.105   3.390   2.800
 8228SOL     OW25582   0.038   2.847   4.510
 8228SOL    HW125583   0.044   2.833   4.609
 8228SOL    HW225584   0.075   2.766   4.463
 8229SOL     OW25585   3.743   5.358   0.831
 8229SOL    HW125586   3.779   5.265   0.845
 8229SOL    HW225587   3.665   5.355   0.769
 8230SOL     OW25588   5.334   0.153   4.066
 8230SOL    HW125589   5.427   0.189   4.060
 8230SOL    HW225590   5.279   0.212   4.125
 8231SOL     OW25591   4.536   5.846   0.919
 8231SOL    HW125592   4.573   5.904   0.991
 8231SOL    HW225593   4.443   5.820   0.941
 8232SOL     OW25594   2.817   1.866   6.682
 8232SOL    HW125595   2.909   1.864   6.643
 8232SOL    HW225596   2.751   1.891   6.611
 8233SOL     OW25597   0.463   5.549   6.713
 8233SOL    HW125598   0.538   5.605   6.678
 8233SOL    HW225599   0.389   5.609   6.744
 8234SOL     OW25600   3.764   2.545   0.036
 8234SOL    HW125601   3.761   2.642   0.013
 8234SOL    HW225602   3.677   2.518   0.078
 8235SOL     OW25603   4.566   2.232   0.299
 8235SOL    HW125604   4.540   2.328   0.305
 8235SOL    HW225605   4.663   2.222   0.319
 8236SOL     OW25606   5.853   2.588   1.088
 8236SOL    HW125607   5.889   2.515   1.146
 8236SOL    HW225608   5.754   2.594   1.101
 8237SOL     OW25609   3.994   6.060   5.463
 8237SOL    HW125610   3.920   6.022   5.518
 8237SOL    HW225611   4.031   6.141   5.508
 8238SOL     OW25612   1.696   1.173   6.402
 8238SOL    HW125613   1.617   1.189   6.461
 8238SOL    HW225614   1.744   1.259   6.387
 8239SOL     OW25615   6.964   1.523   6.453
 8239SOL    HW125616   6.940   1.618   6.430
 8239SOL    HW225617   6.923   1.500   6.541
 8240SOL     OW25618   3.576   4.143   3.296
 8240SOL    HW125619   3.505   4.136   3.366
 8240SOL    HW225620   3.619   4.054   3.283
 8241SOL     OW25621   4.442   6.875   1.132
 8241SOL    HW125622   4.502   6.872   1.212
 8241SOL    HW225623   4.471   6.950   1.072
 8242SOL     OW25624   0.759   4.077   5.727
 8242SOL    HW125625   0.741   4.055   5.631
 8242SOL    HW225626   0.854   4.104   5.738
 8243SOL     OW25627   0.889   3.366   4.688
 8243SOL    HW125628   0.809   3.320   4.727
 8243SOL    HW225629   0.971   3.338   4.737
 8244SOL     OW25630   1.087   6.027   4.723
 8244SOL    HW125631   1.111   5.963   4.796
 8244SOL    HW225632   1.130   5.998   4.637
 8245SOL     OW25633   4.037   2.987   0.694
 8245SOL    HW125634   3.987   2.903   0.717
 8245SOL    HW225635   3.971   3.061   0.678
 8246SOL     OW25636   5.028   4.040   5.318
 8246SOL    HW125637   4.933   4.068   5.328
 8246SOL    HW225638   5.035   3.941   5.322
 8247SOL     OW25639   1.048   6.884   1.515
 8247SOL    HW125640   1.011   6.950   1.450
 8247SOL    HW225641   1.019   6.792   1.488
 8248SOL     OW25642   6.909   4.043   3.426
 8248SOL    HW125643   6.941   4.070   3.517
 8248SOL    HW225644   6.984   4.053   3.360
 8249SOL     OW25645   1.552   5.068   3.370
 8249SOL    HW125646   1.534   5.112   3.281
 8249SOL    HW225647   1.551   4.969   3.359
 8250SOL     OW25648   3.920   4.002   2.208
 8250SOL    HW125649   3.872   3.996   2.296
 8250SOL    HW225650   3.966   4.090   2.201
 8251SOL     OW25651   6.126   1.647   5.106
 8251SOL    HW125652   6.028   1.642   5.084
 8251SOL    HW225653   6.177   1.674   5.025
 8252SOL     OW25654   1.254   3.483   4.483
 8252SOL    HW125655   1.306   3.567   4.471
 8252SOL    HW225656   1.268   3.447   4.576
 8253SOL     OW25657   3.022   2.701   5.657
 8253SOL    HW125658   2.929   2.664   5.666
 8253SOL    HW225659   3.045   2.754   5.739
 8254SOL     OW25660   3.923   6.206   3.658
 8254SOL    HW125661   3.826   6.183   3.650
 8254SOL    HW225662   3.972   6.170   3.579
 8255SOL     OW25663   4.432   5.169   3.352
 8255SOL    HW125664   4.473   5.170   3.261
 8255SOL    HW225665   4.336   5.194   3.346
 8256SOL     OW25666   6.772   1.973   3.966
 8256SOL    HW125667   6.798   1.950   3.872
 8256SOL    HW225668   6.814   2.059   3.993
 8257SOL     OW25669   6.603   4.483   4.086
 8257SOL    HW125670   6.599   4.484   3.986
 8257SOL    HW225671   6.583   4.390   4.119
 8258SOL     OW25672   4.504   1.842   0.070
 8258SOL    HW125673   4.414   1.814   0.036
 8258SOL    HW225674   4.493   1.884   0.160
 8259SOL     OW25675   3.805   1.437   1.740
 8259SOL    HW125676   3.885   1.381   1.719
 8259SOL    HW225677   3.758   1.399   1.820
 8260SOL     OW25678   2.678   6.151   0.407
 8260SOL    HW125679   2.757   6.202   0.373
 8260SOL    HW225680   2.709   6.065   0.446
 8261SOL     OW25681   5.472   1.315   1.371
 8261SOL    HW125682   5.373   1.301   1.375
 8261SOL    HW225683   5.509   1.271   1.290
 8262SOL     OW25684   0.917   2.482   0.509
 8262SOL    HW125685   0.917   2.487   0.609
 8262SOL    HW225686   1.011   2.487   0.475
 8263SOL     OW25687   6.027   0.827   0.261
 8263SOL    HW125688   6.096   0.886   0.220
 8263SOL    HW225689   5.936   0.852   0.226
 8264SOL     OW25690   2.146   4.569   2.647
 8264SOL    HW125691   2.051   4.543   2.630
 8264SOL    HW225692   2.204   4.534   2.573
 8265SOL     OW25693   1.904   0.876   1.615
 8265SOL    HW125694   1.890   0.966   1.574
 8265SOL    HW225695   1.873   0.805   1.552
 8266SOL     OW25696   3.519   0.465   3.055
 8266SOL    HW125697   3.448   0.514   3.004
 8266SOL    HW225698   3.604   0.463   3.002
 8267SOL     OW25699   0.644   3.469   1.050
 8267SOL    HW125700   0.654   3.390   0.990
 8267SOL    HW225701   0.555   3.465   1.096
 8268SOL     OW25702   3.204   5.777   5.783
 8268SOL    HW125703   3.146   5.849   5.746
 8268SOL    HW225704   3.183   5.690   5.737
 8269SOL     OW25705   5.739   1.851   1.511
 8269SOL    HW125706   5.703   1.831   1.601
 8269SOL    HW225707   5.671   1.901   1.457
 8270SOL     OW25708   3.281   6.234   4.054
 8270SOL    HW125709   3.289   6.281   3.966
 8270SOL    HW225710   3.352   6.165   4.062
 8271SOL     OW25711   6.814   2.246   1.830
 8271SOL    HW125712   6.911   2.241   1.810
 8271SOL    HW225713   6.782   2.158   1.866
 8272SOL     OW25714   3.433   1.202   3.669
 8272SOL    HW125715   3.427   1.278   3.733
 8272SOL    HW225716   3.372   1.218   3.592
 8273SOL     OW25717   2.131   6.766   1.278
 8273SOL    HW125718   2.172   6.696   1.336
 8273SOL    HW225719   2.187   6.849   1.283
 8274SOL     OW25720   5.132   4.801   3.356
 8274SOL    HW125721   5.084   4.713   3.364
 8274SOL    HW225722   5.212   4.801   3.417
 8275SOL     OW25723   4.593   2.376   6.526
 8275SOL    HW125724   4.680   2.398   6.480
 8275SOL    HW225725   4.612   2.336   6.615
 8276SOL     OW25726   0.409   2.307   3.166
 8276SOL    HW125727   0.339   2.347   3.224
 8276SOL    HW225728   0.407   2.350   3.076
 8277SOL     OW25729   6.554   0.240   6.801
 8277SOL    HW125730   6.476   0.232   6.863
 8277SOL    HW225731   6.534   0.306   6.729
 8278SOL     OW25732   1.850   2.765   0.281
 8278SOL    HW125733   1.949   2.766   0.264
 8278SOL    HW225734   1.826   2.844   0.338
 8279SOL     OW25735   6.545   6.554   4.088
 8279SOL    HW125736   6.487   6.516   4.160
 8279SOL    HW225737   6.512   6.522   3.999
 8280SOL     OW25738   2.686   2.570   6.075
 8280SOL    HW125739   2.769   2.514   6.069
 8280SOL    HW225740   2.611   2.523   6.029
 8281SOL     OW25741   6.071   5.532   2.260
 8281SOL    HW125742   6.004   5.462   2.287
 8281SOL    HW225743   6.120   5.563   2.341
 8282SOL     OW25744   5.440   2.378   5.521
 8282SOL    HW125745   5.429   2.295   5.576
 8282SOL    HW225746   5.366   2.442   5.542
 8283SOL     OW25747   1.802   3.915   5.515
 8283SOL    HW125748   1.899   3.921   5.539
 8283SOL    HW225749   1.781   3.981   5.443
 8284SOL     OW25750   6.507   4.445   1.595
 8284SOL    HW125751   6.438   4.378   1.620
 8284SOL    HW225752   6.495   4.528   1.649
 8285SOL     OW25753   3.605   3.797   4.085
 8285SOL    HW125754   3.672   3.858   4.128
 8285SOL    HW225755   3.528   3.851   4.051
 8286SOL     OW25756   6.783   2.226   6.154
 8286SOL    HW125757   6.781   2.325   6.168
 8286SOL    HW225758   6.714   2.183   6.212
 8287SOL     OW25759   0.965   5.485   4.655
 8287SOL    HW125760   1.020   5.465   4.736
 8287SOL    HW225761   0.898   5.556   4.677
 8288SOL     OW25762   2.836   2.268   3.024
 8288SOL    HW125763   2.789   2.321   3.095
 8288SOL    HW225764   2.873   2.185   3.063
 8289SOL     OW25765   0.231   6.130   0.125
 8289SOL    HW125766   0.313   6.186   0.136
 8289SOL    HW225767   0.156   6.187   0.091
 8290SOL     OW25768   6.708   2.806   0.596
 8290SOL    HW125769   6.703   2.754   0.681
 8290SOL    HW225770   6.718   2.904   0.617
 8291SOL     OW25771   4.356   0.129   1.138
 8291SOL    HW125772   4.405   0.186   1.204
 8291SOL    HW225773   4.293   0.069   1.186
 8292SOL     OW25774   3.272   6.855   6.452
 8292SOL    HW125775   3.183   6.884   6.488
 8292SOL    HW225776   3.343   6.869   6.522
 8293SOL     OW25777   5.111   5.719   5.001
 8293SOL    HW125778   5.040   5.780   4.964
 8293SOL    HW225779   5.196   5.732   4.949
 8294SOL     OW25780   5.514   2.629   0.294
 8294SOL    HW125781   5.424   2.672   0.287
 8294SOL    HW225782   5.576   2.688   0.345
 8295SOL     OW25783   5.289   3.536   0.485
 8295SOL    HW125784   5.342   3.537   0.570
 8295SOL    HW225785   5.263   3.442   0.463
 8296SOL     OW25786   1.350   5.829   0.173
 8296SOL    HW125787   1.303   5.870   0.251
 8296SOL    HW225788   1.435   5.877   0.156
 8297SOL     OW25789   0.666   2.687   2.940
 8297SOL    HW125790   0.574   2.647   2.946
 8297SOL    HW225791   0.729   2.622   2.899
 8298SOL     OW25792   4.475   1.505   1.589
 8298SOL    HW125793   4.504   1.520   1.683
 8298SOL    HW225794   4.471   1.593   1.541
 8299SOL     OW25795   6.652   2.445   1.714
 8299SOL    HW125796   6.672   2.463   1.617
 8299SOL    HW225797   6.696   2.360   1.742
 8300SOL     OW25798   0.589   4.571   3.278
 8300SOL    HW125799   0.677   4.549   3.320
 8300SOL    HW225800   0.516   4.520   3.324
 8301SOL     OW25801   3.612   3.195   6.935
 8301SOL    HW125802   3.549   3.118   6.940
 8301SOL    HW225803   3.687   3.173   6.873
 8302SOL     OW25804   5.726   5.688   6.201
 8302SOL    HW125805   5.702   5.593   6.181
 8302SOL    HW225806   5.710   5.745   6.121
 8303SOL     OW25807   0.144   0.754   5.300
 8303SOL    HW125808   0.114   0.845   5.329
 8303SOL    HW225809   0.079   0.717   5.234
 8304SOL     OW25810   0.275   3.513   6.503
 8304SOL    HW125811   0.321   3.597   6.532
 8304SOL    HW225812   0.191   3.501   6.555
 8305SOL     OW25813   3.132   6.211   3.426
 8305SOL    HW125814   3.130   6.161   3.513
 8305SOL    HW225815   3.116   6.308   3.444
 8306SOL     OW25816   1.030   3.437   4.048
 8306SOL    HW125817   1.114   3.415   4.098
 8306SOL    HW225818   0.958   3.372   4.072
 8307SOL     OW25819   2.626   5.912   1.430
 8307SOL    HW125820   2.633   5.818   1.396
 8307SOL    HW225821   2.558   5.916   1.503
 8308SOL     OW25822   3.878   6.706   2.748
 8308SOL    HW125823   3.853   6.611   2.729
 8308SOL    HW225824   3.963   6.708   2.801
 8309SOL     OW25825   5.069   5.947   2.327
 8309SOL    HW125826   5.026   6.037   2.332
 8309SOL    HW225827   5.024   5.893   2.255
 8310SOL     OW25828   0.014   4.272   0.173
 8310SOL    HW125829   0.019   4.319   0.085
 8310SOL    HW225830   0.087   4.204   0.179
 8311SOL     OW25831   6.570   0.312   0.778
 8311SOL    HW125832   6.506   0.260   0.835
 8311SOL    HW225833   6.584   0.265   0.691
 8312SOL     OW25834   5.506   6.673   1.375
 8312SOL    HW125835   5.448   6.707   1.449
 8312SOL    HW225836   5.464   6.592   1.335
 8313SOL     OW25837   3.488   0.863   2.916
 8313SOL    HW125838   3.544   0.876   2.997
 8313SOL    HW225839   3.502   0.939   2.852
 8314SOL     OW25840   6.424   6.888   3.108
 8314SOL    HW125841   6.350   6.941   3.148
 8314SOL    HW225842   6.511   6.934   3.123
 8315SOL     OW25843   4.871   4.291   6.447
 8315SOL    HW125844   4.783   4.333   6.466
 8315SOL    HW225845   4.927   4.292   6.531
 8316SOL     OW25846   2.169   5.079   6.575
 8316SOL    HW125847   2.085   5.132   6.564
 8316SOL    HW225848   2.243   5.139   6.603
 8317SOL     OW25849   2.100   4.297   2.047
 8317SOL    HW125850   2.187   4.312   1.999
 8317SOL    HW225851   2.034   4.257   1.984
 8318SOL     OW25852   3.671   1.482   5.751
 8318SOL    HW125853   3.758   1.531   5.756
 8318SOL    HW225854   3.609   1.516   5.821
 8319SOL     OW25855   3.432   0.702   4.656
 8319SOL    HW125856   3.491   0.623   4.638
 8319SOL    HW225857   3.416   0.710   4.754
 8320SOL     OW25858   3.424   4.461   1.691
 8320SOL    HW125859   3.482   4.404   1.632
 8320SOL    HW225860   3.482   4.525   1.741
 8321SOL     OW25861   0.792   0.773   1.355
 8321SOL    HW125862   0.712   0.717   1.377
 8321SOL    HW225863   0.808   0.839   1.428
 8322SOL     OW25864   6.307   6.668   0.079
 8322SOL    HW125865   6.224   6.616   0.060
 8322SOL    HW225866   6.330   6.660   0.176
 8323SOL     OW25867   1.507   1.929   1.593
 8323SOL    HW125868   1.522   2.010   1.537
 8323SOL    HW225869   1.557   1.938   1.679
 8324SOL     OW25870   6.572   0.899   1.960
 8324SOL    HW125871   6.660   0.944   1.969
 8324SOL    HW225872   6.499   0.961   1.990
 8325SOL     OW25873   3.396   3.097   3.897
 8325SOL    HW125874   3.449   3.166   3.847
 8325SOL    HW225875   3.434   3.006   3.878
 8326SOL     OW25876   3.760   3.300   5.710
 8326SOL    HW125877   3.820   3.361   5.658
 8326SOL    HW225878   3.665   3.326   5.694
 8327SOL     OW25879   5.255   2.103   5.914
 8327SOL    HW125880   5.193   2.182   5.908
 8327SOL    HW225881   5.297   2.101   6.004
 8328SOL     OW25882   2.718   2.380   5.192
 8328SOL    HW125883   2.761   2.459   5.235
 8328SOL    HW225884   2.619   2.383   5.207
 8329SOL     OW25885   0.287   2.962   5.135
 8329SOL    HW125886   0.244   2.998   5.052
 8329SOL    HW225887   0.286   2.862   5.133
 8330SOL     OW25888   2.786   6.696   6.789
 8330SOL    HW125889   2.705   6.642   6.766
 8330SOL    HW225890   2.777   6.731   6.882
 8331SOL     OW25891   2.636   0.234   0.412
 8331SOL    HW125892   2.722   0.187   0.393
 8331SOL    HW225893   2.655   0.325   0.448
 8332SOL     OW25894   5.286   5.960   2.839
 8332SOL    HW125895   5.343   5.974   2.920
 8332SOL    HW225896   5.198   5.921   2.866
 8333SOL     OW25897   0.748   5.860   6.307
 8333SOL    HW125898   0.721   5.763   6.309
 8333SOL    HW225899   0.731   5.901   6.397
 8334SOL     OW25900   6.133   1.617   3.592
 8334SOL    HW125901   6.177   1.568   3.668
 8334SOL    HW225902   6.199   1.627   3.518
 8335SOL     OW25903   5.183   6.725   5.777
 8335SOL    HW125904   5.148   6.654   5.717
 8335SOL    HW225905   5.113   6.795   5.792
 8336SOL     OW25906   0.629   2.026   2.232
 8336SOL    HW125907   0.653   2.118   2.264
 8336SOL    HW225908   0.562   1.986   2.295
 8337SOL     OW25909   0.489   6.479   2.517
 8337SOL    HW125910   0.432   6.398   2.532
 8337SOL    HW225911   0.576   6.469   2.566
 8338SOL     OW25912   1.666   4.822   0.733
 8338SOL    HW125913   1.759   4.829   0.770
 8338SOL    HW225914   1.632   4.914   0.711
 8339SOL     OW25915   5.491   1.238   2.781
 8339SOL    HW125916   5.537   1.267   2.697
 8339SOL    HW225917   5.519   1.298   2.856
 8340SOL     OW25918   5.175   3.274   0.416
 8340SOL    HW125919   5.089   3.246   0.459
 8340SOL    HW225920   5.158   3.295   0.319
 8341SOL     OW25921   2.171   6.445   0.956
 8341SOL    HW125922   2.156   6.348   0.937
 8341SOL    HW225923   2.104   6.500   0.906
 8342SOL     OW25924   4.129   0.905   0.661
 8342SOL    HW125925   4.121   0.967   0.583
 8342SOL    HW225926   4.187   0.947   0.731
 8343SOL     OW25927   1.798   5.502   6.116
 8343SOL    HW125928   1.740   5.582   6.099
 8343SOL    HW225929   1.762   5.424   6.064
 8344SOL     OW25930   3.675   6.522   5.534
 8344SOL    HW125931   3.762   6.516   5.485
 8344SOL    HW225932   3.614   6.449   5.503
 8345SOL     OW25933   6.183   1.268   2.684
 8345SOL    HW125934   6.191   1.366   2.702
 8345SOL    HW225935   6.267   1.222   2.715
 8346SOL     OW25936   3.073   5.381   1.720
 8346SOL    HW125937   3.096   5.351   1.813
 8346SOL    HW225938   2.974   5.370   1.706
 8347SOL     OW25939   3.663   5.771   4.553
 8347SOL    HW125940   3.664   5.690   4.611
 8347SOL    HW225941   3.568   5.796   4.533
 8348SOL     OW25942   1.789   0.366   0.066
 8348SOL    HW125943   1.812   0.291   0.004
 8348SOL    HW225944   1.713   0.419   0.027
 8349SOL     OW25945   5.782   5.197   1.736
 8349SOL    HW125946   5.878   5.220   1.716
 8349SOL    HW225947   5.779   5.135   1.814
 8350SOL     OW25948   6.065   0.898   4.498
 8350SOL    HW125949   6.015   0.970   4.546
 8350SOL    HW225950   6.073   0.817   4.557
 8351SOL     OW25951   3.491   5.885   2.756
 8351SOL    HW125952   3.555   5.962   2.757
 8351SOL    HW225953   3.517   5.819   2.826
 8352SOL     OW25954   0.283   6.628   1.721
 8352SOL    HW125955   0.248   6.698   1.783
 8352SOL    HW225956   0.341   6.672   1.652
 8353SOL     OW25957   0.225   3.552   2.199
 8353SOL    HW125958   0.269   3.559   2.109
 8353SOL    HW225959   0.258   3.469   2.245
 8354SOL     OW25960   2.552   0.863   0.218
 8354SOL    HW125961   2.556   0.829   0.124
 8354SOL    HW225962   2.577   0.959   0.220
 8355SOL     OW25963   2.928   0.951   0.190
 8355SOL    HW125964   2.900   0.912   0.103
 8355SOL    HW225965   2.988   0.887   0.238
 8356SOL     OW25966   2.382   5.197   6.929
 8356SOL    HW125967   2.297   5.144   6.930
 8356SOL    HW225968   2.365   5.287   6.970
 8357SOL     OW25969   5.049   5.203   4.220
 8357SOL    HW125970   5.114   5.243   4.155
 8357SOL    HW225971   4.958   5.242   4.204
 8358SOL     OW25972   2.227   2.768   5.900
 8358SOL    HW125973   2.214   2.718   5.815
 8358SOL    HW225974   2.179   2.856   5.895
 8359SOL     OW25975   4.325   5.065   4.013
 8359SOL    HW125976   4.264   5.009   4.069
 8359SOL    HW225977   4.293   5.160   4.014
 8360SOL     OW25978   4.831   0.283   3.298
 8360SOL    HW125979   4.815   0.239   3.209
 8360SOL    HW225980   4.819   0.216   3.371
 8361SOL     OW25981   2.024   0.746   2.571
 8361SOL    HW125982   1.935   0.700   2.578
 8361SOL    HW225983   2.071   0.716   2.488
 8362SOL     OW25984   2.493   2.573   0.400
 8362SOL    HW125985   2.394   2.574   0.396
 8362SOL    HW225986   2.529   2.524   0.320
 8363SOL     OW25987   0.405   3.205   0.515
 8363SOL    HW125988   0.419   3.242   0.608
 8363SOL    HW225989   0.373   3.111   0.521
 8364SOL     OW25990   6.434   4.096   3.841
 8364SOL    HW125991   6.532   4.110   3.832
 8364SOL    HW225992   6.390   4.182   3.868
 8365SOL     OW25993   2.269   3.407   5.990
 8365SOL    HW125994   2.184   3.458   5.979
 8365SOL    HW225995   2.258   3.315   5.953
 8366SOL     OW25996   2.841   6.609   2.938
 8366SOL    HW125997   2.793   6.528   2.905
 8366SOL    HW225998   2.782   6.659   3.002
 8367SOL     OW25999   5.523   5.449   3.800
 8367SOL    HW126000   5.474   5.535   3.813
 8367SOL    HW226001   5.546   5.410   3.889
 8368SOL     OW26002   3.149   4.991   6.639
 8368SOL    HW126003   3.163   5.090   6.634
 8368SOL    HW226004   3.225   4.944   6.593
 8369SOL     OW26005   2.333   1.331   1.053
 8369SOL    HW126006   2.352   1.395   0.978
 8369SOL    HW226007   2.417   1.314   1.104
 8370SOL     OW26008   1.218   1.717   6.568
 8370SOL    HW126009   1.152   1.711   6.493
 8370SOL    HW226010   1.170   1.707   6.656
 8371SOL     OW26011   1.982   3.316   0.700
 8371SOL    HW126012   2.034   3.236   0.671
 8371SOL    HW226013   1.995   3.390   0.634
 8372SOL     OW26014   0.420   0.703   2.074
 8372SOL    HW126015   0.383   0.710   2.166
 8372SOL    HW226016   0.401   0.612   2.037
 8373SOL     OW26017   1.645   6.729   5.308
 8373SOL    HW126018   1.721   6.760   5.251
 8373SOL    HW226019   1.679   6.667   5.379
 8374SOL     OW26020   6.464   6.907   6.671
 8374SOL    HW126021   6.544   6.924   6.728
 8374SOL    HW226022   6.460   6.976   6.599
 8375SOL     OW26023   3.481   0.438   6.925
 8375SOL    HW126024   3.443   0.348   6.946
 8375SOL    HW226025   3.514   0.481   7.010
 8376SOL     OW26026   3.621   0.373   4.841
 8376SOL    HW126027   3.669   0.440   4.897
 8376SOL    HW226028   3.581   0.303   4.900
 8377SOL     OW26029   5.523   4.342   0.910
 8377SOL    HW126030   5.542   4.322   0.814
 8377SOL    HW226031   5.548   4.437   0.929
 8378SOL     OW26032   5.041   2.675   3.799
 8378SOL    HW126033   5.037   2.774   3.815
 8378SOL    HW226034   4.948   2.639   3.793
 8379SOL     OW26035   5.994   2.644   2.323
 8379SOL    HW126036   5.942   2.577   2.376
 8379SOL    HW226037   6.062   2.688   2.383
 8380SOL     OW26038   4.601   1.588   3.473
 8380SOL    HW126039   4.659   1.645   3.531
 8380SOL    HW226040   4.622   1.603   3.377
 8381SOL     OW26041   2.111   5.549   4.533
 8381SOL    HW126042   2.105   5.548   4.633
 8381SOL    HW226043   2.181   5.484   4.503
 8382SOL     OW26044   1.559   2.836   2.299
 8382SOL    HW126045   1.553   2.909   2.368
 8382SOL    HW226046   1.480   2.777   2.306
 8383SOL     OW26047   3.054   2.284   6.485
 8383SOL    HW126048   2.975   2.236   6.523
 8383SOL    HW226049   3.136   2.228   6.497
 8384SOL     OW26050   0.471   6.814   2.031
 8384SOL    HW126051   0.426   6.878   1.969
 8384SOL    HW226052   0.412   6.736   2.048
 8385SOL     OW26053   5.078   1.925   1.172
 8385SOL    HW126054   5.009   1.978   1.124
 8385SOL    HW226055   5.042   1.834   1.194
 8386SOL     OW26056   0.979   4.556   2.478
 8386SOL    HW126057   1.078   4.553   2.466
 8386SOL    HW226058   0.948   4.472   2.522
 8387SOL     OW26059   0.089   2.188   1.008
 8387SOL    HW126060   0.188   2.179   0.993
 8387SOL    HW226061   0.054   2.264   0.954
 8388SOL     OW26062   1.509   6.797   2.661
 8388SOL    HW126063   1.570   6.771   2.585
 8388SOL    HW226064   1.418   6.758   2.646
 8389SOL     OW26065   4.935   2.492   2.386
 8389SOL    HW126066   4.975   2.466   2.474
 8389SOL    HW226067   4.836   2.501   2.396
 8390SOL     OW26068   5.286   1.438   5.684
 8390SOL    HW126069   5.294   1.362   5.749
 8390SOL    HW226070   5.237   1.514   5.727
 8391SOL     OW26071   6.781   0.220   1.552
 8391SOL    HW126072   6.877   0.228   1.581
 8391SOL    HW226073   6.777   0.173   1.464
 8392SOL     OW26074   5.256   2.900   4.827
 8392SOL    HW126075   5.331   2.867   4.885
 8392SOL    HW226076   5.204   2.969   4.877
 8393SOL     OW26077   5.596   0.483   1.243
 8393SOL    HW126078   5.619   0.399   1.292
 8393SOL    HW226079   5.658   0.556   1.272
 8394SOL     OW26080   5.444   3.434   1.981
 8394SOL    HW126081   5.382   3.484   1.920
 8394SOL    HW226082   5.537   3.468   1.971
 8395SOL     OW26083   1.615   1.349   4.692
 8395SOL    HW126084   1.522   1.374   4.720
 8395SOL    HW226085   1.626   1.365   4.594
 8396SOL     OW26086   4.196   5.697   4.154
 8396SOL    HW126087   4.265   5.685   4.224
 8396SOL    HW226088   4.114   5.739   4.194
 8397SOL     OW26089   5.928   1.424   2.611
 8397SOL    HW126090   5.947   1.350   2.547
 8397SOL    HW226091   6.015   1.466   2.640
 8398SOL     OW26092   4.323   2.260   6.368
 8398SOL    HW126093   4.358   2.305   6.450
 8398SOL    HW226094   4.237   2.214   6.389
 8399SOL     OW26095   6.927   5.075   0.871
 8399SOL    HW126096   6.873   4.995   0.896
 8399SOL    HW226097   6.979   5.056   0.788
 8400SOL     OW26098   1.553   2.052   4.655
 8400SOL    HW126099   1.628   2.024   4.595
 8400SOL    HW226100   1.507   2.131   4.616
 8401SOL     OW26101   2.826   6.895   6.034
 8401SOL    HW126102   2.884   6.964   5.992
 8401SOL    HW226103   2.777   6.935   6.111
 8402SOL     OW26104   3.741   0.364   6.125
 8402SOL    HW126105   3.820   0.309   6.097
 8402SOL    HW226106   3.757   0.460   6.102
 8403SOL     OW26107   5.990   4.679   4.640
 8403SOL    HW126108   5.912   4.617   4.645
 8403SOL    HW226109   6.073   4.631   4.670
 8404SOL     OW26110   0.882   2.080   6.440
 8404SOL    HW126111   0.823   2.055   6.516
 8404SOL    HW226112   0.837   2.058   6.354
 8405SOL     OW26113   4.153   0.776   5.851
 8405SOL    HW126114   4.218   0.702   5.833
 8405SOL    HW226115   4.067   0.756   5.805
 8406SOL     OW26116   4.851   0.152   6.114
 8406SOL    HW126117   4.913   0.221   6.078
 8406SOL    HW226118   4.808   0.185   6.198
 8407SOL     OW26119   3.365   6.873   4.164
 8407SOL    HW126120   3.400   6.783   4.139
 8407SOL    HW226121   3.429   6.944   4.134
 8408SOL     OW26122   3.686   1.507   1.500
 8408SOL    HW126123   3.719   1.467   1.585
 8408SOL    HW226124   3.647   1.597   1.518
 8409SOL     OW26125   4.225   2.144   1.984
 8409SOL    HW126126   4.289   2.220   1.993
 8409SOL    HW226127   4.165   2.159   1.906
 8410SOL     OW26128   6.677   1.862   1.617
 8410SOL    HW126129   6.600   1.908   1.573
 8410SOL    HW226130   6.673   1.764   1.598
 8411SOL     OW26131   1.606   5.341   0.822
 8411SOL    HW126132   1.555   5.343   0.908
 8411SOL    HW226133   1.547   5.372   0.747
 8412SOL     OW26134   2.810   2.211   6.584
 8412SOL    HW126135   2.742   2.170   6.644
 8412SOL    HW226136   2.764   2.268   6.516
 8413SOL     OW26137   4.450   5.975   4.621
 8413SOL    HW126138   4.518   5.975   4.694
 8413SOL    HW226139   4.397   5.890   4.624
 8414SOL     OW26140   1.388   0.481   1.248
 8414SOL    HW126141   1.389   0.566   1.301
 8414SOL    HW226142   1.482   0.455   1.225
 8415SOL     OW26143   2.502   1.397   5.515
 8415SOL    HW126144   2.481   1.311   5.468
 8415SOL    HW226145   2.588   1.387   5.564
 8416SOL     OW26146   6.488   1.673   5.501
 8416SOL    HW126147   6.411   1.736   5.496
 8416SOL    HW226148   6.572   1.723   5.523
 8417SOL     OW26149   1.433   3.518   5.378
 8417SOL    HW126150   1.491   3.546   5.454
 8417SOL    HW226151   1.409   3.422   5.387
 8418SOL     OW26152   0.603   6.045   2.392
 8418SOL    HW126153   0.638   6.000   2.474
 8418SOL    HW226154   0.610   6.144   2.403
 8419SOL     OW26155   4.196   1.763   4.181
 8419SOL    HW126156   4.103   1.749   4.147
 8419SOL    HW226157   4.212   1.701   4.258
 8420SOL     OW26158   3.087   0.357   1.582
 8420SOL    HW126159   3.069   0.281   1.520
 8420SOL    HW226160   3.186   0.373   1.587
 8421SOL     OW26161   4.633   6.598   6.347
 8421SOL    HW126162   4.555   6.653   6.318
 8421SOL    HW226163   4.718   6.645   6.323
 8422SOL     OW26164   5.176   2.218   3.204
 8422SOL    HW126165   5.088   2.265   3.214
 8422SOL    HW226166   5.246   2.268   3.254
 8423SOL     OW26167   6.903   5.001   6.291
 8423SOL    HW126168   6.804   4.986   6.293
 8423SOL    HW226169   6.950   4.916   6.314
 8424SOL     OW26170   2.711   0.524   4.367
 8424SOL    HW126171   2.732   0.465   4.445
 8424SOL    HW226172   2.642   0.480   4.310
 8425SOL     OW26173   3.411   4.067   2.554
 8425SOL    HW126174   3.429   4.110   2.466
 8425SOL    HW226175   3.313   4.058   2.567
 8426SOL     OW26176   4.061   3.082   1.929
 8426SOL    HW126177   4.085   3.177   1.906
 8426SOL    HW226178   4.019   3.080   2.020
 8427SOL     OW26179   3.393   3.846   3.755
 8427SOL    HW126180   3.424   3.752   3.768
 8427SOL    HW226181   3.413   3.875   3.661
 8428SOL     OW26182   6.498   6.981   1.241
 8428SOL    HW126183   6.462   6.919   1.311
 8428SOL    HW226184   6.565   6.933   1.185
 8429SOL     OW26185   2.584   5.899   5.484
 8429SOL    HW126186   2.611   5.994   5.471
 8429SOL    HW226187   2.656   5.850   5.534
 8430SOL     OW26188   4.361   6.828   4.864
 8430SOL    HW126189   4.274   6.866   4.895
 8430SOL    HW226190   4.355   6.805   4.767
 8431SOL     OW26191   2.442   3.545   6.184
 8431SOL    HW126192   2.530   3.592   6.180
 8431SOL    HW226193   2.434   3.482   6.106
 8432SOL     OW26194   6.244   5.083   6.060
 8432SOL    HW126195   6.301   5.150   6.108
 8432SOL    HW226196   6.303   5.012   6.021
 8433SOL     OW26197   5.335   2.335   1.147
 8433SOL    HW126198   5.268   2.295   1.083
 8433SOL    HW226199   5.424   2.341   1.103
 8434SOL     OW26200   2.579   5.666   5.288
 8434SOL    HW126201   2.563   5.705   5.379
 8434SOL    HW226202   2.642   5.724   5.237
 8435SOL     OW26203   5.388   1.481   2.884
 8435SOL    HW126204   5.332   1.559   2.911
 8435SOL    HW226205   5.346   1.436   2.805
 8436SOL     OW26206   2.186   5.678   2.479
 8436SOL    HW126207   2.100   5.628   2.467
 8436SOL    HW226208   2.183   5.763   2.426
 8437SOL     OW26209   1.235   4.830   2.491
 8437SOL    HW126210   1.324   4.868   2.470
 8437SOL    HW226211   1.202   4.777   2.413
 8438SOL     OW26212   0.939   4.225   2.328
 8438SOL    HW126213   0.884   4.202   2.248
 8438SOL    HW226214   0.953   4.143   2.384
 8439SOL     OW26215   5.840   4.826   2.862
 8439SOL    HW126216   5.878   4.901   2.916
 8439SOL    HW226217   5.806   4.755   2.924
 8440SOL     OW26218   2.070   1.771   3.074
 8440SOL    HW126219   2.063   1.815   2.984
 8440SOL    HW226220   2.166   1.754   3.095
 8441SOL     OW26221   6.593   1.584   5.206
 8441SOL    HW126222   6.587   1.597   5.305
 8441SOL    HW226223   6.502   1.561   5.170
 8442SOL     OW26224   3.182   1.408   6.775
 8442SOL    HW126225   3.204   1.366   6.863
 8442SOL    HW226226   3.179   1.338   6.704
 8443SOL     OW26227   1.136   3.942   3.304
 8443SOL    HW126228   1.113   3.845   3.318
 8443SOL    HW226229   1.118   3.993   3.388
 8444SOL     OW26230   5.421   5.117   4.437
 8444SOL    HW126231   5.435   5.196   4.497
 8444SOL    HW226232   5.420   5.034   4.493
 8445SOL     OW26233   4.411   5.910   6.304
 8445SOL    HW126234   4.341   5.889   6.235
 8445SOL    HW226235   4.373   5.975   6.371
 8446SOL     OW26236   0.138   5.287   5.024
 8446SOL    HW126237   0.162   5.351   5.097
 8446SOL    HW226238   0.217   5.274   4.963
 8447SOL     OW26239   4.039   2.221   3.273
 8447SOL    HW126240   3.942   2.208   3.254
 8447SOL    HW226241   4.052   2.246   3.369
 8448SOL     OW26242   3.402   6.039   3.136
 8448SOL    HW126243   3.492   6.061   3.099
 8448SOL    HW226244   3.333   6.095   3.091
 8449SOL     OW26245   2.089   2.280   3.524
 8449SOL    HW126246   2.134   2.297   3.611
 8449SOL    HW226247   2.000   2.238   3.540
 8450SOL     OW26248   0.340   1.420   6.820
 8450SOL    HW126249   0.260   1.388   6.870
 8450SOL    HW226250   0.402   1.469   6.882
 8451SOL     OW26251   4.512   2.640   0.709
 8451SOL    HW126252   4.428   2.693   0.716
 8451SOL    HW226253   4.539   2.607   0.800
 8452SOL     OW26254   4.870   1.871   5.727
 8452SOL    HW126255   4.782   1.874   5.680
 8452SOL    HW226256   4.941   1.908   5.668
 8453SOL     OW26257   0.247   6.114   0.623
 8453SOL    HW126258   0.247   6.014   0.627
 8453SOL    HW226259   0.172   6.145   0.564
 8454SOL     OW26260   6.545   3.884   6.752
 8454SOL    HW126261   6.512   3.960   6.807
 8454SOL    HW226262   6.496   3.801   6.776
 8455SOL     OW26263   0.028   1.592   2.698
 8455SOL    HW126264   6.989   1.667   2.723
 8455SOL    HW226265   0.066   1.551   2.780
 8456SOL     OW26266   6.002   0.865   3.457
 8456SOL    HW126267   5.928   0.842   3.393
 8456SOL    HW226268   6.054   0.943   3.423
 8457SOL     OW26269   6.709   6.983   5.437
 8457SOL    HW126270   6.755   6.894   5.447
 8457SOL    HW226271   6.628   6.972   5.380
 8458SOL     OW26272   0.399   6.810   6.740
 8458SOL    HW126273   0.479   6.751   6.730
 8458SOL    HW226274   0.317   6.753   6.751
 8459SOL     OW26275   1.697   6.309   3.424
 8459SOL    HW126276   1.688   6.232   3.488
 8459SOL    HW226277   1.779   6.296   3.368
 8460SOL     OW26278   3.245   4.066   3.226
 8460SOL    HW126279   3.302   4.094   3.149
 8460SOL    HW226280   3.282   4.104   3.311
 8461SOL     OW26281   6.538   3.744   4.058
 8461SOL    HW126282   6.509   3.678   3.988
 8461SOL    HW226283   6.457   3.774   4.110
 8462SOL     OW26284   2.317   2.843   1.603
 8462SOL    HW126285   2.360   2.765   1.558
 8462SOL    HW226286   2.332   2.837   1.702
 8463SOL     OW26287   5.180   0.546   1.912
 8463SOL    HW126288   5.125   0.599   1.977
 8463SOL    HW226289   5.179   0.590   1.823
 8464SOL     OW26290   6.224   1.462   4.891
 8464SOL    HW126291   6.124   1.459   4.885
 8464SOL    HW226292   6.252   1.455   4.987
 8465SOL     OW26293   1.823   2.129   6.984
 8465SOL    HW126294   1.816   2.079   0.048
 8465SOL    HW226295   1.914   2.168   6.975
 8466SOL     OW26296   0.223   6.917   4.074
 8466SOL    HW126297   0.134   6.874   4.060
 8466SOL    HW226298   0.232   6.942   4.171
 8467SOL     OW26299   3.260   5.573   1.087
 8467SOL    HW126300   3.174   5.536   1.052
 8467SOL    HW226301   3.275   5.664   1.048
 8468SOL     OW26302   4.908   2.426   0.391
 8468SOL    HW126303   4.818   2.452   0.425
 8468SOL    HW226304   4.898   2.366   0.312
 8469SOL     OW26305   3.813   2.537   6.644
 8469SOL    HW126306   3.822   2.511   6.548
 8469SOL    HW226307   3.845   2.462   6.702
 8470SOL     OW26308   1.337   3.075   6.769
 8470SOL    HW126309   1.357   3.064   6.867
 8470SOL    HW226310   1.256   3.133   6.758
 8471SOL     OW26311   4.100   1.345   3.846
 8471SOL    HW126312   4.093   1.444   3.838
 8471SOL    HW226313   4.196   1.317   3.845
 8472SOL     OW26314   1.376   6.825   3.198
 8472SOL    HW126315   1.417   6.916   3.191
 8472SOL    HW226316   1.417   6.776   3.274
 8473SOL     OW26317   6.535   5.657   6.958
 8473SOL    HW126318   6.623   5.650   6.911
 8473SOL    HW226319   6.544   5.621   0.028
 8474SOL     OW26320   4.367   5.255   0.528
 8474SOL    HW126321   4.439   5.187   0.513
 8474SOL    HW226322   4.331   5.245   0.621
 8475SOL     OW26323   4.282   1.168   3.174
 8475SOL    HW126324   4.186   1.194   3.177
 8475SOL    HW226325   4.336   1.236   3.225
 8476SOL     OW26326   4.893   0.794   2.598
 8476SOL    HW126327   4.980   0.806   2.551
 8476SOL    HW226328   4.877   0.697   2.615
 8477SOL     OW26329   2.758   1.132   2.367
 8477SOL    HW126330   2.744   1.219   2.320
 8477SOL    HW226331   2.697   1.126   2.446
 8478SOL     OW26332   1.582   0.116   5.783
 8478SOL    HW126333   1.651   0.125   5.855
 8478SOL    HW226334   1.519   0.043   5.806
 8479SOL     OW26335   4.591   1.212   2.153
 8479SOL    HW126336   4.623   1.177   2.065
 8479SOL    HW226337   4.651   1.286   2.183
 8480SOL     OW26338   1.458   1.293   1.276
 8480SOL    HW126339   1.446   1.313   1.179
 8480SOL    HW226340   1.376   1.319   1.327
 8481SOL     OW26341   3.711   6.838   4.697
 8481SOL    HW126342   3.658   6.783   4.761
 8481SOL    HW226343   3.697   6.806   4.604
 8482SOL     OW26344   0.616   0.353   1.987
 8482SOL    HW126345   0.620   0.255   2.007
 8482SOL    HW226346   0.705   0.394   2.005
 8483SOL     OW26347   4.754   6.221   2.019
 8483SOL    HW126348   4.722   6.266   2.102
 8483SOL    HW226349   4.676   6.204   1.958
 8484SOL     OW26350   0.603   4.646   4.669
 8484SOL    HW126351   0.513   4.689   4.661
 8484SOL    HW226352   0.654   4.659   4.584
 8485SOL     OW26353   2.826   3.105   6.128
 8485SOL    HW126354   2.881   3.118   6.046
 8485SOL    HW226355   2.791   3.193   6.160
 8486SOL     OW26356   4.021   0.507   2.447
 8486SOL    HW126357   4.063   0.593   2.418
 8486SOL    HW226358   4.075   0.431   2.413
 8487SOL     OW26359   4.622   6.808   1.356
 8487SOL    HW126360   4.586   6.766   1.439
 8487SOL    HW226361   4.719   6.789   1.348
 8488SOL     OW26362   5.276   3.083   4.621
 8488SOL    HW126363   5.217   3.077   4.540
 8488SOL    HW226364   5.245   3.016   4.689
 8489SOL     OW26365   4.419   5.181   2.990
 8489SOL    HW126366   4.327   5.221   2.996
 8489SOL    HW226367   4.482   5.236   3.044
 8490SOL     OW26368   3.729   5.455   2.553
 8490SOL    HW126369   3.724   5.399   2.470
 8490SOL    HW226370   3.808   5.516   2.547
 8491SOL     OW26371   1.980   1.094   1.933
 8491SOL    HW126372   1.997   1.136   1.844
 8491SOL    HW226373   1.961   0.997   1.921
 8492SOL     OW26374   5.858   3.900   4.412
 8492SOL    HW126375   5.825   3.989   4.444
 8492SOL    HW226376   5.912   3.912   4.329
 8493SOL     OW26377   3.565   2.124   0.805
 8493SOL    HW126378   3.591   2.040   0.854
 8493SOL    HW226379   3.470   2.116   0.774
 8494SOL     OW26380   3.757   5.918   0.036
 8494SOL    HW126381   3.661   5.930   0.060
 8494SOL    HW226382   3.791   6.001   7.015
 8495SOL     OW26383   0.409   3.080   0.096
 8495SOL    HW126384   0.322   3.075   0.146
 8495SOL    HW226385   0.392   3.121   0.006
 8496SOL     OW26386   6.661   2.793   3.006
 8496SOL    HW126387   6.752   2.760   3.031
 8496SOL    HW226388   6.636   2.757   2.916
 8497SOL     OW26389   6.199   5.284   3.233
 8497SOL    HW126390   6.103   5.258   3.216
 8497SOL    HW226391   6.258   5.234   3.170
 8498SOL     OW26392   6.618   0.881   0.572
 8498SOL    HW126393   6.595   0.909   0.665
 8498SOL    HW226394   6.713   0.850   0.569
 8499SOL     OW26395   2.985   4.175   6.166
 8499SOL    HW126396   3.070   4.148   6.211
 8499SOL    HW226397   3.000   4.181   6.067
 8500SOL     OW26398   3.164   0.610   6.330
 8500SOL    HW126399   3.260   0.634   6.321
 8500SOL    HW226400   3.151   0.558   6.415
 8501SOL     OW26401   2.570   4.657   5.901
 8501SOL    HW126402   2.503   4.727   5.876
 8501SOL    HW226403   2.548   4.572   5.854
 8502SOL     OW26404   0.362   0.437   1.971
 8502SOL    HW126405   0.323   0.366   2.029
 8502SOL    HW226406   0.459   0.420   1.957
 8503SOL     OW26407   3.284   5.655   3.189
 8503SOL    HW126408   3.300   5.565   3.230
 8503SOL    HW226409   3.194   5.689   3.216
 8504SOL     OW26410   1.053   5.803   3.069
 8504SOL    HW126411   0.991   5.881   3.080
 8504SOL    HW226412   1.136   5.819   3.122
 8505SOL     OW26413   4.768   2.964   4.070
 8505SOL    HW126414   4.743   2.889   4.130
 8505SOL    HW226415   4.751   2.937   3.975
 8506SOL     OW26416   0.965   6.510   0.818
 8506SOL    HW126417   1.040   6.453   0.786
 8506SOL    HW226418   0.970   6.519   0.918
 8507SOL     OW26419   1.910   0.938   4.824
 8507SOL    HW126420   1.888   1.003   4.751
 8507SOL    HW226421   1.902   0.984   4.913
 8508SOL     OW26422   1.051   3.137   6.298
 8508SOL    HW126423   1.102   3.221   6.319
 8508SOL    HW226424   1.106   3.058   6.322
 8509SOL     OW26425   6.030   2.365   4.268
 8509SOL    HW126426   6.066   2.457   4.254
 8509SOL    HW226427   6.106   2.300   4.276
 8510SOL     OW26428   4.959   0.306   2.621
 8510SOL    HW126429   4.898   0.239   2.665
 8510SOL    HW226430   5.041   0.259   2.588
 8511SOL     OW26431   0.039   4.641   2.095
 8511SOL    HW126432   0.023   4.704   2.170
 8511SOL    HW226433   0.113   4.579   2.119
 8512SOL     OW26434   4.217   2.142   0.741
 8512SOL    HW126435   4.129   2.190   0.736
 8512SOL    HW226436   4.248   2.119   0.649
 8513SOL     OW26437   0.404   4.243   1.484
 8513SOL    HW126438   0.373   4.169   1.424
 8513SOL    HW226439   0.399   4.330   1.435
 8514SOL     OW26440   2.459   2.124   6.030
 8514SOL    HW126441   2.472   2.078   6.118
 8514SOL    HW226442   2.526   2.088   5.965
 8515SOL     OW26443   1.660   0.388   1.154
 8515SOL    HW126444   1.644   0.292   1.134
 8515SOL    HW226445   1.724   0.427   1.087
 8516SOL     OW26446   5.533   2.321   4.027
 8516SOL    HW126447   5.460   2.293   4.089
 8516SOL    HW226448   5.621   2.287   4.061
 8517SOL     OW26449   1.813   1.843   5.905
 8517SOL    HW126450   1.729   1.887   5.872
 8517SOL    HW226451   1.860   1.800   5.827
 8518SOL     OW26452   5.573   4.544   0.130
 8518SOL    HW126453   5.651   4.482   0.122
 8518SOL    HW226454   5.491   4.492   0.153
 8519SOL     OW26455   1.323   2.893   0.977
 8519SOL    HW126456   1.285   2.964   1.037
 8519SOL    HW226457   1.397   2.846   1.024
 8520SOL     OW26458   3.845   3.790   6.042
 8520SOL    HW126459   3.879   3.842   5.964
 8520SOL    HW226460   3.899   3.707   6.053
 8521SOL     OW26461   2.288   6.362   5.791
 8521SOL    HW126462   2.380   6.366   5.831
 8521SOL    HW226463   2.296   6.352   5.692
 8522SOL     OW26464   0.532   6.935   0.433
 8522SOL    HW126465   0.483   7.010   0.389
 8522SOL    HW226466   0.599   6.897   0.369
 8523SOL     OW26467   3.215   1.268   0.007
 8523SOL    HW126468   3.128   1.317   0.013
 8523SOL    HW226469   3.216   1.193   0.073
 8524SOL     OW26470   2.016   5.817   4.599
 8524SOL    HW126471   2.048   5.725   4.578
 8524SOL    HW226472   1.927   5.833   4.555
 8525SOL     OW26473   6.211   4.506   1.863
 8525SOL    HW126474   6.269   4.426   1.845
 8525SOL    HW226475   6.268   4.585   1.883
 8526SOL     OW26476   0.540   5.044   0.714
 8526SOL    HW126477   0.452   5.091   0.704
 8526SOL    HW226478   0.545   5.002   0.805
 8527SOL     OW26479   2.899   0.964   5.127
 8527SOL    HW126480   2.817   0.916   5.159
 8527SOL    HW226481   2.874   1.028   5.054
 8528SOL     OW26482   5.135   1.043   0.368
 8528SOL    HW126483   5.122   1.080   0.460
 8528SOL    HW226484   5.200   0.967   0.371
 8529SOL     OW26485   1.111   6.084   6.495
 8529SOL    HW126486   1.107   6.085   6.395
 8529SOL    HW226487   1.146   5.996   6.526
 8530SOL     OW26488   3.133   3.704   3.680
 8530SOL    HW126489   3.203   3.674   3.615
 8530SOL    HW226490   3.162   3.683   3.773
 8531SOL     OW26491   6.721   5.102   4.312
 8531SOL    HW126492   6.701   5.193   4.348
 8531SOL    HW226493   6.635   5.055   4.293
 8532SOL     OW26494   2.814   4.865   6.202
 8532SOL    HW126495   2.896   4.843   6.256
 8532SOL    HW226496   2.763   4.938   6.247
 8533SOL     OW26497   2.657   6.390   5.577
 8533SOL    HW126498   2.614   6.480   5.574
 8533SOL    HW226499   2.647   6.346   5.488
 8534SOL     OW26500   2.192   2.453   3.765
 8534SOL    HW126501   2.243   2.478   3.683
 8534SOL    HW226502   2.157   2.537   3.809
 8535SOL     OW26503   6.614   0.334   2.586
 8535SOL    HW126504   6.670   0.271   2.641
 8535SOL    HW226505   6.649   0.427   2.597
 8536SOL     OW26506   0.911   1.593   5.183
 8536SOL    HW126507   0.937   1.688   5.201
 8536SOL    HW226508   0.848   1.591   5.105
 8537SOL     OW26509   6.847   1.171   2.605
 8537SOL    HW126510   6.935   1.204   2.573
 8537SOL    HW226511   6.779   1.179   2.532
 8538SOL     OW26512   0.608   2.384   7.012
 8538SOL    HW126513   0.583   2.428   6.926
 8538SOL    HW226514   0.679   2.437   0.036
 8539SOL     OW26515   5.500   2.546   2.996
 8539SOL    HW126516   5.444   2.617   2.953
 8539SOL    HW226517   5.486   2.548   3.095
 8540SOL     OW26518   3.416   0.068   0.594
 8540SOL    HW126519   3.472   0.151   0.586
 8540SOL    HW226520   3.374   0.067   0.685
 8541SOL     OW26521   1.770   2.932   4.743
 8541SOL    HW126522   1.789   2.991   4.822
 8541SOL    HW226523   1.794   2.837   4.766
 8542SOL     OW26524   3.466   5.177   1.003
 8542SOL    HW126525   3.557   5.137   0.992
 8542SOL    HW226526   3.409   5.116   1.058
 8543SOL     OW26527   2.439   2.118   6.303
 8543SOL    HW126528   2.464   2.205   6.261
 8543SOL    HW226529   2.345   2.095   6.280
 8544SOL     OW26530   6.272   2.775   3.494
 8544SOL    HW126531   6.175   2.752   3.490
 8544SOL    HW226532   6.322   2.700   3.537
 8545SOL     OW26533   4.744   6.393   4.965
 8545SOL    HW126534   4.823   6.412   4.907
 8545SOL    HW226535   4.663   6.437   4.927
 8546SOL     OW26536   4.185   2.002   6.505
 8546SOL    HW126537   4.170   1.911   6.468
 8546SOL    HW226538   4.283   2.017   6.517
 8547SOL     OW26539   0.656   4.581   2.723
 8547SOL    HW126540   0.700   4.528   2.795
 8547SOL    HW226541   0.721   4.598   2.649
 8548SOL     OW26542   6.197   1.371   5.595
 8548SOL    HW126543   6.153   1.385   5.506
 8548SOL    HW226544   6.284   1.324   5.582
 8549SOL     OW26545   5.708   3.186   4.877
 8549SOL    HW126546   5.682   3.270   4.827
 8549SOL    HW226547   5.705   3.108   4.814
 8550SOL     OW26548   0.925   4.148   6.347
 8550SOL    HW126549   0.848   4.200   6.310
 8550SOL    HW226550   0.903   4.118   6.440
 8551SOL     OW26551   3.295   4.185   1.019
 8551SOL    HW126552   3.279   4.118   0.946
 8551SOL    HW226553   3.329   4.137   1.100
 8552SOL     OW26554   3.105   6.577   4.452
 8552SOL    HW126555   3.111   6.677   4.449
 8552SOL    HW226556   3.110   6.540   4.360
 8553SOL     OW26557   6.062   4.937   6.993
 8553SOL    HW126558   6.087   5.033   6.977
 8553SOL    HW226559   6.083   4.913   0.065
 8554SOL     OW26560   6.208   4.014   6.680
 8554SOL    HW126561   6.273   3.951   6.637
 8554SOL    HW226562   6.138   3.962   6.728
 8555SOL     OW26563   0.886   6.778   4.338
 8555SOL    HW126564   0.920   6.846   4.273
 8555SOL    HW226565   0.940   6.694   4.330
 8556SOL     OW26566   6.471   0.461   4.253
 8556SOL    HW126567   6.417   0.419   4.180
 8556SOL    HW226568   6.428   0.545   4.283
 8557SOL     OW26569   0.155   0.645   0.244
 8557SOL    HW126570   0.181   0.681   0.334
 8557SOL    HW226571   0.062   0.675   0.223
 8558SOL     OW26572   1.016   5.687   1.953
 8558SOL    HW126573   0.991   5.649   1.864
 8558SOL    HW226574   0.991   5.622   2.025
 8559SOL     OW26575   0.345   1.364   6.000
 8559SOL    HW126576   0.423   1.360   6.062
 8559SOL    HW226577   0.371   1.415   5.918
 8560SOL     OW26578   6.497   2.762   6.322
 8560SOL    HW126579   6.548   2.730   6.242
 8560SOL    HW226580   6.550   2.743   6.405
 8561SOL     OW26581   4.766   6.811   5.507
 8561SOL    HW126582   4.828   6.877   5.550
 8561SOL    HW226583   4.748   6.838   5.413
 8562SOL     OW26584   3.448   6.838   4.477
 8562SOL    HW126585   3.482   6.931   4.492
 8562SOL    HW226586   3.423   6.827   4.381
 8563SOL     OW26587   2.538   2.742   6.232
 8563SOL    HW126588   2.607   2.705   6.169
 8563SOL    HW226589   2.571   2.733   6.326
 8564SOL     OW26590   6.982   6.894   4.007
 8564SOL    HW126591   6.928   6.977   3.997
 8564SOL    HW226592   6.942   6.821   3.952
 8565SOL     OW26593   4.200   0.146   1.856
 8565SOL    HW126594   4.149   0.228   1.884
 8565SOL    HW226595   4.183   0.127   1.759
 8566SOL     OW26596   2.157   3.679   3.112
 8566SOL    HW126597   2.182   3.776   3.121
 8566SOL    HW226598   2.191   3.643   3.025
 8567SOL     OW26599   5.168   6.376   0.582
 8567SOL    HW126600   5.257   6.375   0.535
 8567SOL    HW226601   5.153   6.465   0.623
 8568SOL     OW26602   5.779   1.462   0.179
 8568SOL    HW126603   5.760   1.558   0.161
 8568SOL    HW226604   5.747   1.438   0.271
 8569SOL     OW26605   4.229   1.752   5.609
 8569SOL    HW126606   4.253   1.836   5.658
 8569SOL    HW226607   4.130   1.747   5.595
 8570SOL     OW26608   0.592   4.612   6.682
 8570SOL    HW126609   0.558   4.704   6.667
 8570SOL    HW226610   0.675   4.615   6.737
 8571SOL     OW26611   6.798   4.640   4.447
 8571SOL    HW126612   6.833   4.583   4.372
 8571SOL    HW226613   6.827   4.601   4.535
 8572SOL     OW26614   3.270   4.817   5.537
 8572SOL    HW126615   3.292   4.809   5.439
 8572SOL    HW226616   3.180   4.860   5.547
 8573SOL     OW26617   4.178   6.160   4.477
 8573SOL    HW126618   4.184   6.135   4.380
 8573SOL    HW226619   4.152   6.079   4.530
 8574SOL     OW26620   0.627   3.558   4.437
 8574SOL    HW126621   0.627   3.625   4.363
 8574SOL    HW226622   0.613   3.604   4.524
 8575SOL     OW26623   3.239   3.260   6.375
 8575SOL    HW126624   3.183   3.211   6.308
 8575SOL    HW226625   3.225   3.220   6.465
 8576SOL     OW26626   1.840   0.265   1.763
 8576SOL    HW126627   1.748   0.225   1.770
 8576SOL    HW226628   1.833   0.364   1.753
 8577SOL     OW26629   6.910   5.540   3.065
 8577SOL    HW126630   6.844   5.589   3.007
 8577SOL    HW226631   6.983   5.504   3.007
 8578SOL     OW26632   4.693   6.812   3.738
 8578SOL    HW126633   4.660   6.886   3.795
 8578SOL    HW226634   4.772   6.768   3.781
 8579SOL     OW26635   0.735   5.516   3.109
 8579SOL    HW126636   0.782   5.593   3.153
 8579SOL    HW226637   0.763   5.510   3.014
 8580SOL     OW26638   3.357   4.320   5.895
 8580SOL    HW126639   3.312   4.406   5.916
 8580SOL    HW226640   3.331   4.290   5.803
 8581SOL     OW26641   3.212   2.864   0.610
 8581SOL    HW126642   3.215   2.849   0.511
 8581SOL    HW226643   3.303   2.893   0.641
 8582SOL     OW26644   4.718   4.042   1.238
 8582SOL    HW126645   4.671   3.985   1.305
 8582SOL    HW226646   4.682   4.023   1.147
 8583SOL     OW26647   5.122   0.503   5.726
 8583SOL    HW126648   5.147   0.593   5.691
 8583SOL    HW226649   5.167   0.487   5.813
 8584SOL     OW26650   0.340   5.409   6.479
 8584SOL    HW126651   0.401   5.449   6.547
 8584SOL    HW226652   0.349   5.310   6.480
 8585SOL     OW26653   1.126   1.101   1.072
 8585SOL    HW126654   1.156   1.047   1.150
 8585SOL    HW226655   1.193   1.173   1.053
 8586SOL     OW26656   3.998   5.163   4.039
 8586SOL    HW126657   4.027   5.197   4.129
 8586SOL    HW226658   4.033   5.224   3.968
 8587SOL     OW26659   7.003   1.861   1.378
 8587SOL    HW126660   0.035   1.788   1.334
 8587SOL    HW226661   6.974   1.831   1.469
 8588SOL     OW26662   3.980   2.279   0.406
 8588SOL    HW126663   3.990   2.281   0.306
 8588SOL    HW226664   4.068   2.256   0.447
 8589SOL     OW26665   2.639   1.661   4.480
 8589SOL    HW126666   2.639   1.561   4.478
 8589SOL    HW226667   2.676   1.693   4.567
 8590SOL     OW26668   6.102   4.881   5.584
 8590SOL    HW126669   6.098   4.880   5.484
 8590SOL    HW226670   6.067   4.968   5.618
 8591SOL     OW26671   1.001   3.111   0.057
 8591SOL    HW126672   1.093   3.075   0.073
 8591SOL    HW226673   0.952   3.050   7.018
 8592SOL     OW26674   6.470   5.471   6.505
 8592SOL    HW126675   6.523   5.387   6.520
 8592SOL    HW226676   6.450   5.514   6.593
 8593SOL     OW26677   0.656   6.959   3.003
 8593SOL    HW126678   0.650   0.018   2.946
 8593SOL    HW226679   0.689   6.882   2.948
 8594SOL     OW26680   2.969   3.391   3.259
 8594SOL    HW126681   2.973   3.308   3.315
 8594SOL    HW226682   2.996   3.469   3.315
 8595SOL     OW26683   1.870   2.897   1.451
 8595SOL    HW126684   1.960   2.913   1.410
 8595SOL    HW226685   1.825   2.820   1.404
 8596SOL     OW26686   6.770   4.381   2.558
 8596SOL    HW126687   6.735   4.358   2.467
 8596SOL    HW226688   6.758   4.479   2.574
 8597SOL     OW26689   2.213   1.721   0.724
 8597SOL    HW126690   2.267   1.779   0.664
 8597SOL    HW226691   2.227   1.749   0.819
 8598SOL     OW26692   5.264   4.121   0.803
 8598SOL    HW126693   5.317   4.130   0.718
 8598SOL    HW226694   5.309   4.054   0.863
 8599SOL     OW26695   1.293   3.317   1.858
 8599SOL    HW126696   1.252   3.367   1.934
 8599SOL    HW226697   1.372   3.265   1.891
 8600SOL     OW26698   6.115   3.492   6.082
 8600SOL    HW126699   6.133   3.460   5.989
 8600SOL    HW226700   6.119   3.415   6.145
 8601SOL     OW26701   0.324   1.046   5.032
 8601SOL    HW126702   0.302   0.949   5.027
 8601SOL    HW226703   0.398   1.067   4.968
 8602SOL     OW26704   2.170   6.108   2.175
 8602SOL    HW126705   2.237   6.067   2.113
 8602SOL    HW226706   2.081   6.112   2.130
 8603SOL     OW26707   4.560   3.683   1.256
 8603SOL    HW126708   4.556   3.774   1.298
 8603SOL    HW226709   4.580   3.615   1.326
 8604SOL     OW26710   5.714   2.152   2.618
 8604SOL    HW126711   5.751   2.159   2.711
 8604SOL    HW226712   5.645   2.079   2.615
 8605SOL     OW26713   2.967   6.536   2.175
 8605SOL    HW126714   3.057   6.580   2.185
 8605SOL    HW226715   2.980   6.438   2.157
 8606SOL     OW26716   4.043   5.242   5.869
 8606SOL    HW126717   4.099   5.266   5.948
 8606SOL    HW226718   4.090   5.172   5.815
 8607SOL     OW26719   3.044   5.714   1.739
 8607SOL    HW126720   3.087   5.711   1.649
 8607SOL    HW226721   3.038   5.621   1.776
 8608SOL     OW26722   5.330   6.402   2.390
 8608SOL    HW126723   5.332   6.497   2.361
 8608SOL    HW226724   5.318   6.397   2.489
 8609SOL     OW26725   4.703   0.566   6.519
 8609SOL    HW126726   4.656   0.635   6.574
 8609SOL    HW226727   4.662   0.476   6.534
 8610SOL     OW26728   0.163   6.774   4.601
 8610SOL    HW126729   0.258   6.746   4.602
 8610SOL    HW226730   0.158   6.874   4.614
 8611SOL     OW26731   1.518   2.038   3.402
 8611SOL    HW126732   1.507   1.987   3.317
 8611SOL    HW226733   1.567   2.123   3.384
 8612SOL     OW26734   4.615   2.635   5.034
 8612SOL    HW126735   4.565   2.653   4.949
 8612SOL    HW226736   4.585   2.548   5.072
 8613SOL     OW26737   1.390   1.938   0.383
 8613SOL    HW126738   1.333   1.982   0.453
 8613SOL    HW226739   1.384   1.991   0.298
 8614SOL     OW26740   1.201   1.557   3.348
 8614SOL    HW126741   1.205   1.587   3.444
 8614SOL    HW226742   1.171   1.632   3.291
 8615SOL     OW26743   4.412   2.211   5.232
 8615SOL    HW126744   4.475   2.137   5.208
 8615SOL    HW226745   4.351   2.179   5.304
 8616SOL     OW26746   1.235   3.402   0.333
 8616SOL    HW126747   1.320   3.393   0.281
 8616SOL    HW226748   1.164   3.345   0.291
 8617SOL     OW26749   6.511   3.240   1.246
 8617SOL    HW126750   6.592   3.267   1.193
 8617SOL    HW226751   6.538   3.225   1.341
 8618SOL     OW26752   5.184   0.411   3.024
 8618SOL    HW126753   5.101   0.366   3.056
 8618SOL    HW226754   5.204   0.491   3.081
 8619SOL     OW26755   4.056   5.802   0.513
 8619SOL    HW126756   4.014   5.738   0.577
 8619SOL    HW226757   4.021   5.894   0.528
 8620SOL     OW26758   6.336   6.470   3.422
 8620SOL    HW126759   6.410   6.525   3.383
 8620SOL    HW226760   6.370   6.422   3.503
 8621SOL     OW26761   5.536   0.601   2.976
 8621SOL    HW126762   5.532   0.532   2.903
 8621SOL    HW226763   5.464   0.669   2.962
 8622SOL     OW26764   5.312   5.436   6.980
 8622SOL    HW126765   5.252   5.430   0.037
 8622SOL    HW226766   5.383   5.504   6.997
 8623SOL     OW26767   6.434   3.022   2.785
 8623SOL    HW126768   6.353   2.969   2.808
 8623SOL    HW226769   6.409   3.117   2.769
 8624SOL     OW26770   0.301   4.836   3.772
 8624SOL    HW126771   0.324   4.891   3.852
 8624SOL    HW226772   0.260   4.894   3.702
 8625SOL     OW26773   3.425   0.650   6.269
 8625SOL    HW126774   3.473   0.686   6.189
 8625SOL    HW226775   3.491   0.619   6.336
 8626SOL     OW26776   3.645   3.166   2.181
 8626SOL    HW126777   3.568   3.161   2.245
 8626SOL    HW226778   3.707   3.090   2.197
 8627SOL     OW26779   2.372   0.244   6.733
 8627SOL    HW126780   2.288   0.297   6.718
 8627SOL    HW226781   2.425   0.287   6.806
 8628SOL     OW26782   5.943   1.048   6.912
 8628SOL    HW126783   5.878   0.978   6.940
 8628SOL    HW226784   5.905   1.138   6.931
 8629SOL     OW26785   1.102   5.183   3.657
 8629SOL    HW126786   1.084   5.135   3.742
 8629SOL    HW226787   1.194   5.162   3.625
 8630SOL     OW26788   5.565   4.646   4.016
 8630SOL    HW126789   5.524   4.723   3.967
 8630SOL    HW226790   5.655   4.627   3.977
 8631SOL     OW26791   4.051   5.904   3.660
 8631SOL    HW126792   3.956   5.877   3.675
 8631SOL    HW226793   4.080   5.964   3.735
 8632SOL     OW26794   4.916   0.526   3.188
 8632SOL    HW126795   4.873   0.446   3.230
 8632SOL    HW226796   4.914   0.602   3.252
 8633SOL     OW26797   6.253   0.806   3.957
 8633SOL    HW126798   6.268   0.708   3.970
 8633SOL    HW226799   6.216   0.822   3.865
 8634SOL     OW26800   6.501   5.184   1.674
 8634SOL    HW126801   6.426   5.143   1.621
 8634SOL    HW226802   6.568   5.113   1.697
 8635SOL     OW26803   6.152   3.725   5.518
 8635SOL    HW126804   6.190   3.803   5.468
 8635SOL    HW226805   6.139   3.750   5.614
 8636SOL     OW26806   5.412   5.608   0.370
 8636SOL    HW126807   5.443   5.516   0.347
 8636SOL    HW226808   5.484   5.674   0.348
 8637SOL     OW26809   1.721   0.631   1.561
 8637SOL    HW126810   1.668   0.551   1.588
 8637SOL    HW226811   1.794   0.603   1.498
 8638SOL     OW26812   4.715   5.335   0.956
 8638SOL    HW126813   4.690   5.385   1.039
 8638SOL    HW226814   4.666   5.372   0.878
 8639SOL     OW26815   6.901   2.894   1.998
 8639SOL    HW126816   6.876   2.987   2.026
 8639SOL    HW226817   6.823   2.833   2.013
 8640SOL     OW26818   5.397   6.189   1.559
 8640SOL    HW126819   5.467   6.254   1.531
 8640SOL    HW226820   5.401   6.175   1.658
 8641SOL     OW26821   5.529   4.876   3.436
 8641SOL    HW126822   5.584   4.803   3.397
 8641SOL    HW226823   5.479   4.841   3.515
 8642SOL     OW26824   4.667   1.609   1.770
 8642SOL    HW126825   4.598   1.680   1.755
 8642SOL    HW226826   4.728   1.637   1.845
 8643SOL     OW26827   4.782   1.142   6.549
 8643SOL    HW126828   4.803   1.147   6.646
 8643SOL    HW226829   4.803   1.229   6.505
 8644SOL     OW26830   6.288   3.508   5.636
 8644SOL    HW126831   6.249   3.585   5.585
 8644SOL    HW226832   6.382   3.531   5.663
 8645SOL     OW26833   5.973   4.415   1.731
 8645SOL    HW126834   6.061   4.462   1.738
 8645SOL    HW226835   5.986   4.317   1.747
 8646SOL     OW26836   5.043   0.564   0.762
 8646SOL    HW126837   5.018   0.554   0.665
 8646SOL    HW226838   4.963   0.593   0.814
 8647SOL     OW26839   4.572   4.760   2.027
 8647SOL    HW126840   4.625   4.682   1.994
 8647SOL    HW226841   4.478   4.731   2.044
 8648SOL     OW26842   5.644   1.884   4.750
 8648SOL    HW126843   5.647   1.955   4.820
 8648SOL    HW226844   5.555   1.840   4.750
 8649SOL     OW26845   0.529   4.838   5.380
 8649SOL    HW126846   0.529   4.763   5.446
 8649SOL    HW226847   0.458   4.824   5.312
 8650SOL     OW26848   1.001   4.953   2.145
 8650SOL    HW126849   1.055   5.031   2.114
 8650SOL    HW226850   1.059   4.872   2.152
 8651SOL     OW26851   3.420   2.582   1.238
 8651SOL    HW126852   3.480   2.640   1.294
 8651SOL    HW226853   3.374   2.516   1.297
 8652SOL     OW26854   2.148   3.684   4.225
 8652SOL    HW126855   2.074   3.688   4.292
 8652SOL    HW226856   2.142   3.598   4.173
 8653SOL     OW26857   6.084   3.185   6.310
 8653SOL    HW126858   6.182   3.206   6.315
 8653SOL    HW226859   6.072   3.093   6.273
 8654SOL     OW26860   0.173   6.830   3.160
 8654SOL    HW126861   0.092   6.857   3.109
 8654SOL    HW226862   0.248   6.893   3.140
 8655SOL     OW26863   5.611   6.201   4.080
 8655SOL    HW126864   5.625   6.146   3.998
 8655SOL    HW226865   5.565   6.146   4.150
 8656SOL     OW26866   6.129   2.191   1.421
 8656SOL    HW126867   6.146   2.263   1.488
 8656SOL    HW226868   6.153   2.102   1.460
 8657SOL     OW26869   3.211   4.101   0.772
 8657SOL    HW126870   3.288   4.062   0.720
 8657SOL    HW226871   3.158   4.161   0.712
 8658SOL     OW26872   0.237   5.328   6.836
 8658SOL    HW126873   0.255   5.424   6.817
 8658SOL    HW226874   0.159   5.320   6.898
 8659SOL     OW26875   4.678   0.552   3.827
 8659SOL    HW126876   4.670   0.649   3.803
 8659SOL    HW226877   4.698   0.499   3.745
 8660SOL     OW26878   5.501   4.645   0.469
 8660SOL    HW126879   5.424   4.620   0.409
 8660SOL    HW226880   5.495   4.742   0.492
 8661SOL     OW26881   6.229   3.796   1.537
 8661SOL    HW126882   6.133   3.772   1.548
 8661SOL    HW226883   6.266   3.750   1.456
 8662SOL     OW26884   0.121   0.424   0.907
 8662SOL    HW126885   0.211   0.467   0.910
 8662SOL    HW226886   0.133   0.325   0.897
 8663SOL     OW26887   2.991   5.753   0.753
 8663SOL    HW126888   2.913   5.704   0.714
 8663SOL    HW226889   3.032   5.811   0.682
 8664SOL     OW26890   4.318   5.117   2.000
 8664SOL    HW126891   4.295   5.213   1.990
 8664SOL    HW226892   4.418   5.106   1.998
 8665SOL     OW26893   4.577   5.175   5.506
 8665SOL    HW126894   4.561   5.208   5.413
 8665SOL    HW226895   4.577   5.252   5.570
 8666SOL     OW26896   5.596   3.843   4.404
 8666SOL    HW126897   5.695   3.855   4.411
 8666SOL    HW226898   5.551   3.932   4.408
 8667SOL     OW26899   5.112   1.627   3.226
 8667SOL    HW126900   5.156   1.601   3.140
 8667SOL    HW226901   5.160   1.705   3.265
 8668SOL     OW26902   3.411   1.578   4.205
 8668SOL    HW126903   3.427   1.595   4.302
 8668SOL    HW226904   3.466   1.640   4.150
 8669SOL     OW26905   4.273   0.504   5.855
 8669SOL    HW126906   4.241   0.468   5.767
 8669SOL    HW226907   4.350   0.450   5.887
 8670SOL     OW26908   4.203   4.709   4.091
 8670SOL    HW126909   4.195   4.680   4.186
 8670SOL    HW226910   4.135   4.780   4.072
 8671SOL     OW26911   5.816   6.313   2.811
 8671SOL    HW126912   5.811   6.285   2.907
 8671SOL    HW226913   5.823   6.412   2.806
 8672SOL     OW26914   3.416   4.468   5.350
 8672SOL    HW126915   3.319   4.472   5.326
 8672SOL    HW226916   3.465   4.411   5.283
 8673SOL     OW26917   5.748   2.158   0.846
 8673SOL    HW126918   5.827   2.204   0.886
 8673SOL    HW226919   5.720   2.206   0.763
 8674SOL     OW26920   0.780   0.153   2.537
 8674SOL    HW126921   0.823   0.232   2.580
 8674SOL    HW226922   0.768   0.171   2.439
 8675SOL     OW26923   1.728   1.784   2.774
 8675SOL    HW126924   1.801   1.738   2.723
 8675SOL    HW226925   1.708   1.872   2.731
 8676SOL     OW26926   4.337   6.461   3.736
 8676SOL    HW126927   4.390   6.532   3.781
 8676SOL    HW226928   4.262   6.502   3.685
 8677SOL     OW26929   2.234   4.283   5.161
 8677SOL    HW126930   2.261   4.190   5.136
 8677SOL    HW226931   2.307   4.325   5.215
 8678SOL     OW26932   1.156   0.606   6.060
 8678SOL    HW126933   1.179   0.666   5.983
 8678SOL    HW226934   1.108   0.659   6.130
 8679SOL     OW26935   6.631   2.349   4.726
 8679SOL    HW126936   6.583   2.425   4.769
 8679SOL    HW226937   6.564   2.281   4.695
 8680SOL     OW26938   1.067   3.617   0.350
 8680SOL    HW126939   1.138   3.551   0.328
 8680SOL    HW226940   1.107   3.697   0.395
 8681SOL     OW26941   4.695   3.720   1.001
 8681SOL    HW126942   4.740   3.630   0.998
 8681SOL    HW226943   4.628   3.720   1.074
 8682SOL     OW26944   1.945   5.896   2.577
 8682SOL    HW126945   1.855   5.938   2.565
 8682SOL    HW226946   1.949   5.851   2.666
 8683SOL     OW26947   6.357   3.302   6.333
 8683SOL    HW126948   6.420   3.336   6.263
 8683SOL    HW226949   6.317   3.379   6.382
 8684SOL     OW26950   6.648   2.434   4.299
 8684SOL    HW126951   6.579   2.475   4.359
 8684SOL    HW226952   6.685   2.504   4.238
 8685SOL     OW26953   0.891   2.086   5.306
 8685SOL    HW126954   0.870   2.147   5.229
 8685SOL    HW226955   0.970   2.122   5.356
 8686SOL     OW26956   6.419   2.319   3.211
 8686SOL    HW126957   6.359   2.389   3.171
 8686SOL    HW226958   6.363   2.248   3.253
 8687SOL     OW26959   4.535   0.807   2.745
 8687SOL    HW126960   4.546   0.877   2.674
 8687SOL    HW226961   4.624   0.778   2.779
 8688SOL     OW26962   1.998   0.077   2.315
 8688SOL    HW126963   2.000   0.105   2.219
 8688SOL    HW226964   1.986   0.158   2.373
 8689SOL     OW26965   4.242   5.484   0.807
 8689SOL    HW126966   4.267   5.387   0.806
 8689SOL    HW226967   4.246   5.520   0.713
 8690SOL     OW26968   1.158   1.468   2.765
 8690SOL    HW126969   1.234   1.530   2.748
 8690SOL    HW226970   1.086   1.484   2.698
 8691SOL     OW26971   5.891   1.643   1.007
 8691SOL    HW126972   5.916   1.563   1.062
 8691SOL    HW226973   5.846   1.612   0.923
 8692SOL     OW26974   1.506   1.728   4.148
 8692SOL    HW126975   1.423   1.720   4.094
 8692SOL    HW226976   1.533   1.637   4.182
 8693SOL     OW26977   5.579   2.074   0.309
 8693SOL    HW126978   5.536   2.160   0.283
 8693SOL    HW226979   5.654   2.054   0.247
 8694SOL     OW26980   3.951   6.306   5.927
 8694SOL    HW126981   3.990   6.313   6.019
 8694SOL    HW226982   3.867   6.252   5.931
 8695SOL     OW26983   4.239   3.973   5.485
 8695SOL    HW126984   4.217   3.991   5.581
 8695SOL    HW226985   4.311   3.904   5.479
 8696SOL     OW26986   1.964   5.209   0.760
 8696SOL    HW126987   2.008   5.274   0.821
 8696SOL    HW226988   1.925   5.134   0.813
 8697SOL     OW26989   5.815   4.293   0.451
 8697SOL    HW126990   5.810   4.209   0.397
 8697SOL    HW226991   5.833   4.370   0.390
 8698SOL     OW26992   5.942   5.952   4.167
 8698SOL    HW126993   6.023   5.999   4.202
 8698SOL    HW226994   5.930   5.865   4.216
 8699SOL     OW26995   1.501   1.886   5.526
 8699SOL    HW126996   1.494   1.986   5.529
 8699SOL    HW226997   1.462   1.852   5.441
 8700SOL     OW26998   2.881   1.829   6.180
 8700SOL    HW126999   2.813   1.796   6.115
 8700SOL    HW227000   2.966   1.779   6.168
 8701SOL     OW27001   1.176   2.015   4.195
 8701SOL    HW127002   1.274   2.033   4.207
 8701SOL    HW227003   1.148   2.045   4.104
 8702SOL     OW27004   4.824   5.694   0.002
 8702SOL    HW127005   4.804   5.757   0.077
 8702SOL    HW227006   4.919   5.662   0.010
 8703SOL     OW27007   1.899   5.744   1.022
 8703SOL    HW127008   1.834   5.786   1.086
 8703SOL    HW227009   1.951   5.673   1.070
 8704SOL     OW27010   0.609   4.138   1.599
 8704SOL    HW127011   0.655   4.103   1.517
 8704SOL    HW227012   0.539   4.204   1.572
 8705SOL     OW27013   4.693   6.913   5.250
 8705SOL    HW127014   4.663   7.009   5.253
 8705SOL    HW227015   4.747   6.898   5.167
 8706SOL     OW27016   5.194   2.530   6.809
 8706SOL    HW127017   5.203   2.459   6.739
 8706SOL    HW227018   5.140   2.494   6.885
 8707SOL     OW27019   4.711   2.568   5.848
 8707SOL    HW127020   4.680   2.525   5.932
 8707SOL    HW227021   4.796   2.619   5.866
 8708SOL     OW27022   4.045   1.559   1.040
 8708SOL    HW127023   4.057   1.542   0.943
 8708SOL    HW227024   3.948   1.574   1.059
 8709SOL     OW27025   6.794   3.515   0.917
 8709SOL    HW127026   6.880   3.482   0.954
 8709SOL    HW227027   6.796   3.615   0.911
 8710SOL     OW27028   0.963   3.394   3.371
 8710SOL    HW127029   0.886   3.435   3.421
 8710SOL    HW227030   1.028   3.356   3.436
 8711SOL     OW27031   0.667   1.376   4.076
 8711SOL    HW127032   0.577   1.366   4.119
 8711SOL    HW227033   0.669   1.459   4.020
 8712SOL     OW27034   3.546   1.200   5.742
 8712SOL    HW127035   3.563   1.295   5.714
 8712SOL    HW227036   3.449   1.188   5.760
 8713SOL     OW27037   6.627   4.917   3.123
 8713SOL    HW127038   6.594   4.975   3.197
 8713SOL    HW227039   6.716   4.879   3.148
 8714SOL     OW27040   1.412   1.439   4.872
 8714SOL    HW127041   1.383   1.425   4.966
 8714SOL    HW227042   1.332   1.440   4.812
 8715SOL     OW27043   5.909   1.462   1.546
 8715SOL    HW127044   5.840   1.513   1.495
 8715SOL    HW227045   5.894   1.473   1.644
 8716SOL     OW27046   1.742   1.625   1.585
 8716SOL    HW127047   1.773   1.543   1.538
 8716SOL    HW227048   1.707   1.601   1.676
 8717SOL     OW27049   3.767   3.097   0.807
 8717SOL    HW127050   3.675   3.087   0.845
 8717SOL    HW227051   3.770   3.181   0.752
 8718SOL     OW27052   6.680   2.996   5.741
 8718SOL    HW127053   6.589   3.032   5.722
 8718SOL    HW227054   6.724   3.051   5.813
 8719SOL     OW27055   6.975   0.681   6.219
 8719SOL    HW127056   6.988   0.601   6.277
 8719SOL    HW227057   6.892   0.670   6.164
 8720SOL     OW27058   5.154   3.770   5.704
 8720SOL    HW127059   5.238   3.731   5.741
 8720SOL    HW227060   5.157   3.769   5.604
 8721SOL     OW27061   0.167   2.277   4.501
 8721SOL    HW127062   0.213   2.358   4.538
 8721SOL    HW227063   0.235   2.212   4.469
 8722SOL     OW27064   3.867   2.785   0.700
 8722SOL    HW127065   3.839   2.716   0.766
 8722SOL    HW227066   3.808   2.779   0.619
 8723SOL     OW27067   6.914   4.458   0.352
 8723SOL    HW127068   6.986   4.391   0.371
 8723SOL    HW227069   6.866   4.480   0.437
 8724SOL     OW27070   5.377   6.750   6.795
 8724SOL    HW127071   5.288   6.772   6.835
 8724SOL    HW227072   5.368   6.745   6.695
 8725SOL     OW27073   2.384   5.848   1.051
 8725SOL    HW127074   2.285   5.860   1.052
 8725SOL    HW227075   2.429   5.935   1.031
 8726SOL     OW27076   5.078   0.426   1.427
 8726SOL    HW127077   5.021   0.357   1.381
 8726SOL    HW227078   5.020   0.481   1.488
 8727SOL     OW27079   6.304   5.906   1.065
 8727SOL    HW127080   6.313   5.832   0.998
 8727SOL    HW227081   6.395   5.929   1.101
 8728SOL     OW27082   2.416   6.991   5.640
 8728SOL    HW127083   2.479   7.005   5.563
 8728SOL    HW227084   2.416   0.050   5.697
 8729SOL     OW27085   5.599   6.655   4.560
 8729SOL    HW127086   5.658   6.597   4.616
 8729SOL    HW227087   5.538   6.708   4.620
 8730SOL     OW27088   0.016   6.720   1.489
 8730SOL    HW127089   0.041   6.817   1.488
 8730SOL    HW227090   0.090   6.667   1.531
 8731SOL     OW27091   1.176   1.986   2.476
 8731SOL    HW127092   1.269   1.968   2.509
 8731SOL    HW227093   1.129   1.899   2.461
 8732SOL     OW27094   5.156   4.681   1.536
 8732SOL    HW127095   5.100   4.621   1.479
 8732SOL    HW227096   5.119   4.774   1.532
 8733SOL     OW27097   0.386   6.268   1.510
 8733SOL    HW127098   0.364   6.171   1.499
 8733SOL    HW227099   0.439   6.299   1.431
 8734SOL     OW27100   6.699   5.030   0.569
 8734SOL    HW127101   6.798   5.025   0.563
 8734SOL    HW227102   6.660   4.938   0.565
 8735SOL     OW27103   6.543   2.469   6.806
 8735SOL    HW127104   6.561   2.388   6.861
 8735SOL    HW227105   6.617   2.535   6.817
 8736SOL     OW27106   0.505   5.090   6.623
 8736SOL    HW127107   0.511   5.080   6.523
 8736SOL    HW227108   0.408   5.091   6.650
 8737SOL     OW27109   3.652   5.826   6.286
 8737SOL    HW127110   3.695   5.842   6.198
 8737SOL    HW227111   3.666   5.905   6.345
 8738SOL     OW27112   1.637   3.591   4.635
 8738SOL    HW127113   1.641   3.535   4.552
 8738SOL    HW227114   1.581   3.672   4.618
 8739SOL     OW27115   1.197   2.940   5.058
 8739SOL    HW127116   1.257   3.010   5.096
 8739SOL    HW227117   1.115   2.932   5.115
 8740SOL     OW27118   2.079   6.185   1.602
 8740SOL    HW127119   2.015   6.251   1.641
 8740SOL    HW227120   2.064   6.095   1.643
 8741SOL     OW27121   1.193   3.641   2.228
 8741SOL    HW127122   1.135   3.562   2.206
 8741SOL    HW227123   1.282   3.609   2.259
 8742SOL     OW27124   4.262   6.962   2.040
 8742SOL    HW127125   4.353   6.949   2.001
 8742SOL    HW227126   4.216   0.015   1.994
 8743SOL     OW27127   2.330   4.370   3.436
 8743SOL    HW127128   2.244   4.419   3.438
 8743SOL    HW227129   2.334   4.305   3.512
 8744SOL     OW27130   3.291   2.687   5.866
 8744SOL    HW127131   3.224   2.760   5.875
 8744SOL    HW227132   3.371   2.708   5.922
 8745SOL     OW27133   6.278   1.876   6.664
 8745SOL    HW127134   6.363   1.856   6.713
 8745SOL    HW227135   6.269   1.812   6.587
 8746SOL     OW27136   5.410   4.251   5.321
 8746SOL    HW127137   5.492   4.195   5.310
 8746SOL    HW227138   5.351   4.212   5.392
 8747SOL     OW27139   1.754   2.502   4.178
 8747SOL    HW127140   1.811   2.584   4.177
 8747SOL    HW227141   1.659   2.528   4.196
 8748SOL     OW27142   2.333   0.619   6.614
 8748SOL    HW127143   2.306   0.684   6.543
 8748SOL    HW227144   2.428   0.634   6.640
 8749SOL     OW27145   3.941   1.016   3.865
 8749SOL    HW127146   3.846   1.025   3.834
 8749SOL    HW227147   3.968   1.100   3.913
 8750SOL     OW27148   2.476   1.140   5.340
 8750SOL    HW127149   2.500   1.112   5.247
 8750SOL    HW227150   2.541   1.099   5.404
 8751SOL     OW27151   1.798   0.164   2.771
 8751SOL    HW127152   1.741   0.155   2.689
 8751SOL    HW227153   1.767   0.243   2.824
 8752SOL     OW27154   1.820   2.332   6.464
 8752SOL    HW127155   1.812   2.424   6.426
 8752SOL    HW227156   1.808   2.336   6.564
 8753SOL     OW27157   5.568   1.261   5.004
 8753SOL    HW127158   5.631   1.228   5.075
 8753SOL    HW227159   5.475   1.261   5.041
 8754SOL     OW27160   1.569   0.990   5.728
 8754SOL    HW127161   1.630   0.949   5.659
 8754SOL    HW227162   1.525   1.070   5.689
 8755SOL     OW27163   2.333   1.880   0.509
 8755SOL    HW127164   2.422   1.852   0.543
 8755SOL    HW227165   2.311   1.971   0.545
 8756SOL     OW27166   2.096   3.106   4.292
 8756SOL    HW127167   2.150   3.039   4.242
 8756SOL    HW227168   2.140   3.126   4.380
 8757SOL     OW27169   5.108   5.735   3.980
 8757SOL    HW127170   5.090   5.750   4.077
 8757SOL    HW227171   5.054   5.800   3.926
 8758SOL     OW27172   5.386   6.133   2.086
 8758SOL    HW127173   5.290   6.160   2.075
 8758SOL    HW227174   5.432   6.200   2.144
 8759SOL     OW27175   5.233   0.989   5.972
 8759SOL    HW127176   5.183   0.956   5.892
 8759SOL    HW227177   5.216   0.929   6.049
 8760SOL     OW27178   1.873   2.751   3.637
 8760SOL    HW127179   1.878   2.850   3.621
 8760SOL    HW227180   1.859   2.704   3.549
 8761SOL     OW27181   5.197   6.322   0.927
 8761SOL    HW127182   5.143   6.406   0.924
 8761SOL    HW227183   5.199   6.281   0.835
 8762SOL     OW27184   0.557   4.056   0.025
 8762SOL    HW127185   0.593   4.052   0.118
 8762SOL    HW227186   0.589   3.977   6.996
 8763SOL     OW27187   6.907   6.163   5.851
 8763SOL    HW127188   6.825   6.157   5.794
 8763SOL    HW227189   6.987   6.138   5.798
 8764SOL     OW27190   3.460   2.230   5.245
 8764SOL    HW127191   3.369   2.257   5.214
 8764SOL    HW227192   3.508   2.310   5.281
 8765SOL     OW27193   0.268   0.463   5.352
 8765SOL    HW127194   0.344   0.527   5.342
 8765SOL    HW227195   0.196   0.505   5.407
 8766SOL     OW27196   2.355   4.401   2.539
 8766SOL    HW127197   2.263   4.367   2.520
 8766SOL    HW227198   2.398   4.431   2.454
 8767SOL     OW27199   5.123   1.801   4.710
 8767SOL    HW127200   5.096   1.766   4.621
 8767SOL    HW227201   5.119   1.901   4.709
 8768SOL     OW27202   1.359   4.073   6.799
 8768SOL    HW127203   1.366   4.143   6.728
 8768SOL    HW227204   1.420   3.997   6.778
 8769SOL     OW27205   2.079   0.684   5.457
 8769SOL    HW127206   2.162   0.724   5.421
 8769SOL    HW227207   2.006   0.753   5.459
 8770SOL     OW27208   5.641   2.217   2.310
 8770SOL    HW127209   5.555   2.242   2.354
 8770SOL    HW227210   5.710   2.287   2.330
 8771SOL     OW27211   1.602   2.589   6.409
 8771SOL    HW127212   1.588   2.685   6.434
 8771SOL    HW227213   1.694   2.577   6.374
 8772SOL     OW27214   5.748   6.401   0.020
 8772SOL    HW127215   5.762   6.313   0.067
 8772SOL    HW227216   5.799   6.402   6.957
 8773SOL     OW27217   3.092   2.171   3.502
 8773SOL    HW127218   2.996   2.167   3.530
 8773SOL    HW227219   3.147   2.115   3.564
 8774SOL     OW27220   0.891   1.101   6.952
 8774SOL    HW127221   0.855   1.123   6.862
 8774SOL    HW227222   0.932   1.183   6.993
 8775SOL     OW27223   6.168   0.336   4.306
 8775SOL    HW127224   6.212   0.277   4.239
 8775SOL    HW227225   6.200   0.313   4.398
 8776SOL     OW27226   3.277   3.383   4.616
 8776SOL    HW127227   3.278   3.482   4.628
 8776SOL    HW227228   3.291   3.339   4.705
 8777SOL     OW27229   6.181   5.794   1.909
 8777SOL    HW127230   6.122   5.719   1.879
 8777SOL    HW227231   6.263   5.796   1.852
 8778SOL     OW27232   0.855   2.297   3.246
 8778SOL    HW127233   0.795   2.282   3.168
 8778SOL    HW227234   0.826   2.379   3.295
 8779SOL     OW27235   1.791   4.083   0.553
 8779SOL    HW127236   1.827   4.134   0.631
 8779SOL    HW227237   1.749   4.146   0.488
 8780SOL     OW27238   2.191   5.969   4.111
 8780SOL    HW127239   2.253   6.043   4.084
 8780SOL    HW227240   2.222   5.929   4.197
 8781SOL     OW27241   0.740   2.203   2.638
 8781SOL    HW127242   0.795   2.260   2.577
 8781SOL    HW227243   0.778   2.110   2.641
 8782SOL     OW27244   4.812   1.685   2.572
 8782SOL    HW127245   4.883   1.636   2.624
 8782SOL    HW227246   4.854   1.734   2.496
 8783SOL     OW27247   5.217   2.558   5.599
 8783SOL    HW127248   5.170   2.516   5.676
 8783SOL    HW227249   5.150   2.590   5.532
 8784SOL     OW27250   5.458   4.384   5.625
 8784SOL    HW127251   5.400   4.389   5.544
 8784SOL    HW227252   5.400   4.389   5.707
 8785SOL     OW27253   5.517   4.449   6.612
 8785SOL    HW127254   5.501   4.352   6.631
 8785SOL    HW227255   5.429   4.496   6.605
 8786SOL     OW27256   1.201   5.953   0.875
 8786SOL    HW127257   1.250   6.036   0.904
 8786SOL    HW227258   1.111   5.978   0.839
 8787SOL     OW27259   1.401   2.853   0.394
 8787SOL    HW127260   1.410   2.946   0.359
 8787SOL    HW227261   1.481   2.799   0.365
 8788SOL     OW27262   0.884   1.914   5.765
 8788SOL    HW127263   0.949   1.977   5.807
 8788SOL    HW227264   0.908   1.900   5.669
 8789SOL     OW27265   7.004   6.804   6.772
 8789SOL    HW127266   0.033   6.719   6.786
 8789SOL    HW227267   0.045   6.877   6.748
 8790SOL     OW27268   5.028   1.588   0.114
 8790SOL    HW127269   4.944   1.641   0.101
 8790SOL    HW227270   5.006   1.491   0.114
 8791SOL     OW27271   4.742   6.418   5.663
 8791SOL    HW127272   4.751   6.413   5.564
 8791SOL    HW227273   4.711   6.509   5.689
 8792SOL     OW27274   5.178   0.038   2.953
 8792SOL    HW127275   5.081   0.061   2.946
 8792SOL    HW227276   5.197   0.000   3.044
 8793SOL     OW27277   1.130   4.491   4.187
 8793SOL    HW127278   1.105   4.442   4.103
 8793SOL    HW227279   1.088   4.447   4.265
 8794SOL     OW27280   2.569   6.586   2.698
 8794SOL    HW127281   2.487   6.641   2.680
 8794SOL    HW227282   2.650   6.636   2.667
 8795SOL     OW27283   1.749   6.338   5.648
 8795SOL    HW127284   1.795   6.403   5.588
 8795SOL    HW227285   1.812   6.264   5.671
 8796SOL     OW27286   5.526   2.625   5.384
 8796SOL    HW127287   5.611   2.618   5.436
 8796SOL    HW227288   5.465   2.551   5.409
 8797SOL     OW27289   0.620   6.584   6.731
 8797SOL    HW127290   0.611   6.488   6.704
 8797SOL    HW227291   0.618   6.591   6.831
 8798SOL     OW27292   4.463   3.498   6.180
 8798SOL    HW127293   4.484   3.567   6.111
 8798SOL    HW227294   4.512   3.414   6.159
 8799SOL     OW27295   3.753   6.605   2.378
 8799SOL    HW127296   3.721   6.682   2.323
 8799SOL    HW227297   3.744   6.520   2.325
 8800SOL     OW27298   4.544   5.338   0.140
 8800SOL    HW127299   4.610   5.305   0.208
 8800SOL    HW227300   4.584   5.415   0.090
 8801SOL     OW27301   2.926   6.916   4.975
 8801SOL    HW127302   2.981   6.887   5.054
 8801SOL    HW227303   2.936   6.850   4.902
 8802SOL     OW27304   2.561   0.074   1.988
 8802SOL    HW127305   2.568   6.998   2.006
 8802SOL    HW227306   2.550   0.123   2.074
 8803SOL     OW27307   3.694   5.882   0.749
 8803SOL    HW127308   3.778   5.910   0.796
 8803SOL    HW227309   3.709   5.882   0.650
 8804SOL     OW27310   4.129   0.324   1.027
 8804SOL    HW127311   4.171   0.405   0.987
 8804SOL    HW227312   4.192   0.247   1.024
 8805SOL     OW27313   0.562   0.229   2.970
 8805SOL    HW127314   0.485   0.181   2.928
 8805SOL    HW227315   0.550   0.328   2.958
 8806SOL     OW27316   2.235   5.176   0.183
 8806SOL    HW127317   2.173   5.118   0.130
 8806SOL    HW227318   2.316   5.123   0.209
 8807SOL     OW27319   1.446   6.493   6.033
 8807SOL    HW127320   1.364   6.539   5.999
 8807SOL    HW227321   1.485   6.436   5.961
 8808SOL     OW27322   6.072   1.162   0.774
 8808SOL    HW127323   6.108   1.092   0.713
 8808SOL    HW227324   6.117   1.155   0.863
 8809SOL     OW27325   6.339   4.199   0.960
 8809SOL    HW127326   6.285   4.115   0.968
 8809SOL    HW227327   6.436   4.176   0.970
 8810SOL     OW27328   4.847   1.348   3.731
 8810SOL    HW127329   4.901   1.299   3.800
 8810SOL    HW227330   4.908   1.406   3.676
 8811SOL     OW27331   0.926   1.564   4.196
 8811SOL    HW127332   0.962   1.545   4.288
 8811SOL    HW227333   0.930   1.481   4.141
 8812SOL     OW27334   2.002   0.648   0.848
 8812SOL    HW127335   1.967   0.659   0.755
 8812SOL    HW227336   2.102   0.653   0.846
 8813SOL     OW27337   1.684   5.136   1.014
 8813SOL    HW127338   1.646   5.202   0.950
 8813SOL    HW227339   1.714   5.054   0.965
 8814SOL     OW27340   5.392   6.775   0.332
 8814SOL    HW127341   5.382   6.676   0.317
 8814SOL    HW227342   5.333   6.824   0.267
 8815SOL     OW27343   0.188   6.428   2.836
 8815SOL    HW127344   0.170   6.339   2.794
 8815SOL    HW227345   0.282   6.430   2.870
 8816SOL     OW27346   1.094   6.149   1.988
 8816SOL    HW127347   1.167   6.140   1.921
 8816SOL    HW227348   1.008   6.118   1.949
 8817SOL     OW27349   2.479   4.393   5.283
 8817SOL    HW127350   2.483   4.482   5.237
 8817SOL    HW227351   2.572   4.358   5.294
 8818SOL     OW27352   0.016   5.281   4.784
 8818SOL    HW127353   0.066   5.249   4.703
 8818SOL    HW227354   0.076   5.273   4.865
 8819SOL     OW27355   5.401   0.407   4.385
 8819SOL    HW127356   5.427   0.498   4.419
 8819SOL    HW227357   5.484   0.355   4.364
 8820SOL     OW27358   1.699   3.018   4.237
 8820SOL    HW127359   1.776   3.081   4.246
 8820SOL    HW227360   1.655   3.006   4.326
 8821SOL     OW27361   1.944   0.700   6.212
 8821SOL    HW127362   1.881   0.737   6.143
 8821SOL    HW227363   2.038   0.718   6.184
 8822SOL     OW27364   0.571   1.842   4.157
 8822SOL    HW127365   0.530   1.830   4.067
 8822SOL    HW227366   0.669   1.826   4.152
 8823SOL     OW27367   2.488   5.248   2.115
 8823SOL    HW127368   2.511   5.345   2.113
 8823SOL    HW227369   2.397   5.236   2.155
 8824SOL     OW27370   4.462   3.736   0.537
 8824SOL    HW127371   4.369   3.761   0.512
 8824SOL    HW227372   4.518   3.818   0.546
 8825SOL     OW27373   1.583   2.482   1.429
 8825SOL    HW127374   1.507   2.520   1.377
 8825SOL    HW227375   1.548   2.423   1.502
 8826SOL     OW27376   5.843   0.834   7.020
 8826SOL    HW127377   5.804   0.827   0.089
 8826SOL    HW227378   5.899   0.753   7.001
 8827SOL     OW27379   0.984   1.160   3.660
 8827SOL    HW127380   0.896   1.197   3.630
 8827SOL    HW227381   0.980   1.060   3.659
 8828SOL     OW27382   1.674   5.959   2.477
 8828SOL    HW127383   1.665   5.862   2.456
 8828SOL    HW227384   1.595   5.989   2.531
 8829SOL     OW27385   0.885   1.599   7.011
 8829SOL    HW127386   0.814   1.668   6.996
 8829SOL    HW227387   0.950   1.632   0.057
 8830SOL     OW27388   0.550   1.859   0.666
 8830SOL    HW127389   0.568   1.858   0.764
 8830SOL    HW227390   0.636   1.874   0.617
 8831SOL     OW27391   6.950   0.931   2.690
 8831SOL    HW127392   0.025   0.927   2.712
 8831SOL    HW227393   6.931   1.015   2.640
 8832SOL     OW27394   0.198   0.634   2.434
 8832SOL    HW127395   0.148   0.566   2.380
 8832SOL    HW227396   0.143   0.660   2.513
 8833SOL     OW27397   2.140   4.553   3.318
 8833SOL    HW127398   2.153   4.509   3.229
 8833SOL    HW227399   2.082   4.633   3.308
 8834SOL     OW27400   5.969   3.924   4.133
 8834SOL    HW127401   5.913   3.843   4.147
 8834SOL    HW227402   5.935   3.976   4.055
 8835SOL     OW27403   0.468   6.999   6.287
 8835SOL    HW127404   0.535   6.936   6.249
 8835SOL    HW227405   0.483   0.068   6.249
 8836SOL     OW27406   4.975   1.667   1.245
 8836SOL    HW127407   4.947   1.598   1.178
 8836SOL    HW227408   4.894   1.711   1.283
 8837SOL     OW27409   1.449   2.009   2.275
 8837SOL    HW127410   1.466   1.972   2.366
 8837SOL    HW227411   1.366   1.967   2.237
 8838SOL     OW27412   2.239   5.785   3.856
 8838SOL    HW127413   2.209   5.857   3.918
 8838SOL    HW227414   2.214   5.696   3.893
 8839SOL     OW27415   5.903   0.105   4.075
 8839SOL    HW127416   5.920   0.188   4.022
 8839SOL    HW227417   5.807   0.103   4.103
 8840SOL     OW27418   4.987   1.379   2.310
 8840SOL    HW127419   5.021   1.329   2.389
 8840SOL    HW227420   5.052   1.371   2.235
 8841SOL     OW27421   1.665   0.278   4.183
 8841SOL    HW127422   1.704   0.358   4.228
 8841SOL    HW227423   1.715   0.196   4.211
 8842SOL     OW27424   1.729   2.570   2.112
 8842SOL    HW127425   1.671   2.637   2.158
 8842SOL    HW227426   1.782   2.615   2.040
 8843SOL     OW27427   0.491   3.317   4.569
 8843SOL    HW127428   0.481   3.399   4.512
 8843SOL    HW227429   0.491   3.236   4.511
 8844SOL     OW27430   6.057   1.440   6.224
 8844SOL    HW127431   6.146   1.419   6.264
 8844SOL    HW227432   5.985   1.399   6.279
 8845SOL     OW27433   5.676   3.729   6.565
 8845SOL    HW127434   5.625   3.686   6.639
 8845SOL    HW227435   5.715   3.658   6.506
 8846SOL     OW27436   2.434   4.894   3.299
 8846SOL    HW127437   2.345   4.935   3.322
 8846SOL    HW227438   2.457   4.824   3.367
 8847SOL     OW27439   1.959   0.980   2.443
 8847SOL    HW127440   1.980   0.915   2.517
 8847SOL    HW227441   1.861   0.974   2.420
 8848SOL     OW27442   1.455   0.023   2.635
 8848SOL    HW127443   1.508   6.962   2.623
 8848SOL    HW227444   1.387   0.010   2.707
 8849SOL     OW27445   2.787   6.820   1.033
 8849SOL    HW127446   2.785   6.841   1.131
 8849SOL    HW227447   2.841   6.889   0.985
 8850SOL     OW27448   2.572   2.484   0.130
 8850SOL    HW127449   2.653   2.425   0.126
 8850SOL    HW227450   2.545   2.509   0.037
 8851SOL     OW27451   1.786   3.347   2.533
 8851SOL    HW127452   1.694   3.382   2.551
 8851SOL    HW227453   1.794   3.255   2.572
 8852SOL     OW27454   1.407   2.465   5.770
 8852SOL    HW127455   1.383   2.430   5.860
 8852SOL    HW227456   1.327   2.510   5.729
 8853SOL     OW27457   5.263   0.910   1.615
 8853SOL    HW127458   5.214   0.894   1.529
 8853SOL    HW227459   5.357   0.877   1.606
 8854SOL     OW27460   0.976   2.142   4.838
 8854SOL    HW127461   0.936   2.166   4.927
 8854SOL    HW227462   0.937   2.202   4.767
 8855SOL     OW27463   5.225   5.223   1.214
 8855SOL    HW127464   5.126   5.236   1.221
 8855SOL    HW227465   5.266   5.304   1.172
 8856SOL     OW27466   6.494   0.906   5.737
 8856SOL    HW127467   6.562   0.845   5.697
 8856SOL    HW227468   6.537   0.993   5.760
 8857SOL     OW27469   6.383   2.132   6.163
 8857SOL    HW127470   6.312   2.166   6.225
 8857SOL    HW227471   6.403   2.202   6.094
 8858SOL     OW27472   6.602   6.165   4.979
 8858SOL    HW127473   6.547   6.083   4.965
 8858SOL    HW227474   6.580   6.206   5.068
 8859SOL     OW27475   0.680   6.152   3.300
 8859SOL    HW127476   0.619   6.223   3.265
 8859SOL    HW227477   0.737   6.191   3.373
 8860SOL     OW27478   6.946   4.136   2.937
 8860SOL    HW127479   7.011   4.209   2.917
 8860SOL    HW227480   6.853   4.174   2.941
 8861SOL     OW27481   3.669   2.958   1.457
 8861SOL    HW127482   3.636   2.971   1.364
 8861SOL    HW227483   3.616   3.016   1.519
 8862SOL     OW27484   4.491   4.532   4.768
 8862SOL    HW127485   4.455   4.515   4.860
 8862SOL    HW227486   4.525   4.446   4.729
 8863SOL     OW27487   1.877   3.792   3.183
 8863SOL    HW127488   1.839   3.740   3.260
 8863SOL    HW227489   1.963   3.751   3.154
 8864SOL     OW27490   6.668   2.466   5.732
 8864SOL    HW127491   6.682   2.565   5.728
 8864SOL    HW227492   6.605   2.438   5.659
 8865SOL     OW27493   3.084   1.865   0.710
 8865SOL    HW127494   2.987   1.882   0.693
 8865SOL    HW227495   3.094   1.814   0.796
 8866SOL     OW27496   5.895   6.503   1.797
 8866SOL    HW127497   5.834   6.427   1.775
 8866SOL    HW227498   5.884   6.528   1.893
 8867SOL     OW27499   6.376   3.278   2.677
 8867SOL    HW127500   6.440   3.280   2.600
 8867SOL    HW227501   6.285   3.303   2.644
 8868SOL     OW27502   7.000   3.658   3.934
 8868SOL    HW127503   7.015   3.667   4.032
 8868SOL    HW227504   6.951   3.573   3.914
 8869SOL     OW27505   4.213   0.050   3.393
 8869SOL    HW127506   4.222   0.127   3.330
 8869SOL    HW227507   4.147   7.007   3.357
 8870SOL     OW27508   1.676   0.579   2.484
 8870SOL    HW127509   1.708   0.556   2.576
 8870SOL    HW227510   1.586   0.537   2.469
 8871SOL     OW27511   6.866   0.558   2.049
 8871SOL    HW127512   6.853   0.499   1.969
 8871SOL    HW227513   6.909   0.643   2.021
 8872SOL     OW27514   6.959   3.915   3.699
 8872SOL    HW127515   0.010   3.851   3.676
 8872SOL    HW227516   6.998   3.995   3.745
 8873SOL     OW27517   2.518   1.984   2.471
 8873SOL    HW127518   2.549   2.058   2.411
 8873SOL    HW227519   2.424   2.002   2.500
 8874SOL     OW27520   2.609   6.386   0.070
 8874SOL    HW127521   2.547   6.337   0.008
 8874SOL    HW227522   2.556   6.448   0.128
 8875SOL     OW27523   6.739   3.143   4.373
 8875SOL    HW127524   6.725   3.238   4.344
 8875SOL    HW227525   6.822   3.137   4.428
 8876SOL     OW27526   4.972   7.022   6.841
 8876SOL    HW127527   4.935   0.059   6.912
 8876SOL    HW227528   5.020   6.945   6.883
 8877SOL     OW27529   1.280   4.821   1.104
 8877SOL    HW127530   1.224   4.858   1.030
 8877SOL    HW227531   1.373   4.857   1.098
 8878SOL     OW27532   4.993   4.028   1.295
 8878SOL    HW127533   4.899   4.054   1.271
 8878SOL    HW227534   5.046   4.111   1.313
 8879SOL     OW27535   6.687   4.200   2.822
 8879SOL    HW127536   6.691   4.213   2.723
 8879SOL    HW227537   6.664   4.287   2.866
 8880SOL     OW27538   4.146   1.895   3.016
 8880SOL    HW127539   4.161   1.796   3.025
 8880SOL    HW227540   4.225   1.937   2.973
 8881SOL     OW27541   4.134   4.748   3.257
 8881SOL    HW127542   4.221   4.699   3.252
 8881SOL    HW227543   4.114   4.789   3.168
 8882SOL     OW27544   3.992   0.292   0.469
 8882SOL    HW127545   4.062   0.281   0.540
 8882SOL    HW227546   4.019   0.364   0.406
 8883SOL     OW27547   6.967   6.559   3.912
 8883SOL    HW127548   6.956   6.498   3.990
 8883SOL    HW227549   6.882   6.611   3.898
 8884SOL     OW27550   5.036   3.060   5.540
 8884SOL    HW127551   5.015   3.008   5.458
 8884SOL    HW227552   5.019   3.157   5.524
 8885SOL     OW27553   5.896   6.030   0.750
 8885SOL    HW127554   5.934   6.062   0.663
 8885SOL    HW227555   5.954   6.062   0.825
 8886SOL     OW27556   3.867   5.992   6.704
 8886SOL    HW127557   3.815   5.922   6.753
 8886SOL    HW227558   3.963   5.985   6.730
 8887SOL     OW27559   4.321   0.427   1.671
 8887SOL    HW127560   4.397   0.476   1.629
 8887SOL    HW227561   4.313   0.455   1.767
 8888SOL     OW27562   3.413   2.005   2.427
 8888SOL    HW127563   3.331   2.039   2.382
 8888SOL    HW227564   3.466   1.950   2.362
 8889SOL     OW27565   1.748   5.175   6.784
 8889SOL    HW127566   1.824   5.203   6.724
 8889SOL    HW227567   1.723   5.081   6.763
 8890SOL     OW27568   1.147   6.590   0.291
 8890SOL    HW127569   1.143   6.556   0.385
 8890SOL    HW227570   1.115   6.520   0.228
 8891SOL     OW27571   6.058   4.133   5.606
 8891SOL    HW127572   6.109   4.073   5.544
 8891SOL    HW227573   6.061   4.227   5.572
 8892SOL     OW27574   2.530   5.281   5.069
 8892SOL    HW127575   2.536   5.217   5.146
 8892SOL    HW227576   2.529   5.230   4.983
 8893SOL     OW27577   1.303   5.309   5.403
 8893SOL    HW127578   1.224   5.265   5.445
 8893SOL    HW227579   1.315   5.274   5.310
 8894SOL     OW27580   4.990   1.561   1.633
 8894SOL    HW127581   5.022   1.642   1.584
 8894SOL    HW227582   4.979   1.583   1.730
 8895SOL     OW27583   6.711   3.281   1.024
 8895SOL    HW127584   6.739   3.364   0.976
 8895SOL    HW227585   6.669   3.218   0.959
 8896SOL     OW27586   0.498   2.411   3.540
 8896SOL    HW127587   0.478   2.461   3.624
 8896SOL    HW227588   0.568   2.460   3.488
 8897SOL     OW27589   1.972   5.430   3.830
 8897SOL    HW127590   1.995   5.335   3.812
 8897SOL    HW227591   1.875   5.438   3.852
 8898SOL     OW27592   4.938   3.616   2.707
 8898SOL    HW127593   4.925   3.534   2.763
 8898SOL    HW227594   4.935   3.591   2.610
 8899SOL     OW27595   1.520   3.745   3.176
 8899SOL    HW127596   1.531   3.692   3.260
 8899SOL    HW227597   1.454   3.700   3.116
 8900SOL     OW27598   4.692   1.863   4.079
 8900SOL    HW127599   4.592   1.859   4.072
 8900SOL    HW227600   4.721   1.822   4.165
 8901SOL     OW27601   1.533   5.318   4.351
 8901SOL    HW127602   1.448   5.271   4.374
 8901SOL    HW227603   1.609   5.253   4.349
 8902SOL     OW27604   0.362   4.560   0.408
 8902SOL    HW127605   0.313   4.647   0.412
 8902SOL    HW227606   0.389   4.541   0.313
 8903SOL     OW27607   1.175   0.022   5.641
 8903SOL    HW127608   1.253   6.983   5.649
 8903SOL    HW227609   1.198   0.110   5.683
 8904SOL     OW27610   0.631   1.174   3.593
 8904SOL    HW127611   0.536   1.154   3.569
 8904SOL    HW227612   0.646   1.154   3.690
 8905SOL     OW27613   1.328   4.002   2.885
 8905SOL    HW127614   1.335   4.036   2.978
 8905SOL    HW227615   1.387   3.922   2.874
 8906SOL     OW27616   5.880   0.077   0.259
 8906SOL    HW127617   5.888   0.162   0.208
 8906SOL    HW227618   5.936   0.006   0.216
 8907SOL     OW27619   2.851   3.351   5.056
 8907SOL    HW127620   2.913   3.291   5.003
 8907SOL    HW227621   2.789   3.398   4.993
 8908SOL     OW27622   1.354   4.226   6.567
 8908SOL    HW127623   1.333   4.320   6.593
 8908SOL    HW227624   1.292   4.197   6.494
 8909SOL     OW27625   1.736   5.890   1.186
 8909SOL    HW127626   1.669   5.948   1.138
 8909SOL    HW227627   1.688   5.816   1.233
 8910SOL     OW27628   1.091   0.381   3.704
 8910SOL    HW127629   1.165   0.441   3.674
 8910SOL    HW227630   1.049   0.338   3.624
 8911SOL     OW27631   4.353   2.196   4.669
 8911SOL    HW127632   4.313   2.197   4.760
 8911SOL    HW227633   4.334   2.108   4.625
 8912SOL     OW27634   3.478   3.578   3.770
 8912SOL    HW127635   3.427   3.495   3.791
 8912SOL    HW227636   3.570   3.554   3.739
 8913SOL     OW27637   5.492   6.052   0.673
 8913SOL    HW127638   5.555   5.997   0.727
 8913SOL    HW227639   5.501   6.028   0.576
 8914SOL     OW27640   4.818   5.288   5.700
 8914SOL    HW127641   4.813   5.294   5.600
 8914SOL    HW227642   4.759   5.215   5.732
 8915SOL     OW27643   1.539   1.433   2.529
 8915SOL    HW127644   1.580   1.426   2.438
 8915SOL    HW227645   1.601   1.393   2.596
 8916SOL     OW27646   5.061   0.988   1.131
 8916SOL    HW127647   5.009   1.074   1.129
 8916SOL    HW227648   5.004   0.915   1.092
 8917SOL     OW27649   6.022   1.671   0.357
 8917SOL    HW127650   5.940   1.615   0.360
 8917SOL    HW227651   6.022   1.735   0.434
 8918SOL     OW27652   0.922   3.496   2.566
 8918SOL    HW127653   0.891   3.491   2.661
 8918SOL    HW227654   0.842   3.504   2.506
 8919SOL     OW27655   6.419   2.952   1.472
 8919SOL    HW127656   6.481   2.959   1.551
 8919SOL    HW227657   6.473   2.939   1.389
 8920SOL     OW27658   6.922   0.981   6.787
 8920SOL    HW127659   6.979   0.900   6.802
 8920SOL    HW227660   6.943   1.020   6.698
 8921SOL     OW27661   1.529   3.029   2.516
 8921SOL    HW127662   1.530   3.129   2.515
 8921SOL    HW227663   1.581   2.996   2.596
 8922SOL     OW27664   4.656   5.291   3.821
 8922SOL    HW127665   4.639   5.255   3.729
 8922SOL    HW227666   4.568   5.310   3.865
 8923SOL     OW27667   2.350   1.722   4.617
 8923SOL    HW127668   2.414   1.799   4.619
 8923SOL    HW227669   2.374   1.658   4.690
 8924SOL     OW27670   6.295   5.066   5.134
 8924SOL    HW127671   6.264   5.009   5.059
 8924SOL    HW227672   6.308   5.160   5.102
 8925SOL     OW27673   0.961   6.425   2.687
 8925SOL    HW127674   0.896   6.500   2.692
 8925SOL    HW227675   0.990   6.412   2.592
 8926SOL     OW27676   5.887   1.069   6.556
 8926SOL    HW127677   5.964   1.084   6.617
 8926SOL    HW227678   5.887   0.973   6.526
 8927SOL     OW27679   1.512   0.643   5.936
 8927SOL    HW127680   1.474   0.733   5.916
 8927SOL    HW227681   1.438   0.577   5.946
 8928SOL     OW27682   0.874   6.599   5.583
 8928SOL    HW127683   0.949   6.664   5.599
 8928SOL    HW227684   0.787   6.643   5.608
 8929SOL     OW27685   0.238   1.545   3.701
 8929SOL    HW127686   0.242   1.553   3.800
 8929SOL    HW227687   0.151   1.503   3.674
 8930SOL     OW27688   2.064   4.578   3.737
 8930SOL    HW127689   2.041   4.506   3.671
 8930SOL    HW227690   2.061   4.541   3.829
 8931SOL     OW27691   4.166   3.272   0.233
 8931SOL    HW127692   4.135   3.288   0.140
 8931SOL    HW227693   4.225   3.191   0.235
 8932SOL     OW27694   1.105   3.677   3.670
 8932SOL    HW127695   1.180   3.737   3.700
 8932SOL    HW227696   1.107   3.670   3.571
 8933SOL     OW27697   4.108   2.121   5.437
 8933SOL    HW127698   4.168   2.042   5.423
 8933SOL    HW227699   4.058   2.110   5.523
 8934SOL     OW27700   2.537   5.966   2.626
 8934SOL    HW127701   2.601   5.896   2.595
 8934SOL    HW227702   2.568   6.003   2.714
 8935SOL     OW27703   6.928   4.788   0.507
 8935SOL    HW127704   6.880   4.700   0.510
 8935SOL    HW227705   6.967   4.801   0.417
 8936SOL     OW27706   4.096   2.605   0.636
 8936SOL    HW127707   4.025   2.640   0.698
 8936SOL    HW227708   4.058   2.596   0.544
 8937SOL     OW27709   0.619   6.602   6.408
 8937SOL    HW127710   0.608   6.646   6.497
 8937SOL    HW227711   0.536   6.551   6.386
 8938SOL     OW27712   4.602   6.274   1.612
 8938SOL    HW127713   4.577   6.259   1.708
 8938SOL    HW227714   4.525   6.247   1.554
 8939SOL     OW27715   4.376   1.665   5.193
 8939SOL    HW127716   4.363   1.618   5.106
 8939SOL    HW227717   4.372   1.599   5.267
 8940SOL     OW27718   5.629   0.060   2.349
 8940SOL    HW127719   5.557   0.125   2.325
 8940SOL    HW227720   5.714   0.109   2.368
 8941SOL     OW27721   4.822   1.586   6.198
 8941SOL    HW127722   4.806   1.492   6.225
 8941SOL    HW227723   4.910   1.593   6.152
 8942SOL     OW27724   1.071   3.060   5.445
 8942SOL    HW127725   1.043   2.997   5.517
 8942SOL    HW227726   1.059   3.154   5.477
 8943SOL     OW27727   5.202   3.224   1.275
 8943SOL    HW127728   5.251   3.296   1.225
 8943SOL    HW227729   5.264   3.182   1.341
 8944SOL     OW27730   4.505   5.425   1.438
 8944SOL    HW127731   4.486   5.517   1.470
 8944SOL    HW227732   4.422   5.369   1.444
 8945SOL     OW27733   1.615   0.863   4.789
 8945SOL    HW127734   1.578   0.909   4.708
 8945SOL    HW227735   1.708   0.894   4.806
 8946SOL     OW27736   3.914   1.632   4.697
 8946SOL    HW127737   3.981   1.567   4.733
 8946SOL    HW227738   3.890   1.698   4.769
 8947SOL     OW27739   3.723   4.053   4.679
 8947SOL    HW127740   3.765   4.131   4.632
 8947SOL    HW227741   3.755   3.968   4.639
 8948SOL     OW27742   6.271   4.986   2.662
 8948SOL    HW127743   6.222   5.041   2.730
 8948SOL    HW227744   6.255   5.025   2.571
 8949SOL     OW27745   2.563   5.373   6.515
 8949SOL    HW127746   2.521   5.425   6.589
 8949SOL    HW227747   2.652   5.337   6.546
 8950SOL     OW27748   4.703   2.282   4.776
 8950SOL    HW127749   4.623   2.337   4.754
 8950SOL    HW227750   4.778   2.341   4.802
 8951SOL     OW27751   2.461   2.383   5.609
 8951SOL    HW127752   2.449   2.345   5.700
 8951SOL    HW227753   2.543   2.344   5.567
 8952SOL     OW27754   6.505   0.228   3.384
 8952SOL    HW127755   6.473   0.222   3.289
 8952SOL    HW227756   6.428   0.250   3.444
 8953SOL     OW27757   1.700   4.724   6.606
 8953SOL    HW127758   1.621   4.664   6.589
 8953SOL    HW227759   1.705   4.745   6.703
 8954SOL     OW27760   1.457   6.077   5.739
 8954SOL    HW127761   1.538   6.033   5.699
 8954SOL    HW227762   1.380   6.070   5.676
 8955SOL     OW27763   6.071   3.714   3.857
 8955SOL    HW127764   6.087   3.800   3.906
 8955SOL    HW227765   6.035   3.646   3.921
 8956SOL     OW27766   1.235   0.890   5.312
 8956SOL    HW127767   1.167   0.948   5.267
 8956SOL    HW227768   1.319   0.942   5.328
 8957SOL     OW27769   2.627   5.439   2.335
 8957SOL    HW127770   2.563   5.503   2.377
 8957SOL    HW227771   2.676   5.485   2.261
 8958SOL     OW27772   2.125   0.970   4.168
 8958SOL    HW127773   2.073   1.033   4.110
 8958SOL    HW227774   2.162   1.020   4.246
 8959SOL     OW27775   3.093   4.707   1.046
 8959SOL    HW127776   3.073   4.653   1.128
 8959SOL    HW227777   3.085   4.804   1.068
 8960SOL     OW27778   4.019   6.159   1.157
 8960SOL    HW127779   3.937   6.212   1.179
 8960SOL    HW227780   4.088   6.219   1.117
 8961SOL     OW27781   1.755   2.424   3.920
 8961SOL    HW127782   1.744   2.447   4.016
 8961SOL    HW227783   1.724   2.500   3.863
 8962SOL     OW27784   5.088   0.313   3.521
 8962SOL    HW127785   5.064   0.410   3.521
 8962SOL    HW227786   5.091   0.279   3.615
 8963SOL     OW27787   0.127   1.117   3.530
 8963SOL    HW127788   0.190   1.126   3.453
 8963SOL    HW227789   0.072   1.034   3.519
 8964SOL     OW27790   6.660   4.467   3.007
 8964SOL    HW127791   6.635   4.551   3.056
 8964SOL    HW227792   6.705   4.404   3.070
 8965SOL     OW27793   1.381   5.322   1.567
 8965SOL    HW127794   1.477   5.345   1.583
 8965SOL    HW227795   1.324   5.363   1.638
 8966SOL     OW27796   3.223   3.011   5.192
 8966SOL    HW127797   3.127   3.013   5.221
 8966SOL    HW227798   3.228   2.995   5.093
 8967SOL     OW27799   4.420   0.208   0.593
 8967SOL    HW127800   4.427   0.128   0.534
 8967SOL    HW227801   4.383   0.180   0.682
 8968SOL     OW27802   5.015   5.207   2.852
 8968SOL    HW127803   5.115   5.202   2.848
 8968SOL    HW227804   4.988   5.295   2.888
 8969SOL     OW27805   6.415   1.157   4.363
 8969SOL    HW127806   6.432   1.216   4.284
 8969SOL    HW227807   6.319   1.127   4.362
 8970SOL     OW27808   3.840   2.185   1.293
 8970SOL    HW127809   3.803   2.276   1.274
 8970SOL    HW227810   3.937   2.183   1.268
 8971SOL     OW27811   4.305   6.235   3.083
 8971SOL    HW127812   4.295   6.180   3.165
 8971SOL    HW227813   4.397   6.274   3.079
 8972SOL     OW27814   5.363   0.883   4.628
 8972SOL    HW127815   5.394   0.977   4.610
 8972SOL    HW227816   5.317   0.880   4.717
 8973SOL     OW27817   1.637   4.543   0.254
 8973SOL    HW127818   1.632   4.596   0.169
 8973SOL    HW227819   1.601   4.598   0.329
 8974SOL     OW27820   0.404   2.798   3.682
 8974SOL    HW127821   0.348   2.860   3.737
 8974SOL    HW227822   0.355   2.775   3.598
 8975SOL     OW27823   3.006   6.924   6.911
 8975SOL    HW127824   3.043   6.835   6.937
 8975SOL    HW227825   2.981   6.922   6.814
 8976SOL     OW27826   0.278   5.004   4.840
 8976SOL    HW127827   0.341   5.010   4.917
 8976SOL    HW227828   0.260   5.096   4.805
 8977SOL     OW27829   5.716   0.945   6.179
 8977SOL    HW127830   5.815   0.950   6.163
 8977SOL    HW227831   5.687   0.849   6.176
 8978SOL     OW27832   5.709   6.135   1.066
 8978SOL    HW127833   5.623   6.087   1.083
 8978SOL    HW227834   5.782   6.069   1.050
 8979SOL     OW27835   1.820   5.123   5.012
 8979SOL    HW127836   1.888   5.172   4.958
 8979SOL    HW227837   1.761   5.188   5.060
 8980SOL     OW27838   3.769   3.246   4.057
 8980SOL    HW127839   3.783   3.334   4.010
 8980SOL    HW227840   3.694   3.256   4.123
 8981SOL     OW27841   2.952   1.094   5.351
 8981SOL    HW127842   2.893   1.166   5.388
 8981SOL    HW227843   2.923   1.071   5.258
 8982SOL     OW27844   4.313   4.330   0.250
 8982SOL    HW127845   4.406   4.359   0.273
 8982SOL    HW227846   4.309   4.230   0.250
 8983SOL     OW27847   5.106   5.315   0.679
 8983SOL    HW127848   5.077   5.220   0.694
 8983SOL    HW227849   5.150   5.350   0.762
 8984SOL     OW27850   1.357   6.531   3.331
 8984SOL    HW127851   1.398   6.558   3.244
 8984SOL    HW227852   1.366   6.432   3.343
 8985SOL     OW27853   3.566   2.957   5.623
 8985SOL    HW127854   3.603   2.884   5.681
 8985SOL    HW227855   3.641   3.010   5.585
 8986SOL     OW27856   3.659   6.119   2.720
 8986SOL    HW127857   3.589   6.158   2.660
 8986SOL    HW227858   3.749   6.147   2.688
 8987SOL     OW27859   5.082   6.260   1.707
 8987SOL    HW127860   5.009   6.194   1.722
 8987SOL    HW227861   5.156   6.218   1.654
 8988SOL     OW27862   0.891   5.634   5.229
 8988SOL    HW127863   0.982   5.592   5.232
 8988SOL    HW227864   0.826   5.577   5.281
 8989SOL     OW27865   3.148   3.146   6.859
 8989SOL    HW127866   3.221   3.173   6.921
 8989SOL    HW227867   3.120   3.052   6.880
 8990SOL     OW27868   0.255   6.445   3.445
 8990SOL    HW127869   0.286   6.528   3.398
 8990SOL    HW227870   0.156   6.448   3.455
 8991SOL     OW27871   1.347   2.094   5.402
 8991SOL    HW127872   1.422   2.148   5.439
 8991SOL    HW227873   1.260   2.127   5.438
 8992SOL     OW27874   6.184   2.500   0.427
 8992SOL    HW127875   6.232   2.522   0.513
 8992SOL    HW227876   6.216   2.562   0.355
 8993SOL     OW27877   4.651   2.431   0.543
 8993SOL    HW127878   4.655   2.519   0.590
 8993SOL    HW227879   4.582   2.434   0.471
 8994SOL     OW27880   1.705   5.969   4.011
 8994SOL    HW127881   1.793   5.921   4.021
 8994SOL    HW227882   1.722   6.065   3.989
 8995SOL     OW27883   0.172   0.834   0.510
 8995SOL    HW127884   0.179   0.788   0.599
 8995SOL    HW227885   0.238   0.795   0.447
 8996SOL     OW27886   4.457   5.671   5.837
 8996SOL    HW127887   4.365   5.707   5.852
 8996SOL    HW227888   4.488   5.623   5.918
 8997SOL     OW27889   6.106   0.609   5.113
 8997SOL    HW127890   6.102   0.695   5.062
 8997SOL    HW227891   6.110   0.533   5.048
 8998SOL     OW27892   6.339   3.229   4.555
 8998SOL    HW127893   6.391   3.169   4.495
 8998SOL    HW227894   6.367   3.214   4.650
 8999SOL     OW27895   3.999   6.855   6.026
 8999SOL    HW127896   3.971   6.803   5.945
 8999SOL    HW227897   4.069   6.804   6.076
 9000SOL     OW27898   1.469   4.180   1.060
 9000SOL    HW127899   1.559   4.146   1.087
 9000SOL    HW227900   1.398   4.131   1.110
 9001SOL     OW27901   0.870   5.743   2.730
 9001SOL    HW127902   0.797   5.684   2.696
 9001SOL    HW227903   0.929   5.691   2.792
 9002SOL     OW27904   1.034   4.518   0.250
 9002SOL    HW127905   0.988   4.478   0.171
 9002SOL    HW227906   1.130   4.490   0.250
 9003SOL     OW27907   5.559   0.454   0.973
 9003SOL    HW127908   5.582   0.460   1.070
 9003SOL    HW227909   5.635   0.490   0.919
 9004SOL     OW27910   4.210   4.605   6.888
 9004SOL    HW127911   4.307   4.608   6.910
 9004SOL    HW227912   4.171   4.697   6.897
 9005SOL     OW27913   5.001   1.670   5.419
 9005SOL    HW127914   4.957   1.622   5.495
 9005SOL    HW227915   4.966   1.634   5.332
 9006SOL     OW27916   3.752   5.839   0.467
 9006SOL    HW127917   3.805   5.817   0.385
 9006SOL    HW227918   3.710   5.756   0.503
 9007SOL     OW27919   2.520   0.829   2.609
 9007SOL    HW127920   2.490   0.826   2.514
 9007SOL    HW227921   2.615   0.860   2.612
 9008SOL     OW27922   1.037   5.938   2.644
 9008SOL    HW127923   1.035   6.027   2.689
 9008SOL    HW227924   0.954   5.887   2.668
 9009SOL     OW27925   3.494   6.311   1.184
 9009SOL    HW127926   3.514   6.342   1.091
 9009SOL    HW227927   3.395   6.305   1.197
 9010SOL     OW27928   1.351   5.951   4.190
 9010SOL    HW127929   1.319   5.981   4.280
 9010SOL    HW227930   1.413   5.874   4.201
 9011SOL     OW27931   2.561   2.045   1.776
 9011SOL    HW127932   2.642   2.095   1.805
 9011SOL    HW227933   2.589   1.962   1.727
 9012SOL     OW27934   2.042   6.346   6.580
 9012SOL    HW127935   2.060   6.337   6.678
 9012SOL    HW227936   2.020   6.256   6.543
 9013SOL     OW27937   1.980   6.235   3.996
 9013SOL    HW127938   1.975   6.210   4.093
 9013SOL    HW227939   2.002   6.332   3.988
 9014SOL     OW27940   5.401   2.903   3.664
 9014SOL    HW127941   5.357   2.813   3.660
 9014SOL    HW227942   5.483   2.903   3.607
 9015SOL     OW27943   5.228   1.592   6.721
 9015SOL    HW127944   5.217   1.618   6.817
 9015SOL    HW227945   5.320   1.617   6.690
 9016SOL     OW27946   4.981   4.957   6.425
 9016SOL    HW127947   4.980   5.041   6.480
 9016SOL    HW227948   5.070   4.946   6.383
 9017SOL     OW27949   4.074   0.532   4.319
 9017SOL    HW127950   3.983   0.491   4.330
 9017SOL    HW227951   4.131   0.506   4.397
 9018SOL     OW27952   4.048   4.237   6.447
 9018SOL    HW127953   4.000   4.226   6.360
 9018SOL    HW227954   4.085   4.330   6.452
 9019SOL     OW27955   0.572   3.781   3.966
 9019SOL    HW127956   0.508   3.705   3.956
 9019SOL    HW227957   0.641   3.776   3.894
 9020SOL     OW27958   5.387   5.865   2.422
 9020SOL    HW127959   5.451   5.791   2.399
 9020SOL    HW227960   5.309   5.827   2.472
 9021SOL     OW27961   0.471   0.864   4.312
 9021SOL    HW127962   0.378   0.828   4.307
 9021SOL    HW227963   0.479   0.927   4.389
 9022SOL     OW27964   4.993   3.619   5.904
 9022SOL    HW127965   5.076   3.595   5.956
 9022SOL    HW227966   5.002   3.713   5.871
 9023SOL     OW27967   6.003   4.239   0.659
 9023SOL    HW127968   5.939   4.254   0.583
 9023SOL    HW227969   5.959   4.267   0.744
 9024SOL     OW27970   2.266   5.940   6.316
 9024SOL    HW127971   2.297   6.035   6.310
 9024SOL    HW227972   2.343   5.881   6.339
 9025SOL     OW27973   1.060   5.508   1.109
 9025SOL    HW127974   1.055   5.607   1.094
 9025SOL    HW227975   0.968   5.472   1.125
 9026SOL     OW27976   5.153   1.720   0.319
 9026SOL    HW127977   5.214   1.792   0.286
 9026SOL    HW227978   5.104   1.679   0.242
 9027SOL     OW27979   0.695   3.910   3.149
 9027SOL    HW127980   0.641   3.954   3.077
 9027SOL    HW227981   0.696   3.969   3.229
 9028SOL     OW27982   3.227   5.026   6.010
 9028SOL    HW127983   3.269   5.029   5.919
 9028SOL    HW227984   3.252   5.108   6.061
 9029SOL     OW27985   4.263   6.650   4.245
 9029SOL    HW127986   4.330   6.602   4.302
 9029SOL    HW227987   4.183   6.591   4.232
 9030SOL     OW27988   3.061   1.444   2.530
 9030SOL    HW127989   3.048   1.344   2.530
 9030SOL    HW227990   3.023   1.481   2.615
 9031SOL     OW27991   4.344   6.901   4.225
 9031SOL    HW127992   4.443   6.891   4.226
 9031SOL    HW227993   4.301   6.811   4.230
 9032SOL     OW27994   4.868   3.627   2.201
 9032SOL    HW127995   4.840   3.718   2.230
 9032SOL    HW227996   4.801   3.590   2.137
 9033SOL     OW27997   0.695   7.012   3.301
 9033SOL    HW127998   0.645   0.017   3.218
 9033SOL    HW227999   0.764   6.944   3.276
 9034SOL     OW28000   4.221   0.106   3.927
 9034SOL    HW128001   4.199   0.121   3.830
 9034SOL    HW228002   4.212   0.192   3.977
 9035SOL     OW28003   2.261   4.821   6.454
 9035SOL    HW128004   2.261   4.915   6.487
 9035SOL    HW228005   2.180   4.805   6.398
 9036SOL     OW28006   1.761   4.065   5.308
 9036SOL    HW128007   1.860   4.066   5.304
 9036SOL    HW228008   1.724   4.023   5.225
 9037SOL     OW28009   1.262   1.841   2.939
 9037SOL    HW128010   1.330   1.768   2.928
 9037SOL    HW228011   1.308   1.927   2.961
 9038SOL     OW28012   4.312   3.045   5.615
 9038SOL    HW128013   4.253   3.059   5.535
 9038SOL    HW228014   4.386   2.981   5.591
 9039SOL     OW28015   4.068   5.768   6.444
 9039SOL    HW128016   4.155   5.721   6.432
 9039SOL    HW228017   4.012   5.719   6.510
 9040SOL     OW28018   2.490   1.827   1.326
 9040SOL    HW128019   2.406   1.800   1.280
 9040SOL    HW228020   2.474   1.907   1.384
 9041SOL     OW28021   6.745   1.974   1.906
 9041SOL    HW128022   6.724   1.917   1.986
 9041SOL    HW228023   6.689   1.945   1.829
 9042SOL     OW28024   3.706   6.318   0.237
 9042SOL    HW128025   3.653   6.290   0.157
 9042SOL    HW228026   3.794   6.270   0.238
 9043SOL     OW28027   3.217   1.947   0.410
 9043SOL    HW128028   3.127   1.934   0.370
 9043SOL    HW228029   3.209   1.994   0.498
 9044SOL     OW28030   0.782   1.056   0.237
 9044SOL    HW128031   0.871   1.097   0.218
 9044SOL    HW228032   0.716   1.128   0.257
 9045SOL     OW28033   3.992   1.731   3.422
 9045SOL    HW128034   3.919   1.675   3.463
 9045SOL    HW228035   3.957   1.774   3.339
 9046SOL     OW28036   3.350   3.416   2.139
 9046SOL    HW128037   3.353   3.485   2.067
 9046SOL    HW228038   3.424   3.433   2.204
 9047SOL     OW28039   1.584   3.673   5.946
 9047SOL    HW128040   1.597   3.594   5.885
 9047SOL    HW228041   1.563   3.641   6.038
 9048SOL     OW28042   6.950   2.039   6.425
 9048SOL    HW128043   7.012   2.092   6.484
 9048SOL    HW228044   6.933   2.090   6.340
 9049SOL     OW28045   3.349   6.887   6.188
 9049SOL    HW128046   3.294   6.855   6.111
 9049SOL    HW228047   3.303   6.864   6.274
 9050SOL     OW28048   0.508   4.945   0.452
 9050SOL    HW128049   0.475   5.034   0.423
 9050SOL    HW228050   0.548   4.952   0.543
 9051SOL     OW28051   2.933   0.754   1.230
 9051SOL    HW128052   2.996   0.826   1.201
 9051SOL    HW228053   2.951   0.730   1.325
 9052SOL     OW28054   1.186   2.321   5.206
 9052SOL    HW128055   1.116   2.376   5.160
 9052SOL    HW228056   1.192   2.231   5.162
 9053SOL     OW28057   1.336   1.192   0.114
 9053SOL    HW128058   1.345   1.156   0.021
 9053SOL    HW228059   1.293   1.123   0.172
 9054SOL     OW28060   2.154   5.936   2.379
 9054SOL    HW128061   2.103   5.964   2.460
 9054SOL    HW228062   2.160   6.013   2.315
 9055SOL     OW28063   0.521   3.671   4.726
 9055SOL    HW128064   0.577   3.634   4.800
 9055SOL    HW228065   0.428   3.634   4.733
 9056SOL     OW28066   6.628   3.089   2.954
 9056SOL    HW128067   6.564   3.063   2.883
 9056SOL    HW228068   6.649   3.009   3.011
 9057SOL     OW28069   4.153   1.961   4.433
 9057SOL    HW128070   4.090   1.884   4.441
 9057SOL    HW228071   4.114   2.030   4.372
 9058SOL     OW28072   2.603   0.745   5.706
 9058SOL    HW128073   2.695   0.783   5.721
 9058SOL    HW228074   2.609   0.646   5.702
 9059SOL     OW28075   1.156   2.136   2.799
 9059SOL    HW128076   1.075   2.113   2.853
 9059SOL    HW228077   1.142   2.107   2.705
 9060SOL     OW28078   5.368   2.745   5.739
 9060SOL    HW128079   5.330   2.664   5.694
 9060SOL    HW228080   5.330   2.828   5.696
 9061SOL     OW28081   3.007   5.568   2.994
 9061SOL    HW128082   3.011   5.666   2.973
 9061SOL    HW228083   3.028   5.516   2.911
 9062SOL     OW28084   1.540   5.680   1.003
 9062SOL    HW128085   1.616   5.691   0.938
 9062SOL    HW228086   1.531   5.584   1.028
 9063SOL     OW28087   2.866   1.581   2.089
 9063SOL    HW128088   2.957   1.555   2.056
 9063SOL    HW228089   2.847   1.675   2.064
 9064SOL     OW28090   5.646   3.609   0.549
 9064SOL    HW128091   5.551   3.599   0.580
 9064SOL    HW228092   5.681   3.698   0.580
 9065SOL     OW28093   2.130   0.909   0.034
 9065SOL    HW128094   2.101   0.815   0.054
 9065SOL    HW228095   2.166   0.912   6.963
 9066SOL     OW28096   5.069   6.561   0.028
 9066SOL    HW128097   5.016   6.497   6.995
 9066SOL    HW228098   5.011   6.600   0.099
 9067SOL     OW28099   1.342   6.678   2.166
 9067SOL    HW128100   1.372   6.616   2.239
 9067SOL    HW228101   1.310   6.624   2.088
 9068SOL     OW28102   1.253   6.252   6.823
 9068SOL    HW128103   1.293   6.270   6.733
 9068SOL    HW228104   1.322   6.266   6.894
 9069SOL     OW28105   1.177   2.490   6.266
 9069SOL    HW128106   1.181   2.493   6.166
 9069SOL    HW228107   1.098   2.436   6.295
 9070SOL     OW28108   1.278   4.497   3.517
 9070SOL    HW128109   1.250   4.465   3.426
 9070SOL    HW228110   1.365   4.453   3.541
 9071SOL     OW28111   4.945   5.519   0.306
 9071SOL    HW128112   4.923   5.613   0.280
 9071SOL    HW228113   4.924   5.505   0.403
 9072SOL     OW28114   5.602   5.267   6.933
 9072SOL    HW128115   5.505   5.259   6.911
 9072SOL    HW228116   5.657   5.247   6.852
 9073SOL     OW28117   2.138   0.356   1.697
 9073SOL    HW128118   2.082   0.299   1.636
 9073SOL    HW228119   2.134   0.319   1.790
 9074SOL     OW28120   0.496   0.269   3.290
 9074SOL    HW128121   0.560   0.297   3.219
 9074SOL    HW228122   0.544   0.253   3.376
 9075SOL     OW28123   0.925   0.650   2.056
 9075SOL    HW128124   0.914   0.723   2.124
 9075SOL    HW228125   0.860   0.664   1.982
 9076SOL     OW28126   0.031   2.133   5.284
 9076SOL    HW128127   6.981   2.097   5.225
 9076SOL    HW228128   0.119   2.096   5.254
 9077SOL     OW28129   6.201   5.844   1.606
 9077SOL    HW128130   6.269   5.914   1.627
 9077SOL    HW228131   6.230   5.794   1.525
 9078SOL     OW28132   3.844   2.931   5.024
 9078SOL    HW128133   3.781   2.891   4.957
 9078SOL    HW228134   3.890   3.010   4.984
 9079SOL     OW28135   3.889   0.729   5.750
 9079SOL    HW128136   3.876   0.653   5.813
 9079SOL    HW228137   3.817   0.797   5.765
 9080SOL     OW28138   5.257   1.460   0.374
 9080SOL    HW128139   5.314   1.430   0.298
 9080SOL    HW228140   5.240   1.558   0.367
 9081SOL     OW28141   5.435   0.321   2.387
 9081SOL    HW128142   5.447   0.377   2.469
 9081SOL    HW228143   5.347   0.274   2.390
 9082SOL     OW28144   3.046   0.588   2.628
 9082SOL    HW128145   2.953   0.579   2.591
 9082SOL    HW228146   3.043   0.576   2.727
 9083SOL     OW28147   4.667   4.703   4.248
 9083SOL    HW128148   4.722   4.620   4.239
 9083SOL    HW228149   4.580   4.680   4.290
 9084SOL     OW28150   3.365   3.865   3.007
 9084SOL    HW128151   3.453   3.886   2.966
 9084SOL    HW228152   3.358   3.767   3.023
 9085SOL     OW28153   0.906   2.065   0.793
 9085SOL    HW128154   0.832   2.126   0.820
 9085SOL    HW228155   0.879   2.013   0.712
 9086SOL     OW28156   0.194   3.555   6.969
 9086SOL    HW128157   0.104   3.548   7.013
 9086SOL    HW228158   0.226   3.650   6.972
 9087SOL     OW28159   5.048   3.416   2.106
 9087SOL    HW128160   4.994   3.361   2.042
 9087SOL    HW228161   5.009   3.508   2.112
 9088SOL     OW28162   4.956   6.507   0.919
 9088SOL    HW128163   4.923   6.536   1.009
 9088SOL    HW228164   4.880   6.466   0.868
 9089SOL     OW28165   4.488   0.384   5.957
 9089SOL    HW128166   4.542   0.378   6.041
 9089SOL    HW228167   4.541   0.348   5.881
 9090SOL     OW28168   5.572   1.357   3.008
 9090SOL    HW128169   5.660   1.385   2.971
 9090SOL    HW228170   5.501   1.421   2.977
 9091SOL     OW28171   3.558   2.368   6.843
 9091SOL    HW128172   3.557   2.274   6.878
 9091SOL    HW228173   3.642   2.383   6.791
 9092SOL     OW28174   0.119   3.157   6.621
 9092SOL    HW128175   0.160   3.179   6.532
 9092SOL    HW228176   0.020   3.149   6.611
 9093SOL     OW28177   1.974   6.124   4.882
 9093SOL    HW128178   2.018   6.044   4.841
 9093SOL    HW228179   1.874   6.111   4.879
 9094SOL     OW28180   1.401   3.732   1.250
 9094SOL    HW128181   1.490   3.690   1.230
 9094SOL    HW228182   1.345   3.667   1.301
 9095SOL     OW28183   6.954   6.841   5.976
 9095SOL    HW128184   6.901   6.846   6.061
 9095SOL    HW228185   7.003   6.927   5.962
 9096SOL     OW28186   6.681   5.396   3.732
 9096SOL    HW128187   6.755   5.433   3.675
 9096SOL    HW228188   6.703   5.411   3.828
 9097SOL     OW28189   1.132   2.618   5.993
 9097SOL    HW128190   1.074   2.691   6.028
 9097SOL    HW228191   1.086   2.530   6.007
 9098SOL     OW28192   2.206   4.241   3.679
 9098SOL    HW128193   2.138   4.283   3.619
 9098SOL    HW228194   2.194   4.142   3.678
 9099SOL     OW28195   2.335   1.451   6.557
 9099SOL    HW128196   2.266   1.400   6.506
 9099SOL    HW228197   2.330   1.548   6.530
 9100SOL     OW28198   1.679   4.287   3.881
 9100SOL    HW128199   1.777   4.306   3.890
 9100SOL    HW228200   1.627   4.370   3.902
 9101SOL     OW28201   0.572   2.328   0.612
 9101SOL    HW128202   0.486   2.302   0.569
 9101SOL    HW228203   0.643   2.337   0.542
 9102SOL     OW28204   4.118   6.969   2.688
 9102SOL    HW128205   4.164   6.890   2.731
 9102SOL    HW228206   4.090   0.011   2.759
 9103SOL     OW28207   6.158   1.102   1.040
 9103SOL    HW128208   6.135   1.115   1.136
 9103SOL    HW228209   6.242   1.048   1.033
 9104SOL     OW28210   5.996   1.831   6.238
 9104SOL    HW128211   5.932   1.756   6.224
 9104SOL    HW228212   6.088   1.803   6.209
 9105SOL     OW28213   2.673   1.413   5.727
 9105SOL    HW128214   2.700   1.323   5.760
 9105SOL    HW228215   2.697   1.483   5.794
 9106SOL     OW28216   1.422   3.726   6.882
 9106SOL    HW128217   1.471   3.773   6.808
 9106SOL    HW228218   1.326   3.754   6.881
 9107SOL     OW28219   3.166   1.658   0.566
 9107SOL    HW128220   3.165   1.753   0.599
 9107SOL    HW228221   3.091   1.645   0.501
 9108SOL     OW28222   6.593   5.673   6.266
 9108SOL    HW128223   6.609   5.687   6.364
 9108SOL    HW228224   6.517   5.609   6.254
 9109SOL     OW28225   5.732   3.779   2.914
 9109SOL    HW128226   5.726   3.735   2.824
 9109SOL    HW228227   5.660   3.847   2.922
 9110SOL     OW28228   1.252   6.075   3.423
 9110SOL    HW128229   1.246   6.089   3.522
 9110SOL    HW228230   1.324   6.132   3.385
 9111SOL     OW28231   3.826   2.240   6.478
 9111SOL    HW128232   3.808   2.327   6.432
 9111SOL    HW228233   3.921   2.239   6.510
 9112SOL     OW28234   0.735   5.215   1.321
 9112SOL    HW128235   0.661   5.240   1.384
 9112SOL    HW228236   0.787   5.297   1.296
 9113SOL     OW28237   5.470   0.544   4.708
 9113SOL    HW128238   5.372   0.535   4.688
 9113SOL    HW228239   5.502   0.461   4.753
 9114SOL     OW28240   0.878   6.844   5.820
 9114SOL    HW128241   0.946   6.814   5.754
 9114SOL    HW228242   0.875   6.944   5.822
 9115SOL     OW28243   4.977   4.436   5.152
 9115SOL    HW128244   4.955   4.513   5.212
 9115SOL    HW228245   4.892   4.390   5.126
 9116SOL     OW28246   2.192   0.185   3.510
 9116SOL    HW128247   2.261   0.167   3.580
 9116SOL    HW228248   2.152   0.276   3.525
 9117SOL     OW28249   2.005   6.848   6.992
 9117SOL    HW128250   2.031   6.937   0.007
 9117SOL    HW228251   1.955   6.861   6.906
 9118SOL     OW28252   6.557   3.753   1.873
 9118SOL    HW128253   6.465   3.738   1.837
 9118SOL    HW228254   6.562   3.716   1.965
 9119SOL     OW28255   3.050   1.098   0.533
 9119SOL    HW128256   3.079   1.186   0.571
 9119SOL    HW228257   2.955   1.103   0.504
 9120SOL     OW28258   6.548   4.016   4.760
 9120SOL    HW128259   6.631   3.961   4.760
 9120SOL    HW228260   6.491   3.992   4.682
 9121SOL     OW28261   4.025   0.785   4.244
 9121SOL    HW128262   3.932   0.783   4.208
 9121SOL    HW228263   4.049   0.695   4.280
 9122SOL     OW28264   0.746   2.920   1.389
 9122SOL    HW128265   0.777   2.853   1.322
 9122SOL    HW228266   0.652   2.900   1.415
 9123SOL     OW28267   0.367   5.740   4.505
 9123SOL    HW128268   0.356   5.839   4.515
 9123SOL    HW228269   0.447   5.710   4.556
 9124SOL     OW28270   3.061   5.391   0.989
 9124SOL    HW128271   3.126   5.362   0.918
 9124SOL    HW228272   3.004   5.313   1.016
 9125SOL     OW28273   5.714   6.304   1.790
 9125SOL    HW128274   5.620   6.331   1.773
 9125SOL    HW228275   5.717   6.239   1.866
 9126SOL     OW28276   4.347   4.664   0.758
 9126SOL    HW128277   4.264   4.610   0.769
 9126SOL    HW228278   4.369   4.710   0.845
 9127SOL     OW28279   6.498   4.874   5.142
 9127SOL    HW128280   6.586   4.919   5.123
 9127SOL    HW228281   6.427   4.944   5.153
 9128SOL     OW28282   5.754   4.172   5.961
 9128SOL    HW128283   5.720   4.115   5.886
 9128SOL    HW228284   5.845   4.206   5.937
 9129SOL     OW28285   0.638   3.095   0.347
 9129SOL    HW128286   0.575   3.017   0.354
 9129SOL    HW228287   0.587   3.178   0.326
 9130SOL     OW28288   3.014   3.474   4.714
 9130SOL    HW128289   3.001   3.572   4.698
 9130SOL    HW228290   3.065   3.435   4.638
 9131SOL     OW28291   5.579   2.588   0.627
 9131SOL    HW128292   5.497   2.644   0.618
 9131SOL    HW228293   5.651   2.624   0.567
 9132SOL     OW28294   0.861   3.900   3.765
 9132SOL    HW128295   0.866   3.818   3.821
 9132SOL    HW228296   0.874   3.981   3.822
 9133SOL     OW28297   5.964   0.078   0.932
 9133SOL    HW128298   5.964   0.112   1.026
 9133SOL    HW228299   5.873   0.042   0.910
 9134SOL     OW28300   4.620   4.611   0.294
 9134SOL    HW128301   4.605   4.513   0.305
 9134SOL    HW228302   4.681   4.644   0.366
 9135SOL     OW28303   6.226   6.082   2.611
 9135SOL    HW128304   6.257   6.174   2.636
 9135SOL    HW228305   6.299   6.035   2.561
 9136SOL     OW28306   0.177   5.217   0.259
 9136SOL    HW128307   0.121   5.274   0.198
 9136SOL    HW228308   0.132   5.208   0.347
 9137SOL     OW28309   5.122   6.464   5.261
 9137SOL    HW128310   5.141   6.505   5.171
 9137SOL    HW228311   5.056   6.520   5.310
 9138SOL     OW28312   2.563   4.067   6.405
 9138SOL    HW128313   2.609   4.125   6.337
 9138SOL    HW228314   2.472   4.043   6.372
 9139SOL     OW28315   0.040   0.189   1.641
 9139SOL    HW128316   0.120   0.246   1.627
 9139SOL    HW228317   7.018   0.214   1.728
 9140SOL     OW28318   2.029   3.745   2.576
 9140SOL    HW128319   2.104   3.780   2.520
 9140SOL    HW228320   1.947   3.737   2.521
 9141SOL     OW28321   0.277   6.050   5.006
 9141SOL    HW128322   0.235   5.964   4.973
 9141SOL    HW228323   0.366   6.062   4.963
 9142SOL     OW28324   0.816   4.479   3.383
 9142SOL    HW128325   0.895   4.537   3.365
 9142SOL    HW228326   0.834   4.387   3.348
 9143SOL     OW28327   6.496   4.303   3.369
 9143SOL    HW128328   6.563   4.230   3.372
 9143SOL    HW228329   6.419   4.280   3.430
 9144SOL     OW28330   3.178   4.203   5.331
 9144SOL    HW128331   3.142   4.163   5.246
 9144SOL    HW228332   3.268   4.163   5.351
 9145SOL     OW28333   1.743   5.824   5.540
 9145SOL    HW128334   1.698   5.909   5.515
 9145SOL    HW228335   1.817   5.842   5.604
 9146SOL     OW28336   6.267   2.533   3.121
 9146SOL    HW128337   6.293   2.597   3.048
 9146SOL    HW228338   6.175   2.554   3.153
 9147SOL     OW28339   3.883   7.010   5.533
 9147SOL    HW128340   3.864   0.086   5.531
 9147SOL    HW228341   3.797   6.960   5.543
 9148SOL     OW28342   5.150   5.447   1.712
 9148SOL    HW128343   5.226   5.386   1.737
 9148SOL    HW228344   5.066   5.414   1.755
 9149SOL     OW28345   1.100   3.791   0.930
 9149SOL    HW128346   1.081   3.693   0.935
 9149SOL    HW228347   1.051   3.838   1.004
 9150SOL     OW28348   2.985   3.651   6.911
 9150SOL    HW128349   2.953   3.556   6.913
 9150SOL    HW228350   2.936   3.701   6.840
 9151SOL     OW28351   2.155   3.282   3.628
 9151SOL    HW128352   2.061   3.254   3.645
 9151SOL    HW228353   2.156   3.357   3.562
 9152SOL     OW28354   2.064   4.109   2.628
 9152SOL    HW128355   2.116   4.039   2.577
 9152SOL    HW228356   1.968   4.106   2.600
 9153SOL     OW28357   0.159   3.068   6.962
 9153SOL    HW128358   0.116   3.127   6.894
 9153SOL    HW228359   0.128   3.096   0.031
 9154SOL     OW28360   5.053   4.541   3.434
 9154SOL    HW128361   5.126   4.503   3.491
 9154SOL    HW228362   5.002   4.466   3.392
 9155SOL     OW28363   1.014   6.158   2.805
 9155SOL    HW128364   0.991   6.239   2.750
 9155SOL    HW228365   1.045   6.188   2.896
 9156SOL     OW28366   6.776   4.275   5.587
 9156SOL    HW128367   6.725   4.309   5.666
 9156SOL    HW228368   6.739   4.315   5.504
 9157SOL     OW28369   1.659   4.164   5.619
 9157SOL    HW128370   1.729   4.204   5.559
 9157SOL    HW228371   1.609   4.093   5.569
 9158SOL     OW28372   6.924   3.787   4.908
 9158SOL    HW128373   6.936   3.688   4.908
 9158SOL    HW228374   6.887   3.815   4.997
 9159SOL     OW28375   2.386   1.263   3.964
 9159SOL    HW128376   2.298   1.282   4.007
 9159SOL    HW228377   2.446   1.216   4.029
 9160SOL     OW28378   1.114   3.152   6.619
 9160SOL    HW128379   1.114   3.057   6.587
 9160SOL    HW228380   1.120   3.213   6.541
 9161SOL     OW28381   6.422   3.460   2.888
 9161SOL    HW128382   6.432   3.393   2.814
 9161SOL    HW228383   6.325   3.479   2.903
 9162SOL     OW28384   3.797   2.287   1.661
 9162SOL    HW128385   3.746   2.344   1.596
 9162SOL    HW228386   3.742   2.274   1.743
 9163SOL     OW28387   2.193   2.555   4.321
 9163SOL    HW128388   2.150   2.641   4.347
 9163SOL    HW228389   2.198   2.495   4.401
 9164SOL     OW28390   2.140   6.988   6.374
 9164SOL    HW128391   2.043   7.008   6.365
 9164SOL    HW228392   2.180   0.027   6.442
 9165SOL     OW28393   5.238   1.832   6.025
 9165SOL    HW128394   5.275   1.897   5.959
 9165SOL    HW228395   5.141   1.851   6.040
 9166SOL     OW28396   4.116   6.542   2.127
 9166SOL    HW128397   4.061   6.599   2.188
 9166SOL    HW228398   4.110   6.578   2.034
 9167SOL     OW28399   1.512   1.445   4.225
 9167SOL    HW128400   1.599   1.426   4.270
 9167SOL    HW228401   1.437   1.413   4.284
 9168SOL     OW28402   6.386   5.907   5.169
 9168SOL    HW128403   6.437   5.831   5.209
 9168SOL    HW228404   6.302   5.872   5.127
 9169SOL     OW28405   6.538   5.832   0.422
 9169SOL    HW128406   6.439   5.820   0.427
 9169SOL    HW228407   6.560   5.906   0.358
 9170SOL     OW28408   1.706   0.837   5.563
 9170SOL    HW128409   1.772   0.852   5.490
 9170SOL    HW228410   1.719   0.745   5.601
 9171SOL     OW28411   3.500   5.971   0.054
 9171SOL    HW128412   3.527   5.959   0.149
 9171SOL    HW228413   3.402   5.954   0.045
 9172SOL     OW28414   4.522   1.803   5.871
 9172SOL    HW128415   4.612   1.760   5.862
 9172SOL    HW228416   4.522   1.864   5.950
 9173SOL     OW28417   6.107   3.797   5.780
 9173SOL    HW128418   6.070   3.889   5.763
 9173SOL    HW228419   6.034   3.737   5.812
 9174SOL     OW28420   6.085   4.549   1.026
 9174SOL    HW128421   6.176   4.511   1.014
 9174SOL    HW228422   6.059   4.545   1.122
 9175SOL     OW28423   2.143   0.276   1.302
 9175SOL    HW128424   2.233   0.233   1.299
 9175SOL    HW228425   2.149   0.369   1.267
 9176SOL     OW28426   1.938   0.813   1.898
 9176SOL    HW128427   1.886   0.827   1.814
 9176SOL    HW228428   1.991   0.729   1.891
 9177SOL     OW28429   0.990   6.475   3.798
 9177SOL    HW128430   0.899   6.466   3.759
 9177SOL    HW228431   1.056   6.425   3.742
 9178SOL     OW28432   0.987   4.226   0.907
 9178SOL    HW128433   1.032   4.160   0.966
 9178SOL    HW228434   0.896   4.192   0.883
 9179SOL     OW28435   3.815   5.058   3.544
 9179SOL    HW128436   3.715   5.068   3.536
 9179SOL    HW228437   3.843   4.974   3.498
 9180SOL     OW28438   0.280   1.094   5.479
 9180SOL    HW128439   0.185   1.070   5.498
 9180SOL    HW228440   0.284   1.143   5.392
 9181SOL     OW28441   2.760   2.151   4.040
 9181SOL    HW128442   2.686   2.156   3.973
 9181SOL    HW228443   2.731   2.095   4.117
 9182SOL     OW28444   0.254   1.990   2.497
 9182SOL    HW128445   0.198   1.947   2.568
 9182SOL    HW228446   0.209   2.074   2.466
 9183SOL     OW28447   1.686   1.632   6.090
 9183SOL    HW128448   1.749   1.694   6.043
 9183SOL    HW228449   1.669   1.666   6.183
 9184SOL     OW28450   2.923   4.385   1.037
 9184SOL    HW128451   2.938   4.331   1.120
 9184SOL    HW228452   2.861   4.335   0.976
 9185SOL     OW28453   1.750   0.204   5.974
 9185SOL    HW128454   1.728   0.302   5.977
 9185SOL    HW228455   1.811   0.181   6.050
 9186SOL     OW28456   5.320   6.597   0.021
 9186SOL    HW128457   5.366   6.651   6.973
 9186SOL    HW228458   5.221   6.605   0.010
 9187SOL     OW28459   5.365   2.781   0.578
 9187SOL    HW128460   5.323   2.694   0.604
 9187SOL    HW228461   5.299   2.855   0.593
 9188SOL     OW28462   1.688   0.048   1.299
 9188SOL    HW128463   1.730   6.983   1.325
 9188SOL    HW228464   1.711   0.117   1.367
 9189SOL     OW28465   3.271   0.574   5.496
 9189SOL    HW128466   3.261   0.476   5.476
 9189SOL    HW228467   3.234   0.627   5.420
 9190SOL     OW28468   4.668   0.768   5.214
 9190SOL    HW128469   4.735   0.705   5.252
 9190SOL    HW228470   4.578   0.752   5.256
 9191SOL     OW28471   5.726   6.934   1.565
 9191SOL    HW128472   5.809   6.888   1.595
 9191SOL    HW228473   5.701   7.005   1.630
 9192SOL     OW28474   4.840   3.861   4.493
 9192SOL    HW128475   4.915   3.832   4.435
 9192SOL    HW228476   4.809   3.784   4.549
 9193SOL     OW28477   3.655   4.044   2.991
 9193SOL    HW128478   3.692   4.079   2.905
 9193SOL    HW228479   3.560   4.073   3.001
 9194SOL     OW28480   3.955   4.846   3.061
 9194SOL    HW128481   3.862   4.880   3.078
 9194SOL    HW228482   3.976   4.853   2.964
 9195SOL     OW28483   0.668   2.804   2.524
 9195SOL    HW128484   0.636   2.874   2.460
 9195SOL    HW228485   0.686   2.847   2.613
 9196SOL     OW28486   4.690   6.292   4.409
 9196SOL    HW128487   4.594   6.271   4.391
 9196SOL    HW228488   4.714   6.262   4.501
 9197SOL     OW28489   4.594   1.458   7.006
 9197SOL    HW128490   4.632   1.366   7.018
 9197SOL    HW228491   4.668   1.524   7.004
 9198SOL     OW28492   5.808   2.576   5.435
 9198SOL    HW128493   5.803   2.585   5.534
 9198SOL    HW228494   5.866   2.649   5.398
 9199SOL     OW28495   1.613   3.188   6.599
 9199SOL    HW128496   1.534   3.137   6.632
 9199SOL    HW228497   1.637   3.157   6.507
 9200SOL     OW28498   4.998   5.676   1.246
 9200SOL    HW128499   4.998   5.746   1.318
 9200SOL    HW228500   5.069   5.697   1.179
 9201SOL     OW28501   0.505   3.418   2.265
 9201SOL    HW128502   0.587   3.366   2.243
 9201SOL    HW228503   0.427   3.356   2.273
 9202SOL     OW28504   2.609   6.027   4.105
 9202SOL    HW128505   2.536   6.094   4.099
 9202SOL    HW228506   2.602   5.978   4.192
 9203SOL     OW28507   5.079   0.947   6.886
 9203SOL    HW128508   5.175   0.936   6.910
 9203SOL    HW228509   5.058   0.898   6.802
 9204SOL     OW28510   5.283   4.930   2.706
 9204SOL    HW128511   5.267   4.831   2.712
 9204SOL    HW228512   5.239   4.975   2.784
 9205SOL     OW28513   4.536   2.171   1.519
 9205SOL    HW128514   4.471   2.157   1.444
 9205SOL    HW228515   4.566   2.267   1.519
 9206SOL     OW28516   6.054   5.998   4.665
 9206SOL    HW128517   6.148   5.968   4.677
 9206SOL    HW228518   6.051   6.074   4.600
 9207SOL     OW28519   4.397   6.474   0.146
 9207SOL    HW128520   4.319   6.424   0.184
 9207SOL    HW228521   4.481   6.423   0.163
 9208SOL     OW28522   4.479   4.086   1.590
 9208SOL    HW128523   4.451   4.119   1.680
 9208SOL    HW228524   4.406   4.103   1.524
 9209SOL     OW28525   4.625   0.321   2.887
 9209SOL    HW128526   4.585   0.410   2.866
 9209SOL    HW228527   4.594   0.254   2.820
 9210SOL     OW28528   0.639   6.639   7.008
 9210SOL    HW128529   0.598   6.629   0.076
 9210SOL    HW228530   0.648   6.736   6.986
 9211SOL     OW28531   4.815   1.307   6.259
 9211SOL    HW128532   4.781   1.231   6.204
 9211SOL    HW228533   4.746   1.332   6.328
 9212SOL     OW28534   5.758   3.812   5.482
 9212SOL    HW128535   5.704   3.871   5.541
 9212SOL    HW228536   5.818   3.868   5.424
 9213SOL     OW28537   6.442   5.752   1.782
 9213SOL    HW128538   6.462   5.720   1.875
 9213SOL    HW228539   6.487   5.840   1.767
 9214SOL     OW28540   2.398   1.555   5.816
 9214SOL    HW128541   2.365   1.531   5.908
 9214SOL    HW228542   2.471   1.492   5.790
 9215SOL     OW28543   0.448   3.777   3.676
 9215SOL    HW128544   0.495   3.691   3.696
 9215SOL    HW228545   0.362   3.781   3.727
 9216SOL     OW28546   2.201   6.217   3.262
 9216SOL    HW128547   2.272   6.149   3.244
 9216SOL    HW228548   2.244   6.304   3.288
 9217SOL     OW28549   3.858   2.299   6.780
 9217SOL    HW128550   3.833   2.202   6.786
 9217SOL    HW228551   3.955   2.309   6.804
 9218SOL     OW28552   5.339   5.615   6.477
 9218SOL    HW128553   5.278   5.692   6.497
 9218SOL    HW228554   5.289   5.529   6.490
 9219SOL     OW28555   3.335   2.025   6.012
 9219SOL    HW128556   3.421   2.072   6.030
 9219SOL    HW228557   3.305   2.044   5.919
 9220SOL     OW28558   0.418   6.373   3.230
 9220SOL    HW128559   0.346   6.341   3.291
 9220SOL    HW228560   0.394   6.462   3.192
 9221SOL     OW28561   2.876   1.764   1.518
 9221SOL    HW128562   2.912   1.837   1.577
 9221SOL    HW228563   2.851   1.802   1.429
 9222SOL     OW28564   1.737   5.420   3.927
 9222SOL    HW128565   1.690   5.371   3.853
 9222SOL    HW228566   1.671   5.476   3.976
 9223SOL     OW28567   6.667   3.477   4.639
 9223SOL    HW128568   6.582   3.526   4.660
 9223SOL    HW228569   6.650   3.379   4.641
 9224SOL     OW28570   1.694   4.041   2.194
 9224SOL    HW128571   1.723   4.125   2.239
 9224SOL    HW228572   1.730   4.039   2.100
 9225SOL     OW28573   6.772   5.426   6.243
 9225SOL    HW128574   6.756   5.451   6.339
 9225SOL    HW228575   6.776   5.509   6.187
 9226SOL     OW28576   0.952   0.706   5.361
 9226SOL    HW128577   1.034   0.715   5.305
 9226SOL    HW228578   0.882   0.769   5.328
 9227SOL     OW28579   3.513   4.096   1.360
 9227SOL    HW128580   3.589   4.118   1.299
 9227SOL    HW228581   3.441   4.049   1.309
 9228SOL     OW28582   4.055   3.225   4.663
 9228SOL    HW128583   3.977   3.288   4.662
 9228SOL    HW228584   4.062   3.184   4.754
 9229SOL     OW28585   0.094   5.392   0.056
 9229SOL    HW128586   0.137   5.477   0.086
 9229SOL    HW228587   0.003   5.412   0.020
 9230SOL     OW28588   4.311   0.426   5.183
 9230SOL    HW128589   4.286   0.373   5.263
 9230SOL    HW228590   4.411   0.427   5.173
 9231SOL     OW28591   6.330   6.074   1.682
 9231SOL    HW128592   6.321   6.142   1.755
 9231SOL    HW228593   6.324   6.119   1.593
 9232SOL     OW28594   1.130   5.693   2.262
 9232SOL    HW128595   1.205   5.683   2.327
 9232SOL    HW228596   1.163   5.673   2.170
 9233SOL     OW28597   0.863   0.101   5.823
 9233SOL    HW128598   0.842   0.129   5.916
 9233SOL    HW228599   0.914   0.173   5.777
 9234SOL     OW28600   3.280   4.257   5.636
 9234SOL    HW128601   3.346   4.216   5.573
 9234SOL    HW228602   3.249   4.345   5.600
 9235SOL     OW28603   2.278   2.028   2.876
 9235SOL    HW128604   2.269   2.094   2.801
 9235SOL    HW228605   2.212   1.954   2.863
 9236SOL     OW28606   1.372   3.427   5.827
 9236SOL    HW128607   1.339   3.521   5.821
 9236SOL    HW228608   1.472   3.427   5.822
 9237SOL     OW28609   6.162   5.161   2.857
 9237SOL    HW128610   6.134   5.252   2.826
 9237SOL    HW228611   6.086   5.117   2.904
 9238SOL     OW28612   1.757   2.807   5.144
 9238SOL    HW128613   1.710   2.720   5.135
 9238SOL    HW228614   1.815   2.823   5.063
 9239SOL     OW28615   1.506   5.568   6.314
 9239SOL    HW128616   1.540   5.474   6.303
 9239SOL    HW228617   1.561   5.630   6.258
 9240SOL     OW28618   3.900   1.883   3.754
 9240SOL    HW128619   3.913   1.835   3.840
 9240SOL    HW228620   3.954   1.839   3.682
 9241SOL     OW28621   5.608   6.633   0.078
 9241SOL    HW128622   5.679   6.564   0.095
 9241SOL    HW228623   5.527   6.589   0.040
 9242SOL     OW28624   1.926   2.437   1.117
 9242SOL    HW128625   1.947   2.339   1.126
 9242SOL    HW228626   1.964   2.486   1.195
 9243SOL     OW28627   2.118   0.138   0.623
 9243SOL    HW128628   2.027   0.097   0.631
 9243SOL    HW228629   2.123   0.191   0.538
 9244SOL     OW28630   2.503   6.192   6.920
 9244SOL    HW128631   2.458   6.107   6.945
 9244SOL    HW228632   2.577   6.173   6.855
 9245SOL     OW28633   0.962   4.931   2.900
 9245SOL    HW128634   0.952   4.915   2.998
 9245SOL    HW228635   1.028   5.004   2.884
 9246SOL     OW28636   5.312   6.212   6.744
 9246SOL    HW128637   5.303   6.246   6.838
 9246SOL    HW228638   5.344   6.117   6.746
 9247SOL     OW28639   3.862   6.449   2.632
 9247SOL    HW128640   3.884   6.359   2.594
 9247SOL    HW228641   3.840   6.512   2.558
 9248SOL     OW28642   2.552   0.214   6.542
 9248SOL    HW128643   2.486   0.210   6.618
 9248SOL    HW228644   2.521   0.282   6.475
 9249SOL     OW28645   2.711   6.785   0.025
 9249SOL    HW128646   2.754   6.739   0.103
 9249SOL    HW228647   2.624   6.826   0.055
 9250SOL     OW28648   0.405   3.422   3.312
 9250SOL    HW128649   0.464   3.492   3.353
 9250SOL    HW228650   0.364   3.367   3.385
 9251SOL     OW28651   3.721   1.844   1.184
 9251SOL    HW128652   3.813   1.882   1.196
 9251SOL    HW228653   3.669   1.857   1.268
 9252SOL     OW28654   5.827   1.403   4.450
 9252SOL    HW128655   5.915   1.438   4.483
 9252SOL    HW228656   5.754   1.466   4.476
 9253SOL     OW28657   2.497   5.129   4.236
 9253SOL    HW128658   2.507   5.119   4.335
 9253SOL    HW228659   2.509   5.226   4.211
 9254SOL     OW28660   0.178   5.346   1.999
 9254SOL    HW128661   0.238   5.396   1.936
 9254SOL    HW228662   0.129   5.275   1.949
 9255SOL     OW28663   6.384   3.556   0.951
 9255SOL    HW128664   6.449   3.561   1.027
 9255SOL    HW228665   6.291   3.568   0.986
 9256SOL     OW28666   2.560   6.335   0.804
 9256SOL    HW128667   2.643   6.364   0.851
 9256SOL    HW228668   2.491   6.407   0.809
 9257SOL     OW28669   6.281   5.854   4.717
 9257SOL    HW128670   6.271   5.767   4.668
 9257SOL    HW228671   6.359   5.848   4.779
 9258SOL     OW28672   4.595   5.218   2.209
 9258SOL    HW128673   4.563   5.301   2.164
 9258SOL    HW228674   4.618   5.150   2.141
 9259SOL     OW28675   0.391   2.449   6.829
 9259SOL    HW128676   0.314   2.457   6.766
 9259SOL    HW228677   0.468   2.503   6.793
 9260SOL     OW28678   4.911   3.627   4.637
 9260SOL    HW128679   4.983   3.694   4.653
 9260SOL    HW228680   4.907   3.563   4.714
 9261SOL     OW28681   1.212   2.750   1.706
 9261SOL    HW128682   1.276   2.814   1.662
 9261SOL    HW228683   1.157   2.706   1.636
 9262SOL     OW28684   6.731   6.314   6.043
 9262SOL    HW128685   6.760   6.287   5.951
 9262SOL    HW228686   6.727   6.232   6.102
 9263SOL     OW28687   2.509   4.592   2.970
 9263SOL    HW128688   2.468   4.519   2.915
 9263SOL    HW228689   2.530   4.557   3.061
 9264SOL     OW28690   5.371   3.612   5.758
 9264SOL    HW128691   5.369   3.679   5.831
 9264SOL    HW228692   5.451   3.553   5.768
 9265SOL     OW28693   4.851   0.947   1.637
 9265SOL    HW128694   4.823   0.983   1.548
 9265SOL    HW228695   4.923   1.005   1.675
 9266SOL     OW28696   1.911   4.710   0.838
 9266SOL    HW128697   1.916   4.653   0.921
 9266SOL    HW228698   1.915   4.651   0.757
 9267SOL     OW28699   0.451   1.771   3.671
 9267SOL    HW128700   0.414   1.863   3.658
 9267SOL    HW228701   0.377   1.704   3.664
 9268SOL     OW28702   0.484   0.749   1.817
 9268SOL    HW128703   0.465   0.746   1.915
 9268SOL    HW228704   0.491   0.656   1.781
 9269SOL     OW28705   4.432   1.134   0.547
 9269SOL    HW128706   4.470   1.212   0.497
 9269SOL    HW228707   4.342   1.111   0.508
 9270SOL     OW28708   2.830   1.272   5.499
 9270SOL    HW128709   2.871   1.331   5.429
 9270SOL    HW228710   2.886   1.272   5.581
 9271SOL     OW28711   1.678   4.634   5.775
 9271SOL    HW128712   1.613   4.704   5.744
 9271SOL    HW228713   1.637   4.544   5.764
 9272SOL     OW28714   6.142   6.012   5.762
 9272SOL    HW128715   6.101   6.084   5.707
 9272SOL    HW228716   6.240   6.006   5.743
 9273SOL     OW28717   5.552   3.310   3.830
 9273SOL    HW128718   5.564   3.310   3.929
 9273SOL    HW228719   5.594   3.228   3.791
 9274SOL     OW28720   0.255   3.593   0.379
 9274SOL    HW128721   0.343   3.630   0.410
 9274SOL    HW228722   0.271   3.523   0.310
 9275SOL     OW28723   5.803   1.082   0.521
 9275SOL    HW128724   5.712   1.114   0.545
 9275SOL    HW228725   5.867   1.159   0.519
 9276SOL     OW28726   2.190   4.518   6.598
 9276SOL    HW128727   2.199   4.596   6.536
 9276SOL    HW228728   2.095   4.510   6.628
 9277SOL     OW28729   4.235   6.085   2.271
 9277SOL    HW128730   4.246   6.080   2.370
 9277SOL    HW228731   4.148   6.130   2.249
 9278SOL     OW28732   0.516   6.672   5.983
 9278SOL    HW128733   0.443   6.740   5.979
 9278SOL    HW228734   0.592   6.708   6.037
 9279SOL     OW28735   2.759   6.012   2.232
 9279SOL    HW128736   2.677   6.012   2.176
 9279SOL    HW228737   2.751   6.082   2.304
 9280SOL     OW28738   1.245   5.805   2.747
 9280SOL    HW128739   1.194   5.722   2.767
 9280SOL    HW228740   1.184   5.873   2.706
 9281SOL     OW28741   1.619   5.082   0.644
 9281SOL    HW128742   1.568   5.073   0.558
 9281SOL    HW228743   1.666   5.171   0.645
 9282SOL     OW28744   2.688   6.833   5.111
 9282SOL    HW128745   2.751   6.909   5.113
 9282SOL    HW228746   2.648   6.824   5.020
 9283SOL     OW28747   4.748   6.150   0.391
 9283SOL    HW128748   4.810   6.081   0.428
 9283SOL    HW228749   4.777   6.240   0.422
 9284SOL     OW28750   4.254   5.724   0.352
 9284SOL    HW128751   4.176   5.753   0.407
 9284SOL    HW228752   4.244   5.759   0.259
 9285SOL     OW28753   6.948   6.086   3.535
 9285SOL    HW128754   6.863   6.099   3.482
 9285SOL    HW228755   0.002   6.125   3.484
 9286SOL     OW28756   5.119   6.514   1.693
 9286SOL    HW128757   5.090   6.418   1.691
 9286SOL    HW228758   5.065   6.564   1.760
 9287SOL     OW28759   4.192   3.836   6.155
 9287SOL    HW128760   4.122   3.816   6.087
 9287SOL    HW228761   4.148   3.857   6.243
 9288SOL     OW28762   3.885   1.899   2.356
 9288SOL    HW128763   3.923   1.875   2.267
 9288SOL    HW228764   3.843   1.990   2.351
 9289SOL     OW28765   4.587   6.070   1.303
 9289SOL    HW128766   4.656   6.095   1.371
 9289SOL    HW228767   4.631   6.055   1.214
 9290SOL     OW28768   6.074   1.246   3.628
 9290SOL    HW128769   6.092   1.195   3.544
 9290SOL    HW228770   6.098   1.189   3.707
 9291SOL     OW28771   0.377   4.190   5.756
 9291SOL    HW128772   0.367   4.132   5.675
 9291SOL    HW228773   0.309   4.165   5.824
 9292SOL     OW28774   0.367   1.734   6.739
 9292SOL    HW128775   0.286   1.715   6.683
 9292SOL    HW228776   0.416   1.648   6.754
 9293SOL     OW28777   4.590   1.970   5.208
 9293SOL    HW128778   4.604   2.018   5.121
 9293SOL    HW228779   4.561   1.876   5.189
 9294SOL     OW28780   4.828   6.511   6.884
 9294SOL    HW128781   4.741   6.554   6.859
 9294SOL    HW228782   4.897   6.581   6.900
 9295SOL     OW28783   6.021   1.071   3.897
 9295SOL    HW128784   5.967   1.030   3.824
 9295SOL    HW228785   6.010   1.018   3.981
 9296SOL     OW28786   2.026   4.443   5.939
 9296SOL    HW128787   2.009   4.517   6.004
 9296SOL    HW228788   1.948   4.380   5.939
 9297SOL     OW28789   0.074   5.129   2.222
 9297SOL    HW128790   0.144   5.058   2.234
 9297SOL    HW228791   0.038   5.124   2.129
 9298SOL     OW28792   1.084   4.475   6.316
 9298SOL    HW128793   1.058   4.475   6.413
 9298SOL    HW228794   1.059   4.562   6.275
 9299SOL     OW28795   2.829   2.266   4.462
 9299SOL    HW128796   2.754   2.299   4.519
 9299SOL    HW228797   2.908   2.243   4.520
 9300SOL     OW28798   2.292   6.387   5.012
 9300SOL    HW128799   2.287   6.339   4.924
 9300SOL    HW228800   2.299   6.320   5.086
 9301SOL     OW28801   1.230   4.014   3.900
 9301SOL    HW128802   1.280   3.934   3.933
 9301SOL    HW228803   1.296   4.085   3.874
 9302SOL     OW28804   2.987   5.541   4.138
 9302SOL    HW128805   2.894   5.518   4.107
 9302SOL    HW228806   3.052   5.477   4.098
 9303SOL     OW28807   2.713   4.522   6.998
 9303SOL    HW128808   2.774   4.528   6.919
 9303SOL    HW228809   2.767   4.525   0.060
 9304SOL     OW28810   5.501   5.440   6.320
 9304SOL    HW128811   5.461   5.506   6.383
 9304SOL    HW228812   5.502   5.479   6.227
 9305SOL     OW28813   1.666   1.461   0.980
 9305SOL    HW128814   1.651   1.532   0.911
 9305SOL    HW228815   1.745   1.405   0.955
 9306SOL     OW28816   6.495   6.538   4.570
 9306SOL    HW128817   6.581   6.558   4.616
 9306SOL    HW228818   6.447   6.464   4.618
 9307SOL     OW28819   1.525   3.980   1.511
 9307SOL    HW128820   1.482   4.067   1.492
 9307SOL    HW228821   1.548   3.975   1.609
 9308SOL     OW28822   2.295   3.537   1.595
 9308SOL    HW128823   2.320   3.506   1.688
 9308SOL    HW228824   2.360   3.498   1.529
 9309SOL     OW28825   4.819   5.236   6.259
 9309SOL    HW128826   4.903   5.184   6.242
 9309SOL    HW228827   4.814   5.313   6.196
 9310SOL     OW28828   5.907   5.825   5.785
 9310SOL    HW128829   5.960   5.909   5.798
 9310SOL    HW228830   5.855   5.806   5.868
 9311SOL     OW28831   5.287   3.874   0.964
 9311SOL    HW128832   5.282   3.816   1.046
 9311SOL    HW228833   5.197   3.883   0.924
 9312SOL     OW28834   6.843   2.657   3.626
 9312SOL    HW128835   6.915   2.726   3.622
 9312SOL    HW228836   6.756   2.698   3.601
 9313SOL     OW28837   0.932   0.711   2.463
 9313SOL    HW128838   0.897   0.779   2.399
 9313SOL    HW228839   0.945   0.754   2.553
 9314SOL     OW28840   5.244   5.165   1.499
 9314SOL    HW128841   5.154   5.194   1.531
 9314SOL    HW228842   5.254   5.188   1.402
 9315SOL     OW28843   5.580   5.600   5.495
 9315SOL    HW128844   5.608   5.628   5.587
 9315SOL    HW228845   5.619   5.662   5.427
 9316SOL     OW28846   5.119   6.855   0.982
 9316SOL    HW128847   5.194   6.789   0.967
 9316SOL    HW228848   5.037   6.823   0.936
 9317SOL     OW28849   1.858   6.230   3.734
 9317SOL    HW128850   1.884   6.264   3.825
 9317SOL    HW228851   1.759   6.225   3.727
 9318SOL     OW28852   3.435   0.001   2.503
 9318SOL    HW128853   3.514   7.009   2.444
 9318SOL    HW228854   3.390   6.936   2.521
 9319SOL     OW28855   4.138   1.772   0.216
 9319SOL    HW128856   4.177   1.787   0.306
 9319SOL    HW228857   4.052   1.722   0.224
 9320SOL     OW28858   6.967   6.467   6.849
 9320SOL    HW128859   6.978   6.471   6.948
 9320SOL    HW228860   6.909   6.390   6.825
 9321SOL     OW28861   1.266   3.347   4.221
 9321SOL    HW128862   1.324   3.268   4.240
 9321SOL    HW228863   1.287   3.420   4.287
 9322SOL     OW28864   5.338   3.022   6.787
 9322SOL    HW128865   5.387   3.034   6.874
 9322SOL    HW228866   5.400   2.983   6.719
 9323SOL     OW28867   0.545   2.261   5.959
 9323SOL    HW128868   0.621   2.325   5.974
 9323SOL    HW228869   0.527   2.253   5.861
 9324SOL     OW28870   0.408   4.498   1.345
 9324SOL    HW128871   0.379   4.549   1.265
 9324SOL    HW228872   0.398   4.555   1.427
 9325SOL     OW28873   0.856   5.044   3.182
 9325SOL    HW128874   0.859   5.125   3.240
 9325SOL    HW228875   0.813   5.068   3.095
 9326SOL     OW28876   4.971   4.466   0.383
 9326SOL    HW128877   4.916   4.387   0.408
 9326SOL    HW228878   4.923   4.550   0.407
 9327SOL     OW28879   3.067   1.467   3.218
 9327SOL    HW128880   2.999   1.400   3.190
 9327SOL    HW228881   3.125   1.491   3.140
 9328SOL     OW28882   1.635   0.875   3.363
 9328SOL    HW128883   1.604   0.859   3.269
 9328SOL    HW228884   1.571   0.833   3.427
 9329SOL     OW28885   1.335   5.002   6.495
 9329SOL    HW128886   1.386   5.082   6.525
 9329SOL    HW228887   1.246   4.999   6.541
 9330SOL     OW28888   1.181   6.684   0.681
 9330SOL    HW128889   1.201   6.680   0.779
 9330SOL    HW228890   1.245   6.626   0.632
 9331SOL     OW28891   2.260   4.401   4.199
 9331SOL    HW128892   2.329   4.446   4.142
 9331SOL    HW228893   2.170   4.410   4.155
 9332SOL     OW28894   6.582   5.063   7.003
 9332SOL    HW128895   6.550   5.128   6.933
 9332SOL    HW228896   6.626   5.114   0.055
 9333SOL     OW28897   2.769   4.404   1.381
 9333SOL    HW128898   2.827   4.475   1.420
 9333SOL    HW228899   2.677   4.440   1.366
 9334SOL     OW28900   6.801   5.593   6.469
 9334SOL    HW128901   6.865   5.669   6.476
 9334SOL    HW228902   6.780   5.560   6.561
 9335SOL     OW28903   0.511   3.927   1.259
 9335SOL    HW128904   0.560   3.847   1.294
 9335SOL    HW228905   0.575   4.002   1.245
 9336SOL     OW28906   5.204   6.574   6.039
 9336SOL    HW128907   5.204   6.578   5.939
 9336SOL    HW228908   5.113   6.599   6.073
 9337SOL     OW28909   2.769   1.599   5.495
 9337SOL    HW128910   2.781   1.536   5.572
 9337SOL    HW228911   2.686   1.575   5.445
 9338SOL     OW28912   5.334   5.958   0.937
 9338SOL    HW128913   5.401   5.971   1.010
 9338SOL    HW228914   5.371   5.994   0.851
 9339SOL     OW28915   6.833   3.894   5.172
 9339SOL    HW128916   6.881   3.967   5.122
 9339SOL    HW228917   6.742   3.926   5.199
 9340SOL     OW28918   2.481   4.929   2.186
 9340SOL    HW128919   2.565   4.970   2.151
 9340SOL    HW228920   2.500   4.836   2.219
 9341SOL     OW28921   5.704   5.322   6.683
 9341SOL    HW128922   5.673   5.416   6.697
 9341SOL    HW228923   5.732   5.310   6.588
 9342SOL     OW28924   3.112   6.850   5.185
 9342SOL    HW128925   3.117   6.910   5.265
 9342SOL    HW228926   3.060   6.768   5.207
 9343SOL     OW28927   5.031   3.938   0.845
 9343SOL    HW128928   4.983   3.867   0.896
 9343SOL    HW228929   5.041   3.909   0.749
 9344SOL     OW28930   5.612   0.348   5.268
 9344SOL    HW128931   5.688   0.404   5.235
 9344SOL    HW228932   5.581   0.382   5.357
 9345SOL     OW28933   0.242   4.808   0.307
 9345SOL    HW128934   0.274   4.891   0.350
 9345SOL    HW228935   0.142   4.807   0.307
 9346SOL     OW28936   5.054   0.314   2.040
 9346SOL    HW128937   5.102   0.389   1.995
 9346SOL    HW228938   5.064   0.323   2.139
 9347SOL     OW28939   4.388   6.232   1.393
 9347SOL    HW128940   4.295   6.196   1.403
 9347SOL    HW228941   4.449   6.160   1.361
 9348SOL     OW28942   2.325   5.258   1.817
 9348SOL    HW128943   2.360   5.193   1.750
 9348SOL    HW228944   2.383   5.257   1.898
 9349SOL     OW28945   6.700   6.417   1.128
 9349SOL    HW128946   6.632   6.460   1.187
 9349SOL    HW228947   6.791   6.427   1.168
 9350SOL     OW28948   6.809   0.563   0.591
 9350SOL    HW128949   6.806   0.487   0.526
 9350SOL    HW228950   6.759   0.538   0.674
 9351SOL     OW28951   4.080   3.250   6.313
 9351SOL    HW128952   4.159   3.213   6.361
 9351SOL    HW228953   4.110   3.293   6.228
 9352SOL     OW28954   2.837   2.626   6.911
 9352SOL    HW128955   2.790   2.600   6.827
 9352SOL    HW228956   2.894   2.550   6.942
 9353SOL     OW28957   0.817   2.947   1.642
 9353SOL    HW128958   0.894   3.009   1.661
 9353SOL    HW228959   0.799   2.944   1.544
 9354SOL     OW28960   5.191   1.760   1.808
 9354SOL    HW128961   5.125   1.830   1.783
 9354SOL    HW228962   5.202   1.695   1.733
 9355SOL     OW28963   0.127   1.105   2.211
 9355SOL    HW128964   0.080   1.174   2.266
 9355SOL    HW228965   0.135   1.020   2.263
 9356SOL     OW28966   4.979   3.192   2.640
 9356SOL    HW128967   4.968   3.285   2.676
 9356SOL    HW228968   4.934   3.186   2.551
 9357SOL     OW28969   2.916   3.798   0.637
 9357SOL    HW128970   3.000   3.784   0.584
 9357SOL    HW228971   2.848   3.730   0.610
 9358SOL     OW28972   5.161   4.201   2.376
 9358SOL    HW128973   5.151   4.294   2.413
 9358SOL    HW228974   5.258   4.180   2.364
 9359SOL     OW28975   5.226   4.901   5.873
 9359SOL    HW128976   5.239   4.926   5.777
 9359SOL    HW228977   5.314   4.882   5.915
 9360SOL     OW28978   1.305   1.363   5.119
 9360SOL    HW128979   1.207   1.359   5.140
 9360SOL    HW228980   1.357   1.337   5.200
 9361SOL     OW28981   2.513   1.026   1.976
 9361SOL    HW128982   2.568   1.108   1.988
 9361SOL    HW228983   2.416   1.051   1.974
 9362SOL     OW28984   1.928   1.941   3.424
 9362SOL    HW128985   1.863   1.917   3.352
 9362SOL    HW228986   1.888   2.012   3.483
 9363SOL     OW28987   1.866   6.609   2.052
 9363SOL    HW128988   1.930   6.681   2.076
 9363SOL    HW228989   1.908   6.548   1.984
 9364SOL     OW28990   5.420   4.485   1.203
 9364SOL    HW128991   5.383   4.566   1.249
 9364SOL    HW228992   5.468   4.513   1.121
 9365SOL     OW28993   2.390   1.505   4.813
 9365SOL    HW128994   2.349   1.417   4.790
 9365SOL    HW228995   2.422   1.503   4.908
 9366SOL     OW28996   3.396   1.535   1.674
 9366SOL    HW128997   3.477   1.585   1.644
 9366SOL    HW228998   3.422   1.443   1.704
 9367SOL     OW28999   6.426   6.080   4.640
 9367SOL    HW129000   6.378   5.998   4.670
 9367SOL    HW229001   6.525   6.065   4.646
 9368SOL     OW29002   4.487   2.744   1.098
 9368SOL    HW129003   4.439   2.735   1.185
 9368SOL    HW229004   4.459   2.828   1.053
 9369SOL     OW29005   0.070   2.488   5.897
 9369SOL    HW129006   0.050   2.443   5.984
 9369SOL    HW229007   0.117   2.424   5.837
 9370SOL     OW29008   6.233   6.012   3.636
 9370SOL    HW129009   6.271   6.095   3.675
 9370SOL    HW229010   6.179   5.964   3.705
 9371SOL     OW29011   1.347   6.756   0.953
 9371SOL    HW129012   1.366   6.797   1.042
 9371SOL    HW229013   1.426   6.767   0.893
 9372SOL     OW29014   5.658   6.150   0.177
 9372SOL    HW129015   5.726   6.077   0.178
 9372SOL    HW229016   5.681   6.217   0.248
 9373SOL     OW29017   4.734   2.710   4.199
 9373SOL    HW129018   4.831   2.709   4.223
 9373SOL    HW229019   4.681   2.663   4.270
 9374SOL     OW29020   5.240   4.535   0.337
 9374SOL    HW129021   5.142   4.520   0.344
 9374SOL    HW229022   5.279   4.469   0.272
 9375SOL     OW29023   0.582   1.595   3.881
 9375SOL    HW129024   0.680   1.613   3.878
 9375SOL    HW229025   0.536   1.646   3.809
 9376SOL     OW29026   1.943   2.757   1.953
 9376SOL    HW129027   1.938   2.823   1.878
 9376SOL    HW229028   1.964   2.666   1.916
 9377SOL     OW29029   5.837   5.170   2.544
 9377SOL    HW129030   5.820   5.074   2.567
 9377SOL    HW229031   5.794   5.229   2.613
 9378SOL     OW29032   3.221   6.014   1.500
 9378SOL    HW129033   3.137   6.004   1.447
 9378SOL    HW229034   3.300   5.996   1.441
 9379SOL     OW29035   5.833   4.405   5.349
 9379SOL    HW129036   5.902   4.362   5.292
 9379SOL    HW229037   5.872   4.486   5.394
 9380SOL     OW29038   5.820   5.771   6.452
 9380SOL    HW129039   5.779   5.726   6.373
 9380SOL    HW229040   5.857   5.860   6.424
 9381SOL     OW29041   1.568   0.964   0.586
 9381SOL    HW129042   1.526   0.951   0.676
 9381SOL    HW229043   1.616   1.051   0.583
 9382SOL     OW29044   5.716   1.970   2.364
 9382SOL    HW129045   5.683   2.060   2.334
 9382SOL    HW229046   5.683   1.952   2.457
 9383SOL     OW29047   5.531   5.719   5.756
 9383SOL    HW129048   5.603   5.732   5.825
 9383SOL    HW229049   5.461   5.658   5.792
 9384SOL     OW29050   4.018   6.601   2.396
 9384SOL    HW129051   4.077   6.675   2.428
 9384SOL    HW229052   3.924   6.633   2.390
 9385SOL     OW29053   3.594   0.597   4.197
 9385SOL    HW129054   3.516   0.648   4.234
 9385SOL    HW229055   3.641   0.652   4.128
 9386SOL     OW29056   4.011   0.150   4.895
 9386SOL    HW129057   3.922   0.158   4.940
 9386SOL    HW229058   4.011   0.203   4.811
 9387SOL     OW29059   3.871   6.245   0.812
 9387SOL    HW129060   3.792   6.265   0.755
 9387SOL    HW229061   3.858   6.157   0.859
 9388SOL     OW29062   6.226   6.730   2.701
 9388SOL    HW129063   6.180   6.799   2.757
 9388SOL    HW229064   6.324   6.730   2.721
 9389SOL     OW29065   3.442   1.208   6.937
 9389SOL    HW129066   3.345   1.229   6.951
 9389SOL    HW229067   3.458   1.112   6.957
 9390SOL     OW29068   2.613   6.631   1.813
 9390SOL    HW129069   2.602   6.693   1.890
 9390SOL    HW229070   2.657   6.546   1.844
 9391SOL     OW29071   0.364   1.413   5.310
 9391SOL    HW129072   0.341   1.510   5.314
 9391SOL    HW229073   0.301   1.366   5.248
 9392SOL     OW29074   1.100   6.317   4.459
 9392SOL    HW129075   1.049   6.282   4.381
 9392SOL    HW229076   1.038   6.330   4.537
 9393SOL     OW29077   3.645   1.917   5.659
 9393SOL    HW129078   3.694   1.923   5.572
 9393SOL    HW229079   3.645   2.006   5.703
 9394SOL     OW29080   5.646   2.649   1.982
 9394SOL    HW129081   5.571   2.706   1.951
 9394SOL    HW229082   5.655   2.569   1.922
 9395SOL     OW29083   2.273   2.834   6.526
 9395SOL    HW129084   2.317   2.884   6.451
 9395SOL    HW229085   2.175   2.827   6.509
 9396SOL     OW29086   6.115   0.244   6.715
 9396SOL    HW129087   6.132   0.291   6.628
 9396SOL    HW229088   6.198   0.247   6.771
 9397SOL     OW29089   2.963   1.480   1.001
 9397SOL    HW129090   2.932   1.388   1.025
 9397SOL    HW229091   2.947   1.495   0.903
 9398SOL     OW29092   2.049   1.089   0.750
 9398SOL    HW129093   2.036   1.022   0.678
 9398SOL    HW229094   2.130   1.066   0.804
 9399SOL     OW29095   6.656   0.483   5.554
 9399SOL    HW129096   6.744   0.463   5.598
 9399SOL    HW229097   6.581   0.450   5.612
 9400SOL     OW29098   4.360   2.177   3.501
 9400SOL    HW129099   4.315   2.088   3.511
 9400SOL    HW229100   4.413   2.178   3.417
 9401SOL     OW29101   4.464   0.539   2.820
 9401SOL    HW129102   4.387   0.514   2.761
 9401SOL    HW229103   4.484   0.636   2.809
 9402SOL     OW29104   2.073   4.822   0.222
 9402SOL    HW129105   2.141   4.891   0.196
 9402SOL    HW229106   2.119   4.739   0.253
 9403SOL     OW29107   5.707   0.795   5.044
 9403SOL    HW129108   5.631   0.858   5.025
 9403SOL    HW229109   5.686   0.705   5.006
 9404SOL     OW29110   0.921   4.067   5.198
 9404SOL    HW129111   0.826   4.090   5.215
 9404SOL    HW229112   0.961   4.134   5.134
 9405SOL     OW29113   6.830   0.266   0.819
 9405SOL    HW129114   6.731   0.282   0.819
 9405SOL    HW229115   6.871   0.309   0.899
 9406SOL     OW29116   6.846   1.138   5.419
 9406SOL    HW129117   6.855   1.236   5.433
 9406SOL    HW229118   6.797   1.120   5.334
 9407SOL     OW29119   3.612   6.156   3.027
 9407SOL    HW129120   3.686   6.161   3.094
 9407SOL    HW229121   3.651   6.142   2.935
 9408SOL     OW29122   3.940   1.573   6.825
 9408SOL    HW129123   3.994   1.650   6.791
 9408SOL    HW229124   3.989   1.528   6.899
 9409SOL     OW29125   6.189   3.490   3.204
 9409SOL    HW129126   6.250   3.556   3.160
 9409SOL    HW229127   6.214   3.397   3.175
 9410SOL     OW29128   4.529   6.605   2.034
 9410SOL    HW129129   4.623   6.572   2.036
 9410SOL    HW229130   4.480   6.572   2.114
 9411SOL     OW29131   4.851   5.460   1.374
 9411SOL    HW129132   4.871   5.538   1.314
 9411SOL    HW229133   4.845   5.492   1.469
 9412SOL     OW29134   6.813   3.159   2.046
 9412SOL    HW129135   6.719   3.127   2.036
 9412SOL    HW229136   6.814   3.259   2.056
 9413SOL     OW29137   3.506   5.316   4.641
 9413SOL    HW129138   3.547   5.232   4.607
 9413SOL    HW229139   3.409   5.319   4.616
 9414SOL     OW29140   2.733   1.398   2.272
 9414SOL    HW129141   2.814   1.447   2.239
 9414SOL    HW229142   2.660   1.464   2.293
 9415SOL     OW29143   2.938   0.781   2.441
 9415SOL    HW129144   2.925   0.693   2.394
 9415SOL    HW229145   3.019   0.827   2.404
 9416SOL     OW29146   1.330   1.976   0.941
 9416SOL    HW129147   1.364   1.888   0.907
 9416SOL    HW229148   1.299   1.965   1.035
 9417SOL     OW29149   2.241   0.070   4.367
 9417SOL    HW129150   2.272   0.045   4.459
 9417SOL    HW229151   2.272   0.163   4.346
 9418SOL     OW29152   4.174   4.424   1.126
 9418SOL    HW129153   4.209   4.517   1.138
 9418SOL    HW229154   4.081   4.418   1.162
 9419SOL     OW29155   3.744   5.557   4.770
 9419SOL    HW129156   3.799   5.516   4.843
 9419SOL    HW229157   3.751   5.501   4.688
 9420SOL     OW29158   1.034   1.387   4.393
 9420SOL    HW129159   0.948   1.399   4.443
 9420SOL    HW229160   1.046   1.290   4.371
 9421SOL     OW29161   1.853   5.265   4.749
 9421SOL    HW129162   1.814   5.357   4.746
 9421SOL    HW229163   1.781   5.198   4.730
 9422SOL     OW29164   3.516   1.024   2.321
 9422SOL    HW129165   3.515   0.943   2.380
 9422SOL    HW229166   3.475   1.001   2.233
 9423SOL     OW29167   4.956   0.468   4.413
 9423SOL    HW129168   4.957   0.519   4.499
 9423SOL    HW229169   4.930   0.373   4.431
 9424SOL     OW29170   2.955   6.367   4.564
 9424SOL    HW129171   3.019   6.444   4.573
 9424SOL    HW229172   2.962   6.329   4.472
 9425SOL     OW29173   0.909   4.854   3.423
 9425SOL    HW129174   0.986   4.820   3.369
 9425SOL    HW229175   0.891   4.949   3.397
 9426SOL     OW29176   4.190   6.420   0.364
 9426SOL    HW129177   4.132   6.475   0.424
 9426SOL    HW229178   4.241   6.354   0.418
 9427SOL     OW29179   3.138   4.915   4.357
 9427SOL    HW129180   3.145   4.992   4.294
 9427SOL    HW229181   3.046   4.910   4.395
 9428SOL     OW29182   4.434   6.064   2.095
 9428SOL    HW129183   4.382   6.061   2.180
 9428SOL    HW229184   4.526   6.027   2.111
 9429SOL     OW29185   6.821   3.125   2.521
 9429SOL    HW129186   6.818   3.087   2.614
 9429SOL    HW229187   6.800   3.052   2.456
 9430SOL     OW29188   6.367   6.930   1.827
 9430SOL    HW129189   6.440   6.998   1.820
 9430SOL    HW229190   6.397   6.854   1.884
 9431SOL     OW29191   6.388   4.122   1.273
 9431SOL    HW129192   6.447   4.189   1.229
 9431SOL    HW229193   6.410   4.030   1.238
 9432SOL     OW29194   6.884   6.839   4.480
 9432SOL    HW129195   6.910   6.799   4.567
 9432SOL    HW229196   6.938   6.797   4.407
 9433SOL     OW29197   2.986   4.815   4.837
 9433SOL    HW129198   2.969   4.898   4.891
 9433SOL    HW229199   2.932   4.740   4.874
 9434SOL     OW29200   5.091   4.964   3.127
 9434SOL    HW129201   5.072   4.940   3.222
 9434SOL    HW229202   5.177   5.015   3.122
 9435SOL     OW29203   1.461   1.900   5.227
 9435SOL    HW129204   1.408   1.970   5.275
 9435SOL    HW229205   1.559   1.917   5.240
 9436SOL     OW29206   1.857   2.559   6.241
 9436SOL    HW129207   1.935   2.514   6.198
 9436SOL    HW229208   1.865   2.658   6.231
 9437SOL     OW29209   0.579   5.006   4.097
 9437SOL    HW129210   0.606   5.077   4.162
 9437SOL    HW229211   0.486   5.024   4.065
 9438SOL     OW29212   0.989   6.946   1.974
 9438SOL    HW129213   0.964   6.942   1.877
 9438SOL    HW229214   0.917   6.905   2.029
 9439SOL     OW29215   1.000   2.740   1.541
 9439SOL    HW129216   0.967   2.693   1.623
 9439SOL    HW229217   0.960   2.697   1.460
 9440SOL     OW29218   4.796   5.832   5.219
 9440SOL    HW129219   4.889   5.799   5.234
 9440SOL    HW229220   4.770   5.816   5.124
 9441SOL     OW29221   1.816   5.529   4.777
 9441SOL    HW129222   1.911   5.532   4.809
 9441SOL    HW229223   1.779   5.622   4.773
 9442SOL     OW29224   0.699   3.728   1.223
 9442SOL    HW129225   0.780   3.755   1.276
 9442SOL    HW229226   0.715   3.749   1.126
 9443SOL     OW29227   2.068   3.293   1.461
 9443SOL    HW129228   1.981   3.246   1.476
 9443SOL    HW229229   2.137   3.257   1.524
 9444SOL     OW29230   0.571   3.969   5.878
 9444SOL    HW129231   0.582   4.006   5.970
 9444SOL    HW229232   0.638   4.011   5.817
 9445SOL     OW29233   6.207   3.423   1.351
 9445SOL    HW129234   6.110   3.446   1.350
 9445SOL    HW229235   6.260   3.503   1.325
 9446SOL     OW29236   5.955   4.951   0.981
 9446SOL    HW129237   5.985   4.870   0.931
 9446SOL    HW229238   6.034   5.004   1.010
 9447SOL     OW29239   6.207   2.564   1.317
 9447SOL    HW129240   6.217   2.657   1.282
 9447SOL    HW229241   6.289   2.539   1.369
 9448SOL     OW29242   5.993   6.140   0.447
 9448SOL    HW129243   6.016   6.153   0.350
 9448SOL    HW229244   6.042   6.060   0.482
 9449SOL     OW29245   6.861   5.213   5.116
 9449SOL    HW129246   6.956   5.215   5.087
 9449SOL    HW229247   6.856   5.212   5.216
 9450SOL     OW29248   2.899   5.290   4.332
 9450SOL    HW129249   2.856   5.362   4.385
 9450SOL    HW229250   2.829   5.236   4.285
 9451SOL     OW29251   4.170   4.054   5.730
 9451SOL    HW129252   4.074   4.031   5.748
 9451SOL    HW229253   4.224   4.040   5.813
 9452SOL     OW29254   3.070   4.204   1.216
 9452SOL    HW129255   3.087   4.219   1.313
 9452SOL    HW229256   3.156   4.212   1.165
 9453SOL     OW29257   3.093   4.970   2.049
 9453SOL    HW129258   3.017   4.912   2.020
 9453SOL    HW229259   3.173   4.951   1.992
 9454SOL     OW29260   2.189   2.632   5.661
 9454SOL    HW129261   2.145   2.549   5.694
 9454SOL    HW229262   2.275   2.608   5.615
 9455SOL     OW29263   2.863   1.875   2.017
 9455SOL    HW129264   2.932   1.946   2.024
 9455SOL    HW229265   2.780   1.904   2.066
 9456SOL     OW29266   1.517   3.223   1.062
 9456SOL    HW129267   1.603   3.181   1.091
 9456SOL    HW229268   1.475   3.168   0.990
 9457SOL     OW29269   6.961   3.297   0.666
 9457SOL    HW129270   6.988   3.297   0.762
 9457SOL    HW229271   7.020   3.359   0.614
 9458SOL     OW29272   0.537   5.687   4.699
 9458SOL    HW129273   0.560   5.690   4.796
 9458SOL    HW229274   0.604   5.630   4.650
 9459SOL     OW29275   4.194   5.855   1.661
 9459SOL    HW129276   4.104   5.848   1.704
 9459SOL    HW229277   4.247   5.927   1.704
 9460SOL     OW29278   0.988   2.478   5.116
 9460SOL    HW129279   0.994   2.539   5.195
 9460SOL    HW229280   1.010   2.528   5.033
 9461SOL     OW29281   1.127   0.502   2.805
 9461SOL    HW129282   1.173   0.588   2.781
 9461SOL    HW229283   1.030   0.521   2.824
 9462SOL     OW29284   0.305   3.530   3.064
 9462SOL    HW129285   0.337   3.497   3.153
 9462SOL    HW229286   0.305   3.454   2.999
 9463SOL     OW29287   5.320   1.945   6.839
 9463SOL    HW129288   5.277   2.024   6.881
 9463SOL    HW229289   5.339   1.964   6.743
 9464SOL     OW29290   4.367   6.705   6.124
 9464SOL    HW129291   4.344   6.608   6.127
 9464SOL    HW229292   4.302   6.756   6.180
 9465SOL     OW29293   5.855   0.380   4.439
 9465SOL    HW129294   5.932   0.410   4.494
 9465SOL    HW229295   5.868   0.409   4.344
 9466SOL     OW29296   2.379   2.120   6.779
 9466SOL    HW129297   2.361   2.133   6.682
 9466SOL    HW229298   2.464   2.165   6.804
 9467SOL     OW29299   2.035   3.334   1.872
 9467SOL    HW129300   2.110   3.398   1.891
 9467SOL    HW229301   2.072   3.243   1.853
 9468SOL     OW29302   0.274   2.454   6.328
 9468SOL    HW129303   0.342   2.526   6.339
 9468SOL    HW229304   0.284   2.412   6.238
 9469SOL     OW29305   6.422   4.142   2.243
 9469SOL    HW129306   6.335   4.122   2.290
 9469SOL    HW229307   6.405   4.206   2.169
 9470SOL     OW29308   5.643   3.652   1.330
 9470SOL    HW129309   5.691   3.592   1.394
 9470SOL    HW229310   5.559   3.685   1.373
 9471SOL     OW29311   0.312   2.369   6.078
 9471SOL    HW129312   0.389   2.347   6.018
 9471SOL    HW229313   0.231   2.320   6.046
 9472SOL     OW29314   6.729   2.911   4.715
 9472SOL    HW129315   6.759   2.877   4.626
 9472SOL    HW229316   6.654   2.853   4.749
 9473SOL     OW29317   3.749   5.161   4.323
 9473SOL    HW129318   3.789   5.087   4.269
 9473SOL    HW229319   3.649   5.156   4.318
 9474SOL     OW29320   3.794   5.413   3.297
 9474SOL    HW129321   3.818   5.491   3.355
 9474SOL    HW229322   3.782   5.445   3.203
 9475SOL     OW29323   1.256   3.381   1.046
 9475SOL    HW129324   1.250   3.345   0.953
 9475SOL    HW229325   1.322   3.455   1.048
 9476SOL     OW29326   3.983   3.780   5.134
 9476SOL    HW129327   4.025   3.840   5.202
 9476SOL    HW229328   3.991   3.820   5.043
 9477SOL     OW29329   0.898   2.807   0.767
 9477SOL    HW129330   0.849   2.845   0.689
 9477SOL    HW229331   0.996   2.824   0.757
 9478SOL     OW29332   5.188   4.766   5.137
 9478SOL    HW129333   5.258   4.701   5.107
 9478SOL    HW229334   5.223   4.822   5.211
 9479SOL     OW29335   6.341   6.002   5.468
 9479SOL    HW129336   6.409   6.022   5.398
 9479SOL    HW229337   6.379   5.935   5.532
 9480SOL     OW29338   5.992   4.312   7.013
 9480SOL    HW129339   6.076   4.271   6.977
 9480SOL    HW229340   5.916   4.293   6.951
 9481SOL     OW29341   6.259   3.858   2.167
 9481SOL    HW129342   6.214   3.885   2.252
 9481SOL    HW229343   6.358   3.853   2.182
 9482SOL     OW29344   4.018   0.233   2.573
 9482SOL    HW129345   4.113   0.256   2.598
 9482SOL    HW229346   3.984   0.163   2.635
 9483SOL     OW29347   1.671   1.664   0.774
 9483SOL    HW129348   1.616   1.671   0.690
 9483SOL    HW229349   1.713   1.752   0.794
 9484SOL     OW29350   6.408   1.647   2.789
 9484SOL    HW129351   6.399   1.630   2.887
 9484SOL    HW229352   6.319   1.635   2.744
 9485SOL     OW29353   0.856   0.630   2.895
 9485SOL    HW129354   0.759   0.619   2.872
 9485SOL    HW229355   0.864   0.666   2.989
 9486SOL     OW29356   2.896   5.792   2.264
 9486SOL    HW129357   2.993   5.815   2.257
 9486SOL    HW229358   2.840   5.869   2.234
 9487SOL     OW29359   3.472   2.895   3.628
 9487SOL    HW129360   3.569   2.899   3.604
 9487SOL    HW229361   3.462   2.854   3.719
 9488SOL     OW29362   1.571   0.400   1.642
 9488SOL    HW129363   1.479   0.405   1.603
 9488SOL    HW229364   1.575   0.326   1.709
 9489SOL     OW29365   4.122   4.429   0.846
 9489SOL    HW129366   4.131   4.427   0.946
 9489SOL    HW229367   4.097   4.338   0.813
 9490SOL     OW29368   5.626   1.173   7.020
 9490SOL    HW129369   5.668   1.155   0.086
 9490SOL    HW229370   5.538   1.125   7.014
 9491SOL     OW29371   6.508   5.423   5.884
 9491SOL    HW129372   6.496   5.334   5.841
 9491SOL    HW229373   6.594   5.464   5.852
 9492SOL     OW29374   3.025   3.935   1.678
 9492SOL    HW129375   2.969   4.010   1.644
 9492SOL    HW229376   2.971   3.851   1.678
 9493SOL     OW29377   5.580   6.214   2.678
 9493SOL    HW129378   5.657   6.224   2.741
 9493SOL    HW229379   5.546   6.121   2.681
 9494SOL     OW29380   4.183   3.354   6.086
 9494SOL    HW129381   4.224   3.439   6.052
 9494SOL    HW229382   4.207   3.279   6.024
 9495SOL     OW29383   5.787   2.660   4.943
 9495SOL    HW129384   5.831   2.735   4.993
 9495SOL    HW229385   5.712   2.623   4.997
 9496SOL     OW29386   5.491   3.815   0.150
 9496SOL    HW129387   5.531   3.725   0.164
 9496SOL    HW229388   5.541   3.882   0.205
 9497SOL     OW29389   0.155   6.649   5.912
 9497SOL    HW129390   0.077   6.696   5.952
 9497SOL    HW229391   0.232   6.652   5.975
 9498SOL     OW29392   4.205   0.167   5.942
 9498SOL    HW129393   4.140   0.134   5.873
 9498SOL    HW229394   4.291   0.118   5.933
 9499SOL     OW29395   4.955   4.059   6.325
 9499SOL    HW129396   4.901   4.017   6.252
 9499SOL    HW229397   4.907   4.141   6.358
 9500SOL     OW29398   4.810   5.603   2.090
 9500SOL    HW129399   4.876   5.677   2.104
 9500SOL    HW229400   4.856   5.526   2.046
 9501SOL     OW29401   3.243   1.570   4.779
 9501SOL    HW129402   3.305   1.496   4.806
 9501SOL    HW229403   3.295   1.654   4.765
 9502SOL     OW29404   5.322   3.227   5.372
 9502SOL    HW129405   5.387   3.163   5.412
 9502SOL    HW229406   5.317   3.213   5.273
 9503SOL     OW29407   1.456   6.547   1.290
 9503SOL    HW129408   1.515   6.526   1.368
 9503SOL    HW229409   1.456   6.645   1.273
 9504SOL     OW29410   0.679   3.462   6.821
 9504SOL    HW129411   0.614   3.500   6.887
 9504SOL    HW229412   0.692   3.365   6.840
 9505SOL     OW29413   5.321   3.350   2.909
 9505SOL    HW129414   5.355   3.400   2.829
 9505SOL    HW229415   5.268   3.271   2.879
 9506SOL     OW29416   6.312   2.887   0.538
 9506SOL    HW129417   6.333   2.789   0.534
 9506SOL    HW229418   6.335   2.929   0.450
 9507SOL     OW29419   0.884   2.253   3.851
 9507SOL    HW129420   0.810   2.312   3.882
 9507SOL    HW229421   0.870   2.229   3.755
 9508SOL     OW29422   5.002   2.028   0.261
 9508SOL    HW129423   4.945   1.947   0.276
 9508SOL    HW229424   5.053   2.049   0.345
 9509SOL     OW29425   2.524   6.610   5.232
 9509SOL    HW129426   2.550   6.515   5.212
 9509SOL    HW229427   2.581   6.672   5.180
 9510SOL     OW29428   6.309   4.352   3.160
 9510SOL    HW129429   6.378   4.308   3.218
 9510SOL    HW229430   6.299   4.447   3.188
 9511SOL     OW29431   1.807   1.495   0.610
 9511SOL    HW129432   1.814   1.561   0.534
 9511SOL    HW229433   1.759   1.538   0.686
 9512SOL     OW29434   1.623   2.670   4.418
 9512SOL    HW129435   1.682   2.613   4.476
 9512SOL    HW229436   1.560   2.612   4.367
 9513SOL     OW29437   2.443   4.488   4.031
 9513SOL    HW129438   2.502   4.460   4.106
 9513SOL    HW229439   2.426   4.411   3.970
 9514SOL     OW29440   2.387   2.963   6.322
 9514SOL    HW129441   2.434   3.046   6.352
 9514SOL    HW229442   2.450   2.907   6.269
 9515SOL     OW29443   2.617   5.480   5.748
 9515SOL    HW129444   2.608   5.436   5.659
 9515SOL    HW229445   2.533   5.531   5.768
 9516SOL     OW29446   5.525   4.105   4.852
 9516SOL    HW129447   5.579   4.034   4.808
 9516SOL    HW229448   5.564   4.126   4.942
 9517SOL     OW29449   0.904   5.938   1.958
 9517SOL    HW129450   0.950   5.850   1.946
 9517SOL    HW229451   0.856   5.940   2.045
 9518SOL     OW29452   0.815   2.841   5.420
 9518SOL    HW129453   0.716   2.856   5.420
 9518SOL    HW229454   0.851   2.859   5.511
 9519SOL     OW29455   3.840   3.372   2.952
 9519SOL    HW129456   3.861   3.277   2.926
 9519SOL    HW229457   3.923   3.416   2.986
 9520SOL     OW29458   4.931   0.398   6.030
 9520SOL    HW129459   4.902   0.431   6.119
 9520SOL    HW229460   5.000   0.460   5.992
 9521SOL     OW29461   3.378   0.917   1.055
 9521SOL    HW129462   3.317   0.872   0.989
 9521SOL    HW229463   3.340   1.007   1.078
 9522SOL     OW29464   3.160   6.116   2.429
 9522SOL    HW129465   3.153   6.200   2.375
 9522SOL    HW229466   3.075   6.102   2.480
 9523SOL     OW29467   3.006   4.910   3.859
 9523SOL    HW129468   3.092   4.948   3.893
 9523SOL    HW229469   2.970   4.845   3.926
 9524SOL     OW29470   2.548   3.982   1.075
 9524SOL    HW129471   2.591   4.054   1.129
 9524SOL    HW229472   2.587   3.893   1.102
 9525SOL     OW29473   2.404   3.242   5.338
 9525SOL    HW129474   2.415   3.173   5.266
 9525SOL    HW229475   2.455   3.214   5.419
 9526SOL     OW29476   5.497   4.929   0.148
 9526SOL    HW129477   5.547   4.872   0.082
 9526SOL    HW229478   5.430   4.872   0.195
 9527SOL     OW29479   4.272   0.253   3.558
 9527SOL    HW129480   4.258   0.172   3.501
 9527SOL    HW229481   4.186   0.275   3.605
 9528SOL     OW29482   5.639   2.293   0.617
 9528SOL    HW129483   5.732   2.328   0.619
 9528SOL    HW229484   5.576   2.369   0.599
 9529SOL     OW29485   5.828   1.180   1.488
 9529SOL    HW129486   5.875   1.265   1.513
 9529SOL    HW229487   5.741   1.175   1.537
 9530SOL     OW29488   1.510   5.590   3.658
 9530SOL    HW129489   1.413   5.579   3.682
 9530SOL    HW229490   1.518   5.615   3.562
 9531SOL     OW29491   3.441   5.542   2.710
 9531SOL    HW129492   3.410   5.599   2.786
 9531SOL    HW229493   3.539   5.555   2.697
 9532SOL     OW29494   6.832   5.248   3.070
 9532SOL    HW129495   6.890   5.329   3.065
 9532SOL    HW229496   6.807   5.230   3.165
 9533SOL     OW29497   1.462   3.768   3.479
 9533SOL    HW129498   1.442   3.771   3.577
 9533SOL    HW229499   1.528   3.839   3.457
 9534SOL     OW29500   5.614   5.011   4.182
 9534SOL    HW129501   5.582   5.061   4.262
 9534SOL    HW229502   5.671   4.934   4.211
 9535SOL     OW29503   0.611   1.637   5.359
 9535SOL    HW129504   0.641   1.731   5.345
 9535SOL    HW229505   0.573   1.601   5.274
 9536SOL     OW29506   3.624   3.948   4.910
 9536SOL    HW129507   3.663   3.982   4.996
 9536SOL    HW229508   3.691   3.961   4.836
 9537SOL     OW29509   0.130   1.906   3.956
 9537SOL    HW129510   0.166   1.952   4.037
 9537SOL    HW229511   0.062   1.838   3.984
 9538SOL     OW29512   4.582   0.460   5.139
 9538SOL    HW129513   4.660   0.510   5.174
 9538SOL    HW229514   4.582   0.462   5.039
 9539SOL     OW29515   3.162   3.807   1.877
 9539SOL    HW129516   3.099   3.779   1.949
 9539SOL    HW229517   3.111   3.851   1.803
 9540SOL     OW29518   4.375   4.645   3.544
 9540SOL    HW129519   4.398   4.735   3.509
 9540SOL    HW229520   4.387   4.644   3.643
 9541SOL     OW29521   2.289   5.849   5.497
 9541SOL    HW129522   2.343   5.915   5.445
 9541SOL    HW229523   2.214   5.896   5.542
 9542SOL     OW29524   6.274   4.258   4.114
 9542SOL    HW129525   6.243   4.334   4.170
 9542SOL    HW229526   6.236   4.173   4.150
 9543SOL     OW29527   2.468   6.959   6.041
 9543SOL    HW129528   2.386   6.909   6.071
 9543SOL    HW229529   2.542   6.895   6.025
 9544SOL     OW29530   6.069   3.164   4.393
 9544SOL    HW129531   6.163   3.181   4.423
 9544SOL    HW229532   6.007   3.178   4.471
 9545SOL     OW29533   0.331   4.482   1.808
 9545SOL    HW129534   0.331   4.567   1.860
 9545SOL    HW229535   0.405   4.422   1.840
 9546SOL     OW29536   2.429   3.004   0.263
 9546SOL    HW129537   2.417   3.079   0.329
 9546SOL    HW229538   2.522   2.969   0.270
 9547SOL     OW29539   3.737   0.177   3.839
 9547SOL    HW129540   3.736   0.210   3.744
 9547SOL    HW229541   3.807   0.227   3.891
 9548SOL     OW29542   1.392   4.750   6.600
 9548SOL    HW129543   1.404   4.687   6.523
 9548SOL    HW229544   1.359   4.838   6.567
 9549SOL     OW29545   4.897   1.653   0.563
 9549SOL    HW129546   4.993   1.684   0.565
 9549SOL    HW229547   4.848   1.703   0.492
 9550SOL     OW29548   5.304   3.206   1.672
 9550SOL    HW129549   5.205   3.192   1.664
 9550SOL    HW229550   5.349   3.167   1.592
 9551SOL     OW29551   6.474   3.681   6.315
 9551SOL    HW129552   6.546   3.664   6.247
 9551SOL    HW229553   6.483   3.614   6.389
 9552SOL     OW29554   3.091   1.653   0.206
 9552SOL    HW129555   3.041   1.720   0.262
 9552SOL    HW229556   3.106   1.690   0.115
 9553SOL     OW29557   5.327   1.600   6.278
 9553SOL    HW129558   5.253   1.627   6.340
 9553SOL    HW229559   5.292   1.533   6.212
 9554SOL     OW29560   2.827   0.671   4.051
 9554SOL    HW129561   2.856   0.735   4.121
 9554SOL    HW229562   2.843   0.710   3.960
 9555SOL     OW29563   6.903   0.393   3.686
 9555SOL    HW129564   6.888   0.309   3.738
 9555SOL    HW229565   6.926   0.467   3.750
 9556SOL     OW29566   1.997   4.781   6.997
 9556SOL    HW129567   2.012   4.805   0.070
 9556SOL    HW229568   1.933   4.704   6.991
 9557SOL     OW29569   4.801   0.565   1.899
 9557SOL    HW129570   4.879   0.625   1.915
 9557SOL    HW229571   4.786   0.507   1.979
 9558SOL     OW29572   4.716   6.921   6.892
 9558SOL    HW129573   4.681   6.837   6.850
 9558SOL    HW229574   4.807   6.940   6.857
 9559SOL     OW29575   1.815   4.369   0.097
 9559SOL    HW129576   1.801   4.272   0.115
 9559SOL    HW229577   1.754   4.423   0.155
 9560SOL     OW29578   3.272   6.865   2.202
 9560SOL    HW129579   3.327   6.809   2.140
 9560SOL    HW229580   3.306   6.959   2.202
 9561SOL     OW29581   1.014   0.372   0.614
 9561SOL    HW129582   1.008   0.273   0.600
 9561SOL    HW229583   0.995   0.393   0.710
 9562SOL     OW29584   2.775   6.272   2.811
 9562SOL    HW129585   2.732   6.218   2.882
 9562SOL    HW229586   2.716   6.274   2.730
 9563SOL     OW29587   0.485   6.187   0.722
 9563SOL    HW129588   0.393   6.154   0.704
 9563SOL    HW229589   0.518   6.239   0.643
 9564SOL     OW29590   1.130   0.759   0.110
 9564SOL    HW129591   1.080   0.779   0.026
 9564SOL    HW229592   1.168   0.667   0.105
 9565SOL     OW29593   2.957   1.789   3.960
 9565SOL    HW129594   2.865   1.774   3.923
 9565SOL    HW229595   2.975   1.887   3.966
 9566SOL     OW29596   3.296   0.659   6.906
 9566SOL    HW129597   3.300   0.559   6.912
 9566SOL    HW229598   3.327   0.698   6.993
 9567SOL     OW29599   6.932   3.845   1.401
 9567SOL    HW129600   7.012   3.872   1.348
 9567SOL    HW229601   6.955   3.841   1.498
 9568SOL     OW29602   4.843   1.235   6.825
 9568SOL    HW129603   4.943   1.241   6.827
 9568SOL    HW229604   4.808   1.222   6.918
 9569SOL     OW29605   5.646   1.164   1.887
 9569SOL    HW129606   5.581   1.129   1.955
 9569SOL    HW229607   5.628   1.121   1.798
 9570SOL     OW29608   0.600   2.822   1.770
 9570SOL    HW129609   0.614   2.810   1.868
 9570SOL    HW229610   0.684   2.855   1.728
 9571SOL     OW29611   2.111   2.490   6.718
 9571SOL    HW129612   2.124   2.519   6.813
 9571SOL    HW229613   2.166   2.409   6.700
 9572SOL     OW29614   2.381   4.283   3.882
 9572SOL    HW129615   2.332   4.277   3.795
 9572SOL    HW229616   2.370   4.197   3.932
 9573SOL     OW29617   6.550   0.931   4.348
 9573SOL    HW129618   6.508   0.843   4.325
 9573SOL    HW229619   6.486   1.005   4.329
 9574SOL     OW29620   3.530   2.958   1.231
 9574SOL    HW129621   3.538   2.881   1.168
 9574SOL    HW229622   3.433   2.979   1.245
 9575SOL     OW29623   6.126   6.614   1.376
 9575SOL    HW129624   6.029   6.638   1.380
 9575SOL    HW229625   6.142   6.549   1.301
 9576SOL     OW29626   1.078   6.807   6.954
 9576SOL    HW129627   1.071   6.708   6.971
 9576SOL    HW229628   1.133   6.849   0.004
 9577SOL     OW29629   6.065   5.111   2.395
 9577SOL    HW129630   6.141   5.168   2.425
 9577SOL    HW229631   5.987   5.125   2.457
 9578SOL     OW29632   2.145   3.046   2.628
 9578SOL    HW129633   2.135   3.131   2.680
 9578SOL    HW229634   2.094   3.053   2.542
 9579SOL     OW29635   5.830   5.764   1.890
 9579SOL    HW129636   5.783   5.793   1.973
 9579SOL    HW229637   5.866   5.844   1.842
 9580SOL     OW29638   5.183   4.657   2.754
 9580SOL    HW129639   5.150   4.617   2.839
 9580SOL    HW229640   5.257   4.600   2.717
 9581SOL     OW29641   6.371   0.958   0.023
 9581SOL    HW129642   6.284   0.984   0.066
 9581SOL    HW229643   6.447   0.998   0.073
 9582SOL     OW29644   4.601   6.133   4.091
 9582SOL    HW129645   4.531   6.181   4.038
 9582SOL    HW229646   4.563   6.107   4.180
 9583SOL     OW29647   3.786   4.730   1.634
 9583SOL    HW129648   3.729   4.699   1.711
 9583SOL    HW229649   3.727   4.748   1.555
 9584SOL     OW29650   2.492   5.430   4.268
 9584SOL    HW129651   2.562   5.493   4.301
 9584SOL    HW229652   2.477   5.446   4.171
 9585SOL     OW29653   4.263   5.721   0.947
 9585SOL    HW129654   4.237   5.644   0.889
 9585SOL    HW229655   4.187   5.786   0.955
 9586SOL     OW29656   4.067   4.903   2.735
 9586SOL    HW129657   4.062   4.919   2.636
 9586SOL    HW229658   4.135   4.964   2.775
 9587SOL     OW29659   2.532   5.659   2.012
 9587SOL    HW129660   2.469   5.703   2.076
 9587SOL    HW229661   2.610   5.623   2.062
 9588SOL     OW29662   6.494   5.217   0.578
 9588SOL    HW129663   6.568   5.150   0.583
 9588SOL    HW229664   6.406   5.171   0.593
 9589SOL     OW29665   1.727   3.705   6.247
 9589SOL    HW129666   1.728   3.798   6.283
 9589SOL    HW229667   1.632   3.675   6.236
 9590SOL     OW29668   5.839   1.138   0.944
 9590SOL    HW129669   5.914   1.137   0.878
 9590SOL    HW229670   5.855   1.069   1.014
 9591SOL     OW29671   4.168   0.703   6.971
 9591SOL    HW129672   4.128   0.751   0.027
 9591SOL    HW229673   4.221   0.767   6.915
 9592SOL     OW29674   2.304   6.090   5.911
 9592SOL    HW129675   2.325   6.188   5.907
 9592SOL    HW229676   2.254   6.063   5.829
 9593SOL     OW29677   1.760   1.281   4.266
 9593SOL    HW129678   1.746   1.182   4.263
 9593SOL    HW229679   1.852   1.301   4.298
 9594SOL     OW29680   0.110   6.721   3.742
 9594SOL    HW129681   0.207   6.739   3.758
 9594SOL    HW229682   0.077   6.653   3.808
 9595SOL     OW29683   0.600   3.292   3.169
 9595SOL    HW129684   0.677   3.247   3.214
 9595SOL    HW229685   0.536   3.326   3.239
 9596SOL     OW29686   0.566   7.013   0.964
 9596SOL    HW129687   0.659   0.016   0.991
 9596SOL    HW229688   0.506   0.069   0.972
 9597SOL     OW29689   0.941   3.259   2.452
 9597SOL    HW129690   1.029   3.233   2.412
 9597SOL    HW229691   0.950   3.347   2.499
 9598SOL     OW29692   1.752   4.100   3.645
 9598SOL    HW129693   1.802   4.149   3.717
 9598SOL    HW229694   1.665   4.067   3.682
 9599SOL     OW29695   4.002   0.098   3.694
 9599SOL    HW129696   3.939   0.049   3.634
 9599SOL    HW229697   4.018   0.043   3.777
 9600SOL     OW29698   3.195   0.799   1.630
 9600SOL    HW129699   3.177   0.878   1.687
 9600SOL    HW229700   3.197   0.716   1.687
 9601SOL     OW29701   0.256   3.955   1.512
 9601SOL    HW129702   0.183   3.999   1.565
 9601SOL    HW229703   0.327   3.922   1.574
 9602SOL     OW29704   4.349   5.048   5.637
 9602SOL    HW129705   4.404   4.966   5.617
 9602SOL    HW229706   4.339   5.102   5.554
 9603SOL     OW29707   5.039   5.746   5.269
 9603SOL    HW129708   5.124   5.750   5.323
 9603SOL    HW229709   5.061   5.720   5.175
 9604SOL     OW29710   5.302   6.456   0.272
 9604SOL    HW129711   5.327   6.490   0.181
 9604SOL    HW229712   5.211   6.415   0.268
 9605SOL     OW29713   6.479   6.247   2.820
 9605SOL    HW129714   6.404   6.291   2.770
 9605SOL    HW229715   6.447   6.161   2.859
 9606SOL     OW29716   1.468   1.794   6.587
 9606SOL    HW129717   1.505   1.812   6.678
 9606SOL    HW229718   1.369   1.783   6.593
 9607SOL     OW29719   3.370   2.467   6.198
 9607SOL    HW129720   3.332   2.555   6.229
 9607SOL    HW229721   3.300   2.416   6.150
 9608SOL     OW29722   6.510   3.543   3.828
 9608SOL    HW129723   6.435   3.555   3.763
 9608SOL    HW229724   6.514   3.447   3.858
 9609SOL     OW29725   4.479   2.868   6.509
 9609SOL    HW129726   4.431   2.947   6.472
 9609SOL    HW229727   4.429   2.784   6.487
 9610SOL     OW29728   1.199   4.423   3.253
 9610SOL    HW129729   1.251   4.435   3.168
 9610SOL    HW229730   1.108   4.463   3.242
 9611SOL     OW29731   1.494   0.116   0.431
 9611SOL    HW129732   1.561   0.072   0.373
 9611SOL    HW229733   1.402   0.087   0.405
 9612SOL     OW29734   0.116   3.080   3.443
 9612SOL    HW129735   0.114   2.981   3.457
 9612SOL    HW229736   0.058   3.124   3.510
 9613SOL     OW29737   5.700   5.658   3.691
 9613SOL    HW129738   5.677   5.564   3.717
 9613SOL    HW229739   5.690   5.718   3.771
 9614SOL     OW29740   5.011   2.479   3.342
 9614SOL    HW129741   4.932   2.541   3.348
 9614SOL    HW229742   5.041   2.454   3.434
 9615SOL     OW29743   2.505   3.352   0.765
 9615SOL    HW129744   2.593   3.358   0.716
 9615SOL    HW229745   2.484   3.440   0.807
 9616SOL     OW29746   4.414   3.144   0.073
 9616SOL    HW129747   4.340   3.082   0.098
 9616SOL    HW229748   4.473   3.159   0.153
 9617SOL     OW29749   2.092   2.327   4.142
 9617SOL    HW129750   2.142   2.409   4.169
 9617SOL    HW229751   2.021   2.351   4.076
 9618SOL     OW29752   2.814   1.492   0.719
 9618SOL    HW129753   2.745   1.507   0.789
 9618SOL    HW229754   2.770   1.475   0.631
 9619SOL     OW29755   2.626   1.280   4.874
 9619SOL    HW129756   2.646   1.272   4.776
 9619SOL    HW229757   2.660   1.367   4.908
 9620SOL     OW29758   5.976   0.495   5.746
 9620SOL    HW129759   6.012   0.500   5.653
 9620SOL    HW229760   5.934   0.583   5.770
 9621SOL     OW29761   1.812   2.601   3.407
 9621SOL    HW129762   1.790   2.679   3.348
 9621SOL    HW229763   1.899   2.561   3.379
 9622SOL     OW29764   5.735   0.061   1.222
 9622SOL    HW129765   5.699   0.057   1.129
 9622SOL    HW229766   5.828   0.098   1.221
 9623SOL     OW29767   2.900   3.751   6.338
 9623SOL    HW129768   2.807   3.771   6.370
 9623SOL    HW229769   2.938   3.676   6.391
 9624SOL     OW29770   6.359   3.710   3.203
 9624SOL    HW129771   6.404   3.789   3.161
 9624SOL    HW229772   6.365   3.717   3.303
 9625SOL     OW29773   6.062   5.972   0.101
 9625SOL    HW129774   6.066   6.041   0.029
 9625SOL    HW229775   6.115   5.892   0.074
 9626SOL     OW29776   2.944   6.756   6.556
 9626SOL    HW129777   2.955   6.856   6.562
 9626SOL    HW229778   2.866   6.728   6.613
 9627SOL     OW29779   1.349   6.565   6.845
 9627SOL    HW129780   1.345   6.554   6.746
 9627SOL    HW229781   1.260   6.542   6.884
 9628SOL     OW29782   4.021   6.267   2.198
 9628SOL    HW129783   4.039   6.273   2.296
 9628SOL    HW229784   4.077   6.334   2.150
 9629SOL     OW29785   2.554   6.665   1.001
 9629SOL    HW129786   2.556   6.594   1.071
 9629SOL    HW229787   2.644   6.709   0.996
 9630SOL     OW29788   6.525   0.814   6.179
 9630SOL    HW129789   6.508   0.908   6.209
 9630SOL    HW229790   6.577   0.815   6.094
 9631SOL     OW29791   5.670   5.893   6.970
 9631SOL    HW129792   5.619   5.869   0.031
 9631SOL    HW229793   5.649   5.827   6.898
 9632SOL     OW29794   1.486   6.322   2.077
 9632SOL    HW129795   1.537   6.383   2.137
 9632SOL    HW229796   1.437   6.377   2.009
 9633SOL     OW29797   6.929   5.259   6.415
 9633SOL    HW129798   6.917   5.298   6.324
 9633SOL    HW229799   6.941   5.160   6.407
 9634SOL     OW29800   1.140   5.799   4.903
 9634SOL    HW129801   1.196   5.724   4.936
 9634SOL    HW229802   1.046   5.767   4.891
 9635SOL     OW29803   1.748   5.279   5.569
 9635SOL    HW129804   1.821   5.306   5.507
 9635SOL    HW229805   1.758   5.183   5.594
 9636SOL     OW29806   4.180   1.412   6.677
 9636SOL    HW129807   4.239   1.348   6.726
 9636SOL    HW229808   4.090   1.415   6.721
 9637SOL     OW29809   2.196   1.364   0.042
 9637SOL    HW129810   2.140   1.399   6.990
 9637SOL    HW229811   2.137   1.340   0.119
 9638SOL     OW29812   6.683   2.288   5.395
 9638SOL    HW129813   6.717   2.334   5.313
 9638SOL    HW229814   6.583   2.295   5.397
 9639SOL     OW29815   4.127   0.604   2.954
 9639SOL    HW129816   4.214   0.651   2.969
 9639SOL    HW229817   4.055   0.650   3.005
 9640SOL     OW29818   2.179   2.482   2.131
 9640SOL    HW129819   2.134   2.568   2.156
 9640SOL    HW229820   2.245   2.498   2.057
 9641SOL     OW29821   5.892   5.541   0.422
 9641SOL    HW129822   5.916   5.618   0.480
 9641SOL    HW229823   5.898   5.456   0.475
 9642SOL     OW29824   3.302   0.161   4.084
 9642SOL    HW129825   3.348   0.241   4.122
 9642SOL    HW229826   3.341   0.140   3.994
 9643SOL     OW29827   4.346   4.606   3.269
 9643SOL    HW129828   4.408   4.539   3.226
 9643SOL    HW229829   4.344   4.590   3.367
 9644SOL     OW29830   2.532   1.681   6.529
 9644SOL    HW129831   2.512   1.750   6.598
 9644SOL    HW229832   2.568   1.599   6.574
 9645SOL     OW29833   2.952   5.321   5.255
 9645SOL    HW129834   2.970   5.223   5.256
 9645SOL    HW229835   2.857   5.337   5.227
 9646SOL     OW29836   4.182   5.275   3.349
 9646SOL    HW129837   4.209   5.352   3.408
 9646SOL    HW229838   4.126   5.310   3.274
 9647SOL     OW29839   6.600   2.854   0.101
 9647SOL    HW129840   6.514   2.872   0.054
 9647SOL    HW229841   6.636   2.765   0.070
 9648SOL     OW29842   4.440   3.266   1.090
 9648SOL    HW129843   4.432   3.283   0.991
 9648SOL    HW229844   4.353   3.287   1.134
 9649SOL     OW29845   2.349   5.689   0.531
 9649SOL    HW129846   2.358   5.592   0.509
 9649SOL    HW229847   2.440   5.730   0.542
 9650SOL     OW29848   6.942   0.198   1.887
 9650SOL    HW129849   0.005   0.168   1.930
 9650SOL    HW229850   6.866   0.186   1.950
 9651SOL     OW29851   0.478   1.782   5.118
 9651SOL    HW129852   0.489   1.846   5.194
 9651SOL    HW229853   0.545   1.804   5.047
 9652SOL     OW29854   0.326   5.635   2.689
 9652SOL    HW129855   0.300   5.641   2.593
 9652SOL    HW229856   0.259   5.684   2.745
 9653SOL     OW29857   6.071   5.161   4.379
 9653SOL    HW129858   6.010   5.212   4.440
 9653SOL    HW229859   6.166   5.192   4.393
 9654SOL     OW29860   2.360   2.744   2.436
 9654SOL    HW129861   2.403   2.667   2.390
 9654SOL    HW229862   2.334   2.814   2.369
 9655SOL     OW29863   5.931   2.351   6.805
 9655SOL    HW129864   5.996   2.340   6.880
 9655SOL    HW229865   5.976   2.392   6.727
 9656SOL     OW29866   3.332   0.548   2.811
 9656SOL    HW129867   3.344   0.460   2.764
 9656SOL    HW229868   3.346   0.623   2.747
 9657SOL     OW29869   0.228   0.408   5.071
 9657SOL    HW129870   0.238   0.438   5.166
 9657SOL    HW229871   0.276   0.321   5.059
 9658SOL     OW29872   6.008   2.432   3.082
 9658SOL    HW129873   6.080   2.368   3.055
 9658SOL    HW229874   5.971   2.405   3.170
 9659SOL     OW29875   0.803   5.380   6.761
 9659SOL    HW129876   0.728   5.360   6.824
 9659SOL    HW229877   0.879   5.318   6.779
 9660SOL     OW29878   0.345   5.205   0.640
 9660SOL    HW129879   0.356   5.233   0.544
 9660SOL    HW229880   0.265   5.251   0.679
 9661SOL     OW29881   4.523   6.437   0.978
 9661SOL    HW129882   4.504   6.471   1.070
 9661SOL    HW229883   4.463   6.483   0.912
 9662SOL     OW29884   4.899   0.861   4.430
 9662SOL    HW129885   4.856   0.829   4.346
 9662SOL    HW229886   4.967   0.794   4.460
 9663SOL     OW29887   2.410   6.035   3.288
 9663SOL    HW129888   2.443   6.038   3.193
 9663SOL    HW229889   2.484   6.006   3.348
 9664SOL     OW29890   2.484   5.816   1.670
 9664SOL    HW129891   2.424   5.742   1.701
 9664SOL    HW229892   2.435   5.903   1.678
 9665SOL     OW29893   5.172   4.073   4.306
 9665SOL    HW129894   5.147   4.167   4.326
 9665SOL    HW229895   5.272   4.066   4.301
 9666SOL     OW29896   5.698   4.738   4.667
 9666SOL    HW129897   5.736   4.708   4.580
 9666SOL    HW229898   5.678   4.658   4.724
 9667SOL     OW29899   3.983   3.799   3.449
 9667SOL    HW129900   4.016   3.829   3.360
 9667SOL    HW229901   3.961   3.879   3.505
 9668SOL     OW29902   0.550   1.062   4.865
 9668SOL    HW129903   0.623   0.998   4.887
 9668SOL    HW229904   0.588   1.145   4.824
 9669SOL     OW29905   1.794   5.637   0.287
 9669SOL    HW129906   1.829   5.544   0.303
 9669SOL    HW229907   1.723   5.658   0.354
 9670SOL     OW29908   6.038   4.563   6.763
 9670SOL    HW129909   5.976   4.515   6.702
 9670SOL    HW229910   5.996   4.572   6.854
 9671SOL     OW29911   0.209   0.148   0.061
 9671SOL    HW129912   0.185   0.232   0.109
 9671SOL    HW229913   0.306   0.148   0.039
 9672SOL     OW29914   0.755   6.471   4.755
 9672SOL    HW129915   0.739   6.569   4.768
 9672SOL    HW229916   0.850   6.449   4.778
 9673SOL     OW29917   2.676   2.455   6.464
 9673SOL    HW129918   2.619   2.417   6.391
 9673SOL    HW229919   2.695   2.551   6.446
 9674SOL     OW29920   2.766   6.967   1.716
 9674SOL    HW129921   2.778   6.991   1.812
 9674SOL    HW229922   2.672   6.986   1.688
 9675SOL     OW29923   0.287   3.052   1.927
 9675SOL    HW129924   0.245   3.142   1.914
 9675SOL    HW229925   0.221   2.980   1.903
 9676SOL     OW29926   0.309   3.521   4.882
 9676SOL    HW129927   0.386   3.457   4.894
 9676SOL    HW229928   0.235   3.474   4.835
 9677SOL     OW29929   2.053   3.645   4.868
 9677SOL    HW129930   2.021   3.696   4.947
 9677SOL    HW229931   2.091   3.708   4.801
 9678SOL     OW29932   4.071   3.164   3.107
 9678SOL    HW129933   4.144   3.124   3.163
 9678SOL    HW229934   3.985   3.117   3.126
 9679SOL     OW29935   0.948   3.116   1.220
 9679SOL    HW129936   0.912   3.209   1.225
 9679SOL    HW229937   0.914   3.071   1.137
 9680SOL     OW29938   5.643   5.110   3.310
 9680SOL    HW129939   5.577   5.043   3.344
 9680SOL    HW229940   5.724   5.109   3.368
 9681SOL     OW29941   0.980   1.351   4.065
 9681SOL    HW129942   1.073   1.315   4.056
 9681SOL    HW229943   0.915   1.275   4.070
 9682SOL     OW29944   6.846   4.650   2.864
 9682SOL    HW129945   6.788   4.589   2.918
 9682SOL    HW229946   6.937   4.609   2.855
 9683SOL     OW29947   4.484   6.310   6.042
 9683SOL    HW129948   4.446   6.349   5.958
 9683SOL    HW229949   4.554   6.242   6.020
 9684SOL     OW29950   1.121   4.561   3.720
 9684SOL    HW129951   1.088   4.473   3.753
 9684SOL    HW229952   1.166   4.548   3.631
 9685SOL     OW29953   1.896   2.213   0.307
 9685SOL    HW129954   1.933   2.234   0.397
 9685SOL    HW229955   1.960   2.154   0.258
 9686SOL     OW29956   5.408   0.578   1.703
 9686SOL    HW129957   5.323   0.603   1.657
 9686SOL    HW229958   5.417   0.630   1.788
 9687SOL     OW29959   3.499   0.465   3.511
 9687SOL    HW129960   3.463   0.540   3.568
 9687SOL    HW229961   3.424   0.426   3.457
 9688SOL     OW29962   0.103   1.856   3.598
 9688SOL    HW129963   0.052   1.912   3.663
 9688SOL    HW229964   0.112   1.763   3.634
 9689SOL     OW29965   1.992   5.801   6.031
 9689SOL    HW129966   2.090   5.821   6.032
 9689SOL    HW229967   1.973   5.722   6.089
 9690SOL     OW29968   6.274   4.269   0.692
 9690SOL    HW129969   6.297   4.264   0.789
 9690SOL    HW229970   6.175   4.279   0.681
 9691SOL     OW29971   1.451   4.229   1.481
 9691SOL    HW129972   1.424   4.290   1.406
 9691SOL    HW229973   1.507   4.280   1.546
 9692SOL     OW29974   2.284   5.839   1.395
 9692SOL    HW129975   2.301   5.937   1.384
 9692SOL    HW229976   2.371   5.794   1.417
 9693SOL     OW29977   5.803   5.599   1.667
 9693SOL    HW129978   5.759   5.658   1.600
 9693SOL    HW229979   5.789   5.636   1.759
 9694SOL     OW29980   2.289   2.358   6.983
 9694SOL    HW129981   2.258   2.451   6.998
 9694SOL    HW229982   2.361   2.357   6.914
 9695SOL     OW29983   5.972   4.443   1.258
 9695SOL    HW129984   5.880   4.422   1.226
 9695SOL    HW229985   6.020   4.357   1.279
 9696SOL     OW29986   3.796   3.673   0.996
 9696SOL    HW129987   3.720   3.736   1.006
 9696SOL    HW229988   3.879   3.714   1.034
 9697SOL     OW29989   0.632   5.984   7.012
 9697SOL    HW129990   0.721   5.991   6.968
 9697SOL    HW229991   0.564   6.035   6.960
 9698SOL     OW29992   5.850   1.854   5.084
 9698SOL    HW129993   5.818   1.891   5.172
 9698SOL    HW229994   5.773   1.848   5.021
 9699SOL     OW29995   1.934   3.226   0.349
 9699SOL    HW129996   1.899   3.306   0.398
 9699SOL    HW229997   1.997   3.256   0.277
 9700SOL     OW29998   3.021   3.914   4.101
 9700SOL    HW129999   3.117   3.941   4.107
 9700SOL    HW230000   2.996   3.899   4.005
 9701SOL     OW30001   5.433   3.787   4.944
 9701SOL    HW130002   5.473   3.815   5.032
 9701SOL    HW230003   5.344   3.831   4.933
 9702SOL     OW30004   4.257   0.540   0.924
 9702SOL    HW130005   4.333   0.560   0.863
 9702SOL    HW230006   4.228   0.624   0.970
 9703SOL     OW30007   3.155   6.482   4.184
 9703SOL    HW130008   3.243   6.529   4.188
 9703SOL    HW230009   3.162   6.401   4.126
 9704SOL     OW30010   2.664   0.561   3.362
 9704SOL    HW130011   2.706   0.514   3.284
 9704SOL    HW230012   2.605   0.496   3.411
 9705SOL     OW30013   3.434   4.088   0.566
 9705SOL    HW130014   3.492   4.044   0.635
 9705SOL    HW230015   3.470   4.179   0.546
 9706SOL     OW30016   5.833   2.565   2.881
 9706SOL    HW130017   5.810   2.503   2.806
 9706SOL    HW230018   5.879   2.515   2.954
 9707SOL     OW30019   2.720   5.178   3.101
 9707SOL    HW130020   2.632   5.131   3.103
 9707SOL    HW230021   2.780   5.135   3.033
 9708SOL     OW30022   2.056   1.857   2.774
 9708SOL    HW130023   1.997   1.938   2.769
 9708SOL    HW230024   2.017   1.784   2.717
 9709SOL     OW30025   1.785   4.937   3.038
 9709SOL    HW130026   1.869   4.912   2.990
 9709SOL    HW230027   1.752   5.025   3.005
 9710SOL     OW30028   0.283   0.678   3.714
 9710SOL    HW130029   0.236   0.658   3.628
 9710SOL    HW230030   0.355   0.745   3.697
 9711SOL     OW30031   1.185   4.185   5.279
 9711SOL    HW130032   1.126   4.261   5.252
 9711SOL    HW230033   1.129   4.111   5.317
 9712SOL     OW30034   4.709   2.678   4.689
 9712SOL    HW130035   4.795   2.640   4.724
 9712SOL    HW230036   4.633   2.619   4.715
 9713SOL     OW30037   6.655   5.029   2.271
 9713SOL    HW130038   6.705   5.078   2.342
 9713SOL    HW230039   6.571   5.080   2.249
 9714SOL     OW30040   1.649   2.417   1.823
 9714SOL    HW130041   1.691   2.360   1.893
 9714SOL    HW230042   1.713   2.428   1.747
 9715SOL     OW30043   5.389   5.296   4.628
 9715SOL    HW130044   5.297   5.335   4.639
 9715SOL    HW230045   5.403   5.225   4.697
 9716SOL     OW30046   4.145   1.940   6.833
 9716SOL    HW130047   4.212   2.015   6.829
 9716SOL    HW230048   4.129   1.906   6.740
 9717SOL     OW30049   5.714   4.739   3.176
 9717SOL    HW130050   5.639   4.789   3.133
 9717SOL    HW230051   5.738   4.660   3.120
 9718SOL     OW30052   4.342   3.548   1.724
 9718SOL    HW130053   4.439   3.573   1.716
 9718SOL    HW230054   4.286   3.631   1.724
 9719SOL     OW30055   0.479   1.613   0.551
 9719SOL    HW130056   0.516   1.700   0.583
 9719SOL    HW230057   0.396   1.629   0.498
 9720SOL     OW30058   0.567   0.606   1.407
 9720SOL    HW130059   0.610   0.558   1.331
 9720SOL    HW230060   0.467   0.600   1.398
 9721SOL     OW30061   6.621   3.607   2.763
 9721SOL    HW130062   6.536   3.578   2.808
 9721SOL    HW230063   6.630   3.706   2.771
 9722SOL     OW30064   6.965   0.394   4.439
 9722SOL    HW130065   6.872   0.360   4.451
 9722SOL    HW230066   6.994   0.443   4.522
 9723SOL     OW30067   0.050   1.373   3.603
 9723SOL    HW130068   0.046   1.276   3.579
 9723SOL    HW230069   0.014   1.428   3.527
 9724SOL     OW30070   3.991   3.029   1.038
 9724SOL    HW130071   3.928   2.985   0.973
 9724SOL    HW230072   4.062   2.964   1.064
 9725SOL     OW30073   4.235   3.122   5.859
 9725SOL    HW130074   4.260   3.122   5.763
 9725SOL    HW230075   4.317   3.109   5.915
 9726SOL     OW30076   5.378   6.224   4.903
 9726SOL    HW130077   5.391   6.128   4.927
 9726SOL    HW230078   5.331   6.271   4.977
 9727SOL     OW30079   1.332   2.079   6.395
 9727SOL    HW130080   1.380   2.047   6.313
 9727SOL    HW230081   1.398   2.094   6.468
 9728SOL     OW30082   3.263   5.483   0.172
 9728SOL    HW130083   3.264   5.581   0.191
 9728SOL    HW230084   3.170   5.454   0.150
 9729SOL     OW30085   3.048   5.442   2.448
 9729SOL    HW130086   3.124   5.506   2.444
 9729SOL    HW230087   3.081   5.349   2.431
 9730SOL     OW30088   5.970   3.991   2.846
 9730SOL    HW130089   5.880   4.016   2.809
 9730SOL    HW230090   6.002   4.062   2.908
 9731SOL     OW30091   4.952   5.268   1.214
 9731SOL    HW130092   4.913   5.351   1.255
 9731SOL    HW230093   4.921   5.259   1.120
 9732SOL     OW30094   6.567   5.392   3.456
 9732SOL    HW130095   6.568   5.397   3.556
 9732SOL    HW230096   6.566   5.484   3.417
 9733SOL     OW30097   5.228   4.262   6.678
 9733SOL    HW130098   5.221   4.291   6.583
 9733SOL    HW230099   5.198   4.167   6.687
 9734SOL     OW30100   5.318   2.446   4.680
 9734SOL    HW130101   5.238   2.389   4.699
 9734SOL    HW230102   5.354   2.423   4.589
 9735SOL     OW30103   1.710   4.121   0.142
 9735SOL    HW130104   1.621   4.152   0.108
 9735SOL    HW230105   1.736   4.037   0.095
 9736SOL     OW30106   3.214   1.410   1.032
 9736SOL    HW130107   3.214   1.383   1.128
 9736SOL    HW230108   3.124   1.445   1.006
 9737SOL     OW30109   4.021   2.275   5.222
 9737SOL    HW130110   4.066   2.217   5.290
 9737SOL    HW230111   4.090   2.321   5.166
 9738SOL     OW30112   2.124   0.682   2.281
 9738SOL    HW130113   2.044   0.675   2.221
 9738SOL    HW230114   2.202   0.714   2.229
 9739SOL     OW30115   5.108   5.107   1.876
 9739SOL    HW130116   5.118   5.083   1.780
 9739SOL    HW230117   5.156   5.193   1.894
 9740SOL     OW30118   6.554   3.696   3.380
 9740SOL    HW130119   6.635   3.740   3.421
 9740SOL    HW230120   6.575   3.670   3.286
 9741SOL     OW30121   3.990   2.013   1.453
 9741SOL    HW130122   3.911   2.073   1.437
 9741SOL    HW230123   4.056   2.061   1.511
 9742SOL     OW30124   4.495   1.596   4.209
 9742SOL    HW130125   4.444   1.602   4.123
 9742SOL    HW230126   4.432   1.608   4.286
 9743SOL     OW30127   1.950   2.167   5.298
 9743SOL    HW130128   1.976   2.144   5.392
 9743SOL    HW230129   2.019   2.132   5.235
 9744SOL     OW30130   1.802   0.566   1.853
 9744SOL    HW130131   1.811   0.651   1.802
 9744SOL    HW230132   1.709   0.559   1.889
 9745SOL     OW30133   0.135   1.850   4.652
 9745SOL    HW130134   0.091   1.939   4.663
 9745SOL    HW230135   0.202   1.855   4.578
 9746SOL     OW30136   5.907   1.665   4.067
 9746SOL    HW130137   5.815   1.631   4.084
 9746SOL    HW230138   5.939   1.635   3.977
 9747SOL     OW30139   0.408   7.015   6.920
 9747SOL    HW130140   0.394   0.081   6.876
 9747SOL    HW230141   0.389   6.942   6.854
 9748SOL     OW30142   0.489   5.482   4.078
 9748SOL    HW130143   0.479   5.549   4.152
 9748SOL    HW230144   0.399   5.449   4.050
 9749SOL     OW30145   0.812   4.110   3.948
 9749SOL    HW130146   0.716   4.136   3.940
 9749SOL    HW230147   0.841   4.122   4.044
 9750SOL     OW30148   3.691   4.929   3.062
 9750SOL    HW130149   3.638   4.912   3.145
 9750SOL    HW230150   3.632   4.922   2.982
 9751SOL     OW30151   1.952   2.477   0.464
 9751SOL    HW130152   1.869   2.498   0.516
 9751SOL    HW230153   1.989   2.390   0.494
 9752SOL     OW30154   3.450   1.781   6.378
 9752SOL    HW130155   3.462   1.702   6.438
 9752SOL    HW230156   3.537   1.806   6.337
 9753SOL     OW30157   6.863   6.274   5.021
 9753SOL    HW130158   6.774   6.258   4.977
 9753SOL    HW230159   6.877   6.372   5.034
 9754SOL     OW30160   6.751   2.263   6.888
 9754SOL    HW130161   6.820   2.266   6.960
 9754SOL    HW230162   6.796   2.277   6.799
 9755SOL     OW30163   4.249   4.718   5.196
 9755SOL    HW130164   4.265   4.619   5.192
 9755SOL    HW230165   4.318   4.764   5.140
 9756SOL     OW30166   5.570   2.326   5.861
 9756SOL    HW130167   5.512   2.280   5.795
 9756SOL    HW230168   5.609   2.259   5.925
 9757SOL     OW30169   6.123   2.316   3.405
 9757SOL    HW130170   6.170   2.247   3.460
 9757SOL    HW230171   6.062   2.271   3.340
 9758SOL     OW30172   2.654   0.692   7.003
 9758SOL    HW130173   2.733   0.749   6.982
 9758SOL    HW230174   2.622   0.647   6.919
 9759SOL     OW30175   2.955   5.914   1.460
 9759SOL    HW130176   2.971   5.960   1.548
 9759SOL    HW230177   2.861   5.880   1.457
 9760SOL     OW30178   5.497   4.761   6.169
 9760SOL    HW130179   5.580   4.705   6.175
 9760SOL    HW230180   5.507   4.825   6.093
 9761SOL     OW30181   5.490   5.963   2.672
 9761SOL    HW130182   5.411   5.942   2.731
 9761SOL    HW230183   5.469   5.937   2.578
 9762SOL     OW30184   2.620   1.448   3.242
 9762SOL    HW130185   2.611   1.546   3.261
 9762SOL    HW230186   2.550   1.420   3.176
 9763SOL     OW30187   1.737   1.503   1.847
 9763SOL    HW130188   1.763   1.431   1.783
 9763SOL    HW230189   1.639   1.495   1.867
 9764SOL     OW30190   1.052   2.950   1.871
 9764SOL    HW130191   1.024   3.010   1.796
 9764SOL    HW230192   1.095   2.867   1.834
 9765SOL     OW30193   6.872   1.583   5.195
 9765SOL    HW130194   6.966   1.551   5.186
 9765SOL    HW230195   6.830   1.541   5.275
 9766SOL     OW30196   2.752   0.119   2.380
 9766SOL    HW130197   2.763   0.198   2.440
 9766SOL    HW230198   2.677   0.136   2.316
 9767SOL     OW30199   4.813   0.545   5.252
 9767SOL    HW130200   4.842   0.478   5.321
 9767SOL    HW230201   4.892   0.599   5.224
 9768SOL     OW30202   5.090   2.409   3.651
 9768SOL    HW130203   5.098   2.500   3.691
 9768SOL    HW230204   5.040   2.349   3.714
 9769SOL     OW30205   0.594   1.925   1.911
 9769SOL    HW130206   0.647   1.843   1.888
 9769SOL    HW230207   0.576   1.927   2.009
 9770SOL     OW30208   6.104   4.593   6.204
 9770SOL    HW130209   6.182   4.538   6.175
 9770SOL    HW230210   6.045   4.537   6.263
 9771SOL     OW30211   3.532   5.531   4.409
 9771SOL    HW130212   3.600   5.460   4.430
 9771SOL    HW230213   3.451   5.517   4.466
 9772SOL     OW30214   6.426   0.499   1.641
 9772SOL    HW130215   6.429   0.587   1.689
 9772SOL    HW230216   6.501   0.496   1.574
 9773SOL     OW30217   5.426   5.512   3.414
 9773SOL    HW130218   5.328   5.512   3.392
 9773SOL    HW230219   5.444   5.441   3.482
 9774SOL     OW30220   6.752   4.979   3.501
 9774SOL    HW130221   6.768   5.061   3.447
 9774SOL    HW230222   6.836   4.925   3.506
 9775SOL     OW30223   2.678   2.219   5.001
 9775SOL    HW130224   2.671   2.297   5.063
 9775SOL    HW230225   2.774   2.200   4.981
 9776SOL     OW30226   0.347   4.727   4.659
 9776SOL    HW130227   0.276   4.763   4.720
 9776SOL    HW230228   0.377   4.799   4.597
 9777SOL     OW30229   5.385   5.030   6.612
 9777SOL    HW130230   5.378   5.129   6.622
 9777SOL    HW230231   5.480   5.004   6.596
 9778SOL     OW30232   4.185   0.694   3.682
 9778SOL    HW130233   4.118   0.696   3.608
 9778SOL    HW230234   4.248   0.618   3.668
 9779SOL     OW30235   2.981   1.960   6.466
 9779SOL    HW130236   2.928   1.921   6.391
 9779SOL    HW230237   2.936   2.043   6.499
 9780SOL     OW30238   3.905   4.440   0.464
 9780SOL    HW130239   3.997   4.427   0.499
 9780SOL    HW230240   3.905   4.513   0.395
 9781SOL     OW30241   1.607   6.156   4.324
 9781SOL    HW130242   1.705   6.168   4.334
 9781SOL    HW230243   1.588   6.068   4.282
 9782SOL     OW30244   6.155   0.404   1.557
 9782SOL    HW130245   6.198   0.424   1.645
 9782SOL    HW230246   6.226   0.381   1.490
 9783SOL     OW30247   5.805   1.397   2.865
 9783SOL    HW130248   5.830   1.445   2.781
 9783SOL    HW230249   5.883   1.397   2.927
 9784SOL     OW30250   5.338   0.695   4.240
 9784SOL    HW130251   5.296   0.785   4.230
 9784SOL    HW230252   5.416   0.701   4.303
 9785SOL     OW30253   0.773   2.911   0.574
 9785SOL    HW130254   0.827   2.959   0.504
 9785SOL    HW230255   0.692   2.964   0.596
 9786SOL     OW30256   2.267   0.114   5.340
 9786SOL    HW130257   2.258   0.015   5.328
 9786SOL    HW230258   2.323   0.152   5.266
 9787SOL     OW30259   5.912   4.603   2.012
 9787SOL    HW130260   5.842   4.549   1.965
 9787SOL    HW230261   5.975   4.542   2.060
 9788SOL     OW30262   0.220   1.203   5.206
 9788SOL    HW130263   0.271   1.157   5.133
 9788SOL    HW230264   0.132   1.235   5.170
 9789SOL     OW30265   1.461   5.943   4.613
 9789SOL    HW130266   1.390   6.002   4.573
 9789SOL    HW230267   1.422   5.853   4.632
 9790SOL     OW30268   7.005   1.559   3.989
 9790SOL    HW130269   0.071   1.544   4.033
 9790SOL    HW230270   6.946   1.612   4.051
 9791SOL     OW30271   0.990   2.422   1.475
 9791SOL    HW130272   0.967   2.473   1.558
 9791SOL    HW230273   1.080   2.380   1.486
 9792SOL     OW30274   3.871   6.130   1.984
 9792SOL    HW130275   3.790   6.097   2.031
 9792SOL    HW230276   3.902   6.215   2.027
 9793SOL     OW30277   5.358   6.354   2.673
 9793SOL    HW130278   5.273   6.331   2.721
 9793SOL    HW230279   5.427   6.284   2.690
 9794SOL     OW30280   3.038   3.393   6.775
 9794SOL    HW130281   3.092   3.313   6.804
 9794SOL    HW230282   2.960   3.362   6.720
 9795SOL     OW30283   2.854   4.763   4.028
 9795SOL    HW130284   2.838   4.845   4.083
 9795SOL    HW230285   2.856   4.683   4.087
 9796SOL     OW30286   3.841   4.854   0.445
 9796SOL    HW130287   3.862   4.909   0.365
 9796SOL    HW230288   3.808   4.764   0.416
 9797SOL     OW30289   4.941   2.582   4.774
 9797SOL    HW130290   4.956   2.492   4.815
 9797SOL    HW230291   5.029   2.620   4.745
 9798SOL     OW30292   2.307   1.950   1.723
 9798SOL    HW130293   2.400   1.969   1.752
 9798SOL    HW230294   2.276   1.864   1.765
 9799SOL     OW30295   3.097   3.449   1.939
 9799SOL    HW130296   3.094   3.374   2.005
 9799SOL    HW230297   3.118   3.534   1.986
 9800SOL     OW30298   3.473   4.948   0.302
 9800SOL    HW130299   3.548   4.942   0.236
 9800SOL    HW230300   3.476   4.870   0.363
 9801SOL     OW30301   4.653   5.524   6.934
 9801SOL    HW130302   4.710   5.595   6.973
 9801SOL    HW230303   4.711   5.449   6.901
 9802SOL     OW30304   0.734   5.099   1.595
 9802SOL    HW130305   0.780   5.118   1.509
 9802SOL    HW230306   0.785   5.028   1.645
 9803SOL     OW30307   5.185   0.740   6.381
 9803SOL    HW130308   5.140   0.653   6.404
 9803SOL    HW230309   5.226   0.778   6.464
 9804SOL     OW30310   5.677   5.251   4.315
 9804SOL    HW130311   5.688   5.206   4.404
 9804SOL    HW230312   5.762   5.301   4.293
 9805SOL     OW30313   3.192   4.545   1.555
 9805SOL    HW130314   3.267   4.522   1.618
 9805SOL    HW230315   3.210   4.635   1.514
 9806SOL     OW30316   6.921   1.941   2.404
 9806SOL    HW130317   6.890   1.846   2.400
 9806SOL    HW230318   7.014   1.944   2.441
 9807SOL     OW30319   3.455   2.441   0.753
 9807SOL    HW130320   3.387   2.443   0.680
 9807SOL    HW230321   3.409   2.443   0.842
 9808SOL     OW30322   1.913   2.192   4.876
 9808SOL    HW130323   1.901   2.117   4.811
 9808SOL    HW230324   1.867   2.168   4.962
 9809SOL     OW30325   0.826   0.478   4.305
 9809SOL    HW130326   0.859   0.403   4.249
 9809SOL    HW230327   0.893   0.499   4.376
 9810SOL     OW30328   4.288   0.952   3.376
 9810SOL    HW130329   4.314   1.019   3.307
 9810SOL    HW230330   4.195   0.920   3.358
 9811SOL     OW30331   1.146   0.047   2.625
 9811SOL    HW130332   1.172   0.127   2.572
 9811SOL    HW230333   1.149   6.988   2.567
 9812SOL     OW30334   5.383   2.738   5.032
 9812SOL    HW130335   5.446   2.663   5.008
 9812SOL    HW230336   5.412   2.779   5.118
 9813SOL     OW30337   6.340   4.466   1.004
 9813SOL    HW130338   6.329   4.368   0.987
 9813SOL    HW230339   6.434   4.493   0.983
 9814SOL     OW30340   6.689   0.753   5.670
 9814SOL    HW130341   6.749   0.824   5.633
 9814SOL    HW230342   6.699   0.669   5.616
 9815SOL     OW30343   0.015   3.880   2.824
 9815SOL    HW130344   6.987   3.963   2.848
 9815SOL    HW230345   0.038   3.830   2.908
 9816SOL     OW30346   6.287   0.691   6.169
 9816SOL    HW130347   6.373   0.727   6.204
 9816SOL    HW230348   6.255   0.748   6.093
 9817SOL     OW30349   2.347   0.682   0.269
 9817SOL    HW130350   2.428   0.741   0.266
 9817SOL    HW230351   2.300   0.695   0.356
 9818SOL     OW30352   0.853   0.195   2.915
 9818SOL    HW130353   0.775   0.205   2.977
 9818SOL    HW230354   0.857   0.101   2.882
 9819SOL     OW30355   6.993   2.419   4.380
 9819SOL    HW130356   0.048   2.372   4.423
 9819SOL    HW230357   6.908   2.377   4.412
 9820SOL     OW30358   3.633   2.458   6.034
 9820SOL    HW130359   3.552   2.410   6.000
 9820SOL    HW230360   3.616   2.489   6.127
 9821SOL     OW30361   3.900   2.649   1.173
 9821SOL    HW130362   3.900   2.717   1.245
 9821SOL    HW230363   3.833   2.577   1.194
 9822SOL     OW30364   3.385   5.878   4.529
 9822SOL    HW130365   3.343   5.857   4.441
 9822SOL    HW230366   3.407   5.975   4.533
 9823SOL     OW30367   3.852   6.924   3.527
 9823SOL    HW130368   3.851   6.837   3.577
 9823SOL    HW230369   3.760   6.963   3.527
 9824SOL     OW30370   0.694   5.851   6.030
 9824SOL    HW130371   0.705   5.853   6.130
 9824SOL    HW230372   0.713   5.942   5.993
 9825SOL     OW30373   6.933   6.523   5.141
 9825SOL    HW130374   6.984   6.554   5.061
 9825SOL    HW230375   6.993   6.518   5.220
 9826SOL     OW30376   1.788   5.629   5.342
 9826SOL    HW130377   1.701   5.581   5.331
 9826SOL    HW230378   1.785   5.685   5.425
 9827SOL     OW30379   2.061   4.298   1.698
 9827SOL    HW130380   1.987   4.265   1.640
 9827SOL    HW230381   2.127   4.348   1.642
 9828SOL     OW30382   4.058   1.892   5.105
 9828SOL    HW130383   4.137   1.856   5.055
 9828SOL    HW230384   4.039   1.833   5.184
 9829SOL     OW30385   5.280   4.937   5.325
 9829SOL    HW130386   5.205   4.990   5.364
 9829SOL    HW230387   5.367   4.981   5.347
 9830SOL     OW30388   5.548   1.924   3.923
 9830SOL    HW130389   5.472   1.884   3.975
 9830SOL    HW230390   5.527   2.020   3.902
 9831SOL     OW30391   0.792   4.507   1.860
 9831SOL    HW130392   0.790   4.414   1.823
 9831SOL    HW230393   0.713   4.558   1.826
 9832SOL     OW30394   4.844   5.679   4.466
 9832SOL    HW130395   4.928   5.707   4.419
 9832SOL    HW230396   4.855   5.693   4.564
 9833SOL     OW30397   4.162   3.375   4.007
 9833SOL    HW130398   4.199   3.416   4.090
 9833SOL    HW230399   4.081   3.427   3.978
 9834SOL     OW30400   3.012   5.967   5.645
 9834SOL    HW130401   3.014   5.985   5.744
 9834SOL    HW230402   2.933   5.909   5.624
 9835SOL     OW30403   3.956   3.990   3.628
 9835SOL    HW130404   3.926   3.972   3.722
 9835SOL    HW230405   4.018   4.069   3.628
 9836SOL     OW30406   6.848   3.432   5.791
 9836SOL    HW130407   6.788   3.418   5.713
 9836SOL    HW230408   6.899   3.518   5.778
 9837SOL     OW30409   5.737   1.612   3.458
 9837SOL    HW130410   5.679   1.693   3.467
 9837SOL    HW230411   5.681   1.530   3.466
 9838SOL     OW30412   0.986   5.800   1.050
 9838SOL    HW130413   1.076   5.845   1.049
 9838SOL    HW230414   0.924   5.852   1.109
 9839SOL     OW30415   5.087   6.502   3.816
 9839SOL    HW130416   5.106   6.423   3.873
 9839SOL    HW230417   5.001   6.487   3.766
 9840SOL     OW30418   6.689   1.912   6.438
 9840SOL    HW130419   6.783   1.923   6.469
 9840SOL    HW230420   6.662   1.816   6.446
 9841SOL     OW30421   6.742   6.313   2.688
 9841SOL    HW130422   6.645   6.294   2.678
 9841SOL    HW230423   6.760   6.350   2.779
 9842SOL     OW30424   3.649   0.113   0.038
 9842SOL    HW130425   3.706   0.152   6.988
 9842SOL    HW230426   3.671   0.017   0.050
 9843SOL     OW30427   0.227   0.695   1.701
 9843SOL    HW130428   0.220   0.781   1.751
 9843SOL    HW230429   0.324   0.668   1.696
 9844SOL     OW30430   4.962   0.536   4.773
 9844SOL    HW130431   4.894   0.479   4.818
 9844SOL    HW230432   4.933   0.632   4.778
 9845SOL     OW30433   1.097   3.995   2.083
 9845SOL    HW130434   0.999   3.980   2.101
 9845SOL    HW230435   1.108   4.033   1.991
 9846SOL     OW30436   6.017   2.406   1.262
 9846SOL    HW130437   6.082   2.479   1.284
 9846SOL    HW230438   6.041   2.323   1.313
 9847SOL     OW30439   3.945   4.205   6.734
 9847SOL    HW130440   3.865   4.149   6.712
 9847SOL    HW230441   3.960   4.204   6.833
 9848SOL     OW30442   3.133   3.731   5.623
 9848SOL    HW130443   3.209   3.782   5.584
 9848SOL    HW230444   3.103   3.661   5.558
 9849SOL     OW30445   1.630   2.256   4.358
 9849SOL    HW130446   1.641   2.324   4.285
 9849SOL    HW230447   1.553   2.282   4.416
 9850SOL     OW30448   1.800   6.919   4.557
 9850SOL    HW130449   1.748   6.921   4.642
 9850SOL    HW230450   1.882   6.862   4.569
 9851SOL     OW30451   3.786   5.819   3.700
 9851SOL    HW130452   3.745   5.728   3.712
 9851SOL    HW230453   3.735   5.869   3.631
 9852SOL     OW30454   1.828   6.716   0.200
 9852SOL    HW130455   1.879   6.729   0.115
 9852SOL    HW230456   1.860   6.633   0.246
 9853SOL     OW30457   0.362   4.435   3.396
 9853SOL    HW130458   0.273   4.433   3.351
 9853SOL    HW230459   0.357   4.493   3.478
 9854SOL     OW30460   6.872   3.563   6.869
 9854SOL    HW130461   6.933   3.541   6.793
 9854SOL    HW230462   6.844   3.659   6.863
 9855SOL     OW30463   0.813   6.032   0.640
 9855SOL    HW130464   0.793   5.985   0.726
 9855SOL    HW230465   0.741   6.013   0.574
 9856SOL     OW30466   5.179   3.123   2.822
 9856SOL    HW130467   5.096   3.153   2.775
 9856SOL    HW230468   5.206   3.033   2.788
 9857SOL     OW30469   4.543   0.106   5.799
 9857SOL    HW130470   4.641   0.098   5.814
 9857SOL    HW230471   4.520   0.075   5.706
 9858SOL     OW30472   6.403   6.067   2.219
 9858SOL    HW130473   6.503   6.064   2.212
 9858SOL    HW230474   6.375   6.158   2.249
 9859SOL     OW30475   0.183   5.768   2.900
 9859SOL    HW130476   0.197   5.746   2.996
 9859SOL    HW230477   0.095   5.815   2.889
 9860SOL     OW30478   1.878   3.242   4.015
 9860SOL    HW130479   1.968   3.244   4.058
 9860SOL    HW230480   1.811   3.286   4.075
 9861SOL     OW30481   3.481   1.803   3.265
 9861SOL    HW130482   3.387   1.814   3.236
 9861SOL    HW230483   3.496   1.853   3.351
 9862SOL     OW30484   1.439   3.680   6.473
 9862SOL    HW130485   1.449   3.582   6.489
 9862SOL    HW230486   1.420   3.696   6.376
 9863SOL     OW30487   3.954   0.173   2.276
 9863SOL    HW130488   3.966   0.074   2.267
 9863SOL    HW230489   3.946   0.197   2.373
 9864SOL     OW30490   2.177   6.085   5.588
 9864SOL    HW130491   2.083   6.103   5.617
 9864SOL    HW230492   2.212   6.165   5.540
 9865SOL     OW30493   2.231   5.715   5.904
 9865SOL    HW130494   2.317   5.765   5.894
 9865SOL    HW230495   2.187   5.706   5.814
 9866SOL     OW30496   6.448   5.248   6.151
 9866SOL    HW130497   6.504   5.273   6.073
 9866SOL    HW230498   6.420   5.330   6.200
 9867SOL     OW30499   4.380   1.418   1.845
 9867SOL    HW130500   4.362   1.434   1.942
 9867SOL    HW230501   4.344   1.494   1.791
 9868SOL     OW30502   2.319   4.701   4.151
 9868SOL    HW130503   2.359   4.649   4.075
 9868SOL    HW230504   2.296   4.793   4.119
 9869SOL     OW30505   0.164   2.090   1.485
 9869SOL    HW130506   0.168   2.046   1.575
 9869SOL    HW230507   0.079   2.064   1.439
 9870SOL     OW30508   2.216   2.283   2.754
 9870SOL    HW130509   2.257   2.374   2.754
 9870SOL    HW230510   2.144   2.278   2.823
 9871SOL     OW30511   5.618   5.884   3.552
 9871SOL    HW130512   5.698   5.941   3.569
 9871SOL    HW230513   5.637   5.790   3.581
 9872SOL     OW30514   0.485   5.585   5.325
 9872SOL    HW130515   0.505   5.682   5.336
 9872SOL    HW230516   0.397   5.563   5.368
 9873SOL     OW30517   1.359   1.451   5.413
 9873SOL    HW130518   1.455   1.477   5.420
 9873SOL    HW230519   1.313   1.512   5.348
 9874SOL     OW30520   0.554   2.146   4.065
 9874SOL    HW130521   0.572   2.234   4.021
 9874SOL    HW230522   0.487   2.095   4.011
 9875SOL     OW30523   6.354   6.078   0.812
 9875SOL    HW130524   6.309   6.077   0.901
 9875SOL    HW230525   6.453   6.082   0.825
 9876SOL     OW30526   6.998   6.523   3.500
 9876SOL    HW130527   7.021   6.585   3.575
 9876SOL    HW230528   6.901   6.499   3.507
 9877SOL     OW30529   0.501   6.130   4.876
 9877SOL    HW130530   0.486   6.224   4.844
 9877SOL    HW230531   0.600   6.112   4.882
 9878SOL     OW30532   3.461   2.970   6.879
 9878SOL    HW130533   3.466   2.987   6.780
 9878SOL    HW230534   3.393   2.899   6.897
 9879SOL     OW30535   6.446   5.674   5.330
 9879SOL    HW130536   6.353   5.646   5.306
 9879SOL    HW230537   6.482   5.612   5.400
 9880SOL     OW30538   2.653   1.280   0.879
 9880SOL    HW130539   2.735   1.222   0.876
 9880SOL    HW230540   2.576   1.232   0.837
 9881SOL     OW30541   5.754   0.759   2.887
 9881SOL    HW130542   5.735   0.846   2.933
 9881SOL    HW230543   5.681   0.694   2.906
 9882SOL     OW30544   3.584   3.172   4.320
 9882SOL    HW130545   3.521   3.170   4.242
 9882SOL    HW230546   3.607   3.079   4.346
 9883SOL     OW30547   2.058   6.258   2.485
 9883SOL    HW130548   2.065   6.299   2.576
 9883SOL    HW230549   1.973   6.205   2.479
 9884SOL     OW30550   3.414   2.738   5.366
 9884SOL    HW130551   3.343   2.670   5.347
 9884SOL    HW230552   3.405   2.815   5.302
 9885SOL     OW30553   4.839   2.277   5.528
 9885SOL    HW130554   4.759   2.231   5.490
 9885SOL    HW230555   4.921   2.222   5.512
 9886SOL     OW30556   3.140   6.021   1.145
 9886SOL    HW130557   3.196   5.965   1.084
 9886SOL    HW230558   3.046   5.986   1.146
 9887SOL     OW30559   3.208   1.067   0.173
 9887SOL    HW130560   3.246   1.097   0.260
 9887SOL    HW230561   3.126   1.011   0.189
 9888SOL     OW30562   6.193   0.104   4.115
 9888SOL    HW130563   6.095   0.116   4.099
 9888SOL    HW230564   6.227   0.030   4.057
 9889SOL     OW30565   0.015   5.508   2.473
 9889SOL    HW130566   0.072   5.428   2.454
 9889SOL    HW230567   7.001   5.501   2.565
 9890SOL     OW30568   1.103   3.139   2.677
 9890SOL    HW130569   1.153   3.223   2.697
 9890SOL    HW230570   1.006   3.159   2.665
 9891SOL     OW30571   4.937   6.736   1.858
 9891SOL    HW130572   4.853   6.761   1.809
 9891SOL    HW230573   5.014   6.786   1.819
 9892SOL     OW30574   1.528   5.918   3.752
 9892SOL    HW130575   1.571   5.938   3.840
 9892SOL    HW230576   1.505   5.820   3.748
 9893SOL     OW30577   5.743   4.679   4.979
 9893SOL    HW130578   5.668   4.725   4.933
 9893SOL    HW230579   5.707   4.609   5.040
 9894SOL     OW30580   4.344   3.541   5.216
 9894SOL    HW130581   4.384   3.530   5.307
 9894SOL    HW230582   4.408   3.592   5.158
 9895SOL     OW30583   5.390   2.035   6.578
 9895SOL    HW130584   5.369   2.017   6.482
 9895SOL    HW230585   5.481   2.076   6.585
 9896SOL     OW30586   3.949   3.875   6.984
 9896SOL    HW130587   3.873   3.810   6.982
 9896SOL    HW230588   3.996   3.869   0.049
 9897SOL     OW30589   0.282   1.274   2.809
 9897SOL    HW130590   0.235   1.362   2.816
 9897SOL    HW230591   0.331   1.256   2.895
 9898SOL     OW30592   1.512   4.856   6.814
 9898SOL    HW130593   1.474   4.807   6.736
 9898SOL    HW230594   1.546   4.791   6.882
 9899SOL     OW30595   4.713   5.002   2.692
 9899SOL    HW130596   4.795   4.966   2.737
 9899SOL    HW230597   4.704   4.960   2.602
 9900SOL     OW30598   1.983   4.537   4.043
 9900SOL    HW130599   1.884   4.523   4.048
 9900SOL    HW230600   2.010   4.612   4.104
 9901SOL     OW30601   2.387   1.848   6.148
 9901SOL    HW130602   2.329   1.912   6.199
 9901SOL    HW230603   2.372   1.859   6.050
 9902SOL     OW30604   4.426   3.798   6.531
 9902SOL    HW130605   4.449   3.731   6.602
 9902SOL    HW230606   4.509   3.849   6.506
 9903SOL     OW30607   3.540   1.725   1.566
 9903SOL    HW130608   3.503   1.787   1.636
 9903SOL    HW230609   3.526   1.765   1.475
 9904SOL     OW30610   0.314   0.176   2.170
 9904SOL    HW130611   0.329   0.236   2.249
 9904SOL    HW230612   0.367   0.092   2.182
 9905SOL     OW30613   1.266   6.578   5.710
 9905SOL    HW130614   1.339   6.512   5.690
 9905SOL    HW230615   1.261   6.593   5.809
 9906SOL     OW30616   3.584   3.750   5.998
 9906SOL    HW130617   3.582   3.656   5.965
 9906SOL    HW230618   3.679   3.781   6.006
 9907SOL     OW30619   1.130   6.679   2.902
 9907SOL    HW130620   1.098   6.643   2.990
 9907SOL    HW230621   1.117   6.778   2.900
 9908SOL     OW30622   6.265   3.624   5.199
 9908SOL    HW130623   6.354   3.626   5.244
 9908SOL    HW230624   6.212   3.548   5.235
 9909SOL     OW30625   3.694   6.784   2.181
 9909SOL    HW130626   3.628   6.858   2.192
 9909SOL    HW230627   3.701   6.760   2.084
 9910SOL     OW30628   0.847   4.922   0.700
 9910SOL    HW130629   0.883   4.892   0.612
 9910SOL    HW230630   0.814   5.016   0.692
 9911SOL     OW30631   3.961   5.235   2.898
 9911SOL    HW130632   3.896   5.190   2.836
 9911SOL    HW230633   3.937   5.213   2.992
 9912SOL     OW30634   3.926   6.940   0.892
 9912SOL    HW130635   3.913   6.968   0.987
 9912SOL    HW230636   3.864   6.993   0.833
 9913SOL     OW30637   4.702   2.378   2.703
 9913SOL    HW130638   4.749   2.304   2.750
 9913SOL    HW230639   4.616   2.398   2.749
 9914SOL     OW30640   2.024   5.109   4.559
 9914SOL    HW130641   1.971   5.164   4.623
 9914SOL    HW230642   2.028   5.155   4.470
 9915SOL     OW30643   6.295   3.741   4.138
 9915SOL    HW130644   6.244   3.810   4.086
 9915SOL    HW230645   6.237   3.705   4.211
 9916SOL     OW30646   2.699   3.505   0.605
 9916SOL    HW130647   2.723   3.461   0.519
 9916SOL    HW230648   2.610   3.550   0.596
 9917SOL     OW30649   2.086   2.995   4.968
 9917SOL    HW130650   2.176   3.037   4.983
 9917SOL    HW230651   2.086   2.903   5.006
 9918SOL     OW30652   2.530   1.057   5.031
 9918SOL    HW130653   2.443   1.053   4.983
 9918SOL    HW230654   2.574   1.145   5.012
 9919SOL     OW30655   0.691   5.570   2.325
 9919SOL    HW130656   0.787   5.560   2.349
 9919SOL    HW230657   0.659   5.487   2.280
 9920SOL     OW30658   4.247   6.760   2.738
 9920SOL    HW130659   4.182   6.708   2.795
 9920SOL    HW230660   4.340   6.744   2.771
 9921SOL     OW30661   5.213   0.162   2.454
 9921SOL    HW130662   5.177   0.108   2.378
 9921SOL    HW230663   5.228   0.102   2.533
 9922SOL     OW30664   5.147   3.102   1.897
 9922SOL    HW130665   5.128   3.005   1.914
 9922SOL    HW230666   5.239   3.112   1.860
 9923SOL     OW30667   5.911   0.820   6.483
 9923SOL    HW130668   5.854   0.756   6.534
 9923SOL    HW230669   6.001   0.780   6.468
 9924SOL     OW30670   5.219   1.035   4.020
 9924SOL    HW130671   5.199   0.938   4.004
 9924SOL    HW230672   5.270   1.046   4.105
 9925SOL     OW30673   3.829   2.081   4.751
 9925SOL    HW130674   3.841   2.132   4.836
 9925SOL    HW230675   3.733   2.055   4.742
 9926SOL     OW30676   1.353   0.829   5.653
 9926SOL    HW130677   1.419   0.901   5.672
 9926SOL    HW230678   1.398   0.753   5.606
 9927SOL     OW30679   0.916   3.143   2.986
 9927SOL    HW130680   0.973   3.163   2.906
 9927SOL    HW230681   0.820   3.146   2.959
 9928SOL     OW30682   0.310   3.235   2.245
 9928SOL    HW130683   0.312   3.159   2.310
 9928SOL    HW230684   0.301   3.200   2.152
 9929SOL     OW30685   0.525   4.635   5.551
 9929SOL    HW130686   0.539   4.538   5.572
 9929SOL    HW230687   0.576   4.691   5.615
 9930SOL     OW30688   6.602   5.033   6.257
 9930SOL    HW130689   6.554   5.117   6.230
 9930SOL    HW230690   6.572   5.005   6.348
 9931SOL     OW30691   2.950   4.823   6.709
 9931SOL    HW130692   3.032   4.878   6.690
 9931SOL    HW230693   2.870   4.868   6.670
 9932SOL     OW30694   2.656   2.630   1.051
 9932SOL    HW130695   2.667   2.623   0.952
 9932SOL    HW230696   2.607   2.714   1.074
 9933SOL     OW30697   0.912   1.719   2.426
 9933SOL    HW130698   0.835   1.703   2.488
 9933SOL    HW230699   0.990   1.664   2.456
 9934SOL     OW30700   5.262   0.469   5.972
 9934SOL    HW130701   5.274   0.530   6.052
 9934SOL    HW230702   5.236   0.378   6.004
 9935SOL     OW30703   2.504   2.751   0.635
 9935SOL    HW130704   2.530   2.705   0.550
 9935SOL    HW230705   2.422   2.707   0.673
 9936SOL     OW30706   4.939   6.720   6.385
 9936SOL    HW130707   4.961   6.812   6.417
 9936SOL    HW230708   4.942   6.656   6.462
 9937SOL     OW30709   1.681   6.740   3.796
 9937SOL    HW130710   1.628   6.795   3.731
 9937SOL    HW230711   1.731   6.670   3.746
 9938SOL     OW30712   0.135   1.266   3.235
 9938SOL    HW130713   0.103   1.356   3.267
 9938SOL    HW230714   0.230   1.254   3.262
 9939SOL     OW30715   2.606   4.155   1.616
 9939SOL    HW130716   2.560   4.085   1.563
 9939SOL    HW230717   2.705   4.146   1.604
 9940SOL     OW30718   6.733   0.977   3.066
 9940SOL    HW130719   6.812   1.039   3.069
 9940SOL    HW230720   6.757   0.890   3.109
 9941SOL     OW30721   5.719   3.426   1.142
 9941SOL    HW130722   5.772   3.511   1.147
 9941SOL    HW230723   5.763   3.363   1.078
 9942SOL     OW30724   6.410   5.985   2.977
 9942SOL    HW130725   6.424   5.889   2.951
 9942SOL    HW230726   6.317   5.996   3.013
 9943SOL     OW30727   2.032   4.079   5.595
 9943SOL    HW130728   2.132   4.071   5.603
 9943SOL    HW230729   2.009   4.108   5.502
 9944SOL     OW30730   2.117   6.017   6.515
 9944SOL    HW130731   2.182   5.981   6.448
 9944SOL    HW230732   2.062   6.089   6.473
 9945SOL     OW30733   6.385   3.651   6.817
 9945SOL    HW130734   6.427   3.570   6.858
 9945SOL    HW230735   6.319   3.623   6.748
 9946SOL     OW30736   4.996   2.199   1.932
 9946SOL    HW130737   4.902   2.226   1.914
 9946SOL    HW230738   5.040   2.171   1.847
 9947SOL     OW30739   1.315   1.475   2.137
 9947SOL    HW130740   1.264   1.435   2.213
 9947SOL    HW230741   1.274   1.562   2.111
 9948SOL     OW30742   6.148   0.551   5.533
 9948SOL    HW130743   6.178   0.646   5.530
 9948SOL    HW230744   6.217   0.493   5.489
 9949SOL     OW30745   0.125   3.738   3.491
 9949SOL    HW130746   0.085   3.649   3.515
 9949SOL    HW230747   0.115   3.754   3.393
 9950SOL     OW30748   4.602   4.331   5.532
 9950SOL    HW130749   4.553   4.391   5.596
 9950SOL    HW230750   4.542   4.308   5.455
 9951SOL     OW30751   0.304   2.320   2.891
 9951SOL    HW130752   0.213   2.298   2.927
 9951SOL    HW230753   0.353   2.235   2.871
 9952SOL     OW30754   1.727   4.618   1.317
 9952SOL    HW130755   1.728   4.607   1.218
 9952SOL    HW230756   1.699   4.711   1.340
 9953SOL     OW30757   6.574   4.323   3.672
 9953SOL    HW130758   6.598   4.226   3.685
 9953SOL    HW230759   6.481   4.330   3.637
 9954SOL     OW30760   3.676   1.302   1.344
 9954SOL    HW130761   3.672   1.388   1.394
 9954SOL    HW230762   3.769   1.265   1.348
 9955SOL     OW30763   5.797   5.135   1.457
 9955SOL    HW130764   5.896   5.152   1.450
 9955SOL    HW230765   5.766   5.156   1.549
 9956SOL     OW30766   1.749   3.319   2.886
 9956SOL    HW130767   1.764   3.412   2.921
 9956SOL    HW230768   1.679   3.274   2.941
 9957SOL     OW30769   5.258   0.068   0.424
 9957SOL    HW130770   5.202   0.040   0.502
 9957SOL    HW230771   5.277   7.011   0.366
 9958SOL     OW30772   5.652   5.822   6.693
 9958SOL    HW130773   5.697   5.893   6.746
 9958SOL    HW230774   5.684   5.824   6.598
 9959SOL     OW30775   6.016   4.740   0.215
 9959SOL    HW130776   6.010   4.686   0.131
 9959SOL    HW230777   5.962   4.697   0.287
 9960SOL     OW30778   6.296   0.175   6.907
 9960SOL    HW130779   6.288   0.200   7.003
 9960SOL    HW230780   6.334   0.082   6.899
 9961SOL     OW30781   3.212   5.893   0.923
 9961SOL    HW130782   3.142   5.933   0.864
 9961SOL    HW230783   3.302   5.918   0.889
 9962SOL     OW30784   3.379   0.670   1.437
 9962SOL    HW130785   3.340   0.714   1.517
 9962SOL    HW230786   3.349   0.574   1.434
 9963SOL     OW30787   0.699   0.061   6.474
 9963SOL    HW130788   0.707   0.005   6.556
 9963SOL    HW230789   0.789   0.074   6.433
 9964SOL     OW30790   4.357   5.015   5.318
 9964SOL    HW130791   4.393   5.030   5.226
 9964SOL    HW230792   4.258   5.008   5.314
 9965SOL     OW30793   2.843   5.180   3.961
 9965SOL    HW130794   2.799   5.254   3.910
 9965SOL    HW230795   2.894   5.122   3.897
 9966SOL     OW30796   3.788   5.810   3.097
 9966SOL    HW130797   3.823   5.902   3.111
 9966SOL    HW230798   3.707   5.797   3.154
 9967SOL     OW30799   0.219   0.901   3.381
 9967SOL    HW130800   0.194   0.828   3.443
 9967SOL    HW230801   0.185   0.880   3.289
 9968SOL     OW30802   4.316   6.925   0.206
 9968SOL    HW130803   4.236   6.864   0.207
 9968SOL    HW230804   4.400   6.871   0.208
 9969SOL     OW30805   0.035   5.804   3.554
 9969SOL    HW130806   7.010   5.879   3.508
 9969SOL    HW230807   0.129   5.832   3.575
 9970SOL     OW30808   6.533   3.699   2.144
 9970SOL    HW130809   6.586   3.639   2.204
 9970SOL    HW230810   6.550   3.794   2.170
 9971SOL     OW30811   0.302   5.221   4.332
 9971SOL    HW130812   0.245   5.143   4.307
 9971SOL    HW230813   0.268   5.303   4.285
 9972SOL     OW30814   2.742   4.623   6.109
 9972SOL    HW130815   2.668   4.625   6.041
 9972SOL    HW230816   2.769   4.717   6.131
 9973SOL     OW30817   2.907   1.768   3.254
 9973SOL    HW130818   2.938   1.862   3.269
 9973SOL    HW230819   2.986   1.708   3.241
 9974SOL     OW30820   1.524   2.248   3.162
 9974SOL    HW130821   1.438   2.269   3.208
 9974SOL    HW230822   1.551   2.325   3.104
 9975SOL     OW30823   2.630   4.659   6.550
 9975SOL    HW130824   2.682   4.579   6.519
 9975SOL    HW230825   2.585   4.638   6.637
 9976SOL     OW30826   4.114   5.930   5.099
 9976SOL    HW130827   4.150   5.925   5.192
 9976SOL    HW230828   4.071   6.019   5.085
 9977SOL     OW30829   4.064   0.585   5.192
 9977SOL    HW130830   4.039   0.671   5.235
 9977SOL    HW230831   4.161   0.586   5.168
 9978SOL     OW30832   0.713   2.358   0.355
 9978SOL    HW130833   0.637   2.418   0.333
 9978SOL    HW230834   0.789   2.412   0.393
 9979SOL     OW30835   3.403   4.175   4.590
 9979SOL    HW130836   3.310   4.193   4.622
 9979SOL    HW230837   3.466   4.177   4.667
 9980SOL     OW30838   1.264   0.660   0.540
 9980SOL    HW130839   1.297   0.601   0.613
 9980SOL    HW230840   1.164   0.660   0.540
 9981SOL     OW30841   5.503   1.172   0.266
 9981SOL    HW130842   5.471   1.079   0.247
 9981SOL    HW230843   5.451   1.237   0.211
 9982SOL     OW30844   2.203   2.472   4.583
 9982SOL    HW130845   2.254   2.527   4.649
 9982SOL    HW230846   2.107   2.468   4.610
 9983SOL     OW30847   0.944   3.786   2.258
 9983SOL    HW130848   1.031   3.736   2.263
 9983SOL    HW230849   0.876   3.739   2.315
 9984SOL     OW30850   0.507   4.947   0.952
 9984SOL    HW130851   0.569   4.996   1.014
 9984SOL    HW230852   0.484   4.858   0.992
 9985SOL     OW30853   5.060   4.434   6.942
 9985SOL    HW130854   5.156   4.425   6.967
 9985SOL    HW230855   5.003   4.429   0.002
 9986SOL     OW30856   5.716   4.858   0.489
 9986SOL    HW130857   5.622   4.874   0.520
 9986SOL    HW230858   5.714   4.808   0.402
 9987SOL     OW30859   5.297   1.961   1.017
 9987SOL    HW130860   5.378   1.953   1.075
 9987SOL    HW230861   5.215   1.970   1.074
 9988SOL     OW30862   6.270   0.199   3.582
 9988SOL    HW130863   6.355   0.213   3.632
 9988SOL    HW230864   6.238   0.105   3.598
 9989SOL     OW30865   6.546   5.686   2.043
 9989SOL    HW130866   6.631   5.668   2.094
 9989SOL    HW230867   6.468   5.669   2.102
 9990SOL     OW30868   0.092   0.234   3.069
 9990SOL    HW130869   0.146   0.271   2.994
 9990SOL    HW230870   0.153   0.200   3.141
 9991SOL     OW30871   2.429   4.428   2.262
 9991SOL    HW130872   2.472   4.519   2.262
 9991SOL    HW230873   2.427   4.392   2.169
 9992SOL     OW30874   2.846   5.169   0.210
 9992SOL    HW130875   2.876   5.154   0.115
 9992SOL    HW230876   2.818   5.081   0.250
 9993SOL     OW30877   3.998   0.423   4.794
 9993SOL    HW130878   3.907   0.448   4.828
 9993SOL    HW230879   4.068   0.464   4.852
 9994SOL     OW30880   5.969   4.840   5.080
 9994SOL    HW130881   6.047   4.870   5.025
 9994SOL    HW230882   5.901   4.798   5.021
 9995SOL     OW30883   3.731   1.751   6.361
 9995SOL    HW130884   3.803   1.785   6.300
 9995SOL    HW230885   3.717   1.654   6.345
 9996SOL     OW30886   3.344   4.424   0.866
 9996SOL    HW130887   3.256   4.467   0.883
 9996SOL    HW230888   3.341   4.328   0.896
 9997SOL     OW30889   6.762   1.716   2.376
 9997SOL    HW130890   6.674   1.699   2.419
 9997SOL    HW230891   6.826   1.642   2.400
 9998SOL     OW30892   5.148   4.009   2.572
 9998SOL    HW130893   5.145   4.055   2.483
 9998SOL    HW230894   5.133   3.911   2.559
 9999SOL     OW30895   0.590   0.251   4.796
 9999SOL    HW130896   0.525   0.226   4.724
 9999SOL    HW230897   0.623   0.169   4.841
10000SOL     OW30898   4.825   2.124   1.336
10000SOL    HW130899   4.797   2.145   1.430
10000SOL    HW230900   4.769   2.048   1.302
10001SOL     OW30901   3.778   6.257   1.265
10001SOL    HW130902   3.689   6.293   1.238
10001SOL    HW230903   3.766   6.183   1.330
10002SOL     OW30904   2.336   6.828   2.113
10002SOL    HW130905   2.281   6.874   2.044
10002SOL    HW230906   2.329   6.876   2.201
10003SOL     OW30907   1.219   1.200   2.502
10003SOL    HW130908   1.283   1.151   2.443
10003SOL    HW230909   1.225   1.298   2.484
10004SOL     OW30910   0.588   4.527   3.968
10004SOL    HW130911   0.573   4.503   3.872
10004SOL    HW230912   0.547   4.616   3.987
10005SOL     OW30913   2.638   5.714   3.558
10005SOL    HW130914   2.563   5.699   3.622
10005SOL    HW230915   2.713   5.651   3.579
10006SOL     OW30916   5.324   1.263   5.343
10006SOL    HW130917   5.309   1.355   5.379
10006SOL    HW230918   5.416   1.233   5.365
10007SOL     OW30919   0.817   5.251   3.880
10007SOL    HW130920   0.765   5.210   3.806
10007SOL    HW230921   0.877   5.182   3.921
10008SOL     OW30922   4.138   1.096   6.264
10008SOL    HW130923   4.221   1.082   6.209
10008SOL    HW230924   4.063   1.043   6.225
10009SOL     OW30925   0.788   4.465   2.259
10009SOL    HW130926   0.722   4.536   2.285
10009SOL    HW230927   0.857   4.456   2.330
10010SOL     OW30928   2.096   4.173   1.302
10010SOL    HW130929   2.063   4.114   1.229
10010SOL    HW230930   2.021   4.228   1.337
10011SOL     OW30931   2.366   2.898   7.022
10011SOL    HW130932   2.267   2.885   7.013
10011SOL    HW230933   2.386   2.942   0.087
10012SOL     OW30934   5.663   1.901   3.316
10012SOL    HW130935   5.650   1.869   3.222
10012SOL    HW230936   5.590   1.964   3.340
10013SOL     OW30937   0.662   6.430   4.340
10013SOL    HW130938   0.574   6.398   4.374
10013SOL    HW230939   0.729   6.356   4.346
10014SOL     OW30940   1.210   1.208   2.816
10014SOL    HW130941   1.157   1.293   2.818
10014SOL    HW230942   1.258   1.201   2.729
10015SOL     OW30943   3.615   6.524   5.992
10015SOL    HW130944   3.674   6.463   6.046
10015SOL    HW230945   3.559   6.579   6.053
10016SOL     OW30946   2.034   0.691   4.526
10016SOL    HW130947   1.939   0.692   4.556
10016SOL    HW230948   2.073   0.601   4.544
10017SOL     OW30949   3.173   2.093   2.287
10017SOL    HW130950   3.147   2.164   2.353
10017SOL    HW230951   3.116   2.103   2.205
10018SOL     OW30952   6.941   4.143   5.104
10018SOL    HW130953   6.898   4.177   5.021
10018SOL    HW230954   0.018   4.147   5.094
10019SOL     OW30955   0.406   1.944   1.680
10019SOL    HW130956   0.398   1.865   1.619
10019SOL    HW230957   0.466   1.922   1.757
10020SOL     OW30958   6.551   1.290   1.907
10020SOL    HW130959   6.649   1.267   1.901
10020SOL    HW230960   6.540   1.375   1.958
10021SOL     OW30961   1.029   3.433   2.157
10021SOL    HW130962   0.961   3.400   2.222
10021SOL    HW230963   0.987   3.441   2.066
10022SOL     OW30964   1.813   5.931   6.338
10022SOL    HW130965   1.737   5.953   6.278
10022SOL    HW230966   1.865   5.854   6.301
10023SOL     OW30967   0.630   1.663   5.832
10023SOL    HW130968   0.704   1.687   5.770
10023SOL    HW230969   0.597   1.571   5.811
10024SOL     OW30970   1.822   4.548   2.479
10024SOL    HW130971   1.861   4.571   2.390
10024SOL    HW230972   1.818   4.630   2.536
10025SOL     OW30973   1.316   3.838   0.790
10025SOL    HW130974   1.245   3.839   0.860
10025SOL    HW230975   1.377   3.916   0.803
10026SOL     OW30976   5.767   1.361   4.849
10026SOL    HW130977   5.689   1.300   4.855
10026SOL    HW230978   5.749   1.443   4.904
10027SOL     OW30979   3.697   1.310   5.449
10027SOL    HW130980   3.597   1.304   5.451
10027SOL    HW230981   3.725   1.403   5.473
10028SOL     OW30982   4.401   0.004   1.442
10028SOL    HW130983   4.377   0.012   1.539
10028SOL    HW230984   4.398   6.930   1.415
10029SOL     OW30985   0.465   4.257   4.373
10029SOL    HW130986   0.385   4.272   4.315
10029SOL    HW230987   0.437   4.259   4.469
10030SOL     OW30988   2.558   0.339   4.800
10030SOL    HW130989   2.480   0.342   4.738
10030SOL    HW230990   2.563   0.248   4.843
10031SOL     OW30991   2.336   5.715   2.761
10031SOL    HW130992   2.303   5.721   2.667
10031SOL    HW230993   2.428   5.675   2.762
10032SOL     OW30994   2.959   6.230   4.790
10032SOL    HW130995   2.968   6.280   4.704
10032SOL    HW230996   3.048   6.194   4.817
10033SOL     OW30997   3.349   1.119   4.601
10033SOL    HW130998   3.436   1.071   4.585
10033SOL    HW230999   3.280   1.086   4.537
10034SOL     OW31000   2.635   1.198   2.868
10034SOL    HW131001   2.588   1.270   2.919
10034SOL    HW231002   2.728   1.229   2.845
10035SOL     OW31003   6.474   3.020   2.423
10035SOL    HW131004   6.514   3.108   2.448
10035SOL    HW231005   6.547   2.952   2.416
10036SOL     OW31006   0.781   1.379   0.190
10036SOL    HW131007   0.866   1.340   0.155
10036SOL    HW231008   0.796   1.418   0.280
10037SOL     OW31009   5.689   6.573   6.706
10037SOL    HW131010   5.647   6.483   6.715
10037SOL    HW231011   5.618   6.644   6.713
10038SOL     OW31012   4.369   6.292   6.294
10038SOL    HW131013   4.430   6.272   6.371
10038SOL    HW231014   4.424   6.310   6.213
10039SOL     OW31015   0.677   5.910   2.613
10039SOL    HW131016   0.739   5.923   2.690
10039SOL    HW231017   0.668   5.812   2.593
10040SOL     OW31018   2.861   0.220   0.817
10040SOL    HW131019   2.771   0.207   0.859
10040SOL    HW231020   2.905   0.300   0.858
10041SOL     OW31021   6.147   5.786   5.060
10041SOL    HW131022   6.138   5.712   5.127
10041SOL    HW231023   6.128   5.750   4.969
10042SOL     OW31024   6.709   0.507   5.273
10042SOL    HW131025   6.657   0.487   5.356
10042SOL    HW231026   6.645   0.521   5.197
10043SOL     OW31027   0.738   0.546   3.453
10043SOL    HW131028   0.711   0.520   3.360
10043SOL    HW231029   0.820   0.604   3.449
10044SOL     OW31030   2.743   1.464   6.937
10044SOL    HW131031   2.823   1.512   6.902
10044SOL    HW231032   2.664   1.525   6.933
10045SOL     OW31033   3.635   6.640   4.877
10045SOL    HW131034   3.667   6.602   4.790
10045SOL    HW231035   3.661   6.580   4.952
10046SOL     OW31036   6.822   2.637   1.266
10046SOL    HW131037   6.805   2.653   1.169
10046SOL    HW231038   6.921   2.638   1.283
10047SOL     OW31039   0.704   1.507   3.194
10047SOL    HW131040   0.690   1.425   3.250
10047SOL    HW231041   0.659   1.585   3.237
10048SOL     OW31042   3.726   2.578   1.760
10048SOL    HW131043   3.791   2.537   1.696
10048SOL    HW231044   3.772   2.648   1.815
10049SOL     OW31045   1.710   7.016   4.230
10049SOL    HW131046   1.752   6.993   4.142
10049SOL    HW231047   1.769   6.985   4.305
10050SOL     OW31048   5.523   1.832   4.511
10050SOL    HW131049   5.595   1.859   4.576
10050SOL    HW231050   5.510   1.905   4.444
10051SOL     OW31051   6.254   2.168   6.429
10051SOL    HW131052   6.226   2.109   6.505
10051SOL    HW231053   6.287   2.255   6.464
10052SOL     OW31054   1.196   4.159   1.548
10052SOL    HW131055   1.291   4.187   1.535
10052SOL    HW231056   1.136   4.235   1.522
10053SOL     OW31057   3.058   6.418   3.668
10053SOL    HW131058   3.034   6.472   3.587
10053SOL    HW231059   3.017   6.327   3.661
10054SOL     OW31060   4.396   5.642   3.767
10054SOL    HW131061   4.330   5.636   3.842
10054SOL    HW231062   4.489   5.642   3.803
10055SOL     OW31063   6.713   3.281   6.536
10055SOL    HW131064   6.733   3.330   6.621
10055SOL    HW231065   6.629   3.228   6.547
10056SOL     OW31066   6.723   4.899   2.016
10056SOL    HW131067   6.740   4.803   2.036
10056SOL    HW231068   6.720   4.951   2.102
10057SOL     OW31069   2.522   2.428   3.916
10057SOL    HW131070   2.539   2.449   4.012
10057SOL    HW231071   2.503   2.330   3.906
10058SOL     OW31072   0.551   4.910   3.645
10058SOL    HW131073   0.607   4.839   3.689
10058SOL    HW231074   0.454   4.889   3.660
10059SOL     OW31075   5.315   0.002   1.012
10059SOL    HW131076   5.296   0.046   1.100
10059SOL    HW231077   5.236   6.971   0.984
10060SOL     OW31078   2.322   2.848   1.856
10060SOL    HW131079   2.340   2.762   1.903
10060SOL    HW231080   2.258   2.903   1.910
10061SOL     OW31081   6.517   2.035   4.809
10061SOL    HW131082   6.471   1.957   4.851
10061SOL    HW231083   6.456   2.077   4.742
10062SOL     OW31084   6.312   5.562   2.839
10062SOL    HW131085   6.272   5.640   2.791
10062SOL    HW231086   6.240   5.509   2.882
10063SOL     OW31087   0.832   2.905   2.764
10063SOL    HW131088   0.824   2.866   2.855
10063SOL    HW231089   0.826   3.005   2.770
10064SOL     OW31090   5.239   6.277   4.410
10064SOL    HW131091   5.287   6.202   4.453
10064SOL    HW231092   5.144   6.278   4.441
10065SOL     OW31093   1.034   6.518   3.432
10065SOL    HW131094   1.076   6.567   3.356
10065SOL    HW231095   0.970   6.579   3.479
10066SOL     OW31096   0.633   0.227   3.519
10066SOL    HW131097   0.638   0.160   3.594
10066SOL    HW231098   0.726   0.248   3.487
10067SOL     OW31099   4.327   5.970   3.650
10067SOL    HW131100   4.298   6.065   3.646
10067SOL    HW231101   4.248   5.911   3.668
10068SOL     OW31102   5.352   3.728   5.364
10068SOL    HW131103   5.296   3.745   5.283
10068SOL    HW231104   5.329   3.638   5.403
10069SOL     OW31105   3.802   0.832   3.622
10069SOL    HW131106   3.821   0.734   3.624
10069SOL    HW231107   3.770   0.859   3.532
10070SOL     OW31108   1.026   6.458   4.788
10070SOL    HW131109   1.102   6.457   4.852
10070SOL    HW231110   1.050   6.514   4.709
10071SOL     OW31111   5.363   5.485   4.932
10071SOL    HW131112   5.427   5.408   4.921
10071SOL    HW231113   5.273   5.459   4.897
10072SOL     OW31114   1.078   6.931   3.530
10072SOL    HW131115   1.177   6.923   3.526
10072SOL    HW231116   1.039   6.846   3.566
10073SOL     OW31117   0.420   5.879   6.717
10073SOL    HW131118   0.348   5.822   6.755
10073SOL    HW231119   0.508   5.832   6.724
10074SOL     OW31120   2.412   6.734   5.747
10074SOL    HW131121   2.498   6.740   5.797
10074SOL    HW231122   2.409   6.807   5.679
10075SOL     OW31123   1.991   2.268   3.881
10075SOL    HW131124   1.899   2.308   3.880
10075SOL    HW231125   2.056   2.332   3.840
10076SOL     OW31126   5.769   0.360   4.726
10076SOL    HW131127   5.703   0.292   4.757
10076SOL    HW231128   5.780   0.352   4.627
10077SOL     OW31129   3.746   1.031   6.855
10077SOL    HW131130   3.693   1.090   6.794
10077SOL    HW231131   3.792   1.086   6.924
10078SOL     OW31132   5.632   6.063   5.734
10078SOL    HW131133   5.544   6.047   5.778
10078SOL    HW231134   5.644   6.000   5.658
10079SOL     OW31135   0.128   4.165   6.585
10079SOL    HW131136   0.078   4.086   6.551
10079SOL    HW231137   0.142   4.230   6.510
10080SOL     OW31138   1.777   3.229   6.094
10080SOL    HW131139   1.769   3.190   6.002
10080SOL    HW231140   1.874   3.239   6.118
10081SOL     OW31141   0.094   0.744   6.584
10081SOL    HW131142   0.142   0.673   6.532
10081SOL    HW231143   7.021   0.717   6.598
10082SOL     OW31144   6.329   0.781   1.233
10082SOL    HW131145   6.249   0.769   1.175
10082SOL    HW231146   6.375   0.867   1.210
10083SOL     OW31147   5.057   1.301   4.369
10083SOL    HW131148   5.013   1.390   4.365
10083SOL    HW231149   5.023   1.243   4.295
10084SOL     OW31150   2.698   1.147   5.830
10084SOL    HW131151   2.718   1.053   5.802
10084SOL    HW231152   2.747   1.167   5.915
10085SOL     OW31153   0.479   5.420   2.805
10085SOL    HW131154   0.471   5.395   2.901
10085SOL    HW231155   0.409   5.487   2.782
10086SOL     OW31156   6.133   3.951   2.376
10086SOL    HW131157   6.190   3.953   2.458
10086SOL    HW231158   6.038   3.936   2.402
10087SOL     OW31159   1.041   0.215   4.118
10087SOL    HW131160   0.978   0.208   4.195
10087SOL    HW231161   1.134   0.222   4.151
10088SOL     OW31162   0.024   0.557   4.636
10088SOL    HW131163   0.071   0.576   4.722
10088SOL    HW231164   7.005   0.641   4.601
10089SOL     OW31165   1.423   3.301   2.458
10089SOL    HW131166   1.370   3.313   2.543
10089SOL    HW231167   1.360   3.287   2.382
10090SOL     OW31168   0.620   4.689   1.093
10090SOL    HW131169   0.537   4.676   1.147
10090SOL    HW231170   0.619   4.625   1.016
10091SOL     OW31171   0.626   2.391   3.931
10091SOL    HW131172   0.645   2.441   4.016
10091SOL    HW231173   0.573   2.450   3.870
10092SOL     OW31174   1.630   3.928   5.092
10092SOL    HW131175   1.721   3.888   5.083
10092SOL    HW231176   1.572   3.899   5.016
10093SOL     OW31177   6.522   4.706   6.345
10093SOL    HW131178   6.578   4.778   6.386
10093SOL    HW231179   6.556   4.617   6.374
10094SOL     OW31180   1.506   1.052   1.668
10094SOL    HW131181   1.494   1.113   1.746
10094SOL    HW231182   1.569   1.094   1.602
10095SOL     OW31183   0.071   0.824   5.845
10095SOL    HW131184   7.019   0.823   5.778
10095SOL    HW231185   0.152   0.783   5.805
10096SOL     OW31186   0.538   4.981   2.375
10096SOL    HW131187   0.501   5.074   2.366
10096SOL    HW231188   0.638   4.984   2.379
10097SOL     OW31189   1.393   1.875   6.893
10097SOL    HW131190   1.303   1.861   6.851
10097SOL    HW231191   1.386   1.941   6.968
10098SOL     OW31192   3.591   4.668   6.267
10098SOL    HW131193   3.539   4.593   6.226
10098SOL    HW231194   3.584   4.749   6.210
10099SOL     OW31195   6.281   4.879   4.499
10099SOL    HW131196   6.254   4.906   4.407
10099SOL    HW231197   6.365   4.825   4.495
10100SOL     OW31198   5.801   1.223   5.770
10100SOL    HW131199   5.709   1.220   5.810
10100SOL    HW231200   5.827   1.318   5.756
10101SOL     OW31201   0.494   4.289   1.899
10101SOL    HW131202   0.434   4.212   1.920
10101SOL    HW231203   0.539   4.321   1.983
10102SOL     OW31204   3.763   1.118   3.269
10102SOL    HW131205   3.842   1.170   3.236
10102SOL    HW231206   3.680   1.173   3.258
10103SOL     OW31207   2.771   1.954   6.917
10103SOL    HW131208   2.801   1.910   6.832
10103SOL    HW231209   2.761   2.052   6.901
10104SOL     OW31210   1.516   5.873   4.913
10104SOL    HW131211   1.421   5.894   4.894
10104SOL    HW231212   1.532   5.877   5.012
10105SOL     OW31213   2.555   0.847   6.015
10105SOL    HW131214   2.582   0.758   6.054
10105SOL    HW231215   2.578   0.849   5.918
10106SOL     OW31216   5.645   5.275   0.635
10106SOL    HW131217   5.664   5.223   0.717
10106SOL    HW231218   5.730   5.316   0.600
10107SOL     OW31219   5.596   1.345   5.921
10107SOL    HW131220   5.559   1.266   5.970
10107SOL    HW231221   5.651   1.401   5.984
10108SOL     OW31222   6.326   6.558   0.329
10108SOL    HW131223   6.345   6.628   0.398
10108SOL    HW231224   6.293   6.476   0.375
10109SOL     OW31225   4.862   5.173   3.220
10109SOL    HW131226   4.896   5.158   3.313
10109SOL    HW231227   4.923   5.129   3.154
10110SOL     OW31228   3.214   1.126   5.483
10110SOL    HW131229   3.224   1.217   5.523
10110SOL    HW231230   3.123   1.118   5.442
10111SOL     OW31231   0.386   2.593   2.836
10111SOL    HW131232   0.392   2.498   2.867
10111SOL    HW231233   0.438   2.604   2.751
10112SOL     OW31234   4.388   3.746   5.734
10112SOL    HW131235   4.296   3.736   5.697
10112SOL    HW231236   4.432   3.826   5.693
10113SOL     OW31237   3.571   6.527   6.798
10113SOL    HW131238   3.564   6.619   6.759
10113SOL    HW231239   3.488   6.476   6.776
10114SOL     OW31240   4.327   1.192   1.109
10114SOL    HW131241   4.270   1.229   1.182
10114SOL    HW231242   4.392   1.126   1.148
10115SOL     OW31243   1.477   2.241   3.676
10115SOL    HW131244   1.526   2.322   3.643
10115SOL    HW231245   1.462   2.178   3.600
10116SOL     OW31246   1.371   0.892   1.195
10116SOL    HW131247   1.365   0.832   1.114
10116SOL    HW231248   1.466   0.918   1.209
10117SOL     OW31249   5.154   0.743   5.632
10117SOL    HW131250   5.135   0.834   5.669
10117SOL    HW231251   5.181   0.751   5.536
10118SOL     OW31252   6.255   5.269   2.497
10118SOL    HW131253   6.197   5.349   2.510
10118SOL    HW231254   6.345   5.286   2.538
10119SOL     OW31255   2.649   0.235   5.561
10119SOL    HW131256   2.638   0.236   5.462
10119SOL    HW231257   2.706   0.157   5.587
10120SOL     OW31258   6.469   3.303   3.350
10120SOL    HW131259   6.417   3.261   3.424
10120SOL    HW231260   6.534   3.369   3.388
10121SOL     OW31261   6.705   4.878   4.507
10121SOL    HW131262   6.758   4.796   4.484
10121SOL    HW231263   6.724   4.949   4.439
10122SOL     OW31264   5.468   3.149   0.618
10122SOL    HW131265   5.384   3.106   0.649
10122SOL    HW231266   5.497   3.109   0.531
10123SOL     OW31267   0.092   6.962   0.318
10123SOL    HW131268   0.008   7.007   0.347
10123SOL    HW231269   0.075   6.910   0.234
10124SOL     OW31270   3.550   4.313   0.708
10124SOL    HW131271   3.477   4.367   0.749
10124SOL    HW231272   3.580   4.243   0.774
10125SOL     OW31273   1.443   6.699   1.819
10125SOL    HW131274   1.527   6.689   1.872
10125SOL    HW231275   1.439   6.791   1.780
10126SOL     OW31276   6.287   4.663   0.222
10126SOL    HW131277   6.303   4.575   0.177
10126SOL    HW231278   6.195   4.665   0.260
10127SOL     OW31279   3.895   4.519   5.456
10127SOL    HW131280   3.796   4.532   5.463
10127SOL    HW231281   3.930   4.486   5.544
10128SOL     OW31282   0.263   1.798   1.002
10128SOL    HW131283   0.209   1.762   0.926
10128SOL    HW231284   0.358   1.805   0.975
10129SOL     OW31285   5.467   2.048   3.059
10129SOL    HW131286   5.492   2.137   3.020
10129SOL    HW231287   5.480   2.051   3.159
10130SOL     OW31288   6.702   4.965   1.732
10130SOL    HW131289   6.801   4.967   1.718
10130SOL    HW231290   6.682   4.979   1.829
10131SOL     OW31291   6.800   1.015   0.990
10131SOL    HW131292   6.724   1.040   1.050
10131SOL    HW231293   6.887   1.032   1.036
10132SOL     OW31294   3.092   6.743   2.916
10132SOL    HW131295   3.028   6.671   2.942
10132SOL    HW231296   3.134   6.782   2.998
10133SOL     OW31297   5.244   5.584   3.089
10133SOL    HW131298   5.339   5.566   3.113
10133SOL    HW231299   5.190   5.500   3.100
10134SOL     OW31300   6.910   1.526   2.481
10134SOL    HW131301   6.828   1.485   2.522
10134SOL    HW231302   6.967   1.565   2.554
10135SOL     OW31303   3.829   5.887   3.408
10135SOL    HW131304   3.898   5.961   3.411
10135SOL    HW231305   3.743   5.924   3.374
10136SOL     OW31306   6.095   6.824   2.485
10136SOL    HW131307   6.160   6.810   2.560
10136SOL    HW231308   6.066   6.736   2.448
10137SOL     OW31309   5.861   4.936   4.036
10137SOL    HW131310   5.878   4.859   4.097
10137SOL    HW231311   5.825   5.014   4.088
10138SOL     OW31312   5.512   2.405   6.616
10138SOL    HW131313   5.547   2.334   6.678
10138SOL    HW231314   5.535   2.381   6.522
10139SOL     OW31315   3.987   3.861   2.915
10139SOL    HW131316   3.969   3.897   3.006
10139SOL    HW231317   4.047   3.781   2.922
10140SOL     OW31318   0.237   4.811   5.902
10140SOL    HW131319   0.218   4.715   5.881
10140SOL    HW231320   0.293   4.817   5.985
10141SOL     OW31321   2.021   0.670   3.644
10141SOL    HW131322   2.090   0.733   3.679
10141SOL    HW231323   2.028   0.666   3.544
10142SOL     OW31324   5.123   5.364   4.485
10142SOL    HW131325   5.148   5.452   4.445
10142SOL    HW231326   5.111   5.296   4.412
10143SOL     OW31327   5.127   6.787   1.322
10143SOL    HW131328   5.192   6.746   1.257
10143SOL    HW231329   5.080   6.714   1.372
10144SOL     OW31330   3.111   5.486   3.447
10144SOL    HW131331   3.080   5.561   3.389
10144SOL    HW231332   3.206   5.502   3.474
10145SOL     OW31333   3.146   5.756   6.095
10145SOL    HW131334   3.218   5.811   6.138
10145SOL    HW231335   3.187   5.692   6.030
10146SOL     OW31336   4.759   4.946   4.206
10146SOL    HW131337   4.833   4.984   4.262
10146SOL    HW231338   4.718   4.868   4.254
10147SOL     OW31339   5.194   5.085   4.934
10147SOL    HW131340   5.113   5.049   4.980
10147SOL    HW231341   5.265   5.105   5.002
10148SOL     OW31342   5.516   5.491   1.189
10148SOL    HW131343   5.428   5.475   1.143
10148SOL    HW231344   5.513   5.452   1.281
10149SOL     OW31345   4.161   3.178   0.842
10149SOL    HW131346   4.130   3.096   0.793
10149SOL    HW231347   4.082   3.234   0.867
10150SOL     OW31348   4.859   4.828   1.194
10150SOL    HW131349   4.826   4.779   1.275
10150SOL    HW231350   4.948   4.793   1.167
10151SOL     OW31351   1.508   6.920   5.438
10151SOL    HW131352   1.489   6.993   5.372
10151SOL    HW231353   1.544   6.840   5.390
10152SOL     OW31354   0.275   5.470   3.760
10152SOL    HW131355   0.325   5.546   3.802
10152SOL    HW231356   0.177   5.486   3.769
10153SOL     OW31357   5.369   6.885   4.275
10153SOL    HW131358   5.447   6.824   4.259
10153SOL    HW231359   5.284   6.838   4.253
10154SOL     OW31360   6.763   5.391   5.677
10154SOL    HW131361   6.723   5.481   5.693
10154SOL    HW231362   6.808   5.389   5.588
10155SOL     OW31363   3.580   1.553   6.550
10155SOL    HW131364   3.545   1.461   6.566
10155SOL    HW231365   3.645   1.577   6.622
10156SOL     OW31366   5.848   0.979   2.191
10156SOL    HW131367   5.926   0.930   2.229
10156SOL    HW231368   5.777   0.988   2.261
10157SOL     OW31369   5.621   0.822   5.864
10157SOL    HW131370   5.574   0.762   5.799
10157SOL    HW231371   5.668   0.766   5.932
10158SOL     OW31372   4.186   3.590   6.858
10158SOL    HW131373   4.264   3.625   6.910
10158SOL    HW231374   4.181   3.637   6.770
10159SOL     OW31375   1.343   1.268   5.902
10159SOL    HW131376   1.306   1.345   5.952
10159SOL    HW231377   1.434   1.291   5.867
10160SOL     OW31378   0.317   5.904   3.631
10160SOL    HW131379   0.330   5.830   3.565
10160SOL    HW231380   0.303   5.990   3.583
10161SOL     OW31381   2.780   5.509   5.967
10161SOL    HW131382   2.732   5.541   5.886
10161SOL    HW231383   2.795   5.410   5.960
10162SOL     OW31384   3.316   2.073   6.849
10162SOL    HW131385   3.408   2.065   6.811
10162SOL    HW231386   3.323   2.085   6.949
10163SOL     OW31387   6.223   2.954   5.442
10163SOL    HW131388   6.219   3.011   5.524
10163SOL    HW231389   6.318   2.930   5.421
10164SOL     OW31390   0.344   3.148   4.799
10164SOL    HW131391   0.347   3.245   4.775
10164SOL    HW231392   0.437   3.114   4.810
10165SOL     OW31393   6.870   2.039   2.997
10165SOL    HW131394   6.875   1.952   2.949
10165SOL    HW231395   6.777   2.055   3.029
10166SOL     OW31396   1.743   0.892   2.099
10166SOL    HW131397   1.810   0.852   2.036
10166SOL    HW231398   1.656   0.903   2.052
10167SOL     OW31399   4.674   0.280   0.165
10167SOL    HW131400   4.709   0.302   0.256
10167SOL    HW231401   4.580   0.313   0.157
10168SOL     OW31402   6.570   4.651   4.310
10168SOL    HW131403   6.648   4.653   4.372
10168SOL    HW231404   6.589   4.589   4.234
10169SOL     OW31405   6.265   4.382   3.827
10169SOL    HW131406   6.249   4.376   3.925
10169SOL    HW231407   6.189   4.430   3.782
10170SOL     OW31408   1.904   4.233   4.932
10170SOL    HW131409   1.929   4.274   4.844
10170SOL    HW231410   1.969   4.159   4.953
10171SOL     OW31411   5.860   3.726   5.883
10171SOL    HW131412   5.775   3.738   5.833
10171SOL    HW231413   5.870   3.799   5.951
10172SOL     OW31414   5.024   0.896   2.855
10172SOL    HW131415   4.928   0.895   2.829
10172SOL    HW231416   5.077   0.949   2.788
10173SOL     OW31417   2.064   1.641   2.409
10173SOL    HW131418   2.125   1.564   2.391
10173SOL    HW231419   2.034   1.680   2.323
10174SOL     OW31420   6.962   4.379   2.002
10174SOL    HW131421   6.998   4.461   2.048
10174SOL    HW231422   6.872   4.356   2.039
10175SOL     OW31423   6.202   2.836   5.785
10175SOL    HW131424   6.290   2.802   5.819
10175SOL    HW231425   6.214   2.929   5.751
10176SOL     OW31426   2.164   4.150   0.003
10176SOL    HW131427   2.159   4.237   0.051
10176SOL    HW231428   2.197   4.079   0.065
10177SOL     OW31429   1.811   6.528   6.881
10177SOL    HW131430   1.722   6.548   6.922
10177SOL    HW231431   1.821   6.429   6.870
10178SOL     OW31432   5.665   2.238   4.668
10178SOL    HW131433   5.674   2.337   4.679
10178SOL    HW231434   5.623   2.198   4.750
10179SOL     OW31435   1.161   3.354   6.419
10179SOL    HW131436   1.258   3.382   6.420
10179SOL    HW231437   1.107   3.423   6.371
10180SOL     OW31438   2.759   6.150   5.940
10180SOL    HW131439   2.777   6.218   6.011
10180SOL    HW231440   2.671   6.169   5.896
10181SOL     OW31441   5.404   3.134   1.433
10181SOL    HW131442   5.453   3.210   1.390
10181SOL    HW231443   5.463   3.053   1.436
10182SOL     OW31444   5.590   1.178   0.840
10182SOL    HW131445   5.668   1.153   0.897
10182SOL    HW231446   5.597   1.132   0.751
10183SOL     OW31447   1.565   1.630   6.391
10183SOL    HW131448   1.658   1.664   6.380
10183SOL    HW231449   1.516   1.687   6.457
10184SOL     OW31450   4.002   0.912   6.113
10184SOL    HW131451   4.064   0.873   6.045
10184SOL    HW231452   3.984   0.845   6.185
10185SOL     OW31453   5.106   6.610   0.720
10185SOL    HW131454   5.063   6.574   0.803
10185SOL    HW231455   5.190   6.658   0.744
10186SOL     OW31456   4.455   2.473   2.832
10186SOL    HW131457   4.438   2.571   2.840
10186SOL    HW231458   4.377   2.423   2.871
10187SOL     OW31459   1.045   1.815   1.519
10187SOL    HW131460   1.094   1.893   1.558
10187SOL    HW231461   1.024   1.749   1.590
10188SOL     OW31462   4.094   5.877   1.138
10188SOL    HW131463   4.048   5.966   1.141
10188SOL    HW231464   4.183   5.884   1.183
10189SOL     OW31465   1.276   6.551   5.452
10189SOL    HW131466   1.284   6.564   5.551
10189SOL    HW231467   1.213   6.476   5.433
10190SOL     OW31468   5.501   2.994   0.394
10190SOL    HW131469   5.469   2.905   0.426
10190SOL    HW231470   5.452   3.019   0.311
10191SOL     OW31471   6.489   4.215   0.113
10191SOL    HW131472   6.585   4.231   0.139
10191SOL    HW231473   6.441   4.303   0.106
10192SOL     OW31474   3.386   0.928   5.818
10192SOL    HW131475   3.292   0.956   5.795
10192SOL    HW231476   3.395   0.829   5.803
10193SOL     OW31477   4.962   3.757   0.647
10193SOL    HW131478   4.866   3.733   0.655
10193SOL    HW231479   4.978   3.808   0.562
10194SOL     OW31480   5.545   3.466   5.093
10194SOL    HW131481   5.459   3.432   5.056
10194SOL    HW231482   5.546   3.455   5.193
10195SOL     OW31483   6.857   4.136   1.851
10195SOL    HW131484   6.832   4.212   1.911
10195SOL    HW231485   6.878   4.055   1.905
10196SOL     OW31486   0.694   1.646   4.620
10196SOL    HW131487   0.632   1.660   4.542
10196SOL    HW231488   0.657   1.691   4.701
10197SOL     OW31489   5.894   0.778   5.823
10197SOL    HW131490   5.804   0.819   5.807
10197SOL    HW231491   5.965   0.844   5.799
10198SOL     OW31492   3.595   6.700   2.862
10198SOL    HW131493   3.688   6.706   2.827
10198SOL    HW231494   3.597   6.673   2.958
10199SOL     OW31495   1.607   2.542   5.376
10199SOL    HW131496   1.704   2.521   5.367
10199SOL    HW231497   1.564   2.538   5.286
10200SOL     OW31498   6.044   2.950   1.660
10200SOL    HW131499   5.946   2.945   1.680
10200SOL    HW231500   6.092   2.988   1.739
10201SOL     OW31501   1.374   3.176   0.611
10201SOL    HW131502   1.425   3.090   0.620
10201SOL    HW231503   1.436   3.249   0.584
10202SOL     OW31504   3.612   0.356   5.150
10202SOL    HW131505   3.544   0.424   5.180
10202SOL    HW231506   3.701   0.401   5.141
10203SOL     OW31507   6.436   2.165   4.558
10203SOL    HW131508   6.396   2.206   4.477
10203SOL    HW231509   6.471   2.074   4.535
10204SOL     OW31510   5.392   5.932   6.699
10204SOL    HW131511   5.312   5.885   6.662
10204SOL    HW231512   5.473   5.876   6.683
10205SOL     OW31513   0.897   0.730   5.930
10205SOL    HW131514   0.863   0.781   6.009
10205SOL    HW231515   0.987   0.763   5.905
10206SOL     OW31516   1.568   1.231   5.221
10206SOL    HW131517   1.571   1.321   5.264
10206SOL    HW231518   1.569   1.241   5.121
10207SOL     OW31519   1.763   2.180   5.088
10207SOL    HW131520   1.671   2.148   5.065
10207SOL    HW231521   1.774   2.181   5.188
10208SOL     OW31522   6.414   5.049   5.553
10208SOL    HW131523   6.422   5.096   5.641
10208SOL    HW231524   6.317   5.036   5.531
10209SOL     OW31525   6.863   6.856   6.282
10209SOL    HW131526   6.768   6.870   6.311
10209SOL    HW231527   6.897   6.770   6.320
10210SOL     OW31528   3.291   6.366   2.317
10210SOL    HW131529   3.256   6.452   2.354
10210SOL    HW231530   3.309   6.378   2.219
10211SOL     OW31531   5.584   5.995   5.389
10211SOL    HW131532   5.578   6.064   5.316
10211SOL    HW231533   5.670   6.008   5.439
10212SOL     OW31534   0.427   0.230   6.682
10212SOL    HW131535   0.514   0.259   6.642
10212SOL    HW231536   0.401   0.142   6.643
10213SOL     OW31537   5.994   1.859   0.879
10213SOL    HW131538   5.947   1.947   0.875
10213SOL    HW231539   5.938   1.793   0.929
10214SOL     OW31540   0.704   2.227   0.861
10214SOL    HW131541   0.727   2.296   0.931
10214SOL    HW231542   0.648   2.269   0.790
10215SOL     OW31543   3.224   3.186   2.170
10215SOL    HW131544   3.228   3.121   2.094
10215SOL    HW231545   3.273   3.269   2.145
10216SOL     OW31546   6.742   6.383   2.980
10216SOL    HW131547   6.676   6.334   3.038
10216SOL    HW231548   6.701   6.467   2.946
10217SOL     OW31549   3.328   0.857   4.012
10217SOL    HW131550   3.336   0.898   3.922
10217SOL    HW231551   3.234   0.868   4.045
10218SOL     OW31552   1.555   2.901   2.858
10218SOL    HW131553   1.537   2.823   2.797
10218SOL    HW231554   1.600   2.869   2.941
10219SOL     OW31555   6.668   0.192   2.955
10219SOL    HW131556   6.680   0.184   2.856
10219SOL    HW231557   6.704   0.281   2.985
10220SOL     OW31558   3.739   2.672   0.938
10220SOL    HW131559   3.744   2.585   0.888
10220SOL    HW231560   3.784   2.663   1.026
10221SOL     OW31561   0.723   5.364   4.099
10221SOL    HW131562   0.742   5.330   4.007
10221SOL    HW231563   0.646   5.428   4.096
10222SOL     OW31564   2.973   3.766   4.318
10222SOL    HW131565   3.050   3.715   4.281
10222SOL    HW231566   2.952   3.843   4.258
10223SOL     OW31567   0.569   6.235   1.935
10223SOL    HW131568   0.579   6.136   1.936
10223SOL    HW231569   0.519   6.263   1.853
10224SOL     OW31570   5.942   4.213   3.152
10224SOL    HW131571   5.901   4.219   3.243
10224SOL    HW231572   5.997   4.130   3.146
10225SOL     OW31573   2.903   3.475   5.850
10225SOL    HW131574   2.811   3.478   5.812
10225SOL    HW231575   2.936   3.567   5.866
10226SOL     OW31576   5.036   3.012   0.093
10226SOL    HW131577   5.050   2.950   0.015
10226SOL    HW231578   4.951   2.988   0.139
10227SOL     OW31579   5.033   3.827   1.447
10227SOL    HW131580   5.025   3.906   1.387
10227SOL    HW231581   5.089   3.850   1.527
10228SOL     OW31582   5.477   0.799   1.050
10228SOL    HW131583   5.405   0.868   1.051
10228SOL    HW231584   5.438   0.710   1.026
10229SOL     OW31585   6.411   3.159   4.899
10229SOL    HW131586   6.337   3.092   4.903
10229SOL    HW231587   6.400   3.226   4.973
10230SOL     OW31588   0.116   6.256   2.426
10230SOL    HW131589   0.072   6.331   2.475
10230SOL    HW231590   0.206   6.240   2.466
10231SOL     OW31591   1.415   5.490   3.064
10231SOL    HW131592   1.439   5.566   3.004
10231SOL    HW231593   1.348   5.521   3.132
10232SOL     OW31594   5.152   4.570   4.081
10232SOL    HW131595   5.093   4.515   4.023
10232SOL    HW231596   5.156   4.663   4.047
10233SOL     OW31597   3.174   3.848   6.068
10233SOL    HW131598   3.159   3.889   6.158
10233SOL    HW231599   3.167   3.919   5.998
10234SOL     OW31600   0.564   1.225   2.722
10234SOL    HW131601   0.484   1.242   2.779
10234SOL    HW231602   0.536   1.210   2.627
10235SOL     OW31603   1.336   0.933   2.949
10235SOL    HW131604   1.365   1.025   2.978
10235SOL    HW231605   1.236   0.930   2.946
10236SOL     OW31606   2.572   6.675   2.379
10236SOL    HW131607   2.658   6.716   2.350
10236SOL    HW231608   2.563   6.584   2.338
10237SOL     OW31609   0.455   3.534   5.213
10237SOL    HW131610   0.452   3.616   5.270
10237SOL    HW231611   0.499   3.556   5.126
10238SOL     OW31612   3.573   7.016   2.055
10238SOL    HW131613   3.487   0.029   2.019
10238SOL    HW231614   3.637   7.000   1.980
10239SOL     OW31615   0.945   2.580   4.226
10239SOL    HW131616   0.918   2.486   4.249
10239SOL    HW231617   1.027   2.577   4.169
10240SOL     OW31618   2.236   6.509   0.513
10240SOL    HW131619   2.251   6.536   0.608
10240SOL    HW231620   2.295   6.431   0.490
10241SOL     OW31621   3.998   2.453   1.543
10241SOL    HW131622   4.097   2.443   1.536
10241SOL    HW231623   3.959   2.369   1.581
10242SOL     OW31624   6.788   2.589   6.779
10242SOL    HW131625   6.833   2.506   6.748
10242SOL    HW231626   6.842   2.669   6.752
10243SOL     OW31627   2.517   5.430   1.580
10243SOL    HW131628   2.571   5.488   1.641
10243SOL    HW231629   2.577   5.391   1.510
10244SOL     OW31630   3.155   4.293   1.480
10244SOL    HW131631   3.201   4.256   1.561
10244SOL    HW231632   3.155   4.393   1.485
10245SOL     OW31633   4.551   4.110   1.000
10245SOL    HW131634   4.542   4.035   0.935
10245SOL    HW231635   4.460   4.143   1.026
10246SOL     OW31636   3.488   2.851   3.946
10246SOL    HW131637   3.442   2.783   4.003
10246SOL    HW231638   3.556   2.900   4.001
10247SOL     OW31639   0.532   2.829   4.383
10247SOL    HW131640   0.588   2.912   4.380
10247SOL    HW231641   0.498   2.808   4.292
10248SOL     OW31642   1.064   0.549   3.912
10248SOL    HW131643   1.069   0.494   3.829
10248SOL    HW231644   0.992   0.618   3.902
10249SOL     OW31645   3.095   5.412   6.289
10249SOL    HW131646   3.018   5.351   6.274
10249SOL    HW231647   3.073   5.503   6.254
10250SOL     OW31648   4.413   2.378   0.942
10250SOL    HW131649   4.504   2.374   0.901
10250SOL    HW231650   4.417   2.435   1.025
10251SOL     OW31651   1.352   0.437   4.258
10251SOL    HW131652   1.436   0.490   4.241
10251SOL    HW231653   1.359   0.349   4.212
10252SOL     OW31654   5.308   4.344   6.377
10252SOL    HW131655   5.404   4.320   6.387
10252SOL    HW231656   5.270   4.299   6.296
10253SOL     OW31657   3.280   6.075   6.363
10253SOL    HW131658   3.283   5.994   6.422
10253SOL    HW231659   3.234   6.149   6.412
10254SOL     OW31660   5.946   1.458   5.721
10254SOL    HW131661   5.953   1.521   5.798
10254SOL    HW231662   6.036   1.422   5.699
10255SOL     OW31663   4.180   4.419   1.711
10255SOL    HW131664   4.256   4.385   1.655
10255SOL    HW231665   4.098   4.366   1.690
10256SOL     OW31666   3.783   1.348   3.471
10256SOL    HW131667   3.849   1.320   3.402
10256SOL    HW231668   3.690   1.337   3.435
10257SOL     OW31669   4.083   5.775   3.206
10257SOL    HW131670   4.125   5.855   3.249
10257SOL    HW231671   3.983   5.782   3.213
10258SOL     OW31672   2.008   1.511   1.916
10258SOL    HW131673   1.916   1.512   1.875
10258SOL    HW231674   2.000   1.495   2.014
10259SOL     OW31675   2.242   4.119   4.061
10259SOL    HW131676   2.156   4.079   4.094
10259SOL    HW231677   2.276   4.186   4.127
10260SOL     OW31678   1.032   0.684   3.390
10260SOL    HW131679   1.100   0.717   3.323
10260SOL    HW231680   1.079   0.648   3.470
10261SOL     OW31681   0.075   3.710   1.120
10261SOL    HW131682   0.047   3.624   1.164
10261SOL    HW231683   0.133   3.762   1.183
10262SOL     OW31684   4.379   1.631   0.675
10262SOL    HW131685   4.397   1.677   0.762
10262SOL    HW231686   4.361   1.534   0.691
10263SOL     OW31687   5.971   1.210   2.402
10263SOL    HW131688   6.066   1.179   2.414
10263SOL    HW231689   5.910   1.148   2.451
10264SOL     OW31690   6.833   6.289   6.670
10264SOL    HW131691   6.739   6.257   6.656
10264SOL    HW231692   6.894   6.210   6.678
10265SOL     OW31693   2.070   1.985   0.991
10265SOL    HW131694   1.988   1.961   0.940
10265SOL    HW231695   2.126   1.903   1.004
10266SOL     OW31696   2.636   3.572   1.762
10266SOL    HW131697   2.551   3.529   1.792
10266SOL    HW231698   2.712   3.510   1.779
10267SOL     OW31699   5.541   0.898   1.507
10267SOL    HW131700   5.624   0.877   1.559
10267SOL    HW231701   5.564   0.915   1.412
10268SOL     OW31702   3.626   6.424   1.913
10268SOL    HW131703   3.662   6.369   1.838
10268SOL    HW231704   3.567   6.368   1.971
10269SOL     OW31705   3.133   2.389   0.754
10269SOL    HW131706   3.165   2.462   0.694
10269SOL    HW231707   3.171   2.400   0.845
10270SOL     OW31708   2.650   0.182   2.723
10270SOL    HW131709   2.658   0.226   2.634
10270SOL    HW231710   2.620   0.249   2.791
10271SOL     OW31711   1.228   1.996   6.638
10271SOL    HW131712   1.261   2.017   6.546
10271SOL    HW231713   1.272   2.057   6.704
10272SOL     OW31714   6.075   0.290   4.602
10272SOL    HW131715   6.132   0.282   4.684
10272SOL    HW231716   6.014   0.211   4.597
10273SOL     OW31717   2.096   5.438   3.440
10273SOL    HW131718   2.163   5.502   3.402
10273SOL    HW231719   2.144   5.365   3.490
10274SOL     OW31720   0.979   4.916   5.497
10274SOL    HW131721   0.926   4.945   5.577
10274SOL    HW231722   0.921   4.919   5.416
10275SOL     OW31723   6.709   0.575   2.655
10275SOL    HW131724   6.674   0.637   2.585
10275SOL    HW231725   6.734   0.627   2.737
10276SOL     OW31726   3.819   5.198   5.291
10276SOL    HW131727   3.918   5.206   5.306
10276SOL    HW231728   3.803   5.149   5.205
10277SOL     OW31729   0.189   6.018   4.387
10277SOL    HW131730   0.242   6.060   4.313
10277SOL    HW231731   0.235   6.034   4.474
10278SOL     OW31732   6.821   0.151   5.089
10278SOL    HW131733   6.836   0.121   5.183
10278SOL    HW231734   6.874   0.234   5.071
10279SOL     OW31735   2.379   6.166   4.065
10279SOL    HW131736   2.358   6.221   4.146
10279SOL    HW231737   2.324   6.198   3.988
10280SOL     OW31738   6.511   4.267   0.545
10280SOL    HW131739   6.448   4.252   0.622
10280SOL    HW231740   6.604   4.242   0.573
10281SOL     OW31741   6.710   1.637   3.433
10281SOL    HW131742   6.687   1.551   3.478
10281SOL    HW231743   6.745   1.702   3.501
10282SOL     OW31744   4.869   3.149   3.684
10282SOL    HW131745   4.950   3.207   3.699
10282SOL    HW231746   4.862   3.126   3.587
10283SOL     OW31747   0.840   2.786   1.172
10283SOL    HW131748   0.788   2.781   1.086
10283SOL    HW231749   0.832   2.700   1.221
10284SOL     OW31750   0.110   3.413   3.798
10284SOL    HW131751   0.088   3.486   3.732
10284SOL    HW231752   0.027   3.387   3.847
10285SOL     OW31753   6.042   5.712   5.467
10285SOL    HW131754   6.045   5.688   5.564
10285SOL    HW231755   6.070   5.807   5.455
10286SOL     OW31756   2.855   1.074   3.093
10286SOL    HW131757   2.761   1.063   3.124
10286SOL    HW231758   2.869   1.021   3.009
10287SOL     OW31759   2.218   5.529   2.934
10287SOL    HW131760   2.273   5.515   3.016
10287SOL    HW231761   2.254   5.607   2.883
10288SOL     OW31762   3.715   6.746   5.171
10288SOL    HW131763   3.733   6.802   5.090
10288SOL    HW231764   3.681   6.804   5.245
10289SOL     OW31765   3.477   5.919   6.800
10289SOL    HW131766   3.559   5.871   6.771
10289SOL    HW231767   3.480   5.934   6.899
10290SOL     OW31768   3.594   2.934   1.869
10290SOL    HW131769   3.681   2.906   1.827
10290SOL    HW231770   3.528   2.860   1.861
10291SOL     OW31771   2.091   1.928   2.074
10291SOL    HW131772   2.173   1.874   2.051
10291SOL    HW231773   2.023   1.868   2.116
10292SOL     OW31774   6.485   6.608   6.470
10292SOL    HW131775   6.561   6.671   6.454
10292SOL    HW231776   6.436   6.637   6.553
10293SOL     OW31777   1.368   4.275   4.642
10293SOL    HW131778   1.421   4.244   4.721
10293SOL    HW231779   1.282   4.315   4.673
10294SOL     OW31780   3.426   1.415   2.403
10294SOL    HW131781   3.434   1.448   2.309
10294SOL    HW231782   3.376   1.482   2.458
10295SOL     OW31783   0.987   1.886   6.597
10295SOL    HW131784   0.936   1.957   6.549
10295SOL    HW231785   1.084   1.910   6.598
10296SOL     OW31786   6.059   1.111   5.862
10296SOL    HW131787   6.121   1.188   5.877
10296SOL    HW231788   5.971   1.145   5.829
10297SOL     OW31789   3.497   0.882   6.797
10297SOL    HW131790   3.590   0.912   6.819
10297SOL    HW231791   3.437   0.897   6.875
10298SOL     OW31792   0.733   2.373   1.782
10298SOL    HW131793   0.738   2.344   1.877
10298SOL    HW231794   0.652   2.431   1.770
10299SOL     OW31795   4.181   6.503   3.131
10299SOL    HW131796   4.165   6.415   3.087
10299SOL    HW231797   4.267   6.499   3.183
10300SOL     OW31798   1.114   3.881   1.549
10300SOL    HW131799   1.127   3.979   1.559
10300SOL    HW231800   1.132   3.835   1.636
10301SOL     OW31801   4.229   0.280   6.652
10301SOL    HW131802   4.260   0.233   6.735
10301SOL    HW231803   4.237   0.217   6.574
10302SOL     OW31804   2.875   6.085   5.226
10302SOL    HW131805   2.964   6.117   5.258
10302SOL    HW231806   2.863   5.990   5.254
10303SOL     OW31807   0.619   5.678   4.957
10303SOL    HW131808   0.559   5.751   4.989
10303SOL    HW231809   0.616   5.601   5.021
10304SOL     OW31810   6.183   6.336   0.486
10304SOL    HW131811   6.122   6.258   0.501
10304SOL    HW231812   6.275   6.313   0.516
10305SOL     OW31813   3.156   4.094   5.929
10305SOL    HW131814   3.208   4.179   5.919
10305SOL    HW231815   3.121   4.065   5.840
10306SOL     OW31816   4.318   0.741   1.247
10306SOL    HW131817   4.246   0.781   1.190
10306SOL    HW231818   4.284   0.731   1.340
10307SOL     OW31819   2.289   0.325   5.497
10307SOL    HW131820   2.301   0.236   5.452
10307SOL    HW231821   2.193   0.350   5.498
10308SOL     OW31822   2.588   5.106   2.519
10308SOL    HW131823   2.664   5.123   2.582
10308SOL    HW231824   2.573   5.007   2.512
10309SOL     OW31825   0.012   1.530   4.717
10309SOL    HW131826   0.059   1.607   4.761
10309SOL    HW231827   0.055   1.511   4.629
10310SOL     OW31828   2.326   4.435   5.876
10310SOL    HW131829   2.320   4.425   5.976
10310SOL    HW231830   2.235   4.453   5.839
10311SOL     OW31831   5.009   5.361   6.665
10311SOL    HW131832   5.065   5.307   6.728
10311SOL    HW231833   4.977   5.444   6.711
10312SOL     OW31834   4.422   0.499   2.149
10312SOL    HW131835   4.468   0.521   2.063
10312SOL    HW231836   4.439   0.572   2.215
10313SOL     OW31837   5.232   6.948   3.223
10313SOL    HW131838   5.205   6.992   3.309
10313SOL    HW231839   5.330   6.926   3.227
10314SOL     OW31840   0.404   0.494   1.116
10314SOL    HW131841   0.435   0.590   1.118
10314SOL    HW231842   0.342   0.478   1.193
10315SOL     OW31843   5.522   5.309   3.576
10315SOL    HW131844   5.523   5.343   3.670
10315SOL    HW231845   5.615   5.284   3.549
10316SOL     OW31846   0.265   2.021   6.664
10316SOL    HW131847   0.284   1.923   6.671
10316SOL    HW231848   0.325   2.071   6.727
10317SOL     OW31849   3.631   5.735   5.346
10317SOL    HW131850   3.713   5.687   5.377
10317SOL    HW231851   3.650   5.785   5.263
10318SOL     OW31852   6.564   6.771   0.395
10318SOL    HW131853   6.620   6.688   0.393
10318SOL    HW231854   6.625   6.851   0.393
10319SOL     OW31855   0.604   4.512   3.692
10319SOL    HW131856   0.621   4.419   3.660
10319SOL    HW231857   0.678   4.572   3.662
10320SOL     OW31858   0.380   6.809   3.873
10320SOL    HW131859   0.420   6.890   3.830
10320SOL    HW231860   0.305   6.837   3.933
10321SOL     OW31861   4.991   2.665   2.178
10321SOL    HW131862   5.073   2.704   2.136
10321SOL    HW231863   5.017   2.593   2.242
10322SOL     OW31864   4.567   4.388   5.131
10322SOL    HW131865   4.518   4.334   5.199
10322SOL    HW231866   4.501   4.427   5.066
10323SOL     OW31867   0.745   4.301   5.426
10323SOL    HW131868   0.696   4.239   5.365
10323SOL    HW231869   0.683   4.333   5.497
10324SOL     OW31870   3.395   3.152   1.894
10324SOL    HW131871   3.439   3.232   1.935
10324SOL    HW231872   3.462   3.078   1.886
10325SOL     OW31873   6.830   5.663   3.294
10325SOL    HW131874   6.858   5.610   3.214
10325SOL    HW231875   6.904   5.662   3.361
10326SOL     OW31876   5.243   3.475   6.701
10326SOL    HW131877   5.212   3.517   6.616
10326SOL    HW231878   5.342   3.459   6.696
10327SOL     OW31879   2.204   4.528   1.312
10327SOL    HW131880   2.128   4.562   1.367
10327SOL    HW231881   2.230   4.436   1.344
10328SOL     OW31882   5.936   2.398   1.841
10328SOL    HW131883   5.961   2.456   1.918
10328SOL    HW231884   5.902   2.310   1.874
10329SOL     OW31885   3.527   1.438   3.055
10329SOL    HW131886   3.462   1.480   2.991
10329SOL    HW231887   3.600   1.503   3.076
10330SOL     OW31888   4.322   1.306   1.471
10330SOL    HW131889   4.355   1.216   1.500
10330SOL    HW231890   4.373   1.377   1.521
10331SOL     OW31891   6.396   5.235   6.891
10331SOL    HW131892   6.342   5.163   6.849
10331SOL    HW231893   6.342   5.284   6.959
10332SOL     OW31894   1.153   1.297   6.894
10332SOL    HW131895   1.222   1.228   6.877
10332SOL    HW231896   1.078   1.287   6.828
10333SOL     OW31897   0.969   4.654   4.699
10333SOL    HW131898   0.926   4.564   4.695
10333SOL    HW231899   1.024   4.667   4.616
10334SOL     OW31900   3.213   6.901   3.420
10334SOL    HW131901   3.302   6.939   3.395
10334SOL    HW231902   3.223   6.848   3.504
10335SOL     OW31903   0.916   2.516   5.617
10335SOL    HW131904   0.820   2.540   5.611
10335SOL    HW231905   0.925   2.417   5.628
10336SOL     OW31906   5.111   6.939   3.685
10336SOL    HW131907   5.102   6.955   3.586
10336SOL    HW231908   5.173   6.862   3.700
10337SOL     OW31909   6.680   5.252   6.566
10337SOL    HW131910   6.626   5.179   6.523
10337SOL    HW231911   6.756   5.277   6.506
10338SOL     OW31912   1.305   6.479   1.936
10338SOL    HW131913   1.205   6.479   1.930
10338SOL    HW231914   1.342   6.549   1.875
10339SOL     OW31915   6.370   2.626   5.309
10339SOL    HW131916   6.346   2.636   5.406
10339SOL    HW231917   6.342   2.535   5.277
10340SOL     OW31918   2.348   3.417   6.421
10340SOL    HW131919   2.257   3.457   6.432
10340SOL    HW231920   2.396   3.462   6.346
10341SOL     OW31921   2.178   2.700   2.965
10341SOL    HW131922   2.243   2.740   3.030
10341SOL    HW231923   2.202   2.728   2.872
10342SOL     OW31924   1.077   1.538   3.790
10342SOL    HW131925   1.107   1.569   3.700
10342SOL    HW231926   1.157   1.521   3.848
10343SOL     OW31927   3.007   5.148   2.376
10343SOL    HW131928   2.909   5.151   2.355
10343SOL    HW231929   3.059   5.152   2.291
10344SOL     OW31930   4.269   5.893   5.842
10344SOL    HW131931   4.276   5.969   5.907
10344SOL    HW231932   4.299   5.924   5.751
10345SOL     OW31933   1.952   3.728   4.393
10345SOL    HW131934   1.941   3.657   4.463
10345SOL    HW231935   1.872   3.787   4.392
10346SOL     OW31936   0.047   5.879   0.704
10346SOL    HW131937   6.983   5.830   0.696
10346SOL    HW231938   0.105   5.857   0.626
10347SOL     OW31939   5.082   1.581   4.122
10347SOL    HW131940   5.054   1.635   4.201
10347SOL    HW231941   5.004   1.527   4.089
10348SOL     OW31942   6.310   3.888   0.742
10348SOL    HW131943   6.387   3.854   0.796
10348SOL    HW231944   6.236   3.915   0.803
10349SOL     OW31945   0.908   6.536   6.640
10349SOL    HW131946   0.895   6.472   6.564
10349SOL    HW231947   0.824   6.543   6.693
10350SOL     OW31948   3.480   0.039   6.019
10350SOL    HW131949   3.429   7.009   6.087
10350SOL    HW231950   3.489   0.134   6.050
10351SOL     OW31951   4.161   5.168   6.983
10351SOL    HW131952   4.243   5.113   6.972
10351SOL    HW231953   4.118   5.148   0.048
10352SOL     OW31954   3.557   3.218   5.986
10352SOL    HW131955   3.529   3.173   6.071
10352SOL    HW231956   3.620   3.292   6.007
10353SOL     OW31957   0.675   2.333   4.851
10353SOL    HW131958   0.664   2.431   4.863
10353SOL    HW231959   0.717   2.314   4.763
10354SOL     OW31960   5.554   1.814   1.808
10354SOL    HW131961   5.501   1.849   1.885
10354SOL    HW231962   5.495   1.758   1.750
10355SOL     OW31963   1.504   4.938   2.445
10355SOL    HW131964   1.542   4.945   2.353
10355SOL    HW231965   1.564   4.880   2.501
10356SOL     OW31966   0.070   3.162   4.152
10356SOL    HW131967   0.002   3.233   4.169
10356SOL    HW231968   0.138   3.195   4.086
10357SOL     OW31969   2.527   1.702   0.607
10357SOL    HW131970   2.562   1.736   0.693
10357SOL    HW231971   2.544   1.603   0.600
10358SOL     OW31972   0.290   1.499   2.200
10358SOL    HW131973   0.299   1.592   2.236
10358SOL    HW231974   0.377   1.450   2.211
10359SOL     OW31975   0.644   1.229   1.580
10359SOL    HW131976   0.685   1.320   1.595
10359SOL    HW231977   0.545   1.236   1.584
10360SOL     OW31978   6.552   6.170   3.818
10360SOL    HW131979   6.567   6.074   3.796
10360SOL    HW231980   6.574   6.226   3.738
10361SOL     OW31981   1.965   5.029   1.179
10361SOL    HW131982   2.063   5.046   1.192
10361SOL    HW231983   1.917   5.044   1.266
10362SOL     OW31984   1.433   5.111   4.012
10362SOL    HW131985   1.493   5.095   3.934
10362SOL    HW231986   1.422   5.209   4.027
10363SOL     OW31987   5.667   0.464   3.865
10363SOL    HW131988   5.670   0.542   3.928
10363SOL    HW231989   5.659   0.498   3.771
10364SOL     OW31990   1.269   4.667   1.372
10364SOL    HW131991   1.170   4.663   1.381
10364SOL    HW231992   1.292   4.709   1.284
10365SOL     OW31993   4.402   5.834   6.760
10365SOL    HW131994   4.418   5.767   6.832
10365SOL    HW231995   4.438   5.800   6.673
10366SOL     OW31996   3.287   0.030   3.763
10366SOL    HW131997   3.235   7.021   3.842
10366SOL    HW231998   3.356   0.096   3.793
10367SOL     OW31999   6.644   2.337   3.064
10367SOL    HW132000   6.569   2.323   3.129
10367SOL    HW232001   6.632   2.278   2.985
10368SOL     OW32002   2.877   0.361   1.195
10368SOL    HW132003   2.808   0.416   1.242
10368SOL    HW232004   2.850   0.349   1.099
10369SOL     OW32005   4.192   2.946   0.078
10369SOL    HW132006   4.251   2.911   0.005
10369SOL    HW232007   4.175   2.875   0.145
10370SOL     OW32008   3.501   0.691   5.127
10370SOL    HW132009   3.499   0.791   5.136
10370SOL    HW232010   3.414   0.653   5.158
10371SOL     OW32011   4.969   6.308   5.794
10371SOL    HW132012   4.902   6.294   5.721
10371SOL    HW232013   4.953   6.241   5.866
10372SOL     OW32014   0.722   0.441   3.193
10372SOL    HW132015   0.786   0.368   3.219
10372SOL    HW232016   0.773   0.526   3.179
10373SOL     OW32017   1.513   5.510   4.827
10373SOL    HW132018   1.492   5.442   4.756
10373SOL    HW232019   1.609   5.537   4.819
10374SOL     OW32020   2.634   2.423   4.237
10374SOL    HW132021   2.711   2.413   4.300
10374SOL    HW232022   2.576   2.499   4.268
10375SOL     OW32023   6.797   2.337   0.429
10375SOL    HW132024   6.791   2.274   0.352
10375SOL    HW232025   6.816   2.429   0.395
10376SOL     OW32026   6.440   1.218   3.599
10376SOL    HW132027   6.353   1.173   3.620
10376SOL    HW232028   6.506   1.198   3.672
10377SOL     OW32029   1.116   6.652   4.598
10377SOL    HW132030   1.123   6.607   4.509
10377SOL    HW232031   1.208   6.659   4.638
10378SOL     OW32032   6.971   6.660   6.429
10378SOL    HW132033   7.008   6.567   6.424
10378SOL    HW232034   6.910   6.668   6.507
10379SOL     OW32035   5.395   1.767   4.774
10379SOL    HW132036   5.318   1.759   4.711
10379SOL    HW232037   5.406   1.681   4.825
10380SOL     OW32038   4.490   1.034   3.054
10380SOL    HW132039   4.521   0.944   3.086
10380SOL    HW232040   4.420   1.069   3.116
10381SOL     OW32041   4.157   5.179   4.770
10381SOL    HW132042   4.082   5.239   4.799
10381SOL    HW232043   4.124   5.084   4.768
10382SOL     OW32044   1.705   5.353   0.441
10382SOL    HW132045   1.617   5.350   0.488
10382SOL    HW232046   1.769   5.409   0.494
10383SOL     OW32047   6.299   2.566   6.834
10383SOL    HW132048   6.255   2.554   6.745
10383SOL    HW232049   6.391   2.528   6.831
10384SOL     OW32050   6.258   0.282   0.133
10384SOL    HW132051   6.288   0.365   0.086
10384SOL    HW232052   6.159   0.286   0.148
10385SOL     OW32053   5.487   2.301   0.044
10385SOL    HW132054   5.497   2.394   0.009
10385SOL    HW232055   5.465   2.305   0.142
10386SOL     OW32056   6.360   2.520   6.522
10386SOL    HW132057   6.364   2.508   6.423
10386SOL    HW232058   6.446   2.491   6.563
10387SOL     OW32059   2.161   3.277   2.825
10387SOL    HW132060   2.211   3.289   2.911
10387SOL    HW232061   2.171   3.358   2.768
10388SOL     OW32062   1.682   4.287   2.408
10388SOL    HW132063   1.623   4.302   2.328
10388SOL    HW232064   1.735   4.369   2.426
10389SOL     OW32065   0.403   5.499   3.093
10389SOL    HW132066   0.496   5.533   3.104
10389SOL    HW232067   0.338   5.568   3.126
10390SOL     OW32068   1.932   3.303   3.166
10390SOL    HW132069   1.943   3.297   3.067
10390SOL    HW232070   2.013   3.345   3.206
10391SOL     OW32071   3.457   6.333   5.266
10391SOL    HW132072   3.456   6.352   5.365
10391SOL    HW232073   3.366   6.351   5.228
10392SOL     OW32074   6.715   4.737   6.751
10392SOL    HW132075   6.764   4.814   6.792
10392SOL    HW232076   6.632   4.718   6.804
10393SOL     OW32077   1.459   1.119   4.070
10393SOL    HW132078   1.463   1.156   3.977
10393SOL    HW232079   1.368   1.134   4.108
10394SOL     OW32080   3.058   6.685   0.077
10394SOL    HW132081   3.006   6.736   0.146
10394SOL    HW232082   3.152   6.719   0.076
10395SOL     OW32083   1.157   1.852   4.989
10395SOL    HW132084   1.243   1.820   4.948
10395SOL    HW232085   1.080   1.819   4.934
10396SOL     OW32086   0.359   0.161   4.972
10396SOL    HW132087   0.390   0.116   5.056
10396SOL    HW232088   0.437   0.202   4.925
10397SOL     OW32089   4.004   2.120   2.680
10397SOL    HW132090   4.011   2.129   2.780
10397SOL    HW232091   3.944   2.044   2.658
10398SOL     OW32092   6.581   3.302   2.486
10398SOL    HW132093   6.674   3.266   2.489
10398SOL    HW232094   6.583   3.401   2.479
10399SOL     OW32095   6.411   2.451   5.615
10399SOL    HW132096   6.328   2.439   5.560
10399SOL    HW232097   6.430   2.366   5.664
10400SOL     OW32098   2.005   4.770   1.676
10400SOL    HW132099   2.049   4.695   1.725
10400SOL    HW232100   1.906   4.765   1.689
10401SOL     OW32101   0.984   5.912   1.401
10401SOL    HW132102   0.990   5.812   1.395
10401SOL    HW232103   0.922   5.945   1.330
10402SOL     OW32104   0.581   2.349   4.337
10402SOL    HW132105   0.567   2.426   4.275
10402SOL    HW232106   0.679   2.329   4.343
10403SOL     OW32107   4.332   1.593   2.065
10403SOL    HW132108   4.430   1.614   2.063
10403SOL    HW232109   4.319   1.500   2.101
10404SOL     OW32110   6.962   6.981   3.691
10404SOL    HW132111   0.006   0.026   3.722
10404SOL    HW232112   7.002   6.890   3.697
10405SOL     OW32113   1.821   6.700   6.671
10405SOL    HW132114   1.898   6.683   6.609
10405SOL    HW232115   1.835   6.648   6.756
10406SOL     OW32116   1.799   5.477   5.745
10406SOL    HW132117   1.759   5.422   5.671
10406SOL    HW232118   1.898   5.463   5.747
10407SOL     OW32119   1.549   1.390   5.800
10407SOL    HW132120   1.542   1.486   5.826
10407SOL    HW232121   1.583   1.383   5.706
10408SOL     OW32122   4.161   6.412   3.396
10408SOL    HW132123   4.127   6.446   3.307
10408SOL    HW232124   4.142   6.480   3.467
10409SOL     OW32125   6.739   4.829   2.427
10409SOL    HW132126   6.786   4.773   2.359
10409SOL    HW232127   6.694   4.906   2.382
10410SOL     OW32128   5.755   6.512   0.567
10410SOL    HW132129   5.755   6.448   0.643
10410SOL    HW232130   5.755   6.606   0.602
10411SOL     OW32131   1.799   4.148   2.596
10411SOL    HW132132   1.761   4.211   2.528
10411SOL    HW232133   1.795   4.191   2.686
10412SOL     OW32134   6.878   2.349   6.658
10412SOL    HW132135   6.860   2.368   6.562
10412SOL    HW232136   6.948   2.278   6.666
10413SOL     OW32137   0.246   2.257   5.814
10413SOL    HW132138   0.205   2.280   5.725
10413SOL    HW232139   0.280   2.163   5.812
10414SOL     OW32140   5.845   6.801   4.864
10414SOL    HW132141   5.847   6.701   4.856
10414SOL    HW232142   5.908   6.829   4.936
10415SOL     OW32143   0.475   5.218   3.125
10415SOL    HW132144   0.534   5.187   3.200
10415SOL    HW232145   0.447   5.313   3.141
10416SOL     OW32146   5.157   6.889   0.252
10416SOL    HW132147   5.117   6.817   0.310
10416SOL    HW232148   5.099   6.970   0.257
10417SOL     OW32149   4.068   4.985   4.413
10417SOL    HW132150   4.142   4.923   4.440
10417SOL    HW232151   4.009   4.939   4.347
10418SOL     OW32152   6.766   3.846   0.212
10418SOL    HW132153   6.682   3.891   0.242
10418SOL    HW232154   6.804   3.792   0.287
10419SOL     OW32155   1.858   0.991   4.451
10419SOL    HW132156   1.796   1.026   4.522
10419SOL    HW232157   1.805   0.942   4.382
10420SOL     OW32158   5.589   3.044   4.261
10420SOL    HW132159   5.590   2.950   4.228
10420SOL    HW232160   5.569   3.045   4.359
10421SOL     OW32161   1.492   4.386   3.621
10421SOL    HW132162   1.570   4.371   3.561
10421SOL    HW232163   1.438   4.302   3.625
10422SOL     OW32164   5.783   2.911   5.340
10422SOL    HW132165   5.775   2.873   5.433
10422SOL    HW232166   5.837   2.995   5.343
10423SOL     OW32167   2.244   5.470   3.806
10423SOL    HW132168   2.274   5.539   3.740
10423SOL    HW232169   2.147   5.451   3.793
10424SOL     OW32170   3.461   1.386   0.938
10424SOL    HW132171   3.361   1.393   0.939
10424SOL    HW232172   3.489   1.314   1.002
10425SOL     OW32173   1.727   3.651   0.542
10425SOL    HW132174   1.707   3.666   0.639
10425SOL    HW232175   1.741   3.554   0.526
10426SOL     OW32176   5.769   2.428   6.136
10426SOL    HW132177   5.830   2.462   6.065
10426SOL    HW232178   5.704   2.363   6.096
10427SOL     OW32179   5.616   1.089   3.466
10427SOL    HW132180   5.676   1.133   3.533
10427SOL    HW232181   5.525   1.076   3.506
10428SOL     OW32182   1.844   6.506   5.416
10428SOL    HW132183   1.894   6.567   5.478
10428SOL    HW232184   1.907   6.439   5.377
10429SOL     OW32185   1.480   3.665   1.584
10429SOL    HW132186   1.461   3.755   1.545
10429SOL    HW232187   1.552   3.674   1.653
10430SOL     OW32188   3.012   0.317   4.277
10430SOL    HW132189   2.923   0.273   4.288
10430SOL    HW232190   3.022   0.391   4.344
10431SOL     OW32191   3.959   1.226   4.055
10431SOL    HW132192   4.012   1.150   4.091
10431SOL    HW232193   4.012   1.274   3.985
10432SOL     OW32194   1.284   5.258   0.235
10432SOL    HW132195   1.232   5.331   0.191
10432SOL    HW232196   1.248   5.169   0.204
10433SOL     OW32197   3.720   6.662   3.913
10433SOL    HW132198   3.768   6.723   3.976
10433SOL    HW232199   3.689   6.581   3.963
10434SOL     OW32200   4.320   0.921   6.430
10434SOL    HW132201   4.244   0.972   6.389
10434SOL    HW232202   4.403   0.976   6.426
10435SOL     OW32203   2.562   1.594   1.195
10435SOL    HW132204   2.539   1.666   1.262
10435SOL    HW232205   2.625   1.529   1.237
10436SOL     OW32206   1.098   3.215   4.816
10436SOL    HW132207   1.138   3.124   4.813
10436SOL    HW232208   1.097   3.248   4.911
10437SOL     OW32209   6.577   6.620   5.234
10437SOL    HW132210   6.481   6.629   5.210
10437SOL    HW232211   6.631   6.683   5.178
10438SOL     OW32212   6.872   5.957   6.985
10438SOL    HW132213   6.784   5.983   6.946
10438SOL    HW232214   6.864   5.868   0.008
10439SOL     OW32215   6.332   5.378   4.823
10439SOL    HW132216   6.335   5.397   4.921
10439SOL    HW232217   6.424   5.356   4.791
10440SOL     OW32218   5.967   2.218   1.040
10440SOL    HW132219   5.920   2.166   1.111
10440SOL    HW232220   6.012   2.297   1.081
10441SOL     OW32221   4.614   2.137   7.013
10441SOL    HW132222   4.666   2.169   0.069
10441SOL    HW232223   4.568   2.051   0.014
10442SOL     OW32224   2.298   1.335   5.039
10442SOL    HW132225   2.259   1.244   5.023
10442SOL    HW232226   2.398   1.331   5.029
10443SOL     OW32227   1.318   0.498   0.765
10443SOL    HW132228   1.406   0.529   0.801
10443SOL    HW232229   1.301   0.404   0.794
10444SOL     OW32230   4.308   4.655   3.845
10444SOL    HW132231   4.290   4.673   3.942
10444SOL    HW232232   4.221   4.637   3.798
10445SOL     OW32233   1.247   3.188   3.985
10445SOL    HW132234   1.252   3.270   4.043
10445SOL    HW232235   1.260   3.214   3.889
10446SOL     OW32236   2.310   4.670   5.653
10446SOL    HW132237   2.250   4.633   5.582
10446SOL    HW232238   2.384   4.605   5.671
10447SOL     OW32239   0.844   1.943   2.663
10447SOL    HW132240   0.779   1.886   2.613
10447SOL    HW232241   0.919   1.887   2.696
10448SOL     OW32242   1.889   5.814   2.278
10448SOL    HW132243   1.829   5.743   2.313
10448SOL    HW232244   1.967   5.827   2.340
10449SOL     OW32245   4.212   5.201   4.502
10449SOL    HW132246   4.171   5.221   4.591
10449SOL    HW232247   4.181   5.113   4.469
10450SOL     OW32248   0.127   0.989   4.446
10450SOL    HW132249   0.162   1.057   4.511
10450SOL    HW232250   0.151   1.015   4.353
10451SOL     OW32251   3.269   1.929   4.381
10451SOL    HW132252   3.321   1.853   4.420
10451SOL    HW232253   3.322   1.972   4.308
10452SOL     OW32254   6.482   2.528   4.507
10452SOL    HW132255   6.567   2.540   4.557
10452SOL    HW232256   6.416   2.478   4.564
10453SOL     OW32257   4.167   6.039   4.230
10453SOL    HW132258   4.221   6.011   4.151
10453SOL    HW232259   4.089   5.978   4.240
10454SOL     OW32260   6.481   1.039   6.393
10454SOL    HW132261   6.433   1.118   6.430
10454SOL    HW232262   6.441   0.955   6.430
10455SOL     OW32263   0.374   5.977   3.042
10455SOL    HW132264   0.422   5.966   2.955
10455SOL    HW232265   0.330   6.067   3.044
10456SOL     OW32266   1.089   5.682   6.697
10456SOL    HW132267   1.000   5.665   6.654
10456SOL    HW232268   1.145   5.738   6.636
10457SOL     OW32269   3.680   1.610   6.805
10457SOL    HW132270   3.628   1.530   6.834
10457SOL    HW232271   3.777   1.586   6.798
10458SOL     OW32272   1.332   6.272   6.539
10458SOL    HW132273   1.243   6.243   6.505
10458SOL    HW232274   1.391   6.296   6.462
10459SOL     OW32275   5.988   5.467   1.113
10459SOL    HW132276   5.897   5.425   1.104
10459SOL    HW232277   5.991   5.551   1.059
10460SOL     OW32278   6.248   0.597   0.548
10460SOL    HW132279   6.158   0.640   0.535
10460SOL    HW232280   6.256   0.518   0.487
10461SOL     OW32281   6.872   4.499   6.273
10461SOL    HW132282   6.812   4.513   6.194
10461SOL    HW232283   6.914   4.409   6.267
10462SOL     OW32284   3.292   3.589   6.057
10462SOL    HW132285   3.280   3.554   5.964
10462SOL    HW232286   3.271   3.687   6.058
10463SOL     OW32287   5.033   2.641   6.561
10463SOL    HW132288   5.075   2.555   6.531
10463SOL    HW232289   5.030   2.643   6.661
10464SOL     OW32290   6.539   4.709   1.797
10464SOL    HW132291   6.590   4.795   1.805
10464SOL    HW232292   6.446   4.723   1.831
10465SOL     OW32293   5.720   4.798   1.428
10465SOL    HW132294   5.740   4.863   1.354
10465SOL    HW232295   5.642   4.832   1.482
10466SOL     OW32296   5.806   3.999   6.199
10466SOL    HW132297   5.897   3.958   6.195
10466SOL    HW232298   5.779   4.029   6.108
10467SOL     OW32299   0.179   2.513   6.641
10467SOL    HW132300   0.120   2.443   6.600
10467SOL    HW232301   0.124   2.571   6.700
10468SOL     OW32302   1.582   4.929   4.424
10468SOL    HW132303   1.607   4.847   4.475
10468SOL    HW232304   1.486   4.951   4.440
10469SOL     OW32305   1.115   1.866   3.861
10469SOL    HW132306   1.127   1.964   3.880
10469SOL    HW232307   1.199   1.817   3.883
10470SOL     OW32308   2.151   3.497   2.633
10470SOL    HW132309   2.086   3.557   2.586
10470SOL    HW232310   2.212   3.455   2.566
10471SOL     OW32311   2.366   6.018   6.656
10471SOL    HW132312   2.411   5.981   6.737
10471SOL    HW232313   2.278   5.972   6.643
10472SOL     OW32314   3.831   5.073   6.732
10472SOL    HW132315   3.899   5.017   6.686
10472SOL    HW232316   3.739   5.044   6.704
10473SOL     OW32317   6.251   4.624   0.573
10473SOL    HW132318   6.323   4.570   0.617
10473SOL    HW232319   6.203   4.568   0.506
10474SOL     OW32320   6.516   6.987   5.189
10474SOL    HW132321   6.467   0.051   5.201
10474SOL    HW232322   6.542   6.976   5.093
10475SOL     OW32323   1.190   4.973   1.333
10475SOL    HW132324   1.252   4.927   1.269
10475SOL    HW232325   1.172   5.066   1.299
10476SOL     OW32326   5.393   6.392   1.279
10476SOL    HW132327   5.309   6.337   1.276
10476SOL    HW232328   5.456   6.359   1.209
10477SOL     OW32329   6.811   5.686   3.593
10477SOL    HW132330   6.893   5.744   3.595
10477SOL    HW232331   6.772   5.688   3.501
10478SOL     OW32332   7.021   0.980   6.528
10478SOL    HW132333   6.968   0.959   6.446
10478SOL    HW232334   0.043   0.897   6.561
10479SOL     OW32335   0.674   2.834   2.065
10479SOL    HW132336   0.774   2.827   2.066
10479SOL    HW232337   0.646   2.925   2.094
10480SOL     OW32338   2.649   1.223   3.404
10480SOL    HW132339   2.710   1.279   3.347
10480SOL    HW232340   2.558   1.265   3.406
10481SOL     OW32341   6.668   1.400   0.974
10481SOL    HW132342   6.589   1.363   0.924
10481SOL    HW232343   6.672   1.359   1.065
10482SOL     OW32344   5.674   2.761   3.689
10482SOL    HW132345   5.614   2.806   3.755
10482SOL    HW232346   5.764   2.805   3.690
10483SOL     OW32347   6.281   6.092   0.347
10483SOL    HW132348   6.357   6.139   0.394
10483SOL    HW232349   6.215   6.160   0.315
10484SOL     OW32350   6.503   1.001   2.389
10484SOL    HW132351   6.454   0.959   2.313
10484SOL    HW232352   6.462   0.971   2.475
10485SOL     OW32353   5.181   3.400   5.025
10485SOL    HW132354   5.204   3.306   5.052
10485SOL    HW232355   5.256   3.439   4.973
10486SOL     OW32356   5.262   2.896   2.677
10486SOL    HW132357   5.349   2.877   2.630
10486SOL    HW232358   5.190   2.838   2.639
10487SOL     OW32359   5.128   6.887   1.739
10487SOL    HW132360   5.222   6.900   1.770
10487SOL    HW232361   5.125   6.888   1.639
10488SOL     OW32362   3.227   3.606   6.733
10488SOL    HW132363   3.171   3.538   6.780
10488SOL    HW232364   3.320   3.570   6.722
10489SOL     OW32365   1.310   5.601   4.987
10489SOL    HW132366   1.391   5.568   4.938
10489SOL    HW232367   1.319   5.581   5.084
10490SOL     OW32368   6.664   0.422   4.477
10490SOL    HW132369   6.598   0.458   4.411
10490SOL    HW232370   6.639   0.328   4.500
10491SOL     OW32371   0.229   5.272   5.461
10491SOL    HW132372   0.302   5.217   5.501
10491SOL    HW232373   0.188   5.329   5.533
10492SOL     OW32374   4.302   4.457   6.100
10492SOL    HW132375   4.363   4.431   6.025
10492SOL    HW232376   4.307   4.389   6.173
10493SOL     OW32377   3.409   1.187   0.658
10493SOL    HW132378   3.436   1.213   0.566
10493SOL    HW232379   3.378   1.268   0.709
10494SOL     OW32380   5.632   2.119   4.932
10494SOL    HW132381   5.604   2.081   5.020
10494SOL    HW232382   5.668   2.212   4.945
10495SOL     OW32383   1.798   6.701   0.621
10495SOL    HW132384   1.736   6.685   0.544
10495SOL    HW232385   1.745   6.719   0.703
10496SOL     OW32386   6.318   0.303   5.473
10496SOL    HW132387   6.338   0.309   5.571
10496SOL    HW232388   6.375   0.369   5.424
10497SOL     OW32389   0.762   1.746   6.676
10497SOL    HW132390   0.718   1.836   6.673
10497SOL    HW232391   0.856   1.754   6.642
10498SOL     OW32392   3.079   5.018   6.281
10498SOL    HW132393   3.121   5.040   6.369
10498SOL    HW232394   3.150   5.016   6.211
10499SOL     OW32395   2.614   5.240   3.405
10499SOL    HW132396   2.674   5.199   3.337
10499SOL    HW232397   2.612   5.339   3.392
10500SOL     OW32398   2.001   2.319   6.947
10500SOL    HW132399   2.087   2.275   6.973
10500SOL    HW232400   1.998   2.411   6.985
10501SOL     OW32401   1.069   2.260   3.432
10501SOL    HW132402   0.992   2.255   3.368
10501SOL    HW232403   1.095   2.168   3.460
10502SOL     OW32404   3.369   5.898   4.992
10502SOL    HW132405   3.367   5.813   4.939
10502SOL    HW232406   3.311   5.888   5.072
10503SOL     OW32407   2.732   3.643   5.302
10503SOL    HW132408   2.712   3.547   5.324
10503SOL    HW232409   2.809   3.675   5.358
10504SOL     OW32410   2.457   3.602   0.981
10504SOL    HW132411   2.411   3.585   1.067
10504SOL    HW232412   2.397   3.655   0.921
10505SOL     OW32413   0.432   0.296   0.917
10505SOL    HW132414   0.434   0.360   0.994
10505SOL    HW232415   0.429   0.348   0.831
10506SOL     OW32416   0.024   3.961   5.379
10506SOL    HW132417   6.951   3.979   5.404
10506SOL    HW232418   0.048   3.867   5.403
10507SOL     OW32419   0.926   0.147   4.351
10507SOL    HW132420   0.958   0.073   4.409
10507SOL    HW232421   0.826   0.156   4.359
10508SOL     OW32422   5.200   3.850   2.255
10508SOL    HW132423   5.187   3.780   2.325
10508SOL    HW232424   5.112   3.869   2.210
10509SOL     OW32425   1.493   0.578   5.579
10509SOL    HW132426   1.518   0.513   5.651
10509SOL    HW232427   1.571   0.590   5.517
10510SOL     OW32428   6.112   6.262   0.178
10510SOL    HW132429   6.130   6.358   0.198
10510SOL    HW232430   6.087   6.252   0.081
10511SOL     OW32431   0.141   2.110   0.676
10511SOL    HW132432   0.194   2.025   0.683
10511SOL    HW232433   0.051   2.090   0.637
10512SOL     OW32434   3.189   6.258   6.587
10512SOL    HW132435   3.134   6.341   6.575
10512SOL    HW232436   3.185   6.230   6.683
10513SOL     OW32437   6.916   2.076   0.537
10513SOL    HW132438   6.858   2.030   0.604
10513SOL    HW232439   6.873   2.161   0.507
10514SOL     OW32440   6.610   3.856   1.606
10514SOL    HW132441   6.590   3.792   1.680
10514SOL    HW232442   6.615   3.949   1.643
10515SOL     OW32443   6.130   2.621   4.272
10515SOL    HW132444   6.177   2.676   4.204
10515SOL    HW232445   6.153   2.655   4.364
10516SOL     OW32446   3.485   0.443   0.321
10516SOL    HW132447   3.395   0.403   0.341
10516SOL    HW232448   3.556   0.373   0.334
10517SOL     OW32449   6.837   2.564   2.719
10517SOL    HW132450   6.827   2.523   2.810
10517SOL    HW232451   6.871   2.657   2.727
10518SOL     OW32452   0.864   6.911   2.544
10518SOL    HW132453   0.831   7.004   2.561
10518SOL    HW232454   0.962   6.913   2.524
10519SOL     OW32455   3.260   3.629   5.229
10519SOL    HW132456   3.245   3.611   5.132
10519SOL    HW232457   3.358   3.625   5.249
10520SOL     OW32458   3.934   4.102   6.222
10520SOL    HW132459   3.957   4.104   6.124
10520SOL    HW232460   3.839   4.071   6.232
10521SOL     OW32461   6.512   5.290   2.271
10521SOL    HW132462   6.517   5.302   2.370
10521SOL    HW232463   6.591   5.332   2.228
10522SOL     OW32464   6.352   0.322   1.998
10522SOL    HW132465   6.320   0.417   1.994
10522SOL    HW232466   6.439   0.315   1.949
10523SOL     OW32467   0.226   5.694   6.815
10523SOL    HW132468   0.136   5.658   6.790
10523SOL    HW232469   0.215   5.762   6.888
10524SOL     OW32470   4.450   0.812   4.447
10524SOL    HW132471   4.356   0.787   4.472
10524SOL    HW232472   4.460   0.911   4.447
10525SOL     OW32473   2.775   6.211   5.026
10525SOL    HW132474   2.841   6.219   4.951
10525SOL    HW232475   2.812   6.150   5.096
10526SOL     OW32476   5.765   6.999   2.031
10526SOL    HW132477   5.705   6.938   2.083
10526SOL    HW232478   5.786   6.958   1.943
10527SOL     OW32479   1.642   2.924   4.495
10527SOL    HW132480   1.617   2.831   4.469
10527SOL    HW232481   1.707   2.921   4.571
10528SOL     OW32482   6.492   4.781   5.498
10528SOL    HW132483   6.467   4.874   5.523
10528SOL    HW232484   6.583   4.782   5.454
10529SOL     OW32485   6.467   6.404   4.306
10529SOL    HW132486   6.463   6.445   4.398
10529SOL    HW232487   6.512   6.315   4.311
10530SOL     OW32488   2.396   1.810   5.690
10530SOL    HW132489   2.417   1.792   5.594
10530SOL    HW232490   2.387   1.723   5.739
10531SOL     OW32491   2.212   2.228   5.957
10531SOL    HW132492   2.292   2.181   5.995
10531SOL    HW232493   2.136   2.163   5.950
10532SOL     OW32494   3.443   3.202   5.235
10532SOL    HW132495   3.435   3.105   5.254
10532SOL    HW232496   3.513   3.217   5.165
10533SOL     OW32497   2.872   0.784   6.027
10533SOL    HW132498   2.812   0.713   6.066
10533SOL    HW232499   2.968   0.757   6.041
10534SOL     OW32500   6.155   6.105   1.192
10534SOL    HW132501   6.080   6.064   1.244
10534SOL    HW232502   6.213   6.032   1.155
10535SOL     OW32503   0.930   1.457   2.568
10535SOL    HW132504   0.939   1.359   2.583
10535SOL    HW232505   0.875   1.497   2.642
10536SOL     OW32506   5.018   6.459   4.167
10536SOL    HW132507   5.045   6.553   4.185
10536SOL    HW232508   4.962   6.456   4.084
10537SOL     OW32509   0.121   5.344   1.586
10537SOL    HW132510   0.083   5.433   1.611
10537SOL    HW232511   0.098   5.324   1.491
10538SOL     OW32512   4.547   4.223   6.762
10538SOL    HW132513   4.450   4.207   6.776
10538SOL    HW232514   4.596   4.136   6.760
10539SOL     OW32515   0.970   3.340   5.619
10539SOL    HW132516   1.062   3.304   5.640
10539SOL    HW232517   0.904   3.299   5.681
10540SOL     OW32518   3.085   0.727   0.309
10540SOL    HW132519   3.101   0.645   0.255
10540SOL    HW232520   3.036   0.703   0.393
10541SOL     OW32521   5.042   2.310   0.613
10541SOL    HW132522   4.997   2.323   0.525
10541SOL    HW232523   4.978   2.269   0.678
10542SOL     OW32524   1.446   2.380   0.243
10542SOL    HW132525   1.532   2.403   0.287
10542SOL    HW232526   1.436   2.281   0.238
10543SOL     OW32527   2.684   1.044   5.556
10543SOL    HW132528   2.645   1.064   5.646
10543SOL    HW232529   2.762   1.105   5.540
10544SOL     OW32530   0.279   2.480   1.669
10544SOL    HW132531   0.324   2.508   1.753
10544SOL    HW232532   0.340   2.496   1.591
10545SOL     OW32533   5.098   0.744   3.376
10545SOL    HW132534   5.187   0.732   3.419
10545SOL    HW232535   5.030   0.686   3.422
10546SOL     OW32536   3.843   1.152   5.039
10546SOL    HW132537   3.823   1.247   5.015
10546SOL    HW232538   3.935   1.128   5.005
10547SOL     OW32539   4.102   0.710   1.047
10547SOL    HW132540   4.035   0.683   1.117
10547SOL    HW232541   4.063   0.784   0.992
10548SOL     OW32542   4.638   4.672   5.114
10548SOL    HW132543   4.618   4.579   5.083
10548SOL    HW232544   4.585   4.738   5.060
10549SOL     OW32545   1.243   1.095   1.530
10549SOL    HW132546   1.323   1.078   1.587
10549SOL    HW232547   1.260   1.174   1.471
10550SOL     OW32548   5.655   0.180   5.063
10550SOL    HW132549   5.620   0.245   5.130
10550SOL    HW232550   5.734   0.131   5.102
10551SOL     OW32551   1.589   2.676   5.999
10551SOL    HW132552   1.505   2.621   5.996
10551SOL    HW232553   1.668   2.615   5.993
10552SOL     OW32554   3.185   2.056   5.164
10552SOL    HW132555   3.243   1.995   5.110
10552SOL    HW232556   3.182   2.146   5.121
10553SOL     OW32557   3.349   4.747   5.995
10553SOL    HW132558   3.313   4.837   5.969
10553SOL    HW232559   3.307   4.677   5.938
10554SOL     OW32560   6.175   4.349   5.479
10554SOL    HW132561   6.252   4.386   5.531
10554SOL    HW232562   6.190   4.366   5.381
10555SOL     OW32563   3.379   2.185   1.660
10555SOL    HW132564   3.456   2.127   1.689
10555SOL    HW232565   3.407   2.281   1.663
10556SOL     OW32566   2.110   3.432   4.345
10556SOL    HW132567   2.165   3.359   4.386
10556SOL    HW232568   2.134   3.519   4.387
10557SOL     OW32569   5.891   1.717   3.654
10557SOL    HW132570   5.832   1.676   3.584
10557SOL    HW232571   5.984   1.684   3.641
10558SOL     OW32572   5.284   5.886   4.756
10558SOL    HW132573   5.297   5.910   4.660
10558SOL    HW232574   5.186   5.893   4.779
10559SOL     OW32575   4.663   2.378   0.844
10559SOL    HW132576   4.730   2.389   0.916
10559SOL    HW232577   4.709   2.349   0.760
10560SOL     OW32578   0.248   3.249   3.960
10560SOL    HW132579   0.216   3.310   3.888
10560SOL    HW232580   0.284   3.165   3.919
10561SOL     OW32581   2.981   4.500   6.011
10561SOL    HW132582   2.911   4.554   6.058
10561SOL    HW232583   2.941   4.414   5.978
10562SOL     OW32584   3.573   1.439   0.609
10562SOL    HW132585   3.571   1.361   0.546
10562SOL    HW232586   3.565   1.523   0.556
10563SOL     OW32587   1.558   1.838   3.832
10563SOL    HW132588   1.656   1.845   3.812
10563SOL    HW232589   1.544   1.823   3.929
10564SOL     OW32590   0.049   2.330   1.696
10564SOL    HW132591   0.029   2.276   1.614
10564SOL    HW232592   0.127   2.389   1.679
10565SOL     OW32593   5.350   1.614   5.103
10565SOL    HW132594   5.383   1.574   5.017
10565SOL    HW232595   5.261   1.574   5.127
10566SOL     OW32596   4.120   5.362   6.803
10566SOL    HW132597   4.132   5.282   6.861
10566SOL    HW232598   4.203   5.418   6.804
10567SOL     OW32599   2.008   4.849   3.968
10567SOL    HW132600   2.025   4.830   4.065
10567SOL    HW232601   1.937   4.787   3.934
10568SOL     OW32602   3.803   1.831   2.943
10568SOL    HW132603   3.824   1.902   2.876
10568SOL    HW232604   3.836   1.743   2.909
10569SOL     OW32605   5.881   3.188   3.308
10569SOL    HW132606   5.784   3.174   3.327
10569SOL    HW232607   5.935   3.115   3.349
10570SOL     OW32608   0.987   4.570   1.665
10570SOL    HW132609   0.915   4.545   1.730
10570SOL    HW232610   1.021   4.488   1.619
10571SOL     OW32611   6.313   6.626   5.138
10571SOL    HW132612   6.302   6.547   5.078
10571SOL    HW232613   6.227   6.677   5.143
10572SOL     OW32614   6.704   3.179   1.657
10572SOL    HW132615   6.639   3.243   1.698
10572SOL    HW232616   6.792   3.186   1.704
10573SOL     OW32617   6.213   4.352   6.087
10573SOL    HW132618   6.125   4.325   6.127
10573SOL    HW232619   6.288   4.315   6.142
10574SOL     OW32620   0.736   2.247   2.993
10574SOL    HW132621   0.659   2.198   2.952
10574SOL    HW232622   0.755   2.329   2.939
10575SOL     OW32623   0.672   6.762   6.210
10575SOL    HW132624   0.754   6.818   6.227
10575SOL    HW232625   0.663   6.693   6.282
10576SOL     OW32626   1.329   4.844   3.040
10576SOL    HW132627   1.390   4.814   3.114
10576SOL    HW232628   1.361   4.932   3.005
10577SOL     OW32629   0.741   3.229   5.766
10577SOL    HW132630   0.785   3.224   5.856
10577SOL    HW232631   0.690   3.144   5.749
10578SOL     OW32632   5.787   0.989   5.585
10578SOL    HW132633   5.757   1.067   5.639
10578SOL    HW232634   5.718   0.917   5.588
10579SOL     OW32635   4.939   0.179   0.924
10579SOL    HW132636   4.927   0.106   0.991
10579SOL    HW232637   5.035   0.186   0.898
10580SOL     OW32638   6.166   6.003   0.620
10580SOL    HW132639   6.245   6.039   0.671
10580SOL    HW232640   6.196   5.927   0.562
10581SOL     OW32641   4.537   1.951   3.597
10581SOL    HW132642   4.618   1.892   3.595
10581SOL    HW232643   4.535   2.007   3.513
10582SOL     OW32644   3.035   4.940   0.216
10582SOL    HW132645   3.026   4.934   0.315
10582SOL    HW232646   3.124   4.981   0.193
10583SOL     OW32647   4.267   0.997   0.879
10583SOL    HW132648   4.330   0.922   0.902
10583SOL    HW232649   4.245   1.048   0.962
10584SOL     OW32650   6.682   0.472   1.501
10584SOL    HW132651   6.677   0.494   1.404
10584SOL    HW232652   6.724   0.381   1.512
10585SOL     OW32653   2.079   4.189   6.443
10585SOL    HW132654   2.116   4.118   6.502
10585SOL    HW232655   2.153   4.247   6.410
10586SOL     OW32656   4.722   1.586   0.316
10586SOL    HW132657   4.756   1.502   0.358
10586SOL    HW232658   4.688   1.567   0.224
10587SOL     OW32659   6.071   3.552   0.726
10587SOL    HW132660   6.052   3.614   0.649
10587SOL    HW232661   6.103   3.464   0.690
10588SOL     OW32662   1.213   5.098   3.184
10588SOL    HW132663   1.218   5.174   3.249
10588SOL    HW232664   1.201   5.012   3.235
10589SOL     OW32665   5.937   1.235   4.227
10589SOL    HW132666   5.890   1.301   4.285
10589SOL    HW232667   5.913   1.251   4.132
10590SOL     OW32668   1.576   0.514   5.076
10590SOL    HW132669   1.674   0.517   5.056
10590SOL    HW232670   1.524   0.529   4.992
10591SOL     OW32671   1.295   2.142   0.530
10591SOL    HW132672   1.392   2.165   0.538
10591SOL    HW232673   1.254   2.141   0.621
10592SOL     OW32674   6.392   1.353   6.840
10592SOL    HW132675   6.296   1.344   6.814
10592SOL    HW232676   6.398   1.387   6.934
10593SOL     OW32677   1.733   4.745   1.746
10593SOL    HW132678   1.699   4.651   1.752
10593SOL    HW232679   1.667   4.807   1.789
10594SOL     OW32680   0.883   1.863   4.301
10594SOL    HW132681   0.913   1.771   4.275
10594SOL    HW232682   0.946   1.930   4.263
10595SOL     OW32683   2.413   6.026   5.152
10595SOL    HW132684   2.483   5.980   5.206
10595SOL    HW232685   2.436   6.018   5.055
10596SOL     OW32686   3.183   0.665   2.213
10596SOL    HW132687   3.198   0.606   2.292
10596SOL    HW232688   3.176   0.760   2.243
10597SOL     OW32689   2.077   0.406   3.611
10597SOL    HW132690   2.111   0.496   3.638
10597SOL    HW232691   2.005   0.416   3.542
10598SOL     OW32692   2.019   1.736   6.723
10598SOL    HW132693   1.988   1.737   6.818
10598SOL    HW232694   1.990   1.651   6.679
10599SOL     OW32695   5.227   0.454   6.473
10599SOL    HW132696   5.168   0.374   6.472
10599SOL    HW232697   5.290   0.448   6.551
10600SOL     OW32698   1.360   2.184   5.707
10600SOL    HW132699   1.410   2.143   5.782
10600SOL    HW232700   1.350   2.283   5.722
10601SOL     OW32701   3.409   5.725   5.497
10601SOL    HW132702   3.489   5.699   5.443
10601SOL    HW232703   3.419   5.694   5.591
10602SOL     OW32704   4.412   1.058   1.550
10602SOL    HW132705   4.496   1.059   1.605
10602SOL    HW232706   4.341   1.006   1.598
10603SOL     OW32707   0.627   4.991   4.403
10603SOL    HW132708   0.617   5.086   4.372
10603SOL    HW232709   0.539   4.944   4.396
10604SOL     OW32710   6.671   4.163   5.146
10604SOL    HW132711   6.642   4.236   5.084
10604SOL    HW232712   6.769   4.171   5.164
10605SOL     OW32713   2.160   5.260   6.030
10605SOL    HW132714   2.128   5.305   6.114
10605SOL    HW232715   2.085   5.255   5.964
10606SOL     OW32716   0.340   0.857   2.996
10606SOL    HW132717   0.327   0.876   2.898
10606SOL    HW232718   0.430   0.890   3.024
10607SOL     OW32719   5.622   4.975   6.812
10607SOL    HW132720   5.639   5.020   6.725
10607SOL    HW232721   5.597   4.879   6.795
10608SOL     OW32722   5.854   0.638   2.668
10608SOL    HW132723   5.906   0.555   2.687
10608SOL    HW232724   5.824   0.679   2.754
10609SOL     OW32725   3.794   6.996   1.889
10609SOL    HW132726   3.833   6.923   1.834
10609SOL    HW232727   3.853   0.054   1.885
10610SOL     OW32728   1.872   4.100   4.575
10610SOL    HW132729   1.861   4.197   4.596
10610SOL    HW232730   1.968   4.074   4.588
10611SOL     OW32731   4.907   2.329   6.438
10611SOL    HW132732   4.907   2.233   6.407
10611SOL    HW232733   4.990   2.346   6.491
10612SOL     OW32734   1.252   6.352   1.206
10612SOL    HW132735   1.251   6.281   1.276
10612SOL    HW232736   1.321   6.420   1.228
10613SOL     OW32737   0.588   6.304   6.677
10613SOL    HW132738   0.526   6.231   6.706
10613SOL    HW232739   0.587   6.312   6.578
10614SOL     OW32740   6.803   1.018   4.245
10614SOL    HW132741   6.710   0.998   4.276
10614SOL    HW232742   6.861   0.938   4.262
10615SOL     OW32743   0.233   5.892   5.519
10615SOL    HW132744   0.160   5.957   5.495
10615SOL    HW232745   0.261   5.907   5.613
10616SOL     OW32746   2.911   6.231   0.635
10616SOL    HW132747   2.909   6.330   0.630
10616SOL    HW232748   2.945   6.194   0.548
10617SOL     OW32749   0.028   2.137   6.680
10617SOL    HW132750   7.000   2.058   6.715
10617SOL    HW232751   0.118   2.108   6.648
10618SOL     OW32752   6.105   4.191   1.264
10618SOL    HW132753   6.057   4.146   1.189
10618SOL    HW232754   6.204   4.185   1.248
10619SOL     OW32755   0.442   4.167   3.432
10619SOL    HW132756   0.459   4.192   3.527
10619SOL    HW232757   0.397   4.243   3.385
10620SOL     OW32758   1.081   5.359   4.086
10620SOL    HW132759   1.102   5.261   4.090
10620SOL    HW232760   0.983   5.371   4.076
10621SOL     OW32761   2.537   6.362   0.480
10621SOL    HW132762   2.587   6.283   0.446
10621SOL    HW232763   2.506   6.344   0.574
10622SOL     OW32764   4.651   1.727   1.492
10622SOL    HW132765   4.678   1.656   1.557
10622SOL    HW232766   4.669   1.817   1.533
10623SOL     OW32767   6.978   0.793   4.203
10623SOL    HW132768   0.015   0.812   4.282
10623SOL    HW232769   6.960   0.695   4.199
10624SOL     OW32770   2.508   1.874   4.341
10624SOL    HW132771   2.547   1.819   4.415
10624SOL    HW232772   2.417   1.838   4.317
10625SOL     OW32773   0.260   3.391   0.163
10625SOL    HW132774   0.244   3.447   0.082
10625SOL    HW232775   0.183   3.329   0.177
10626SOL     OW32776   6.203   1.714   1.812
10626SOL    HW132777   6.232   1.622   1.838
10626SOL    HW232778   6.103   1.718   1.809
10627SOL     OW32779   6.233   5.580   4.654
10627SOL    HW132780   6.259   5.566   4.559
10627SOL    HW232781   6.281   5.514   4.712
10628SOL     OW32782   0.075   6.145   6.155
10628SOL    HW132783   0.092   6.097   6.069
10628SOL    HW232784   0.015   6.223   6.139
10629SOL     OW32785   2.898   5.205   6.330
10629SOL    HW132786   2.967   5.134   6.312
10629SOL    HW232787   2.807   5.169   6.312
10630SOL     OW32788   6.504   0.686   2.975
10630SOL    HW132789   6.495   0.752   3.049
10630SOL    HW232790   6.582   0.710   2.917
10631SOL     OW32791   0.886   6.799   4.976
10631SOL    HW132792   0.977   6.816   5.015
10631SOL    HW232793   0.848   6.715   5.016
10632SOL     OW32794   0.523   3.198   5.471
10632SOL    HW132795   0.496   3.244   5.387
10632SOL    HW232796   0.576   3.261   5.528
10633SOL     OW32797   1.248   4.810   0.738
10633SOL    HW132798   1.168   4.805   0.797
10633SOL    HW232799   1.306   4.886   0.767
10634SOL     OW32800   4.169   6.578   1.373
10634SOL    HW132801   4.102   6.531   1.431
10634SOL    HW232802   4.125   6.612   1.290
10635SOL     OW32803   1.354   0.706   1.410
10635SOL    HW132804   1.359   0.790   1.355
10635SOL    HW232805   1.343   0.730   1.506
10636SOL     OW32806   6.402   1.260   0.879
10636SOL    HW132807   6.375   1.207   0.959
10636SOL    HW232808   6.383   1.357   0.894
10637SOL     OW32809   3.998   4.447   5.697
10637SOL    HW132810   4.060   4.525   5.710
10637SOL    HW232811   4.028   4.371   5.755
10638SOL     OW32812   6.809   0.539   6.015
10638SOL    HW132813   6.802   0.445   6.049
10638SOL    HW232814   6.848   0.538   5.923
10639SOL     OW32815   3.164   1.415   5.417
10639SOL    HW132816   3.155   1.471   5.500
10639SOL    HW232817   3.255   1.430   5.377
10640SOL     OW32818   4.129   6.281   0.791
10640SOL    HW132819   4.034   6.265   0.818
10640SOL    HW232820   4.149   6.379   0.797
10641SOL     OW32821   4.298   0.860   6.790
10641SOL    HW132822   4.317   0.956   6.765
10641SOL    HW232823   4.232   0.822   6.725
10642SOL     OW32824   0.074   4.094   0.656
10642SOL    HW132825   0.052   4.149   0.737
10642SOL    HW232826   0.020   4.128   0.578
10643SOL     OW32827   4.098   3.205   5.206
10643SOL    HW132828   4.117   3.292   5.251
10643SOL    HW232829   4.106   3.131   5.272
10644SOL     OW32830   3.516   1.498   4.916
10644SOL    HW132831   3.494   1.408   4.879
10644SOL    HW232832   3.561   1.553   4.846
10645SOL     OW32833   2.196   6.792   5.499
10645SOL    HW132834   2.188   6.886   5.533
10645SOL    HW232835   2.111   6.743   5.516
10646SOL     OW32836   0.983   4.398   6.565
10646SOL    HW132837   0.943   4.315   6.603
10646SOL    HW232838   1.072   4.415   6.607
10647SOL     OW32839   0.662   5.287   0.764
10647SOL    HW132840   0.761   5.281   0.751
10647SOL    HW232841   0.618   5.207   0.725
10648SOL     OW32842   4.498   5.036   6.221
10648SOL    HW132843   4.573   5.002   6.277
10648SOL    HW232844   4.518   5.130   6.193
10649SOL     OW32845   0.201   4.541   5.844
10649SOL    HW132846   0.286   4.498   5.875
10649SOL    HW232847   0.123   4.487   5.875
10650SOL     OW32848   2.918   0.801   4.589
10650SOL    HW132849   3.015   0.795   4.609
10650SOL    HW232850   2.866   0.767   4.668
10651SOL     OW32851   2.979   0.124   5.421
10651SOL    HW132852   2.977   0.036   5.468
10651SOL    HW232853   2.960   0.197   5.487
10652SOL     OW32854   4.105   1.051   0.407
10652SOL    HW132855   4.118   1.140   0.364
10652SOL    HW232856   4.015   1.015   0.382
10653SOL     OW32857   5.852   2.695   4.188
10653SOL    HW132858   5.950   2.695   4.206
10653SOL    HW232859   5.827   2.781   4.142
10654SOL     OW32860   4.465   0.975   1.265
10654SOL    HW132861   4.457   1.019   1.354
10654SOL    HW232862   4.440   0.879   1.273
10655SOL     OW32863   2.927   5.500   1.416
10655SOL    HW132864   2.875   5.470   1.496
10655SOL    HW232865   3.011   5.545   1.446
10656SOL     OW32866   6.511   3.060   6.378
10656SOL    HW132867   6.513   2.999   6.298
10656SOL    HW232868   6.491   3.153   6.349
10657SOL     OW32869   6.186   0.038   1.537
10657SOL    HW132870   6.260   0.105   1.537
10657SOL    HW232871   6.114   0.068   1.599
10658SOL     OW32872   0.498   6.762   4.916
10658SOL    HW132873   0.482   6.688   4.981
10658SOL    HW232874   0.588   6.751   4.874
10659SOL     OW32875   5.251   0.832   0.533
10659SOL    HW132876   5.266   0.863   0.627
10659SOL    HW232877   5.186   0.756   0.532
10660SOL     OW32878   5.391   5.244   5.708
10660SOL    HW132879   5.316   5.307   5.727
10660SOL    HW232880   5.355   5.153   5.691
10661SOL     OW32881   0.866   0.371   2.059
10661SOL    HW132882   0.953   0.327   2.038
10661SOL    HW232883   0.879   0.470   2.067
10662SOL     OW32884   5.693   1.621   0.799
10662SOL    HW132885   5.665   1.716   0.813
10662SOL    HW232886   5.644   1.584   0.720
10663SOL     OW32887   0.585   0.934   0.457
10663SOL    HW132888   0.679   0.899   0.453
10663SOL    HW232889   0.571   1.001   0.384
10664SOL     OW32890   2.020   5.068   6.183
10664SOL    HW132891   2.069   5.154   6.178
10664SOL    HW232892   1.979   5.047   6.095
10665SOL     OW32893   5.632   1.115   6.724
10665SOL    HW132894   5.667   1.143   6.813
10665SOL    HW232895   5.707   1.113   6.658
10666SOL     OW32896   0.714   0.112   0.145
10666SOL    HW132897   0.738   0.171   0.222
10666SOL    HW232898   0.753   0.021   0.160
10667SOL     OW32899   3.280   2.129   5.693
10667SOL    HW132900   3.253   2.063   5.622
10667SOL    HW232901   3.198   2.174   5.728
10668SOL     OW32902   2.349   0.722   6.353
10668SOL    HW132903   2.430   0.780   6.343
10668SOL    HW232904   2.279   0.754   6.289
10669SOL     OW32905   1.075   6.462   6.870
10669SOL    HW132906   1.127   6.384   6.835
10669SOL    HW232907   1.003   6.486   6.805
10670SOL     OW32908   6.783   4.849   5.007
10670SOL    HW132909   6.817   4.896   4.926
10670SOL    HW232910   6.845   4.865   5.084
10671SOL     OW32911   1.837   2.158   3.587
10671SOL    HW132912   1.758   2.201   3.544
10671SOL    HW232913   1.807   2.102   3.664
10672SOL     OW32914   0.213   2.489   1.173
10672SOL    HW132915   0.231   2.531   1.084
10672SOL    HW232916   0.271   2.409   1.184
10673SOL     OW32917   3.551   3.470   4.696
10673SOL    HW132918   3.527   3.473   4.599
10673SOL    HW232919   3.493   3.403   4.743
10674SOL     OW32920   3.833   1.455   2.796
10674SOL    HW132921   3.932   1.437   2.792
10674SOL    HW232922   3.801   1.487   2.707
10675SOL     OW32923   0.840   0.891   6.146
10675SOL    HW132924   0.822   0.964   6.080
10675SOL    HW232925   0.917   0.918   6.205
10676SOL     OW32926   6.572   6.914   0.100
10676SOL    HW132927   6.494   6.855   0.079
10676SOL    HW232928   6.642   6.903   0.029
10677SOL     OW32929   6.384   1.033   0.538
10677SOL    HW132930   6.296   1.016   0.584
10677SOL    HW232931   6.449   0.961   0.564
10678SOL     OW32932   1.718   5.161   3.573
10678SOL    HW132933   1.721   5.255   3.540
10678SOL    HW232934   1.647   5.110   3.525
10679SOL     OW32935   5.368   5.104   3.475
10679SOL    HW132936   5.413   5.017   3.490
10679SOL    HW232937   5.421   5.177   3.519
10680SOL     OW32938   1.119   2.676   3.714
10680SOL    HW132939   1.219   2.673   3.712
10680SOL    HW232940   1.082   2.590   3.678
10681SOL     OW32941   0.551   2.111   6.453
10681SOL    HW132942   0.506   2.198   6.470
10681SOL    HW232943   0.482   2.040   6.438
10682SOL     OW32944   6.386   2.047   2.566
10682SOL    HW132945   6.346   2.011   2.482
10682SOL    HW232946   6.424   2.138   2.548
10683SOL     OW32947   1.679   0.375   3.910
10683SOL    HW132948   1.772   0.402   3.888
10683SOL    HW232949   1.679   0.316   3.991
10684SOL     OW32950   5.654   5.879   0.793
10684SOL    HW132951   5.737   5.931   0.813
10684SOL    HW232952   5.669   5.783   0.817
10685SOL     OW32953   6.285   2.874   2.282
10685SOL    HW132954   6.306   2.794   2.226
10685SOL    HW232955   6.355   2.886   2.352
10686SOL     OW32956   4.758   4.426   0.643
10686SOL    HW132957   4.697   4.381   0.578
10686SOL    HW232958   4.731   4.522   0.653
10687SOL     OW32959   6.629   5.439   1.030
10687SOL    HW132960   6.671   5.370   0.971
10687SOL    HW232961   6.573   5.394   1.099
10688SOL     OW32962   0.070   5.660   0.902
10688SOL    HW132963   0.147   5.723   0.899
10688SOL    HW232964   0.039   5.640   0.809
10689SOL     OW32965   0.739   0.485   1.218
10689SOL    HW132966   0.751   0.527   1.128
10689SOL    HW232967   0.681   0.404   1.209
10690SOL     OW32968   4.782   6.181   2.696
10690SOL    HW132969   4.813   6.161   2.789
10690SOL    HW232970   4.850   6.149   2.630
10691SOL     OW32971   6.127   1.652   1.546
10691SOL    HW132972   6.051   1.587   1.535
10691SOL    HW232973   6.152   1.657   1.643
10692SOL     OW32974   5.769   6.362   4.257
10692SOL    HW132975   5.731   6.323   4.173
10692SOL    HW232976   5.720   6.325   4.336
10693SOL     OW32977   5.034   2.874   3.536
10693SOL    HW132978   4.949   2.833   3.568
10693SOL    HW232979   5.109   2.844   3.595
10694SOL     OW32980   3.071   6.475   0.654
10694SOL    HW132981   3.105   6.393   0.699
10694SOL    HW232982   3.065   6.550   0.720
10695SOL     OW32983   5.553   2.850   5.239
10695SOL    HW132984   5.537   2.759   5.277
10695SOL    HW232985   5.644   2.881   5.265
10696SOL     OW32986   6.720   6.814   1.846
10696SOL    HW132987   6.635   6.784   1.889
10696SOL    HW232988   6.714   6.802   1.747
10697SOL     OW32989   2.352   6.673   3.096
10697SOL    HW132990   2.288   6.698   3.023
10697SOL    HW232991   2.307   6.687   3.185
10698SOL     OW32992   2.649   0.600   3.780
10698SOL    HW132993   2.714   0.666   3.819
10698SOL    HW232994   2.598   0.644   3.706
10699SOL     OW32995   2.310   2.543   3.352
10699SOL    HW132996   2.399   2.519   3.390
10699SOL    HW232997   2.304   2.643   3.343
10700SOL     OW32998   0.475   1.150   2.430
10700SOL    HW132999   0.544   1.191   2.371
10700SOL    HW233000   0.386   1.191   2.412
10701SOL     OW33001   3.232   0.271   1.308
10701SOL    HW133002   3.300   0.254   1.237
10701SOL    HW233003   3.213   0.369   1.312
10702SOL     OW33004   5.219   2.554   0.612
10702SOL    HW133005   5.201   2.593   0.702
10702SOL    HW233006   5.160   2.475   0.598
10703SOL     OW33007   4.077   3.313   3.754
10703SOL    HW133008   4.074   3.402   3.710
10703SOL    HW233009   4.128   3.319   3.840
10704SOL     OW33010   5.887   6.414   2.209
10704SOL    HW133011   5.789   6.397   2.201
10704SOL    HW233012   5.936   6.327   2.208
10705SOL     OW33013   1.398   3.382   6.107
10705SOL    HW133014   1.385   3.386   6.008
10705SOL    HW233015   1.421   3.288   6.133
10706SOL     OW33016   3.731   2.454   1.202
10706SOL    HW133017   3.689   2.495   1.283
10706SOL    HW233018   3.661   2.430   1.136
10707SOL     OW33019   6.592   6.867   6.386
10707SOL    HW133020   6.549   6.881   6.476
10707SOL    HW233021   6.525   6.886   6.314
10708SOL     OW33022   4.749   1.353   1.279
10708SOL    HW133023   4.683   1.425   1.257
10708SOL    HW233024   4.784   1.367   1.371
10709SOL     OW33025   0.777   0.201   6.068
10709SOL    HW133026   0.776   0.301   6.057
10709SOL    HW233027   0.685   0.165   6.052
10710SOL     OW33028   6.787   6.202   3.965
10710SOL    HW133029   6.867   6.156   3.924
10710SOL    HW233030   6.705   6.176   3.914
10711SOL     OW33031   2.708   5.449   5.174
10711SOL    HW133032   2.647   5.375   5.147
10711SOL    HW233033   2.654   5.527   5.207
10712SOL     OW33034   3.760   1.380   6.348
10712SOL    HW133035   3.789   1.453   6.286
10712SOL    HW233036   3.786   1.292   6.309
10713SOL     OW33037   2.142   6.170   0.851
10713SOL    HW133038   2.097   6.104   0.910
10713SOL    HW233039   2.074   6.216   0.794
10714SOL     OW33040   6.384   5.471   5.093
10714SOL    HW133041   6.470   5.517   5.115
10714SOL    HW233042   6.308   5.523   5.130
10715SOL     OW33043   5.762   1.174   3.232
10715SOL    HW133044   5.798   1.254   3.280
10715SOL    HW233045   5.688   1.134   3.286
10716SOL     OW33046   0.127   0.888   2.397
10716SOL    HW133047   0.143   0.790   2.383
10716SOL    HW233048   0.154   0.913   2.490
10717SOL     OW33049   7.002   6.765   1.864
10717SOL    HW133050   7.019   6.762   1.962
10717SOL    HW233051   6.908   6.796   1.847
10718SOL     OW33052   0.786   3.955   5.477
10718SOL    HW133053   0.715   3.924   5.414
10718SOL    HW233054   0.862   3.993   5.424
10719SOL     OW33055   3.706   6.690   1.924
10719SOL    HW133056   3.765   6.730   1.854
10719SOL    HW233057   3.693   6.593   1.906
10720SOL     OW33058   0.235   3.487   6.208
10720SOL    HW133059   0.141   3.457   6.228
10720SOL    HW233060   0.286   3.496   6.294
10721SOL     OW33061   5.500   2.411   4.894
10721SOL    HW133062   5.469   2.333   4.948
10721SOL    HW233063   5.435   2.427   4.819
10722SOL     OW33064   6.841   4.535   0.087
10722SOL    HW133065   6.907   4.489   0.026
10722SOL    HW233066   6.870   4.523   0.182
10723SOL     OW33067   6.234   4.298   6.862
10723SOL    HW133068   6.256   4.216   6.809
10723SOL    HW233069   6.212   4.373   6.799
10724SOL     OW33070   3.343   0.218   5.672
10724SOL    HW133071   3.367   0.304   5.717
10724SOL    HW233072   3.272   0.172   5.724
10725SOL     OW33073   6.897   0.372   5.406
10725SOL    HW133074   6.812   0.404   5.364
10725SOL    HW233075   6.906   0.273   5.391
10726SOL     OW33076   6.239   0.967   3.658
10726SOL    HW133077   6.333   0.936   3.674
10726SOL    HW233078   6.177   0.889   3.666
10727SOL     OW33079   3.936   6.876   6.411
10727SOL    HW133080   3.928   6.976   6.408
10727SOL    HW233081   3.979   6.848   6.497
10728SOL     OW33082   5.990   5.363   3.841
10728SOL    HW133083   6.013   5.413   3.924
10728SOL    HW233084   5.898   5.324   3.850
10729SOL     OW33085   5.835   3.405   3.707
10729SOL    HW133086   5.778   3.322   3.704
10729SOL    HW233087   5.931   3.378   3.711
10730SOL     OW33088   1.153   5.764   4.033
10730SOL    HW133089   1.171   5.860   4.054
10730SOL    HW233090   1.073   5.758   3.973
10731SOL     OW33091   5.144   5.394   6.424
10731SOL    HW133092   5.153   5.309   6.372
10731SOL    HW233093   5.115   5.373   6.517
10732SOL     OW33094   6.827   5.848   2.334
10732SOL    HW133095   6.925   5.837   2.317
10732SOL    HW233096   6.784   5.759   2.342
10733SOL     OW33097   0.477   1.794   6.069
10733SOL    HW133098   0.380   1.770   6.067
10733SOL    HW233099   0.520   1.766   5.983
10734SOL     OW33100   0.930   0.502   4.581
10734SOL    HW133101   1.014   0.511   4.527
10734SOL    HW233102   0.939   0.426   4.645
10735SOL     OW33103   0.405   0.488   2.271
10735SOL    HW133104   0.503   0.478   2.253
10735SOL    HW233105   0.382   0.438   2.355
10736SOL     OW33106   5.971   5.712   3.560
10736SOL    HW133107   6.023   5.750   3.636
10736SOL    HW233108   5.873   5.712   3.582
10737SOL     OW33109   6.467   0.734   1.770
10737SOL    HW133110   6.516   0.785   1.840
10737SOL    HW233111   6.456   0.791   1.689
10738SOL     OW33112   2.555   6.828   1.456
10738SOL    HW133113   2.487   6.763   1.422
10738SOL    HW233114   2.624   6.778   1.509
10739SOL     OW33115   4.931   3.006   4.298
10739SOL    HW133116   4.875   2.986   4.217
10739SOL    HW233117   4.913   3.099   4.329
10740SOL     OW33118   2.939   0.164   6.000
10740SOL    HW133119   2.952   0.158   6.099
10740SOL    HW233120   2.917   0.258   5.974
10741SOL     OW33121   1.478   2.712   3.620
10741SOL    HW133122   1.418   2.697   3.541
10741SOL    HW233123   1.470   2.807   3.651
10742SOL     OW33124   6.581   0.386   1.851
10742SOL    HW133125   6.679   0.408   1.849
10742SOL    HW233126   6.535   0.438   1.779
10743SOL     OW33127   3.713   1.910   6.007
10743SOL    HW133128   3.625   1.862   6.006
10743SOL    HW233129   3.699   2.006   5.986
10744SOL     OW33130   2.610   2.124   1.503
10744SOL    HW133131   2.693   2.172   1.534
10744SOL    HW233132   2.548   2.111   1.581
10745SOL     OW33133   2.645   4.864   1.289
10745SOL    HW133134   2.704   4.863   1.369
10745SOL    HW233135   2.664   4.945   1.234
10746SOL     OW33136   2.418   5.292   6.284
10746SOL    HW133137   2.330   5.310   6.327
10746SOL    HW233138   2.492   5.318   6.346
10747SOL     OW33139   0.088   1.252   4.581
10747SOL    HW133140   0.138   1.201   4.650
10747SOL    HW233141   0.138   1.336   4.558
10748SOL     OW33142   2.741   6.219   2.438
10748SOL    HW133143   2.670   6.212   2.508
10748SOL    HW233144   2.830   6.229   2.481
10749SOL     OW33145   6.085   4.435   2.112
10749SOL    HW133146   6.143   4.460   2.035
10749SOL    HW233147   6.103   4.340   2.138
10750SOL     OW33148   3.855   2.140   4.456
10750SOL    HW133149   3.860   2.149   4.555
10750SOL    HW233150   3.760   2.149   4.426
10751SOL     OW33151   6.367   6.334   4.684
10751SOL    HW133152   6.391   6.241   4.657
10751SOL    HW233153   6.271   6.337   4.711
10752SOL     OW33154   6.637   6.290   6.937
10752SOL    HW133155   6.666   6.378   6.901
10752SOL    HW233156   6.567   6.304   7.007
10753SOL     OW33157   5.342   6.952   5.136
10753SOL    HW133158   5.427   6.934   5.088
10753SOL    HW233159   5.362   6.983   5.229
10754SOL     OW33160   1.023   5.370   1.815
10754SOL    HW133161   0.929   5.371   1.780
10754SOL    HW233162   1.073   5.294   1.774
10755SOL     OW33163   0.560   2.159   1.572
10755SOL    HW133164   0.575   2.215   1.653
10755SOL    HW233165   0.481   2.100   1.585
10756SOL     OW33166   0.933   0.427   0.125
10756SOL    HW133167   0.932   0.376   0.039
10756SOL    HW233168   0.879   0.378   0.193
10757SOL     OW33169   0.283   2.999   2.391
10757SOL    HW133170   0.290   2.951   2.479
10757SOL    HW233171   0.189   2.994   2.358
10758SOL     OW33172   1.003   0.598   0.347
10758SOL    HW133173   1.039   0.665   0.281
10758SOL    HW233174   1.030   0.506   0.319
10759SOL     OW33175   3.168   2.979   4.926
10759SOL    HW133176   3.129   3.070   4.911
10759SOL    HW233177   3.154   2.923   4.844
10760SOL     OW33178   0.609   4.844   0.238
10760SOL    HW133179   0.551   4.867   0.315
10760SOL    HW233180   0.690   4.903   0.238
10761SOL     OW33181   1.451   1.644   5.874
10761SOL    HW133182   1.433   1.720   5.937
10761SOL    HW233183   1.499   1.679   5.794
10762SOL     OW33184   1.878   5.890   0.274
10762SOL    HW133185   1.801   5.932   0.225
10762SOL    HW233186   1.855   5.794   0.295
10763SOL     OW33187   4.728   0.761   3.338
10763SOL    HW133188   4.632   0.783   3.322
10763SOL    HW233189   4.739   0.725   3.431
10764SOL     OW33190   4.766   5.983   4.494
10764SOL    HW133191   4.767   5.884   4.505
10764SOL    HW233192   4.687   6.010   4.440
10765SOL     OW33193   1.002   1.917   1.022
10765SOL    HW133194   0.931   1.848   1.033
10765SOL    HW233195   0.987   1.968   0.937
10766SOL     OW33196   2.816   5.302   6.576
10766SOL    HW133197   2.866   5.264   6.498
10766SOL    HW233198   2.844   5.397   6.591
10767SOL     OW33199   1.637   4.698   6.978
10767SOL    HW133200   1.655   4.780   0.008
10767SOL    HW233201   1.718   4.639   6.978
10768SOL     OW33202   5.250   6.303   0.003
10768SOL    HW133203   5.211   6.389   6.994
10768SOL    HW233204   5.177   6.236   0.017
10769SOL     OW33205   3.311   3.083   4.594
10769SOL    HW133206   3.261   3.059   4.511
10769SOL    HW233207   3.335   3.180   4.591
10770SOL     OW33208   5.443   0.113   2.919
10770SOL    HW133209   5.485   0.027   2.946
10770SOL    HW233210   5.344   0.104   2.922
10771SOL     OW33211   4.732   6.030   5.629
10771SOL    HW133212   4.726   5.931   5.624
10771SOL    HW233213   4.681   6.071   5.553
10772SOL     OW33214   5.485   4.618   2.420
10772SOL    HW133215   5.509   4.712   2.447
10772SOL    HW233216   5.449   4.619   2.327
10773SOL     OW33217   0.806   3.537   0.234
10773SOL    HW133218   0.882   3.577   0.284
10773SOL    HW233219   0.806   3.437   0.247
10774SOL     OW33220   0.678   3.242   0.895
10774SOL    HW133221   0.771   3.220   0.866
10774SOL    HW233222   0.623   3.159   0.895
10775SOL     OW33223   2.046   3.808   0.227
10775SOL    HW133224   1.991   3.843   0.151
10775SOL    HW233225   1.995   3.817   0.313
10776SOL     OW33226   1.191   3.264   3.513
10776SOL    HW133227   1.236   3.243   3.426
10776SOL    HW233228   1.162   3.179   3.557
10777SOL     OW33229   1.623   0.125   1.058
10777SOL    HW133230   1.628   0.074   1.144
10777SOL    HW233231   1.709   0.116   1.008
10778SOL     OW33232   4.697   0.136   3.084
10778SOL    HW133233   4.673   0.209   3.019
10778SOL    HW233234   4.636   0.058   3.070
10779SOL     OW33235   5.801   2.845   6.044
10779SOL    HW133236   5.741   2.819   5.968
10779SOL    HW233237   5.751   2.905   6.107
10780SOL     OW33238   1.654   5.096   4.677
10780SOL    HW133239   1.685   5.050   4.594
10780SOL    HW233240   1.640   5.028   4.749
10781SOL     OW33241   5.402   1.866   5.592
10781SOL    HW133242   5.492   1.902   5.613
10781SOL    HW233243   5.407   1.805   5.513
10782SOL     OW33244   1.256   2.756   5.374
10782SOL    HW133245   1.158   2.757   5.357
10782SOL    HW233246   1.300   2.694   5.310
10783SOL     OW33247   1.811   3.453   3.367
10783SOL    HW133248   1.841   3.394   3.292
10783SOL    HW233249   1.711   3.464   3.363
10784SOL     OW33250   4.632   5.597   3.876
10784SOL    HW133251   4.651   5.630   3.784
10784SOL    HW233252   4.662   5.502   3.885
10785SOL     OW33253   2.108   5.398   1.957
10785SOL    HW133254   2.183   5.368   1.898
10785SOL    HW233255   2.022   5.358   1.925
10786SOL     OW33256   4.578   1.846   2.279
10786SOL    HW133257   4.572   1.781   2.204
10786SOL    HW233258   4.516   1.923   2.262
10787SOL     OW33259   3.864   2.172   3.746
10787SOL    HW133260   3.868   2.072   3.751
10787SOL    HW233261   3.923   2.204   3.672
10788SOL     OW33262   2.100   3.294   0.161
10788SOL    HW133263   2.173   3.268   0.098
10788SOL    HW233264   2.037   3.358   0.116
10789SOL     OW33265   6.780   1.346   2.155
10789SOL    HW133266   6.871   1.355   2.195
10789SOL    HW233267   6.746   1.435   2.128
10790SOL     OW33268   6.918   2.147   5.513
10790SOL    HW133269   6.966   2.145   5.425
10790SOL    HW233270   6.844   2.215   5.509
10791SOL     OW33271   1.625   2.478   3.596
10791SOL    HW133272   1.562   2.551   3.622
10791SOL    HW233273   1.714   2.517   3.574
10792SOL     OW33274   3.785   1.516   2.510
10792SOL    HW133275   3.804   1.576   2.433
10792SOL    HW233276   3.754   1.427   2.477
10793SOL     OW33277   3.556   2.014   4.697
10793SOL    HW133278   3.472   2.035   4.747
10793SOL    HW233279   3.545   1.927   4.649
10794SOL     OW33280   4.862   2.350   6.968
10794SOL    HW133281   4.894   2.443   6.951
10794SOL    HW233282   4.792   2.326   6.901
10795SOL     OW33283   6.693   3.582   3.147
10795SOL    HW133284   6.714   3.530   3.065
10795SOL    HW233285   6.767   3.647   3.166
10796SOL     OW33286   0.167   1.662   6.013
10796SOL    HW133287   0.216   1.581   6.046
10796SOL    HW233288   0.152   1.652   5.914
10797SOL     OW33289   4.869   4.392   0.123
10797SOL    HW133290   4.883   4.416   0.219
10797SOL    HW233291   4.809   4.459   0.080
10798SOL     OW33292   2.130   6.018   0.290
10798SOL    HW133293   2.097   6.096   0.237
10798SOL    HW233294   2.060   5.947   0.293
10799SOL     OW33295   3.457   0.297   2.402
10799SOL    HW133296   3.370   0.294   2.354
10799SOL    HW233297   3.495   0.205   2.408
10800SOL     OW33298   1.955   6.709   5.606
10800SOL    HW133299   1.897   6.788   5.624
10800SOL    HW233300   2.015   6.694   5.684
10801SOL     OW33301   2.629   6.490   6.649
10801SOL    HW133302   2.530   6.478   6.657
10801SOL    HW233303   2.675   6.404   6.672
10802SOL     OW33304   0.753   4.733   4.438
10802SOL    HW133305   0.848   4.725   4.408
10802SOL    HW233306   0.723   4.828   4.429
10803SOL     OW33307   6.891   4.485   4.246
10803SOL    HW133308   6.862   4.400   4.202
10803SOL    HW233309   6.986   4.505   4.221
10804SOL     OW33310   4.518   4.264   1.299
10804SOL    HW133311   4.571   4.182   1.321
10804SOL    HW233312   4.567   4.318   1.230
10805SOL     OW33313   3.921   6.002   0.917
10805SOL    HW133314   3.938   6.064   0.993
10805SOL    HW233315   3.974   5.918   0.929
10806SOL     OW33316   5.648   3.581   6.326
10806SOL    HW133317   5.606   3.672   6.325
10806SOL    HW233318   5.728   3.580   6.267
10807SOL     OW33319   4.546   2.217   4.240
10807SOL    HW133320   4.545   2.119   4.260
10807SOL    HW233321   4.472   2.262   4.291
10808SOL     OW33322   0.690   1.769   6.947
10808SOL    HW133323   0.710   1.859   6.987
10808SOL    HW233324   0.706   1.772   6.849
10809SOL     OW33325   2.200   1.079   2.289
10809SOL    HW133326   2.114   1.041   2.322
10809SOL    HW233327   2.229   1.153   2.350
10810SOL     OW33328   1.970   1.091   6.491
10810SOL    HW133329   2.045   1.123   6.432
10810SOL    HW233330   1.884   1.132   6.460
10811SOL     OW33331   4.533   5.504   6.419
10811SOL    HW133332   4.610   5.453   6.458
10811SOL    HW233333   4.447   5.456   6.439
10812SOL     OW33334   6.622   2.421   2.326
10812SOL    HW133335   6.711   2.378   2.312
10812SOL    HW233336   6.569   2.366   2.391
10813SOL     OW33337   3.552   5.944   2.459
10813SOL    HW133338   3.642   5.971   2.424
10813SOL    HW233339   3.563   5.905   2.550
10814SOL     OW33340   2.026   6.227   4.372
10814SOL    HW133341   1.957   6.298   4.381
10814SOL    HW233342   2.108   6.265   4.329
10815SOL     OW33343   4.634   1.691   4.663
10815SOL    HW133344   4.713   1.737   4.621
10815SOL    HW233345   4.581   1.643   4.593
10816SOL     OW33346   2.401   2.415   1.457
10816SOL    HW133347   2.370   2.472   1.380
10816SOL    HW233348   2.497   2.436   1.477
10817SOL     OW33349   3.970   1.231   1.707
10817SOL    HW133350   3.934   1.149   1.751
10817SOL    HW233351   4.051   1.262   1.755
10818SOL     OW33352   4.336   3.289   6.808
10818SOL    HW133353   4.314   3.305   6.904
10818SOL    HW233354   4.434   3.302   6.794
10819SOL     OW33355   1.181   3.694   5.409
10819SOL    HW133356   1.226   3.610   5.380
10819SOL    HW233357   1.131   3.677   5.494
10820SOL     OW33358   0.432   6.706   4.622
10820SOL    HW133359   0.521   6.726   4.581
10820SOL    HW233360   0.439   6.710   4.722
10821SOL     OW33361   0.462   0.715   0.103
10821SOL    HW133362   0.545   0.762   0.073
10821SOL    HW233363   0.413   0.680   0.024
10822SOL     OW33364   0.628   4.324   6.620
10822SOL    HW133365   0.541   4.276   6.619
10822SOL    HW233366   0.612   4.422   6.635
10823SOL     OW33367   2.036   2.626   1.352
10823SOL    HW133368   2.044   2.606   1.449
10823SOL    HW233369   1.945   2.661   1.332
10824SOL     OW33370   5.048   1.136   3.568
10824SOL    HW133371   5.113   1.203   3.532
10824SOL    HW233372   5.031   1.067   3.498
10825SOL     OW33373   3.221   1.035   2.617
10825SOL    HW133374   3.305   1.086   2.598
10825SOL    HW233375   3.175   1.073   2.697
10826SOL     OW33376   0.041   3.185   1.340
10826SOL    HW133377   0.122   3.175   1.397
10826SOL    HW233378   6.994   3.119   1.369
10827SOL     OW33379   0.617   2.930   4.008
10827SOL    HW133380   0.644   2.878   4.089
10827SOL    HW233381   0.664   2.895   3.928
10828SOL     OW33382   2.598   5.302   0.170
10828SOL    HW133383   2.538   5.233   0.211
10828SOL    HW233384   2.693   5.276   0.186
10829SOL     OW33385   1.988   3.887   1.620
10829SOL    HW133386   2.013   3.847   1.708
10829SOL    HW233387   2.064   3.942   1.585
10830SOL     OW33388   5.876   0.990   3.679
10830SOL    HW133389   5.914   0.939   3.602
10830SOL    HW233390   5.827   1.070   3.644
10831SOL     OW33391   5.597   2.972   2.195
10831SOL    HW133392   5.598   3.055   2.139
10831SOL    HW233393   5.522   2.913   2.164
10832SOL     OW33394   0.764   3.806   2.753
10832SOL    HW133395   0.857   3.795   2.790
10832SOL    HW233396   0.753   3.898   2.718
10833SOL     OW33397   2.922   6.775   4.042
10833SOL    HW133398   2.822   6.775   4.047
10833SOL    HW233399   2.950   6.742   3.952
10834SOL     OW33400   6.853   1.234   5.869
10834SOL    HW133401   6.878   1.328   5.889
10834SOL    HW233402   6.880   1.175   5.946
10835SOL     OW33403   0.386   2.180   0.940
10835SOL    HW133404   0.462   2.139   0.991
10835SOL    HW233405   0.380   2.136   0.850
10836SOL     OW33406   1.085   2.685   0.986
10836SOL    HW133407   1.172   2.734   0.986
10836SOL    HW233408   1.010   2.749   1.002
10837SOL     OW33409   1.101   5.667   1.342
10837SOL    HW133410   1.073   5.585   1.291
10837SOL    HW233411   1.201   5.674   1.339
10838SOL     OW33412   6.435   6.264   0.561
10838SOL    HW133413   6.510   6.198   0.564
10838SOL    HW233414   6.430   6.312   0.649
10839SOL     OW33415   1.448   1.658   7.017
10839SOL    HW133416   1.366   1.608   0.019
10839SOL    HW233417   1.423   1.737   6.960
10840SOL     OW33418   2.597   6.950   2.714
10840SOL    HW133419   2.630   0.022   2.717
10840SOL    HW233420   2.673   6.890   2.689
10841SOL     OW33421   4.662   3.362   0.440
10841SOL    HW133422   4.746   3.329   0.484
10841SOL    HW233423   4.603   3.404   0.509
10842SOL     OW33424   5.983   2.618   1.573
10842SOL    HW133425   6.038   2.700   1.560
10842SOL    HW233426   6.043   2.538   1.575
10843SOL     OW33427   0.495   1.521   1.509
10843SOL    HW133428   0.443   1.451   1.557
10843SOL    HW233429   0.584   1.532   1.553
10844SOL     OW33430   4.489   0.358   3.214
10844SOL    HW133431   4.499   0.408   3.300
10844SOL    HW233432   4.580   0.340   3.175
10845SOL     OW33433   2.135   3.204   1.013
10845SOL    HW133434   2.214   3.187   0.954
10845SOL    HW233435   2.063   3.138   0.991
10846SOL     OW33436   3.253   2.179   1.398
10846SOL    HW133437   3.202   2.093   1.394
10846SOL    HW233438   3.317   2.176   1.475
10847SOL     OW33439   4.941   2.238   5.183
10847SOL    HW133440   4.852   2.267   5.218
10847SOL    HW233441   5.013   2.290   5.227
10848SOL     OW33442   1.278   0.925   6.482
10848SOL    HW133443   1.345   0.941   6.409
10848SOL    HW233444   1.326   0.915   6.569
10849SOL     OW33445   1.535   4.820   3.908
10849SOL    HW133446   1.564   4.811   4.003
10849SOL    HW233447   1.616   4.830   3.850
10850SOL     OW33448   5.442   0.559   2.038
10850SOL    HW133449   5.352   0.543   1.998
10850SOL    HW233450   5.487   0.471   2.055
10851SOL     OW33451   4.163   2.211   0.189
10851SOL    HW133452   4.231   2.263   0.137
10851SOL    HW233453   4.101   2.165   0.126
10852SOL     OW33454   6.413   0.363   6.144
10852SOL    HW133455   6.433   0.460   6.162
10852SOL    HW233456   6.380   0.353   6.050
10853SOL     OW33457   2.591   0.790   4.428
10853SOL    HW133458   2.646   0.870   4.406
10853SOL    HW233459   2.649   0.708   4.426
10854SOL     OW33460   6.921   0.791   1.279
10854SOL    HW133461   6.839   0.781   1.222
10854SOL    HW233462   6.907   0.745   1.367
10855SOL     OW33463   6.926   5.839   1.085
10855SOL    HW133464   7.022   5.818   1.106
10855SOL    HW233465   6.873   5.840   1.169
10856SOL     OW33466   5.379   6.971   6.493
10856SOL    HW133467   5.440   7.016   6.427
10856SOL    HW233468   5.346   0.017   6.559
10857SOL     OW33469   6.298   0.275   4.792
10857SOL    HW133470   6.310   0.180   4.763
10857SOL    HW233471   6.387   0.319   4.802
10858SOL     OW33472   2.055   2.023   0.143
10858SOL    HW133473   2.140   2.054   0.101
10858SOL    HW233474   2.037   1.928   0.116
10859SOL     OW33475   1.397   5.142   2.590
10859SOL    HW133476   1.425   5.067   2.530
10859SOL    HW233477   1.475   5.168   2.647
10860SOL     OW33478   5.710   2.210   1.562
10860SOL    HW133479   5.756   2.148   1.626
10860SOL    HW233480   5.692   2.297   1.607
10861SOL     OW33481   1.640   4.190   1.921
10861SOL    HW133482   1.560   4.223   1.971
10861SOL    HW233483   1.611   4.123   1.853
10862SOL     OW33484   3.731   4.054   5.174
10862SOL    HW133485   3.702   4.005   5.256
10862SOL    HW233486   3.831   4.060   5.173
10863SOL     OW33487   2.007   6.934   3.525
10863SOL    HW133488   2.038   6.839   3.529
10863SOL    HW233489   2.083   6.994   3.549
10864SOL     OW33490   2.867   3.449   1.817
10864SOL    HW133491   2.856   3.353   1.792
10864SOL    HW233492   2.956   3.462   1.862
10865SOL     OW33493   3.381   1.613   2.822
10865SOL    HW133494   3.445   1.687   2.802
10865SOL    HW233495   3.411   1.530   2.775
10866SOL     OW33496   1.066   3.572   4.323
10866SOL    HW133497   1.144   3.559   4.384
10866SOL    HW233498   1.061   3.497   4.258
10867SOL     OW33499   4.425   3.464   0.081
10867SOL    HW133500   4.368   3.387   0.051
10867SOL    HW233501   4.521   3.444   0.063
10868SOL     OW33502   1.222   6.401   4.953
10868SOL    HW133503   1.239   6.337   5.027
10868SOL    HW233504   1.308   6.446   4.927
10869NA      NA33505   0.154   1.089   6.332
10870NA      NA33506   4.761   4.727   5.319
10871NA      NA33507   0.862   4.858   2.700
10872NA      NA33508   5.961   3.571   3.214
10873NA      NA33509   3.864   2.785   5.462
10874NA      NA33510   2.321   4.439   6.765
10875NA      NA33511   1.664   5.350   6.949
10876NA      NA33512   4.198   4.954   1.900
10877NA      NA33513   5.118   4.309   0.859
10878NA      NA33514   3.637   1.488   0.829
10879NA      NA33515   5.635   6.917   1.340
10880NA      NA33516   2.347   6.699   5.346
10881NA      NA33517   4.375   4.929   2.999
10882NA      NA33518   4.153   4.144   6.646
   7.02251   7.02251   7.02251
