Generated by trjconv : CNT in water t= 150.00000
33518
    1C        C    1   2.845   2.772   4.750
    1C        C    2   2.901   2.722   4.870
    1C        C    3   2.843   2.773   4.987
    1C        C    4   2.854   2.775   4.262
    1C        C    5   2.904   2.730   4.386
    1C        C    6   2.847   2.774   4.508
    1C        C    7   3.014   2.642   4.629
    1C        C    8   2.899   2.724   4.629
    1C        C    9   3.080   2.606   4.749
    1C        C   10   3.013   2.636   4.869
    1C        C   11   3.183   2.494   4.980
    1C        C   12   3.060   2.561   4.978
    1C        C   13   2.857   2.775   3.775
    1C        C   14   2.904   2.722   3.898
    1C        C   15   2.852   2.773   4.019
    1C        C   16   3.021   2.643   4.142
    1C        C   17   2.905   2.725   4.140
    1C        C   18   3.082   2.613   4.265
    1C        C   19   3.020   2.649   4.387
    1C        C   20   3.210   2.556   4.505
    1C        C   21   3.078   2.608   4.508
    1C        C   22   3.280   2.538   4.627
    1C        C   23   3.213   2.555   4.750
    1C        C   24   3.413   2.481   4.870
    1C        C   25   3.272   2.503   4.868
    1C        C   26   3.491   2.467   4.986
    1C        C   27   2.857   2.773   3.285
    1C        C   28   2.910   2.729   3.408
    1C        C   29   2.860   2.778   3.531
    1C        C   30   3.025   2.645   3.652
    1C        C   31   2.911   2.728   3.653
    1C        C   32   3.084   2.611   3.776
    1C        C   33   3.021   2.643   3.898
    1C        C   34   3.212   2.550   4.018
    1C        C   35   3.083   2.607   4.020
    1C        C   36   3.281   2.535   4.140
    1C        C   37   3.213   2.560   4.262
    1C        C   38   3.417   2.507   4.387
    1C        C   39   3.278   2.532   4.384
    1C        C   40   3.487   2.500   4.509
    1C        C   41   3.418   2.507   4.632
    1C        C   42   3.633   2.489   4.749
    1C        C   43   3.490   2.486   4.751
    1C        C   44   3.708   2.489   4.868
    1C        C   45   3.629   2.482   4.984
    1C        C   46   2.841   2.755   2.797
    1C        C   47   2.902   2.719   2.919
    1C        C   48   2.854   2.770   3.042
    1C        C   49   3.024   2.641   3.164
    1C        C   50   2.909   2.723   3.164
    1C        C   51   3.084   2.604   3.287
    1C        C   52   3.023   2.644   3.408
    1C        C   53   3.211   2.545   3.530
    1C        C   54   3.083   2.606   3.530
    1C        C   55   3.280   2.528   3.652
    1C        C   56   3.215   2.557   3.774
    1C        C   57   3.420   2.508   3.898
    1C        C   58   3.281   2.531   3.896
    1C        C   59   3.491   2.503   4.020
    1C        C   60   3.420   2.510   4.142
    1C        C   61   3.630   2.501   4.266
    1C        C   62   3.489   2.501   4.266
    1C        C   63   3.702   2.507   4.388
    1C        C   64   3.629   2.500   4.508
    1C        C   65   3.837   2.550   4.627
    1C        C   66   3.703   2.507   4.628
    1C        C   67   3.907   2.567   4.748
    1C        C   68   3.843   2.531   4.868
    1C        C   69   4.051   2.595   4.986
    1C        C   70   3.923   2.540   4.983
    1C        C   71   2.831   2.735   2.309
    1C        C   72   2.884   2.691   2.432
    1C        C   73   2.836   2.746   2.553
    1C        C   74   3.009   2.623   2.677
    1C        C   75   2.894   2.706   2.676
    1C        C   76   3.074   2.594   2.798
    1C        C   77   3.014   2.633   2.920
    1C        C   78   3.212   2.551   3.039
    1C        C   79   3.081   2.603   3.041
    1C        C   80   3.279   2.531   3.162
    1C        C   81   3.213   2.548   3.286
    1C        C   82   3.418   2.496   3.407
    1C        C   83   3.279   2.520   3.409
    1C        C   84   3.488   2.492   3.529
    1C        C   85   3.418   2.498   3.651
    1C        C   86   3.628   2.498   3.776
    1C        C   87   3.487   2.496   3.775
    1C        C   88   3.701   2.512   3.896
    1C        C   89   3.633   2.506   4.020
    1C        C   90   3.835   2.552   4.142
    1C        C   91   3.700   2.513   4.144
    1C        C   92   3.905   2.575   4.263
    1C        C   93   3.837   2.548   4.384
    1C        C   94   4.026   2.648   4.505
    1C        C   95   3.905   2.574   4.505
    1C        C   96   4.090   2.680   4.626
    1C        C   97   4.034   2.632   4.747
    1C        C   98   4.190   2.774   4.867
    1C        C   99   4.099   2.663   4.870
    1C        C  100   4.220   2.847   4.982
    1C        C  101   2.821   2.731   2.074
    1C        C  102   2.998   2.596   2.192
    1C        C  103   2.888   2.688   2.188
    1C        C  104   3.065   2.572   2.316
    1C        C  105   3.005   2.617   2.435
    1C        C  106   3.205   2.539   2.552
    1C        C  107   3.073   2.588   2.556
    1C        C  108   3.273   2.518   2.674
    1C        C  109   3.206   2.543   2.796
    1C        C  110   3.417   2.503   2.919
    1C        C  111   3.277   2.524   2.917
    1C        C  112   3.488   2.494   3.041
    1C        C  113   3.416   2.500   3.163
    1C        C  114   3.630   2.494   3.284
    1C        C  115   3.488   2.491   3.284
    1C        C  116   3.698   2.510   3.407
    1C        C  117   3.629   2.500   3.530
    1C        C  118   3.836   2.540   3.652
    1C        C  119   3.699   2.503   3.653
    1C        C  120   3.903   2.574   3.772
    1C        C  121   3.837   2.550   3.895
    1C        C  122   4.023   2.644   4.015
    1C        C  123   3.899   2.576   4.019
    1C        C  124   4.084   2.684   4.137
    1C        C  125   4.028   2.644   4.260
    1C        C  126   4.194   2.777   4.380
    1C        C  127   4.086   2.685   4.383
    1C        C  128   4.241   2.829   4.502
    1C        C  129   4.191   2.778   4.624
    1C        C  130   4.331   2.938   4.742
    1C        C  131   4.245   2.825   4.746
    1C        C  132   4.360   3.008   4.861
    1C        C  133   4.282   2.971   4.972
    1C        C  134   3.170   2.467   2.085
    1C        C  135   3.038   2.512   2.083
    1C        C  136   3.260   2.479   2.192
    1C        C  137   3.195   2.515   2.313
    1C        C  138   3.409   2.482   2.429
    1C        C  139   3.270   2.503   2.432
    1C        C  140   3.482   2.480   2.551
    1C        C  141   3.413   2.496   2.673
    1C        C  142   3.625   2.495   2.795
    1C        C  143   3.484   2.496   2.795
    1C        C  144   3.698   2.502   2.915
    1C        C  145   3.629   2.500   3.038
    1C        C  146   3.835   2.540   3.161
    1C        C  147   3.699   2.502   3.161
    1C        C  148   3.901   2.566   3.283
    1C        C  149   3.835   2.543   3.406
    1C        C  150   4.027   2.628   3.527
    1C        C  151   3.902   2.563   3.529
    1C        C  152   4.084   2.675   3.647
    1C        C  153   4.026   2.643   3.772
    1C        C  154   4.194   2.772   3.891
    1C        C  155   4.084   2.685   3.894
    1C        C  156   4.249   2.819   4.013
    1C        C  157   4.194   2.772   4.134
    1C        C  158   4.337   2.929   4.255
    1C        C  159   4.244   2.823   4.256
    1C        C  160   4.374   2.991   4.377
    1C        C  161   4.331   2.938   4.500
    1C        C  162   4.442   3.121   4.618
    1C        C  163   4.376   2.997   4.621
    1C        C  164   4.470   3.189   4.739
    1C        C  165   4.441   3.123   4.860
    1C        C  166   4.530   3.322   4.973
    1C        C  167   4.480   3.192   4.976
    1C        C  168   3.479   2.442   2.077
    1C        C  169   3.400   2.458   2.192
    1C        C  170   3.621   2.465   2.311
    1C        C  171   3.479   2.460   2.309
    1C        C  172   3.693   2.491   2.430
    1C        C  173   3.623   2.492   2.552
    1C        C  174   3.833   2.535   2.673
    1C        C  175   3.696   2.500   2.673
    1C        C  176   3.901   2.560   2.794
    1C        C  177   3.835   2.535   2.917
    1C        C  178   4.026   2.628   3.036
    1C        C  179   3.902   2.560   3.039
    1C        C  180   4.088   2.666   3.158
    1C        C  181   4.029   2.627   3.280
    1C        C  182   4.189   2.760   3.402
    1C        C  183   4.086   2.663   3.404
    1C        C  184   4.239   2.815   3.522
    1C        C  185   4.193   2.765   3.646
    1C        C  186   4.335   2.926   3.767
    1C        C  187   4.245   2.817   3.767
    1C        C  188   4.375   2.986   3.889
    1C        C  189   4.339   2.928   4.012
    1C        C  190   4.445   3.113   4.130
    1C        C  191   4.379   2.988   4.134
    1C        C  192   4.471   3.176   4.253
    1C        C  193   4.440   3.116   4.377
    1C        C  194   4.516   3.320   4.494
    1C        C  195   4.471   3.186   4.496
    1C        C  196   4.534   3.392   4.614
    1C        C  197   4.517   3.323   4.736
    1C        C  198   4.562   3.538   4.854
    1C        C  199   4.544   3.396   4.855
    1C        C  200   4.580   3.624   4.967
    1C        C  201   3.618   2.424   2.079
    1C        C  202   3.832   2.512   2.184
    1C        C  203   3.697   2.463   2.191
    1C        C  204   3.899   2.542   2.306
    1C        C  205   3.831   2.523   2.428
    1C        C  206   4.020   2.624   2.546
    1C        C  207   3.897   2.556   2.549
    1C        C  208   4.084   2.659   2.667
    1C        C  209   4.026   2.626   2.791
    1C        C  210   4.198   2.750   2.911
    1C        C  211   4.084   2.667   2.913
    1C        C  212   4.249   2.798   3.033
    1C        C  213   4.198   2.754   3.157
    1C        C  214   4.328   2.920   3.279
    1C        C  215   4.241   2.809   3.280
    1C        C  216   4.367   2.983   3.399
    1C        C  217   4.326   2.927   3.522
    1C        C  218   4.441   3.106   3.642
    1C        C  219   4.373   2.982   3.643
    1C        C  220   4.464   3.175   3.762
    1C        C  221   4.441   3.110   3.886
    1C        C  222   4.514   3.311   4.008
    1C        C  223   4.475   3.175   4.007
    1C        C  224   4.527   3.382   4.129
    1C        C  225   4.514   3.311   4.250
    1C        C  226   4.530   3.526   4.371
    1C        C  227   4.525   3.385   4.369
    1C        C  228   4.528   3.602   4.490
    1C        C  229   4.537   3.533   4.613
    1C        C  230   4.511   3.748   4.733
    1C        C  231   4.546   3.610   4.732
    1C        C  232   4.502   3.828   4.849
    1C        C  233   4.546   3.760   4.964
    1C        C  234   4.019   2.616   2.067
    1C        C  235   3.900   2.544   2.066
    1C        C  236   4.086   2.654   2.184
    1C        C  237   4.023   2.612   2.303
    1C        C  238   4.199   2.738   2.424
    1C        C  239   4.083   2.656   2.423
    1C        C  240   4.252   2.788   2.545
    1C        C  241   4.193   2.749   2.666
    1C        C  242   4.333   2.910   2.787
    1C        C  243   4.248   2.798   2.787
    1C        C  244   4.372   2.968   2.910
    1C        C  245   4.335   2.911   3.034
    1C        C  246   4.437   3.099   3.151
    1C        C  247   4.368   2.975   3.155
    1C        C  248   4.459   3.167   3.273
    1C        C  249   4.433   3.108   3.399
    1C        C  250   4.500   3.310   3.518
    1C        C  251   4.466   3.173   3.520
    1C        C  252   4.514   3.380   3.640
    1C        C  253   4.502   3.311   3.763
    1C        C  254   4.530   3.522   3.882
    1C        C  255   4.521   3.381   3.885
    1C        C  256   4.524   3.593   4.004
    1C        C  257   4.526   3.524   4.127
    1C        C  258   4.500   3.735   4.246
    1C        C  259   4.528   3.597   4.248
    1C        C  260   4.482   3.807   4.366
    1C        C  261   4.497   3.740   4.490
    1C        C  262   4.428   3.942   4.608
    1C        C  263   4.481   3.811   4.611
    1C        C  264   4.403   4.015   4.726
    1C        C  265   4.440   3.954   4.848
    1C        C  266   4.317   4.134   4.962
    1C        C  267   4.399   4.022   4.964
    1C        C  268   4.268   2.776   2.067
    1C        C  269   4.200   2.737   2.183
    1C        C  270   4.351   2.891   2.302
    1C        C  271   4.253   2.788   2.303
    1C        C  272   4.390   2.953   2.423
    1C        C  273   4.345   2.895   2.543
    1C        C  274   4.443   3.087   2.663
    1C        C  275   4.379   2.962   2.664
    1C        C  276   4.471   3.154   2.785
    1C        C  277   4.442   3.091   2.908
    1C        C  278   4.505   3.296   3.027
    1C        C  279   4.471   3.159   3.028
    1C        C  280   4.514   3.368   3.149
    1C        C  281   4.499   3.302   3.273
    1C        C  282   4.524   3.516   3.394
    1C        C  283   4.511   3.375   3.394
    1C        C  284   4.527   3.589   3.515
    1C        C  285   4.523   3.521   3.638
    1C        C  286   4.501   3.732   3.757
    1C        C  287   4.526   3.593   3.760
    1C        C  288   4.482   3.799   3.880
    1C        C  289   4.500   3.732   4.003
    1C        C  290   4.438   3.937   4.120
    1C        C  291   4.486   3.804   4.124
    1C        C  292   4.405   4.002   4.242
    1C        C  293   4.430   3.938   4.365
    1C        C  294   4.331   4.129   4.482
    1C        C  295   4.402   4.007   4.486
    1C        C  296   4.289   4.193   4.601
    1C        C  297   4.334   4.140   4.724
    1C        C  298   4.201   4.315   4.840
    1C        C  299   4.290   4.203   4.844
    1C        C  300   4.170   4.403   4.949
    1C        C  301   4.355   2.884   2.063
    1C        C  302   4.464   3.075   2.180
    1C        C  303   4.398   2.948   2.180
    1C        C  304   4.488   3.146   2.301
    1C        C  305   4.455   3.078   2.420
    1C        C  306   4.509   3.287   2.541
    1C        C  307   4.473   3.150   2.540
    1C        C  308   4.518   3.360   2.661
    1C        C  309   4.507   3.290   2.783
    1C        C  310   4.527   3.504   2.902
    1C        C  311   4.519   3.363   2.904
    1C        C  312   4.521   3.575   3.024
    1C        C  313   4.521   3.509   3.149
    1C        C  314   4.502   3.722   3.266
    1C        C  315   4.522   3.582   3.269
    1C        C  316   4.483   3.792   3.387
    1C        C  317   4.497   3.727   3.511
    1C        C  318   4.435   3.930   3.630
    1C        C  319   4.482   3.797   3.633
    1C        C  320   4.403   3.993   3.752
    1C        C  321   4.433   3.931   3.876
    1C        C  322   4.322   4.113   3.994
    1C        C  323   4.400   3.995   3.997
    1C        C  324   4.284   4.172   4.116
    1C        C  325   4.333   4.123   4.240
    1C        C  326   4.185   4.280   4.355
    1C        C  327   4.287   4.183   4.359
    1C        C  328   4.135   4.336   4.475
    1C        C  329   4.190   4.293   4.598
    1C        C  330   4.028   4.439   4.714
    1C        C  331   4.140   4.351   4.717
    1C        C  332   3.973   4.491   4.833
    1C        C  333   4.056   4.484   4.946
    1C        C  334   4.559   3.269   2.064
    1C        C  335   4.532   3.131   2.068
    1C        C  336   4.544   3.352   2.176
    1C        C  337   4.520   3.285   2.297
    1C        C  338   4.526   3.498   2.415
    1C        C  339   4.522   3.357   2.418
    1C        C  340   4.529   3.572   2.535
    1C        C  341   4.529   3.501   2.658
    1C        C  342   4.497   3.712   2.776
    1C        C  343   4.523   3.573   2.779
    1C        C  344   4.481   3.784   2.896
    1C        C  345   4.497   3.714   3.018
    1C        C  346   4.432   3.916   3.140
    1C        C  347   4.483   3.784   3.140
    1C        C  348   4.400   3.984   3.260
    1C        C  349   4.429   3.923   3.384
    1C        C  350   4.327   4.109   3.505
    1C        C  351   4.402   3.990   3.506
    1C        C  352   4.281   4.166   3.626
    1C        C  353   4.325   4.111   3.749
    1C        C  354   4.178   4.264   3.868
    1C        C  355   4.280   4.167   3.870
    1C        C  356   4.128   4.317   3.990
    1C        C  357   4.181   4.269   4.111
    1C        C  358   4.014   4.403   4.233
    1C        C  359   4.128   4.320   4.232
    1C        C  360   3.952   4.445   4.353
    1C        C  361   4.020   4.418   4.474
    1C        C  362   3.829   4.518   4.596
    1C        C  363   3.959   4.464   4.593
    1C        C  364   3.765   4.553   4.717
    1C        C  365   3.844   4.548   4.834
    1C        C  366   3.630   4.594   4.952
    1C        C  367   3.767   4.574   4.949
    1C        C  368   4.516   3.566   2.055
    1C        C  369   4.532   3.493   2.173
    1C        C  370   4.505   3.708   2.292
    1C        C  371   4.525   3.568   2.292
    1C        C  372   4.489   3.781   2.412
    1C        C  373   4.510   3.712   2.534
    1C        C  374   4.428   3.910   2.652
    1C        C  375   4.489   3.783   2.654
    1C        C  376   4.393   3.975   2.772
    1C        C  377   4.431   3.917   2.895
    1C        C  378   4.324   4.097   3.015
    1C        C  379   4.404   3.981   3.018
    1C        C  380   4.276   4.152   3.136
    1C        C  381   4.321   4.101   3.260
    1C        C  382   4.179   4.258   3.379
    1C        C  383   4.280   4.158   3.382
    1C        C  384   4.123   4.304   3.500
    1C        C  385   4.177   4.262   3.624
    1C        C  386   4.009   4.392   3.744
    1C        C  387   4.121   4.306   3.746
    1C        C  388   3.948   4.430   3.866
    1C        C  389   4.013   4.398   3.988
    1C        C  390   3.823   4.493   4.109
    1C        C  391   3.953   4.436   4.110
    1C        C  392   3.755   4.517   4.230
    1C        C  393   3.823   4.501   4.352
    1C        C  394   3.620   4.557   4.474
    1C        C  395   3.759   4.532   4.475
    1C        C  396   3.550   4.568   4.596
    1C        C  397   3.625   4.573   4.716
    1C        C  398   3.413   4.557   4.838
    1C        C  399   3.552   4.578   4.837
    1C        C  400   3.346   4.516   4.955
    1C        C  401   4.509   3.705   2.054
    1C        C  402   4.457   3.916   2.170
    1C        C  403   4.497   3.780   2.172
    1C        C  404   4.416   3.979   2.289
    1C        C  405   4.443   3.914   2.412
    1C        C  406   4.332   4.100   2.529
    1C        C  407   4.408   3.981   2.531
    1C        C  408   4.283   4.156   2.649
    1C        C  409   4.322   4.097   2.771
    1C        C  410   4.173   4.249   2.892
    1C        C  411   4.277   4.153   2.893
    1C        C  412   4.123   4.296   3.015
    1C        C  413   4.175   4.251   3.138
    1C        C  414   4.004   4.381   3.257
    1C        C  415   4.121   4.302   3.258
    1C        C  416   3.945   4.421   3.379
    1C        C  417   4.007   4.384   3.501
    1C        C  418   3.814   4.475   3.621
    1C        C  419   3.945   4.422   3.622
    1C        C  420   3.750   4.504   3.744
    1C        C  421   3.819   4.487   3.866
    1C        C  422   3.614   4.536   3.987
    1C        C  423   3.753   4.513   3.988
    1C        C  424   3.544   4.543   4.110
    1C        C  425   3.616   4.544   4.231
    1C        C  426   3.405   4.553   4.356
    1C        C  427   3.546   4.559   4.353
    1C        C  428   3.335   4.550   4.478
    1C        C  429   3.409   4.562   4.598
    1C        C  430   3.199   4.518   4.724
    1C        C  431   3.338   4.548   4.719
    1C        C  432   3.130   4.492   4.845
    1C        C  433   3.209   4.495   4.961
    1C        C  434   4.385   4.123   2.053
    1C        C  435   4.454   4.001   2.058
    1C        C  436   4.302   4.159   2.164
    1C        C  437   4.337   4.097   2.287
    1C        C  438   4.184   4.250   2.404
    1C        C  439   4.289   4.156   2.406
    1C        C  440   4.127   4.297   2.525
    1C        C  441   4.181   4.254   2.648
    1C        C  442   4.009   4.380   2.769
    1C        C  443   4.123   4.297   2.769
    1C        C  444   3.946   4.414   2.891
    1C        C  445   4.006   4.376   3.014
    1C        C  446   3.816   4.477   3.134
    1C        C  447   3.944   4.416   3.134
    1C        C  448   3.748   4.497   3.255
    1C        C  449   3.816   4.478   3.378
    1C        C  450   3.610   4.532   3.498
    1C        C  451   3.748   4.503   3.499
    1C        C  452   3.542   4.546   3.621
    1C        C  453   3.612   4.535   3.743
    1C        C  454   3.402   4.553   3.866
    1C        C  455   3.543   4.548   3.866
    1C        C  456   3.333   4.544   3.989
    1C        C  457   3.402   4.539   4.112
    1C        C  458   3.197   4.502   4.240
    1C        C  459   3.334   4.539   4.235
    1C        C  460   3.131   4.484   4.363
    1C        C  461   3.200   4.510   4.484
    1C        C  462   2.996   4.442   4.605
    1C        C  463   3.127   4.493   4.604
    1C        C  464   2.932   4.404   4.725
    1C        C  465   2.996   4.442   4.847
    1C        C  466   2.805   4.343   4.964
    1C        C  467   2.909   4.436   4.960
    1C        C  468   4.128   4.294   2.045
    1C        C  469   4.191   4.249   2.162
    1C        C  470   4.012   4.375   2.284
    1C        C  471   4.131   4.297   2.282
    1C        C  472   3.946   4.410   2.404
    1C        C  473   4.012   4.379   2.525
    1C        C  474   3.818   4.467   2.646
    1C        C  475   3.950   4.417   2.646
    1C        C  476   3.747   4.488   2.767
    1C        C  477   3.815   4.466   2.888
    1C        C  478   3.612   4.524   3.011
    1C        C  479   3.749   4.492   3.010
    1C        C  480   3.539   4.538   3.132
    1C        C  481   3.611   4.531   3.253
    1C        C  482   3.399   4.542   3.378
    1C        C  483   3.541   4.544   3.375
    1C        C  484   3.329   4.538   3.501
    1C        C  485   3.400   4.551   3.622
    1C        C  486   3.193   4.511   3.748
    1C        C  487   3.331   4.542   3.744
    1C        C  488   3.131   4.483   3.872
    1C        C  489   3.198   4.502   3.995
    1C        C  490   3.004   4.418   4.119
    1C        C  491   3.131   4.481   4.117
    1C        C  492   2.945   4.384   4.242
    1C        C  493   3.003   4.424   4.364
    1C        C  494   2.834   4.297   4.485
    1C        C  495   2.940   4.390   4.486
    1C        C  496   2.779   4.255   4.609
    1C        C  497   2.824   4.312   4.730
    1C        C  498   2.667   4.169   4.845
    1C        C  499   2.756   4.278   4.849
    1C        C  500   2.603   4.118   4.960
    1C        C  501   4.008   4.363   2.043
    1C        C  502   3.823   4.470   2.158
    1C        C  503   3.949   4.406   2.162
    1C        C  504   3.753   4.488   2.279
    1C        C  505   3.814   4.460   2.403
    1C        C  506   3.610   4.512   2.524
    1C        C  507   3.750   4.490   2.525
    1C        C  508   3.537   4.526   2.644
    1C        C  509   3.608   4.518   2.766
    1C        C  510   3.399   4.527   2.890
    1C        C  511   3.540   4.527   2.889
    1C        C  512   3.327   4.521   3.011
    1C        C  513   3.398   4.532   3.133
    1C        C  514   3.192   4.495   3.259
    1C        C  515   3.329   4.531   3.256
    1C        C  516   3.127   4.471   3.382
    1C        C  517   3.193   4.502   3.503
    1C        C  518   3.003   4.414   3.629
    1C        C  519   3.127   4.482   3.627
    1C        C  520   2.944   4.377   3.752
    1C        C  521   3.006   4.416   3.873
    1C        C  522   2.844   4.282   4.001
    1C        C  523   2.948   4.377   3.996
    1C        C  524   2.794   4.232   4.124
    1C        C  525   2.837   4.293   4.244
    1C        C  526   2.696   4.134   4.370
    1C        C  527   2.779   4.248   4.365
    1C        C  528   2.651   4.079   4.492
    1C        C  529   2.686   4.150   4.610
    1C        C  530   2.583   3.962   4.733
    1C        C  531   2.638   4.093   4.730
    1C        C  532   2.545   3.903   4.856
    1C        C  533   2.537   3.995   4.966
    1C        C  534   3.621   4.555   2.045
    1C        C  535   3.754   4.512   2.043
    1C        C  536   3.540   4.535   2.161
    1C        C  537   3.613   4.513   2.281
    1C        C  538   3.398   4.516   2.404
    1C        C  539   3.539   4.516   2.402
    1C        C  540   3.327   4.511   2.526
    1C        C  541   3.396   4.527   2.648
    1C        C  542   3.187   4.487   2.770
    1C        C  543   3.324   4.520   2.770
    1C        C  544   3.122   4.468   2.894
    1C        C  545   3.189   4.490   3.016
    1C        C  546   2.996   4.407   3.139
    1C        C  547   3.122   4.470   3.139
    1C        C  548   2.940   4.367   3.262
    1C        C  549   3.001   4.406   3.384
    1C        C  550   2.833   4.285   3.509
    1C        C  551   2.941   4.375   3.508
    1C        C  552   2.782   4.238   3.632
    1C        C  553   2.836   4.286   3.753
    1C        C  554   2.702   4.127   3.880
    1C        C  555   2.794   4.235   3.878
    1C        C  556   2.661   4.068   4.002
    1C        C  557   2.704   4.124   4.124
    1C        C  558   2.596   3.946   4.250
    1C        C  559   2.665   4.069   4.249
    1C        C  560   2.567   3.880   4.372
    1C        C  561   2.585   3.954   4.491
    1C        C  562   2.526   3.753   4.617
    1C        C  563   2.558   3.890   4.614
    1C        C  564   2.512   3.684   4.740
    1C        C  565   2.519   3.762   4.859
    1C        C  566   2.536   3.550   4.979
    1C        C  567   2.527   3.689   4.978
    1C        C  568   3.332   4.475   2.045
    1C        C  569   3.401   4.506   2.163
    1C        C  570   3.188   4.477   2.284
    1C        C  571   3.325   4.513   2.283
    1C        C  572   3.119   4.459   2.406
    1C        C  573   3.188   4.484   2.527
    1C        C  574   2.991   4.404   2.649
    1C        C  575   3.119   4.464   2.649
    1C        C  576   2.932   4.367   2.772
    1C        C  577   2.995   4.405   2.893
    1C        C  578   2.829   4.277   3.020
    1C        C  579   2.936   4.370   3.016
    1C        C  580   2.780   4.227   3.142
    1C        C  581   2.831   4.278   3.264
    1C        C  582   2.699   4.117   3.389
    1C        C  583   2.784   4.230   3.388
    1C        C  584   2.663   4.061   3.513
    1C        C  585   2.699   4.123   3.635
    1C        C  586   2.594   3.943   3.762
    1C        C  587   2.663   4.067   3.759
    1C        C  588   2.567   3.878   3.884
    1C        C  589   2.598   3.942   4.007
    1C        C  590   2.541   3.739   4.128
    1C        C  591   2.572   3.877   4.130
    1C        C  592   2.524   3.673   4.252
    1C        C  593   2.532   3.743   4.374
    1C        C  594   2.514   3.536   4.500
    1C        C  595   2.517   3.677   4.498
    1C        C  596   2.521   3.467   4.624
    1C        C  597   2.516   3.542   4.743
    1C        C  598   2.532   3.329   4.866
    1C        C  599   2.526   3.470   4.864
    1C        C  600   2.536   3.252   4.983
    1C        C  601   3.199   4.439   2.047
    1C        C  602   2.988   4.388   2.161
    1C        C  603   3.121   4.439   2.164
    1C        C  604   2.929   4.355   2.287
    1C        C  605   2.993   4.396   2.406
    1C        C  606   2.824   4.269   2.531
    1C        C  607   2.931   4.361   2.528
    1C        C  608   2.771   4.224   2.654
    1C        C  609   2.825   4.275   2.774
    1C        C  610   2.693   4.113   2.898
    1C        C  611   2.784   4.221   2.898
    1C        C  612   2.652   4.058   3.022
    1C        C  613   2.697   4.113   3.145
    1C        C  614   2.591   3.931   3.268
    1C        C  615   2.657   4.057   3.268
    1C        C  616   2.568   3.870   3.394
    1C        C  617   2.600   3.934   3.515
    1C        C  618   2.530   3.740   3.640
    1C        C  619   2.572   3.875   3.640
    1C        C  620   2.515   3.671   3.762
    1C        C  621   2.532   3.742   3.883
    1C        C  622   2.510   3.531   4.010
    1C        C  623   2.524   3.671   4.006
    1C        C  624   2.519   3.461   4.133
    1C        C  625   2.519   3.532   4.255
    1C        C  626   2.546   3.325   4.380
    1C        C  627   2.519   3.463   4.379
    1C        C  628   2.561   3.257   4.503
    1C        C  629   2.541   3.328   4.624
    1C        C  630   2.600   3.123   4.745
    1C        C  631   2.552   3.257   4.746
    1C        C  632   2.619   3.054   4.868
    1C        C  633   2.560   3.114   4.984
    1C        C  634   2.783   4.304   2.054
    1C        C  635   2.894   4.389   2.053
    1C        C  636   2.750   4.231   2.169
    1C        C  637   2.815   4.271   2.288
    1C        C  638   2.680   4.110   2.412
    1C        C  639   2.766   4.222   2.411
    1C        C  640   2.645   4.050   2.535
    1C        C  641   2.679   4.116   2.655
    1C        C  642   2.584   3.929   2.782
    1C        C  643   2.647   4.055   2.778
    1C        C  644   2.563   3.863   2.905
    1C        C  645   2.588   3.933   3.026
    1C        C  646   2.527   3.728   3.152
    1C        C  647   2.562   3.865   3.147
    1C        C  648   2.517   3.661   3.276
    1C        C  649   2.531   3.734   3.396
    1C        C  650   2.514   3.525   3.522
    1C        C  651   2.519   3.666   3.520
    1C        C  652   2.515   3.455   3.644
    1C        C  653   2.509   3.529   3.764
    1C        C  654   2.541   3.322   3.891
    1C        C  655   2.513   3.461   3.887
    1C        C  656   2.559   3.255   4.013
    1C        C  657   2.541   3.322   4.136
    1C        C  658   2.613   3.123   4.258
    1C        C  659   2.561   3.254   4.259
    1C        C  660   2.643   3.060   4.381
    1C        C  661   2.608   3.124   4.502
    1C        C  662   2.713   2.941   4.628
    1C        C  663   2.635   3.058   4.624
    1C        C  664   2.752   2.879   4.749
    1C        C  665   2.698   2.935   4.868
    1C        C  666   2.749   2.875   4.984
    1C        C  667   2.677   4.025   2.053
    1C        C  668   2.688   4.104   2.168
    1C        C  669   2.590   3.917   2.295
    1C        C  670   2.642   4.050   2.290
    1C        C  671   2.559   3.853   2.417
    1C        C  672   2.586   3.921   2.537
    1C        C  673   2.524   3.723   2.662
    1C        C  674   2.559   3.859   2.661
    1C        C  675   2.511   3.655   2.786
    1C        C  676   2.524   3.727   2.906
    1C        C  677   2.507   3.518   3.033
    1C        C  678   2.514   3.659   3.030
    1C        C  679   2.511   3.448   3.156
    1C        C  680   2.510   3.520   3.278
    1C        C  681   2.541   3.313   3.404
    1C        C  682   2.516   3.452   3.401
    1C        C  683   2.558   3.245   3.527
    1C        C  684   2.540   3.316   3.648
    1C        C  685   2.610   3.118   3.774
    1C        C  686   2.558   3.249   3.771
    1C        C  687   2.643   3.055   3.896
    1C        C  688   2.608   3.122   4.016
    1C        C  689   2.720   2.940   4.140
    1C        C  690   2.640   3.056   4.136
    1C        C  691   2.763   2.884   4.262
    1C        C  692   2.722   2.943   4.384
    1C        C  693   2.758   2.884   4.506
    1C        C  694   2.626   3.895   2.058
    1C        C  695   2.527   3.709   2.178
    1C        C  696   2.580   3.840   2.178
    1C        C  697   2.503   3.642   2.301
    1C        C  698   2.519   3.717   2.420
    1C        C  699   2.485   3.510   2.547
    1C        C  700   2.504   3.650   2.543
    1C        C  701   2.505   3.440   2.668
    1C        C  702   2.505   3.514   2.788
    1C        C  703   2.532   3.306   2.913
    1C        C  704   2.508   3.445   2.912
    1C        C  705   2.551   3.241   3.037
    1C        C  706   2.536   3.309   3.160
    1C        C  707   2.611   3.111   3.280
    1C        C  708   2.558   3.243   3.283
    1C        C  709   2.637   3.050   3.405
    1C        C  710   2.604   3.111   3.528
    1C        C  711   2.716   2.935   3.652
    1C        C  712   2.638   3.052   3.651
    1C        C  713   2.761   2.878   3.773
    1C        C  714   2.721   2.938   3.895
    1C        C  715   2.763   2.882   4.018
    1C        C  716   2.455   3.502   2.068
    1C        C  717   2.489   3.638   2.063
    1C        C  718   2.474   3.425   2.187
    1C        C  719   2.484   3.502   2.306
    1C        C  720   2.513   3.294   2.430
    1C        C  721   2.486   3.432   2.429
    1C        C  722   2.543   3.227   2.551
    1C        C  723   2.534   3.301   2.670
    1C        C  724   2.599   3.102   2.794
    1C        C  725   2.549   3.233   2.793
    1C        C  726   2.631   3.041   2.918
    1C        C  727   2.600   3.108   3.038
    1C        C  728   2.715   2.927   3.162
    1C        C  729   2.637   3.044   3.159
    1C        C  730   2.762   2.878   3.286
    1C        C  731   2.718   2.934   3.407
    1C        C  732   2.760   2.878   3.530
    1C        C  733   2.491   3.201   2.078
    1C        C  734   2.499   3.284   2.190
    1C        C  735   2.584   3.087   2.309
    1C        C  736   2.532   3.219   2.312
    1C        C  737   2.620   3.023   2.430
    1C        C  738   2.592   3.094   2.549
    1C        C  739   2.705   2.917   2.672
    1C        C  740   2.628   3.036   2.673
    1C        C  741   2.748   2.862   2.794
    1C        C  742   2.710   2.924   2.915
    1C        C  743   2.756   2.872   3.038
    1C        C  744   2.541   3.071   2.082
    1C        C  745   2.689   2.899   2.191
    1C        C  746   2.600   3.009   2.192
    1C        C  747   2.734   2.839   2.311
    1C        C  748   2.695   2.904   2.430
    1C        C  749   2.742   2.851   2.552
    1C        C  750   2.736   2.842   2.072
    1C        C  751   3.662   2.346   1.961
    1C        O  752   3.726   2.238   1.970
    1C        O  753   3.692   2.409   1.840
    1C        C  754   4.633   3.049   1.997
    1C        O  755   4.638   3.043   1.871
    1C        O  756   4.755   3.009   2.053
    1C        C  757   4.441   4.228   1.965
    1C        O  758   4.565   4.246   1.953
    1C        O  759   4.389   4.238   1.836
    1C        C  760   3.603   4.671   1.955
    1C        O  761   3.656   4.784   1.973
    1C        O  762   3.561   4.654   1.822
    1C        C  763   2.870   4.511   1.973
    1C        O  764   2.883   4.496   1.848
    1C        O  765   2.757   4.594   1.983
    1C        C  766   2.329   3.488   1.992
    1C        O  767   2.317   3.471   1.867
    1C        O  768   2.211   3.440   2.051
    1C        C  769   4.678   3.591   5.073
    1C        O  770   4.655   3.593   5.197
    1C        O  771   4.808   3.620   5.032
    1C        C  772   4.282   4.467   5.021
    1C        O  773   4.269   4.519   5.135
    1C        O  774   4.412   4.472   4.968
    1C        C  775   4.145   2.507   5.061
    1C        O  776   4.261   2.470   5.028
    1C        O  777   4.135   2.491   5.199
    1C        C  778   2.887   4.552   5.050
    1C        O  779   2.837   4.661   5.012
    1C        O  780   2.927   4.556   5.184
    1C        C  781   2.452   3.035   5.046
    1C        O  782   2.340   3.010   4.994
    1C        O  783   2.437   3.026   5.184
    1C        C  784   2.419   4.002   5.055
    1C        O  785   2.307   4.043   5.015
    1C        O  786   2.433   3.968   5.191
    1C        C  787   2.940   2.420   2.020
    1C        O  788   2.893   2.448   1.907
    1C        O  789   2.932   2.285   2.054
    1C        C  790   3.189   2.386   5.081
    1C        O  791   3.123   2.280   5.061
    1C        O  792   3.223   2.409   5.215
    1C        H  793   4.235   3.049   5.027
    1C        H  794   4.210   2.811   5.082
    1C        H  795   4.491   3.137   5.067
    1C        H  796   4.574   3.360   5.062
    1C        H  797   4.575   3.820   5.048
    1C        H  798   4.452   4.001   5.055
    1C        H  799   4.273   4.165   5.055
    1C        H  800   4.055   4.568   5.012
    1C        H  801   3.817   4.594   5.041
    1C        H  802   3.589   4.657   5.029
    1C        H  803   3.405   4.454   5.019
    1C        H  804   3.162   4.517   5.055
    1C        H  805   3.902   2.478   5.068
    1C        H  806   3.684   2.454   5.072
    1C        H  807   2.996   2.546   5.062
    1C        H  808   3.443   2.458   5.081
    1C        H  809   2.861   2.727   5.082
    1C        H  810   2.716   2.914   5.079
    1C        H  811   2.503   3.301   5.072
    1C        H  812   2.565   3.504   5.071
    1C        H  813   2.471   3.728   5.061
    1C        H  814   2.620   4.165   5.054
    1C        H  815   2.726   4.352   5.036
    1C        H  816   2.672   2.847   1.986
    1C        H  817   2.822   2.672   1.985
    1C        H  818   3.185   2.378   2.028
    1C        H  819   3.426   2.427   1.986
    1C        H  820   3.848   2.523   1.975
    1C        H  821   4.024   2.681   1.982
    1C        H  822   4.290   2.696   1.999
    1C        H  823   4.379   2.927   1.967
    1C        H  824   4.607   3.308   1.977
    1C        H  825   4.463   3.518   1.976
    1C        H  826   4.466   3.743   1.963
    1C        H  827   3.811   4.534   1.955
    1C        H  828   3.946   4.327   1.963
    1C        H  829   4.178   4.285   1.951
    1C        H  830   4.530   3.992   1.983
    1C        H  831   2.649   3.832   1.974
    1C        H  832   2.661   4.078   1.961
    1C        H  833   2.739   4.271   1.962
    1C        H  834   3.385   4.475   1.952
    1C        H  835   3.150   4.407   1.958
    1C        H  836   2.500   3.007   2.006
    1C        H  837   2.445   3.230   1.985
    1C        H  838   2.463   3.693   1.975
    2V3OU   H29  839   2.807   3.548   1.656
    2V3OU   C27  840   2.785   3.508   1.758
    2V3OU   H27  841   2.722   3.581   1.814
    2V3OU   H28  842   2.731   3.411   1.742
    2V3OU   O11  843   2.912   3.480   1.816
    2V3OU   C15  844   2.923   3.402   1.930
    2V3OU   C13  845   3.050   3.378   1.987
    2V3OU   C14  846   3.074   3.272   2.075
    2V3OU   C16  847   2.973   3.187   2.116
    2V3OU    H6  848   2.993   3.097   2.177
    2V3OU   C12  849   3.212   3.232   2.113
    2V3OU    O2  850   3.238   3.129   2.178
    2V3OU   C10  851   3.327   3.312   2.069
    2V3OU    C8  852   3.458   3.276   2.096
    2V3OU   O10  853   3.496   3.151   2.135
    2V3OU   H26  854   3.411   3.109   2.157
    2V3OU    C6  855   3.570   3.352   2.049
    2V3OU    C5  856   3.541   3.468   1.980
    2V3OU    C4  857   3.708   3.294   2.054
    2V3OU    H4  858   3.724   3.226   2.142
    2V3OU    H5  859   3.715   3.232   1.959
    2V3OU    C2  860   3.818   3.400   2.051
    2V3OU    O6  861   3.808   3.478   2.171
    2V3OU   H21  862   3.776   3.562   2.135
    2V3OU    C3  863   3.783   3.492   1.934
    2V3OU    H2  864   3.861   3.573   1.925
    2V3OU    H3  865   3.786   3.440   1.835
    2V3OU   C25  866   3.952   3.329   2.036
    2V3OU    O7  867   3.997   3.290   1.928
    2V3OU   C26  868   4.033   3.292   2.160
    2V3OU   H22  869   4.067   3.385   2.213
    2V3OU   H23  870   4.124   3.235   2.131
    2V3OU    O8  871   3.968   3.211   2.256
    2V3OU   H24  872   3.941   3.269   2.329
    2V3OU    C1  873   3.651   3.565   1.952
    2V3OU    H1  874   3.631   3.622   1.857
    2V3OU    O3  875   3.669   3.659   2.059
    2V3OU   C19  876   3.623   3.794   2.052
    2V3OU    H9  877   3.529   3.798   1.990
    2V3OU    O4  878   3.716   3.854   1.964
    2V3OU   C20  879   3.846   3.880   2.015
    2V3OU   H10  880   3.901   3.782   2.024
    2V3OU   C24  881   3.616   3.855   2.192
    2V3OU   H16  882   3.549   3.790   2.253
    2V3OU   H17  883   3.564   3.953   2.181
    2V3OU   C23  884   3.757   3.881   2.247
    2V3OU   H15  885   3.801   3.779   2.275
    2V3OU    N1  886   3.741   3.962   2.366
    2V3OU   H19  887   3.813   3.925   2.424
    2V3OU   H20  888   3.654   3.936   2.408
    2V3OU   C21  889   3.855   3.953   2.150
    2V3OU   H11  890   3.957   3.927   2.190
    2V3OU    O5  891   3.836   4.093   2.163
    2V3OU   H18  892   3.782   4.100   2.243
    2V3OU   C22  893   3.914   3.955   1.902
    2V3OU   H12  894   3.862   4.053   1.884
    2V3OU   H13  895   3.911   3.894   1.808
    2V3OU   H14  896   4.024   3.964   1.923
    2V3OU   C11  897   3.161   3.470   1.957
    2V3OU    O1  898   3.133   3.581   1.908
    2V3OU    C9  899   3.299   3.427   1.990
    2V3OU    C7  900   3.406   3.503   1.945
    2V3OU    O9  901   3.390   3.626   1.885
    2V3OU   H25  902   3.294   3.639   1.892
    2V3OU   C17  903   2.820   3.319   1.977
    2V3OU    H7  904   2.713   3.342   1.971
    2V3OU   C18  905   2.846   3.217   2.068
    2V3OU    H8  906   2.762   3.148   2.089
    3SOL     OW  907   2.266   4.237   0.826
    3SOL    HW1  908   2.245   4.201   0.736
    3SOL    HW2  909   2.193   4.298   0.857
    4SOL     OW  910   6.521   5.566   2.211
    4SOL    HW1  911   6.529   5.561   2.111
    4SOL    HW2  912   6.608   5.539   2.253
    5SOL     OW  913   3.722   1.572   2.293
    5SOL    HW1  914   3.772   1.658   2.284
    5SOL    HW2  915   3.713   1.529   2.203
    6SOL     OW  916   4.051   1.669   2.251
    6SOL    HW1  917   4.097   1.685   2.338
    6SOL    HW2  918   4.020   1.756   2.213
    7SOL     OW  919   6.428   3.330   1.583
    7SOL    HW1  920   6.413   3.358   1.488
    7SOL    HW2  921   6.521   3.354   1.610
    8SOL     OW  922   2.539   6.872   4.975
    8SOL    HW1  923   2.604   6.840   5.044
    8SOL    HW2  924   2.502   6.961   5.004
    9SOL     OW  925   0.914   5.520   5.869
    9SOL    HW1  926   0.931   5.614   5.897
    9SOL    HW2  927   0.987   5.490   5.807
   10SOL     OW  928   1.199   4.872   5.331
   10SOL    HW1  929   1.225   4.776   5.340
   10SOL    HW2  930   1.103   4.878   5.302
   11SOL     OW  931   2.966   0.535   0.629
   11SOL    HW1  932   2.985   0.507   0.723
   11SOL    HW2  933   2.870   0.563   0.622
   12SOL     OW  934   4.074   5.691   4.089
   12SOL    HW1  935   4.010   5.701   4.014
   12SOL    HW2  936   4.027   5.707   4.176
   13SOL     OW  937   3.793   5.931   4.180
   13SOL    HW1  938   3.738   5.868   4.126
   13SOL    HW2  939   3.886   5.935   4.143
   14SOL     OW  940   4.671   5.718   6.369
   14SOL    HW1  941   4.673   5.760   6.460
   14SOL    HW2  942   4.585   5.667   6.358
   15SOL     OW  943   1.601   5.676   0.048
   15SOL    HW1  944   1.556   5.761   0.074
   15SOL    HW2  945   1.554   5.599   0.092
   16SOL     OW  946   5.732   2.080   5.734
   16SOL    HW1  947   5.673   2.000   5.741
   16SOL    HW2  948   5.784   2.075   5.648
   17SOL     OW  949   5.893   6.191   4.833
   17SOL    HW1  950   5.899   6.114   4.896
   17SOL    HW2  951   5.797   6.217   4.820
   18SOL     OW  952   3.369   1.685   0.017
   18SOL    HW1  953   3.432   1.686   0.094
   18SOL    HW2  954   3.355   1.590   7.016
   19SOL     OW  955   0.338   6.912   3.097
   19SOL    HW1  956   0.383   6.888   3.182
   19SOL    HW2  957   0.310   7.008   3.100
   20SOL     OW  958   3.401   1.772   4.266
   20SOL    HW1  959   3.362   1.840   4.204
   20SOL    HW2  960   3.493   1.800   4.293
   21SOL     OW  961   3.073   2.181   2.479
   21SOL    HW1  962   3.068   2.165   2.381
   21SOL    HW2  963   3.074   2.279   2.497
   22SOL     OW  964   2.215   6.988   6.713
   22SOL    HW1  965   2.154   0.036   6.723
   22SOL    HW2  966   2.261   6.969   6.800
   23SOL     OW  967   4.510   6.618   3.572
   23SOL    HW1  968   4.602   6.629   3.534
   23SOL    HW2  969   4.475   6.528   3.549
   24SOL     OW  970   5.153   1.429   4.046
   24SOL    HW1  971   5.093   1.349   4.053
   24SOL    HW2  972   5.123   1.498   4.112
   25SOL     OW  973   3.186   5.930   6.000
   25SOL    HW1  974   3.153   5.944   5.907
   25SOL    HW2  975   3.169   5.835   6.027
   26SOL     OW  976   5.795   1.180   1.233
   26SOL    HW1  977   5.756   1.263   1.192
   26SOL    HW2  978   5.778   1.181   1.332
   27SOL     OW  979   0.460   1.258   2.219
   27SOL    HW1  980   0.377   1.232   2.169
   27SOL    HW2  981   0.446   1.347   2.262
   28SOL     OW  982   4.318   0.898   0.304
   28SOL    HW1  983   4.278   0.970   0.361
   28SOL    HW2  984   4.414   0.920   0.284
   29SOL     OW  985   5.339   2.599   1.793
   29SOL    HW1  986   5.421   2.544   1.807
   29SOL    HW2  987   5.285   2.602   1.877
   30SOL     OW  988   3.370   6.901   5.460
   30SOL    HW1  989   3.367   6.976   5.394
   30SOL    HW2  990   3.309   6.921   5.537
   31SOL     OW  991   0.807   1.628   5.814
   31SOL    HW1  992   0.826   1.717   5.772
   31SOL    HW2  993   0.857   1.557   5.765
   32SOL     OW  994   0.863   1.678   2.958
   32SOL    HW1  995   0.866   1.759   2.900
   32SOL    HW2  996   0.785   1.684   3.020
   33SOL     OW  997   2.158   3.227   6.787
   33SOL    HW1  998   2.177   3.313   6.739
   33SOL    HW2  999   2.146   3.154   6.719
   34SOL     OW 1000   2.117   0.906   3.819
   34SOL    HW1 1001   2.048   0.965   3.862
   34SOL    HW2 1002   2.113   0.917   3.720
   35SOL     OW 1003   3.989   2.146   6.706
   35SOL    HW1 1004   3.943   2.076   6.761
   35SOL    HW2 1005   3.972   2.129   6.609
   36SOL     OW 1006   1.058   0.493   6.566
   36SOL    HW1 1007   1.049   0.573   6.506
   36SOL    HW2 1008   1.154   0.479   6.589
   37SOL     OW 1009   2.472   0.495   0.632
   37SOL    HW1 1010   2.422   0.431   0.573
   37SOL    HW2 1011   2.467   0.463   0.727
   38SOL     OW 1012   0.555   5.600   3.230
   38SOL    HW1 1013   0.460   5.573   3.247
   38SOL    HW2 1014   0.611   5.517   3.222
   39SOL     OW 1015   6.544   4.226   6.295
   39SOL    HW1 1016   6.620   4.288   6.276
   39SOL    HW2 1017   6.577   4.146   6.344
   40SOL     OW 1018   5.946   2.476   1.645
   40SOL    HW1 1019   6.030   2.468   1.591
   40SOL    HW2 1020   5.963   2.441   1.738
   41SOL     OW 1021   1.469   6.405   4.415
   41SOL    HW1 1022   1.568   6.421   4.408
   41SOL    HW2 1023   1.444   6.328   4.356
   42SOL     OW 1024   3.216   6.746   6.507
   42SOL    HW1 1025   3.237   6.826   6.563
   42SOL    HW2 1026   3.136   6.699   6.545
   43SOL     OW 1027   5.932   6.347   5.516
   43SOL    HW1 1028   5.837   6.317   5.514
   43SOL    HW2 1029   5.988   6.276   5.559
   44SOL     OW 1030   6.384   2.589   6.195
   44SOL    HW1 1031   6.407   2.609   6.100
   44SOL    HW2 1032   6.399   2.670   6.251
   45SOL     OW 1033   3.136   0.654   3.895
   45SOL    HW1 1034   3.097   0.725   3.836
   45SOL    HW2 1035   3.163   0.576   3.838
   46SOL     OW 1036   1.123   3.886   4.324
   46SOL    HW1 1037   1.027   3.871   4.300
   46SOL    HW2 1038   1.178   3.809   4.294
   47SOL     OW 1039   5.473   4.053   3.028
   47SOL    HW1 1040   5.432   4.107   2.955
   47SOL    HW2 1041   5.438   4.083   3.117
   48SOL     OW 1042   0.753   2.780   5.003
   48SOL    HW1 1043   0.658   2.765   4.975
   48SOL    HW2 1044   0.755   2.837   5.085
   49SOL     OW 1045   4.525   4.029   1.710
   49SOL    HW1 1046   4.482   4.098   1.767
   49SOL    HW2 1047   4.599   4.071   1.657
   50SOL     OW 1048   6.195   2.214   5.545
   50SOL    HW1 1049   6.175   2.116   5.554
   50SOL    HW2 1050   6.131   2.266   5.602
   51SOL     OW 1051   3.203   5.838   2.607
   51SOL    HW1 1052   3.134   5.773   2.577
   51SOL    HW2 1053   3.158   5.916   2.652
   52SOL     OW 1054   4.838   1.819   3.708
   52SOL    HW1 1055   4.808   1.736   3.756
   52SOL    HW2 1056   4.822   1.808   3.610
   53SOL     OW 1057   4.892   0.449   4.445
   53SOL    HW1 1058   4.843   0.362   4.449
   53SOL    HW2 1059   4.827   0.523   4.427
   54SOL     OW 1060   3.384   5.112   0.426
   54SOL    HW1 1061   3.383   5.159   0.515
   54SOL    HW2 1062   3.457   5.043   0.426
   55SOL     OW 1063   3.533   1.336   6.142
   55SOL    HW1 1064   3.555   1.266   6.210
   55SOL    HW2 1065   3.492   1.415   6.187
   56SOL     OW 1066   1.340   0.674   1.531
   56SOL    HW1 1067   1.245   0.657   1.561
   56SOL    HW2 1068   1.401   0.662   1.610
   57SOL     OW 1069   4.761   0.009   0.990
   57SOL    HW1 1070   4.760   0.104   1.022
   57SOL    HW2 1071   4.855   7.007   0.983
   58SOL     OW 1072   0.254   6.767   5.886
   58SOL    HW1 1073   0.333   6.822   5.860
   58SOL    HW2 1074   0.195   6.754   5.806
   59SOL     OW 1075   1.645   1.028   6.288
   59SOL    HW1 1076   1.724   1.090   6.289
   59SOL    HW2 1077   1.581   1.054   6.359
   60SOL     OW 1078   5.946   0.764   6.148
   60SOL    HW1 1079   5.857   0.794   6.183
   60SOL    HW2 1080   5.969   0.816   6.066
   61SOL     OW 1081   5.067   1.215   5.013
   61SOL    HW1 1082   5.016   1.288   5.059
   61SOL    HW2 1083   5.136   1.255   4.953
   62SOL     OW 1084   0.599   1.254   3.665
   62SOL    HW1 1085   0.537   1.321   3.705
   62SOL    HW2 1086   0.556   1.210   3.587
   63SOL     OW 1087   6.389   1.667   3.723
   63SOL    HW1 1088   6.303   1.633   3.761
   63SOL    HW2 1089   6.400   1.634   3.629
   64SOL     OW 1090   0.503   3.964   6.469
   64SOL    HW1 1091   0.479   4.059   6.485
   64SOL    HW2 1092   0.561   3.958   6.388
   65SOL     OW 1093   6.506   4.491   5.220
   65SOL    HW1 1094   6.450   4.558   5.269
   65SOL    HW2 1095   6.460   4.402   5.222
   66SOL     OW 1096   3.467   0.609   6.494
   66SOL    HW1 1097   3.446   0.683   6.558
   66SOL    HW2 1098   3.468   0.521   6.543
   67SOL     OW 1099   5.719   5.101   5.253
   67SOL    HW1 1100   5.629   5.117   5.294
   67SOL    HW2 1101   5.783   5.173   5.281
   68SOL     OW 1102   6.730   0.717   6.932
   68SOL    HW1 1103   6.744   0.669   6.846
   68SOL    HW2 1104   6.815   0.763   6.959
   69SOL     OW 1105   1.884   4.047   6.814
   69SOL    HW1 1106   1.899   4.133   6.766
   69SOL    HW2 1107   1.917   3.971   6.758
   70SOL     OW 1108   6.397   5.307   3.134
   70SOL    HW1 1109   6.452   5.226   3.111
   70SOL    HW2 1110   6.327   5.321   3.065
   71SOL     OW 1111   3.330   2.063   2.812
   71SOL    HW1 1112   3.423   2.096   2.795
   71SOL    HW2 1113   3.335   1.975   2.860
   72SOL     OW 1114   3.070   6.139   4.777
   72SOL    HW1 1115   3.142   6.119   4.843
   72SOL    HW2 1116   3.013   6.058   4.763
   73SOL     OW 1117   3.333   1.748   0.707
   73SOL    HW1 1118   3.270   1.820   0.736
   73SOL    HW2 1119   3.392   1.783   0.634
   74SOL     OW 1120   5.344   6.652   6.577
   74SOL    HW1 1121   5.390   6.578   6.625
   74SOL    HW2 1122   5.411   6.718   6.545
   75SOL     OW 1123   3.668   6.282   5.728
   75SOL    HW1 1124   3.588   6.334   5.757
   75SOL    HW2 1125   3.717   6.332   5.657
   76SOL     OW 1126   1.633   2.823   1.389
   76SOL    HW1 1127   1.658   2.917   1.410
   76SOL    HW2 1128   1.546   2.800   1.435
   77SOL     OW 1129   4.768   5.988   4.164
   77SOL    HW1 1130   4.866   6.000   4.182
   77SOL    HW2 1131   4.754   5.898   4.121
   78SOL     OW 1132   5.867   0.162   6.094
   78SOL    HW1 1133   5.784   0.106   6.084
   78SOL    HW2 1134   5.943   0.104   6.123
   79SOL     OW 1135   3.022   6.729   0.561
   79SOL    HW1 1136   2.934   6.728   0.609
   79SOL    HW2 1137   3.095   6.747   0.626
   80SOL     OW 1138   5.455   1.239   4.415
   80SOL    HW1 1139   5.488   1.325   4.376
   80SOL    HW2 1140   5.470   1.240   4.514
   81SOL     OW 1141   2.366   0.103   2.475
   81SOL    HW1 1142   2.359   0.197   2.509
   81SOL    HW2 1143   2.302   0.091   2.398
   82SOL     OW 1144   6.986   5.709   0.449
   82SOL    HW1 1145   7.026   5.679   0.536
   82SOL    HW2 1146   6.972   5.630   0.390
   83SOL     OW 1147   6.241   6.964   0.565
   83SOL    HW1 1148   6.317   6.977   0.629
   83SOL    HW2 1149   6.156   6.994   0.608
   84SOL     OW 1150   4.884   3.485   3.345
   84SOL    HW1 1151   4.888   3.389   3.316
   84SOL    HW2 1152   4.894   3.491   3.444
   85SOL     OW 1153   1.128   1.566   5.373
   85SOL    HW1 1154   1.147   1.481   5.424
   85SOL    HW2 1155   1.064   1.622   5.425
   86SOL     OW 1156   0.981   0.173   5.555
   86SOL    HW1 1157   1.001   0.117   5.475
   86SOL    HW2 1158   1.013   0.267   5.539
   87SOL     OW 1159   5.004   3.002   0.602
   87SOL    HW1 1160   4.925   3.063   0.593
   87SOL    HW2 1161   4.992   2.943   0.682
   88SOL     OW 1162   4.156   1.859   6.254
   88SOL    HW1 1163   4.230   1.876   6.319
   88SOL    HW2 1164   4.194   1.817   6.172
   89SOL     OW 1165   1.671   2.986   6.488
   89SOL    HW1 1166   1.761   2.971   6.449
   89SOL    HW2 1167   1.663   3.080   6.520
   90SOL     OW 1168   4.872   6.676   3.909
   90SOL    HW1 1169   4.797   6.742   3.917
   90SOL    HW2 1170   4.901   6.647   4.000
   91SOL     OW 1171   4.649   4.344   4.088
   91SOL    HW1 1172   4.657   4.314   4.183
   91SOL    HW2 1173   4.597   4.430   4.085
   92SOL     OW 1174   3.025   4.484   0.662
   92SOL    HW1 1175   2.959   4.452   0.729
   92SOL    HW2 1176   2.979   4.506   0.576
   93SOL     OW 1177   2.503   4.483   6.498
   93SOL    HW1 1178   2.468   4.422   6.427
   93SOL    HW2 1179   2.602   4.467   6.510
   94SOL     OW 1180   2.434   6.363   6.099
   94SOL    HW1 1181   2.382   6.443   6.130
   94SOL    HW2 1182   2.461   6.308   6.178
   95SOL     OW 1183   1.108   1.644   3.151
   95SOL    HW1 1184   1.198   1.633   3.110
   95SOL    HW2 1185   1.040   1.662   3.080
   96SOL     OW 1186   2.804   6.853   5.817
   96SOL    HW1 1187   2.770   6.937   5.858
   96SOL    HW2 1188   2.844   6.795   5.888
   97SOL     OW 1189   0.790   3.866   5.762
   97SOL    HW1 1190   0.712   3.927   5.752
   97SOL    HW2 1191   0.758   3.774   5.785
   98SOL     OW 1192   6.525   3.920   7.016
   98SOL    HW1 1193   6.488   3.827   7.009
   98SOL    HW2 1194   6.497   3.961   0.073
   99SOL     OW 1195   4.274   4.210   0.967
   99SOL    HW1 1196   4.327   4.269   0.907
   99SOL    HW2 1197   4.312   4.212   1.059
  100SOL     OW 1198   0.753   6.654   5.925
  100SOL    HW1 1199   0.822   6.634   5.994
  100SOL    HW2 1200   0.729   6.751   5.930
  101SOL     OW 1201   1.336   5.827   2.807
  101SOL    HW1 1202   1.241   5.815   2.836
  101SOL    HW2 1203   1.396   5.818   2.886
  102SOL     OW 1204   5.255   0.585   2.717
  102SOL    HW1 1205   5.164   0.615   2.689
  102SOL    HW2 1206   5.275   0.620   2.809
  103SOL     OW 1207   3.854   1.038   2.343
  103SOL    HW1 1208   3.887   1.110   2.403
  103SOL    HW2 1209   3.852   0.951   2.393
  104SOL     OW 1210   0.640   4.926   2.513
  104SOL    HW1 1211   0.665   4.948   2.419
  104SOL    HW2 1212   0.580   4.997   2.550
  105SOL     OW 1213   6.492   2.187   6.440
  105SOL    HW1 1214   6.479   2.149   6.531
  105SOL    HW2 1215   6.420   2.254   6.421
  106SOL     OW 1216   3.178   6.616   5.250
  106SOL    HW1 1217   3.208   6.696   5.198
  106SOL    HW2 1218   3.094   6.638   5.300
  107SOL     OW 1219   1.949   2.093   1.743
  107SOL    HW1 1220   1.922   2.031   1.817
  107SOL    HW2 1221   2.008   2.165   1.781
  108SOL     OW 1222   4.301   4.977   6.640
  108SOL    HW1 1223   4.211   5.020   6.642
  108SOL    HW2 1224   4.321   4.938   6.730
  109SOL     OW 1225   0.314   1.152   1.528
  109SOL    HW1 1226   0.282   1.244   1.505
  109SOL    HW2 1227   0.412   1.146   1.510
  110SOL     OW 1228   3.637   6.660   5.617
  110SOL    HW1 1229   3.698   6.595   5.570
  110SOL    HW2 1230   3.543   6.644   5.588
  111SOL     OW 1231   3.337   0.628   5.519
  111SOL    HW1 1232   3.287   0.549   5.554
  111SOL    HW2 1233   3.426   0.599   5.485
  112SOL     OW 1234   6.084   6.328   5.898
  112SOL    HW1 1235   6.169   6.379   5.910
  112SOL    HW2 1236   6.006   6.390   5.907
  113SOL     OW 1237   6.827   5.029   3.012
  113SOL    HW1 1238   6.868   4.942   3.041
  113SOL    HW2 1239   6.819   5.089   3.092
  114SOL     OW 1240   0.953   0.075   1.179
  114SOL    HW1 1241   0.995   7.014   1.183
  114SOL    HW2 1242   0.884   0.077   1.107
  115SOL     OW 1243   4.029   1.268   4.418
  115SOL    HW1 1244   3.954   1.320   4.459
  115SOL    HW2 1245   3.997   1.224   4.334
  116SOL     OW 1246   5.887   5.436   2.427
  116SOL    HW1 1247   5.888   5.500   2.351
  116SOL    HW2 1248   5.912   5.483   2.511
  117SOL     OW 1249   0.845   1.497   6.352
  117SOL    HW1 1250   0.849   1.550   6.436
  117SOL    HW2 1251   0.833   1.559   6.274
  118SOL     OW 1252   0.873   1.313   2.194
  118SOL    HW1 1253   0.973   1.312   2.192
  118SOL    HW2 1254   0.842   1.385   2.255
  119SOL     OW 1255   1.135   2.224   6.137
  119SOL    HW1 1256   1.194   2.144   6.126
  119SOL    HW2 1257   1.152   2.289   6.063
  120SOL     OW 1258   6.593   6.925   0.267
  120SOL    HW1 1259   6.510   6.875   0.290
  120SOL    HW2 1260   6.573   7.023   0.266
  121SOL     OW 1261   2.714   3.796   6.611
  121SOL    HW1 1262   2.745   3.890   6.602
  121SOL    HW2 1263   2.648   3.789   6.687
  122SOL     OW 1264   1.556   4.664   6.398
  122SOL    HW1 1265   1.557   4.578   6.348
  122SOL    HW2 1266   1.564   4.646   6.496
  123SOL     OW 1267   0.555   2.125   1.540
  123SOL    HW1 1268   0.649   2.094   1.526
  123SOL    HW2 1269   0.496   2.047   1.561
  124SOL     OW 1270   5.283   2.991   0.149
  124SOL    HW1 1271   5.346   3.003   0.072
  124SOL    HW2 1272   5.333   2.993   0.235
  125SOL     OW 1273   2.475   1.737   2.130
  125SOL    HW1 1274   2.513   1.802   2.064
  125SOL    HW2 1275   2.426   1.665   2.081
  126SOL     OW 1276   2.418   4.569   0.773
  126SOL    HW1 1277   2.445   4.473   0.770
  126SOL    HW2 1278   2.454   4.612   0.856
  127SOL     OW 1279   0.171   5.135   6.299
  127SOL    HW1 1280   0.265   5.147   6.331
  127SOL    HW2 1281   0.133   5.051   6.338
  128SOL     OW 1282   4.246   2.675   1.381
  128SOL    HW1 1283   4.232   2.665   1.479
  128SOL    HW2 1284   4.174   2.627   1.332
  129SOL     OW 1285   4.163   4.032   6.133
  129SOL    HW1 1286   4.096   4.042   6.060
  129SOL    HW2 1287   4.177   4.120   6.178
  130SOL     OW 1288   0.606   1.148   4.441
  130SOL    HW1 1289   0.601   1.247   4.433
  130SOL    HW2 1290   0.626   1.108   4.351
  131SOL     OW 1291   5.498   1.260   2.164
  131SOL    HW1 1292   5.438   1.324   2.212
  131SOL    HW2 1293   5.444   1.205   2.100
  132SOL     OW 1294   2.409   2.884   0.977
  132SOL    HW1 1295   2.351   2.856   1.054
  132SOL    HW2 1296   2.363   2.957   0.927
  133SOL     OW 1297   5.145   6.505   3.962
  133SOL    HW1 1298   5.083   6.474   3.890
  133SOL    HW2 1299   5.203   6.579   3.926
  134SOL     OW 1300   5.975   1.587   2.546
  134SOL    HW1 1301   5.943   1.494   2.566
  134SOL    HW2 1302   6.050   1.610   2.607
  135SOL     OW 1303   5.945   2.847   1.947
  135SOL    HW1 1304   5.915   2.775   2.009
  135SOL    HW2 1305   5.866   2.892   1.907
  136SOL     OW 1306   4.038   3.362   6.317
  136SOL    HW1 1307   3.997   3.436   6.371
  136SOL    HW2 1308   4.137   3.377   6.310
  137SOL     OW 1309   5.307   0.558   5.016
  137SOL    HW1 1310   5.313   0.623   5.091
  137SOL    HW2 1311   5.277   0.605   4.933
  138SOL     OW 1312   0.594   4.279   3.874
  138SOL    HW1 1313   0.575   4.248   3.780
  138SOL    HW2 1314   0.609   4.200   3.932
  139SOL     OW 1315   2.376   5.945   5.275
  139SOL    HW1 1316   2.401   5.994   5.358
  139SOL    HW2 1317   2.451   5.948   5.210
  140SOL     OW 1318   0.425   6.275   3.516
  140SOL    HW1 1319   0.397   6.185   3.483
  140SOL    HW2 1320   0.495   6.313   3.456
  141SOL     OW 1321   6.172   3.150   5.214
  141SOL    HW1 1322   6.248   3.087   5.232
  141SOL    HW2 1323   6.162   3.212   5.292
  142SOL     OW 1324   1.479   5.268   0.566
  142SOL    HW1 1325   1.524   5.255   0.478
  142SOL    HW2 1326   1.504   5.358   0.603
  143SOL     OW 1327   6.025   3.978   1.916
  143SOL    HW1 1328   6.066   4.005   1.829
  143SOL    HW2 1329   5.991   4.059   1.963
  144SOL     OW 1330   1.330   6.947   6.796
  144SOL    HW1 1331   1.259   6.890   6.754
  144SOL    HW2 1332   1.346   7.028   6.741
  145SOL     OW 1333   0.605   4.923   0.443
  145SOL    HW1 1334   0.639   4.864   0.517
  145SOL    HW2 1335   0.565   4.866   0.372
  146SOL     OW 1336   5.051   0.131   5.703
  146SOL    HW1 1337   5.150   0.116   5.707
  146SOL    HW2 1338   5.028   0.177   5.617
  147SOL     OW 1339   5.976   2.945   6.738
  147SOL    HW1 1340   6.011   2.866   6.788
  147SOL    HW2 1341   5.926   3.005   6.801
  148SOL     OW 1342   0.430   4.616   6.495
  148SOL    HW1 1343   0.435   4.582   6.401
  148SOL    HW2 1344   0.488   4.561   6.554
  149SOL     OW 1345   2.611   1.641   4.485
  149SOL    HW1 1346   2.636   1.566   4.546
  149SOL    HW2 1347   2.587   1.603   4.395
  150SOL     OW 1348   5.760   5.087   6.378
  150SOL    HW1 1349   5.826   5.047   6.441
  150SOL    HW2 1350   5.767   5.187   6.382
  151SOL     OW 1351   3.386   1.753   1.017
  151SOL    HW1 1352   3.309   1.701   0.979
  151SOL    HW2 1353   3.358   1.796   1.103
  152SOL     OW 1354   1.842   1.476   3.980
  152SOL    HW1 1355   1.755   1.519   3.957
  152SOL    HW2 1356   1.913   1.509   3.917
  153SOL     OW 1357   2.847   0.263   1.730
  153SOL    HW1 1358   2.775   0.319   1.688
  153SOL    HW2 1359   2.805   0.183   1.774
  154SOL     OW 1360   0.611   2.855   2.985
  154SOL    HW1 1361   0.568   2.889   3.068
  154SOL    HW2 1362   0.629   2.932   2.923
  155SOL     OW 1363   0.363   1.418   3.303
  155SOL    HW1 1364   0.382   1.397   3.207
  155SOL    HW2 1365   0.449   1.443   3.348
  156SOL     OW 1366   0.021   1.846   1.273
  156SOL    HW1 1367   0.091   1.903   1.231
  156SOL    HW2 1368   0.031   1.751   1.244
  157SOL     OW 1369   6.458   3.608   1.708
  157SOL    HW1 1370   6.533   3.566   1.655
  157SOL    HW2 1371   6.393   3.650   1.645
  158SOL     OW 1372   2.830   0.067   2.576
  158SOL    HW1 1373   2.791   0.159   2.579
  158SOL    HW2 1374   2.902   0.063   2.506
  159SOL     OW 1375   4.641   4.220   1.501
  159SOL    HW1 1376   4.571   4.171   1.449
  159SOL    HW2 1377   4.639   4.317   1.477
  160SOL     OW 1378   0.028   4.797   6.976
  160SOL    HW1 1379   6.965   4.806   6.940
  160SOL    HW2 1380   0.091   4.773   6.902
  161SOL     OW 1381   1.686   5.426   4.577
  161SOL    HW1 1382   1.632   5.381   4.506
  161SOL    HW2 1383   1.765   5.370   4.600
  162SOL     OW 1384   3.750   6.559   0.348
  162SOL    HW1 1385   3.714   6.553   0.255
  162SOL    HW2 1386   3.839   6.514   0.352
  163SOL     OW 1387   5.182   5.686   1.037
  163SOL    HW1 1388   5.144   5.661   1.126
  163SOL    HW2 1389   5.282   5.685   1.042
  164SOL     OW 1390   6.622   4.041   1.057
  164SOL    HW1 1391   6.618   4.140   1.040
  164SOL    HW2 1392   6.586   4.022   1.149
  165SOL     OW 1393   5.679   2.954   1.167
  165SOL    HW1 1394   5.664   2.929   1.263
  165SOL    HW2 1395   5.612   2.906   1.109
  166SOL     OW 1396   0.386   4.848   3.777
  166SOL    HW1 1397   0.421   4.929   3.824
  166SOL    HW2 1398   0.415   4.766   3.826
  167SOL     OW 1399   5.814   2.040   0.625
  167SOL    HW1 1400   5.862   1.991   0.553
  167SOL    HW2 1401   5.814   1.985   0.709
  168SOL     OW 1402   3.061   3.767   1.064
  168SOL    HW1 1403   3.030   3.776   0.970
  168SOL    HW2 1404   3.021   3.841   1.119
  169SOL     OW 1405   3.758   0.550   2.675
  169SOL    HW1 1406   3.710   0.552   2.587
  169SOL    HW2 1407   3.855   0.528   2.660
  170SOL     OW 1408   0.260   1.673   3.367
  170SOL    HW1 1409   0.220   1.700   3.279
  170SOL    HW2 1410   0.313   1.589   3.355
  171SOL     OW 1411   3.943   4.449   0.316
  171SOL    HW1 1412   4.000   4.524   0.350
  171SOL    HW2 1413   3.950   4.445   0.216
  172SOL     OW 1414   6.230   1.640   4.231
  172SOL    HW1 1415   6.200   1.653   4.325
  172SOL    HW2 1416   6.198   1.717   4.175
  173SOL     OW 1417   6.437   1.431   4.399
  173SOL    HW1 1418   6.379   1.389   4.468
  173SOL    HW2 1419   6.481   1.359   4.345
  174SOL     OW 1420   2.988   5.334   4.413
  174SOL    HW1 1421   3.046   5.254   4.426
  174SOL    HW2 1422   2.984   5.357   4.316
  175SOL     OW 1423   1.781   6.620   1.858
  175SOL    HW1 1424   1.755   6.525   1.843
  175SOL    HW2 1425   1.713   6.681   1.817
  176SOL     OW 1426   1.150   4.170   1.052
  176SOL    HW1 1427   1.121   4.256   1.010
  176SOL    HW2 1428   1.243   4.179   1.087
  177SOL     OW 1429   5.764   2.887   2.312
  177SOL    HW1 1430   5.736   2.807   2.260
  177SOL    HW2 1431   5.697   2.960   2.299
  178SOL     OW 1432   4.810   3.415   5.838
  178SOL    HW1 1433   4.871   3.441   5.763
  178SOL    HW2 1434   4.750   3.492   5.861
  179SOL     OW 1435   2.715   1.799   5.930
  179SOL    HW1 1436   2.695   1.723   5.992
  179SOL    HW2 1437   2.641   1.867   5.935
  180SOL     OW 1438   1.276   0.199   6.358
  180SOL    HW1 1439   1.227   0.166   6.439
  180SOL    HW2 1440   1.329   0.281   6.381
  181SOL     OW 1441   3.828   1.255   6.783
  181SOL    HW1 1442   3.833   1.355   6.786
  181SOL    HW2 1443   3.891   1.221   6.713
  182SOL     OW 1444   3.801   2.160   4.644
  182SOL    HW1 1445   3.851   2.108   4.575
  182SOL    HW2 1446   3.866   2.202   4.708
  183SOL     OW 1447   3.333   1.812   3.695
  183SOL    HW1 1448   3.342   1.716   3.723
  183SOL    HW2 1449   3.318   1.817   3.596
  184SOL     OW 1450   1.378   5.984   4.063
  184SOL    HW1 1451   1.387   6.002   3.965
  184SOL    HW2 1452   1.319   5.905   4.077
  185SOL     OW 1453   0.966   2.551   6.528
  185SOL    HW1 1454   1.049   2.607   6.522
  185SOL    HW2 1455   0.971   2.478   6.460
  186SOL     OW 1456   6.576   1.313   3.412
  186SOL    HW1 1457   6.615   1.221   3.413
  186SOL    HW2 1458   6.577   1.349   3.319
  187SOL     OW 1459   4.880   0.795   3.609
  187SOL    HW1 1460   4.863   0.817   3.706
  187SOL    HW2 1461   4.932   0.710   3.603
  188SOL     OW 1462   6.210   2.044   3.174
  188SOL    HW1 1463   6.118   2.059   3.140
  188SOL    HW2 1464   6.224   1.947   3.191
  189SOL     OW 1465   1.697   5.598   2.976
  189SOL    HW1 1466   1.647   5.685   2.970
  189SOL    HW2 1467   1.760   5.601   3.054
  190SOL     OW 1468   3.786   1.270   4.611
  190SOL    HW1 1469   3.796   1.366   4.583
  190SOL    HW2 1470   3.710   1.229   4.561
  191SOL     OW 1471   5.416   5.619   5.758
  191SOL    HW1 1472   5.347   5.685   5.788
  191SOL    HW2 1473   5.436   5.633   5.661
  192SOL     OW 1474   0.013   5.421   1.734
  192SOL    HW1 1475   6.983   5.361   1.788
  192SOL    HW2 1476   6.996   5.447   1.649
  193SOL     OW 1477   4.501   2.632   5.515
  193SOL    HW1 1478   4.506   2.536   5.488
  193SOL    HW2 1479   4.453   2.685   5.445
  194SOL     OW 1480   3.564   1.208   3.036
  194SOL    HW1 1481   3.518   1.162   2.960
  194SOL    HW2 1482   3.504   1.278   3.074
  195SOL     OW 1483   1.869   6.206   4.202
  195SOL    HW1 1484   1.833   6.120   4.238
  195SOL    HW2 1485   1.958   6.191   4.160
  196SOL     OW 1486   2.769   1.494   6.889
  196SOL    HW1 1487   2.778   1.452   6.980
  196SOL    HW2 1488   2.743   1.590   6.900
  197SOL     OW 1489   2.397   0.633   0.276
  197SOL    HW1 1490   2.422   0.722   0.314
  197SOL    HW2 1491   2.419   0.631   0.178
  198SOL     OW 1492   4.810   1.573   3.285
  198SOL    HW1 1493   4.775   1.646   3.226
  198SOL    HW2 1494   4.881   1.523   3.236
  199SOL     OW 1495   1.085   2.322   4.053
  199SOL    HW1 1496   1.150   2.247   4.048
  199SOL    HW2 1497   1.133   2.407   4.073
  200SOL     OW 1498   1.609   3.190   0.992
  200SOL    HW1 1499   1.603   3.290   0.996
  200SOL    HW2 1500   1.565   3.151   1.073
  201SOL     OW 1501   0.252   6.503   5.345
  201SOL    HW1 1502   0.165   6.545   5.321
  201SOL    HW2 1503   0.240   6.405   5.358
  202SOL     OW 1504   4.027   1.601   6.529
  202SOL    HW1 1505   4.116   1.629   6.566
  202SOL    HW2 1506   4.018   1.634   6.435
  203SOL     OW 1507   5.912   2.273   5.323
  203SOL    HW1 1508   5.857   2.284   5.240
  203SOL    HW2 1509   5.881   2.337   5.393
  204SOL     OW 1510   0.859   6.957   4.746
  204SOL    HW1 1511   0.830   6.940   4.840
  204SOL    HW2 1512   0.779   6.960   4.686
  205SOL     OW 1513   1.957   2.426   2.925
  205SOL    HW1 1514   1.982   2.509   2.975
  205SOL    HW2 1515   1.858   2.414   2.928
  206SOL     OW 1516   1.216   3.171   1.095
  206SOL    HW1 1517   1.305   3.214   1.078
  206SOL    HW2 1518   1.225   3.106   1.171
  207SOL     OW 1519   5.652   0.652   3.483
  207SOL    HW1 1520   5.672   0.556   3.503
  207SOL    HW2 1521   5.582   0.685   3.547
  208SOL     OW 1522   0.312   3.944   5.522
  208SOL    HW1 1523   0.301   3.847   5.544
  208SOL    HW2 1524   0.380   3.985   5.583
  209SOL     OW 1525   6.557   4.470   3.000
  209SOL    HW1 1526   6.468   4.431   3.022
  209SOL    HW2 1527   6.629   4.422   3.049
  210SOL     OW 1528   4.408   2.025   0.595
  210SOL    HW1 1529   4.360   1.945   0.559
  210SOL    HW2 1530   4.384   2.039   0.691
  211SOL     OW 1531   1.021   6.813   2.436
  211SOL    HW1 1532   1.072   6.744   2.486
  211SOL    HW2 1533   0.929   6.821   2.474
  212SOL     OW 1534   1.077   3.779   2.489
  212SOL    HW1 1535   1.086   3.854   2.554
  212SOL    HW2 1536   1.161   3.725   2.487
  213SOL     OW 1537   1.526   5.915   0.688
  213SOL    HW1 1538   1.488   5.916   0.780
  213SOL    HW2 1539   1.584   5.996   0.674
  214SOL     OW 1540   3.526   5.223   2.550
  214SOL    HW1 1541   3.547   5.151   2.615
  214SOL    HW2 1542   3.473   5.185   2.474
  215SOL     OW 1543   2.895   4.239   1.315
  215SOL    HW1 1544   2.968   4.193   1.265
  215SOL    HW2 1545   2.890   4.335   1.286
  216SOL     OW 1546   0.902   6.474   3.060
  216SOL    HW1 1547   0.996   6.500   3.083
  216SOL    HW2 1548   0.840   6.549   3.083
  217SOL     OW 1549   1.116   2.208   5.187
  217SOL    HW1 1550   1.017   2.209   5.177
  217SOL    HW2 1551   1.159   2.240   5.102
  218SOL     OW 1552   0.471   2.958   4.697
  218SOL    HW1 1553   0.503   2.953   4.603
  218SOL    HW2 1554   0.499   2.876   4.746
  219SOL     OW 1555   4.561   0.545   0.454
  219SOL    HW1 1556   4.475   0.596   0.445
  219SOL    HW2 1557   4.544   0.449   0.432
  220SOL     OW 1558   2.611   6.891   0.589
  220SOL    HW1 1559   2.677   6.819   0.612
  220SOL    HW2 1560   2.655   6.981   0.598
  221SOL     OW 1561   6.458   4.277   1.231
  221SOL    HW1 1562   6.404   4.209   1.182
  221SOL    HW2 1563   6.429   4.282   1.326
  222SOL     OW 1564   1.628   4.413   6.279
  222SOL    HW1 1565   1.707   4.446   6.330
  222SOL    HW2 1566   1.629   4.451   6.187
  223SOL     OW 1567   6.764   2.707   5.138
  223SOL    HW1 1568   6.722   2.619   5.115
  223SOL    HW2 1569   6.859   2.692   5.166
  224SOL     OW 1570   3.677   1.140   6.973
  224SOL    HW1 1571   3.734   1.172   6.897
  224SOL    HW2 1572   3.675   1.040   6.973
  225SOL     OW 1573   4.235   3.825   6.441
  225SOL    HW1 1574   4.236   3.920   6.471
  225SOL    HW2 1575   4.150   3.806   6.393
  226SOL     OW 1576   0.654   1.398   5.965
  226SOL    HW1 1577   0.581   1.444   6.016
  226SOL    HW2 1578   0.713   1.349   6.029
  227SOL     OW 1579   2.213   4.508   2.619
  227SOL    HW1 1580   2.246   4.509   2.524
  227SOL    HW2 1581   2.115   4.526   2.620
  228SOL     OW 1582   1.856   0.642   2.771
  228SOL    HW1 1583   1.879   0.563   2.714
  228SOL    HW2 1584   1.796   0.613   2.846
  229SOL     OW 1585   5.296   5.389   6.226
  229SOL    HW1 1586   5.298   5.401   6.127
  229SOL    HW2 1587   5.224   5.323   6.250
  230SOL     OW 1588   4.482   5.738   4.301
  230SOL    HW1 1589   4.565   5.750   4.355
  230SOL    HW2 1590   4.483   5.648   4.257
  231SOL     OW 1591   6.121   1.499   6.348
  231SOL    HW1 1592   6.043   1.498   6.410
  231SOL    HW2 1593   6.203   1.470   6.397
  232SOL     OW 1594   0.546   3.178   6.470
  232SOL    HW1 1595   0.485   3.133   6.535
  232SOL    HW2 1596   0.626   3.213   6.518
  233SOL     OW 1597   4.284   1.616   3.109
  233SOL    HW1 1598   4.343   1.605   3.029
  233SOL    HW2 1599   4.263   1.713   3.122
  234SOL     OW 1600   6.041   1.300   6.754
  234SOL    HW1 1601   6.119   1.265   6.805
  234SOL    HW2 1602   5.959   1.297   6.811
  235SOL     OW 1603   4.950   3.171   2.156
  235SOL    HW1 1604   5.018   3.103   2.183
  235SOL    HW2 1605   4.872   3.125   2.115
  236SOL     OW 1606   5.128   2.916   6.929
  236SOL    HW1 1607   5.105   3.000   6.880
  236SOL    HW2 1608   5.149   2.936   7.024
  237SOL     OW 1609   0.248   4.112   1.751
  237SOL    HW1 1610   0.319   4.118   1.821
  237SOL    HW2 1611   0.210   4.203   1.735
  238SOL     OW 1612   6.471   1.775   0.300
  238SOL    HW1 1613   6.386   1.813   0.264
  238SOL    HW2 1614   6.546   1.840   0.284
  239SOL     OW 1615   1.124   4.042   0.224
  239SOL    HW1 1616   1.143   3.954   0.181
  239SOL    HW2 1617   1.035   4.075   0.195
  240SOL     OW 1618   0.935   3.083   3.503
  240SOL    HW1 1619   1.004   3.030   3.553
  240SOL    HW2 1620   0.931   3.051   3.408
  241SOL     OW 1621   2.720   2.300   4.766
  241SOL    HW1 1622   2.663   2.354   4.828
  241SOL    HW2 1623   2.802   2.271   4.813
  242SOL     OW 1624   3.283   3.416   3.673
  242SOL    HW1 1625   3.320   3.438   3.583
  242SOL    HW2 1626   3.188   3.447   3.679
  243SOL     OW 1627   4.536   1.711   0.238
  243SOL    HW1 1628   4.614   1.708   0.301
  243SOL    HW2 1629   4.548   1.640   0.168
  244SOL     OW 1630   5.918   4.032   5.507
  244SOL    HW1 1631   5.948   4.127   5.517
  244SOL    HW2 1632   5.840   4.016   5.567
  245SOL     OW 1633   4.298   2.361   3.710
  245SOL    HW1 1634   4.314   2.263   3.695
  245SOL    HW2 1635   4.201   2.381   3.695
  246SOL     OW 1636   4.965   1.567   3.523
  246SOL    HW1 1637   4.900   1.572   3.448
  246SOL    HW2 1638   4.917   1.545   3.608
  247SOL     OW 1639   2.526   1.523   0.477
  247SOL    HW1 1640   2.497   1.543   0.570
  247SOL    HW2 1641   2.476   1.580   0.412
  248SOL     OW 1642   2.385   1.270   2.837
  248SOL    HW1 1643   2.302   1.314   2.870
  248SOL    HW2 1644   2.364   1.216   2.756
  249SOL     OW 1645   5.322   6.674   5.631
  249SOL    HW1 1646   5.297   6.707   5.722
  249SOL    HW2 1647   5.242   6.632   5.587
  250SOL     OW 1648   4.137   3.555   0.614
  250SOL    HW1 1649   4.062   3.615   0.643
  250SOL    HW2 1650   4.199   3.540   0.691
  251SOL     OW 1651   4.469   3.538   5.400
  251SOL    HW1 1652   4.521   3.508   5.480
  251SOL    HW2 1653   4.532   3.558   5.325
  252SOL     OW 1654   6.686   0.181   5.209
  252SOL    HW1 1655   6.713   0.143   5.121
  252SOL    HW2 1656   6.627   0.116   5.257
  253SOL     OW 1657   3.839   5.255   6.561
  253SOL    HW1 1658   3.898   5.333   6.538
  253SOL    HW2 1659   3.753   5.262   6.511
  254SOL     OW 1660   6.600   2.230   3.512
  254SOL    HW1 1661   6.606   2.169   3.592
  254SOL    HW2 1662   6.550   2.183   3.439
  255SOL     OW 1663   2.144   4.378   5.722
  255SOL    HW1 1664   2.150   4.466   5.675
  255SOL    HW2 1665   2.137   4.305   5.654
  256SOL     OW 1666   5.702   3.387   5.956
  256SOL    HW1 1667   5.627   3.384   5.890
  256SOL    HW2 1668   5.668   3.362   6.047
  257SOL     OW 1669   5.297   0.236   3.396
  257SOL    HW1 1670   5.209   0.246   3.442
  257SOL    HW2 1671   5.294   0.282   3.307
  258SOL     OW 1672   2.305   4.190   5.295
  258SOL    HW1 1673   2.313   4.151   5.387
  258SOL    HW2 1674   2.330   4.122   5.227
  259SOL     OW 1675   5.821   0.555   2.282
  259SOL    HW1 1676   5.736   0.600   2.254
  259SOL    HW2 1677   5.877   0.537   2.201
  260SOL     OW 1678   4.043   5.577   3.139
  260SOL    HW1 1679   4.012   5.487   3.109
  260SOL    HW2 1680   4.050   5.638   3.060
  261SOL     OW 1681   5.669   3.837   1.494
  261SOL    HW1 1682   5.574   3.825   1.462
  261SOL    HW2 1683   5.694   3.933   1.489
  262SOL     OW 1684   0.759   4.149   0.417
  262SOL    HW1 1685   0.801   4.159   0.327
  262SOL    HW2 1686   0.760   4.237   0.464
  263SOL     OW 1687   1.732   0.825   4.518
  263SOL    HW1 1688   1.770   0.899   4.463
  263SOL    HW2 1689   1.633   0.823   4.507
  264SOL     OW 1690   6.595   2.205   6.930
  264SOL    HW1 1691   6.630   2.213   7.023
  264SOL    HW2 1692   6.496   2.219   6.931
  265SOL     OW 1693   5.829   6.424   2.761
  265SOL    HW1 1694   5.893   6.388   2.829
  265SOL    HW2 1695   5.756   6.474   2.807
  266SOL     OW 1696   4.723   2.955   5.900
  266SOL    HW1 1697   4.703   2.892   5.824
  266SOL    HW2 1698   4.670   2.926   5.981
  267SOL     OW 1699   0.546   1.726   5.899
  267SOL    HW1 1700   0.524   1.701   5.994
  267SOL    HW2 1701   0.636   1.691   5.876
  268SOL     OW 1702   2.828   1.268   6.225
  268SOL    HW1 1703   2.740   1.303   6.193
  268SOL    HW2 1704   2.902   1.321   6.183
  269SOL     OW 1705   2.317   4.111   1.062
  269SOL    HW1 1706   2.402   4.059   1.061
  269SOL    HW2 1707   2.292   4.137   0.969
  270SOL     OW 1708   0.687   6.296   1.120
  270SOL    HW1 1709   0.708   6.202   1.094
  270SOL    HW2 1710   0.771   6.351   1.118
  271SOL     OW 1711   0.068   1.825   6.040
  271SOL    HW1 1712   0.150   1.879   6.062
  271SOL    HW2 1713   0.008   1.823   6.119
  272SOL     OW 1714   3.574   6.445   4.098
  272SOL    HW1 1715   3.612   6.515   4.037
  272SOL    HW2 1716   3.475   6.460   4.108
  273SOL     OW 1717   2.287   4.461   4.493
  273SOL    HW1 1718   2.261   4.526   4.422
  273SOL    HW2 1719   2.283   4.506   4.583
  274SOL     OW 1720   3.914   1.598   3.434
  274SOL    HW1 1721   3.867   1.665   3.377
  274SOL    HW2 1722   3.987   1.643   3.485
  275SOL     OW 1723   6.138   5.852   2.881
  275SOL    HW1 1724   6.054   5.870   2.934
  275SOL    HW2 1725   6.202   5.927   2.895
  276SOL     OW 1726   6.764   6.844   3.808
  276SOL    HW1 1727   6.679   6.851   3.860
  276SOL    HW2 1728   6.838   6.887   3.860
  277SOL     OW 1729   1.885   4.115   0.546
  277SOL    HW1 1730   1.847   4.043   0.488
  277SOL    HW2 1731   1.811   4.156   0.600
  278SOL     OW 1732   0.244   3.512   1.752
  278SOL    HW1 1733   0.301   3.585   1.789
  278SOL    HW2 1734   0.298   3.428   1.745
  279SOL     OW 1735   5.546   2.942   4.659
  279SOL    HW1 1736   5.469   3.002   4.679
  279SOL    HW2 1737   5.588   2.911   4.745
  280SOL     OW 1738   2.956   5.439   1.947
  280SOL    HW1 1739   2.948   5.373   2.021
  280SOL    HW2 1740   3.050   5.472   1.941
  281SOL     OW 1741   2.483   4.960   1.872
  281SOL    HW1 1742   2.514   4.965   1.967
  281SOL    HW2 1743   2.542   4.898   1.820
  282SOL     OW 1744   2.971   1.623   5.556
  282SOL    HW1 1745   2.873   1.641   5.547
  282SOL    HW2 1746   3.003   1.657   5.645
  283SOL     OW 1747   6.121   2.595   6.785
  283SOL    HW1 1748   6.045   2.537   6.813
  283SOL    HW2 1749   6.121   2.679   6.839
  284SOL     OW 1750   1.507   3.323   3.942
  284SOL    HW1 1751   1.529   3.376   4.024
  284SOL    HW2 1752   1.422   3.272   3.957
  285SOL     OW 1753   5.060   4.965   4.294
  285SOL    HW1 1754   5.144   4.957   4.240
  285SOL    HW2 1755   5.010   4.878   4.290
  286SOL     OW 1756   3.373   4.820   6.976
  286SOL    HW1 1757   3.415   4.731   6.991
  286SOL    HW2 1758   3.374   4.872   0.032
  287SOL     OW 1759   1.404   3.152   0.723
  287SOL    HW1 1760   1.468   3.154   0.800
  287SOL    HW2 1761   1.354   3.065   0.723
  288SOL     OW 1762   3.759   1.848   6.678
  288SOL    HW1 1763   3.775   1.888   6.768
  288SOL    HW2 1764   3.806   1.901   6.608
  289SOL     OW 1765   2.011   4.250   5.489
  289SOL    HW1 1766   2.041   4.338   5.451
  289SOL    HW2 1767   2.072   4.178   5.458
  290SOL     OW 1768   6.031   1.909   4.577
  290SOL    HW1 1769   5.936   1.916   4.608
  290SOL    HW2 1770   6.091   1.944   4.648
  291SOL     OW 1771   0.376   1.752   4.264
  291SOL    HW1 1772   0.300   1.815   4.279
  291SOL    HW2 1773   0.360   1.667   4.315
  292SOL     OW 1774   2.272   1.643   3.067
  292SOL    HW1 1775   2.281   1.710   3.141
  292SOL    HW2 1776   2.278   1.691   2.979
  293SOL     OW 1777   4.443   5.831   2.979
  293SOL    HW1 1778   4.481   5.772   3.050
  293SOL    HW2 1779   4.373   5.890   3.019
  294SOL     OW 1780   6.566   5.915   6.534
  294SOL    HW1 1781   6.643   5.851   6.541
  294SOL    HW2 1782   6.566   5.958   6.445
  295SOL     OW 1783   3.381   1.390   3.101
  295SOL    HW1 1784   3.297   1.354   3.142
  295SOL    HW2 1785   3.382   1.490   3.109
  296SOL     OW 1786   3.170   1.522   2.431
  296SOL    HW1 1787   3.099   1.483   2.373
  296SOL    HW2 1788   3.139   1.522   2.526
  297SOL     OW 1789   2.279   4.127   3.910
  297SOL    HW1 1790   2.338   4.176   3.846
  297SOL    HW2 1791   2.184   4.133   3.880
  298SOL     OW 1792   4.501   6.145   1.428
  298SOL    HW1 1793   4.559   6.138   1.347
  298SOL    HW2 1794   4.449   6.230   1.425
  299SOL     OW 1795   5.360   3.659   5.451
  299SOL    HW1 1796   5.429   3.588   5.464
  299SOL    HW2 1797   5.274   3.632   5.494
  300SOL     OW 1798   6.565   0.686   2.681
  300SOL    HW1 1799   6.621   0.605   2.663
  300SOL    HW2 1800   6.474   0.672   2.643
  301SOL     OW 1801   5.626   4.076   0.475
  301SOL    HW1 1802   5.605   4.139   0.401
  301SOL    HW2 1803   5.633   3.983   0.439
  302SOL     OW 1804   1.535   0.626   3.216
  302SOL    HW1 1805   1.556   0.584   3.304
  302SOL    HW2 1806   1.436   0.634   3.206
  303SOL     OW 1807   5.273   0.395   2.015
  303SOL    HW1 1808   5.310   0.369   1.926
  303SOL    HW2 1809   5.228   0.316   2.057
  304SOL     OW 1810   2.003   0.059   3.187
  304SOL    HW1 1811   1.996   0.141   3.130
  304SOL    HW2 1812   2.036   0.084   3.278
  305SOL     OW 1813   0.550   3.333   6.761
  305SOL    HW1 1814   0.468   3.302   6.713
  305SOL    HW2 1815   0.562   3.431   6.745
  306SOL     OW 1816   1.549   1.444   4.129
  306SOL    HW1 1817   1.487   1.521   4.113
  306SOL    HW2 1818   1.517   1.391   4.208
  307SOL     OW 1819   5.050   6.784   1.285
  307SOL    HW1 1820   4.992   6.703   1.290
  307SOL    HW2 1821   5.041   6.836   1.370
  308SOL     OW 1822   0.068   5.290   4.158
  308SOL    HW1 1823   0.028   5.374   4.196
  308SOL    HW2 1824   7.028   5.240   4.107
  309SOL     OW 1825   3.930   4.559   5.340
  309SOL    HW1 1826   4.017   4.608   5.340
  309SOL    HW2 1827   3.936   4.482   5.277
  310SOL     OW 1828   5.805   7.007   5.892
  310SOL    HW1 1829   5.796   6.924   5.947
  310SOL    HW2 1830   5.818   6.983   5.796
  311SOL     OW 1831   6.752   5.129   2.076
  311SOL    HW1 1832   6.662   5.100   2.108
  311SOL    HW2 1833   6.742   5.209   2.017
  312SOL     OW 1834   4.687   1.597   5.018
  312SOL    HW1 1835   4.700   1.642   4.930
  312SOL    HW2 1836   4.589   1.580   5.033
  313SOL     OW 1837   2.596   4.188   1.684
  313SOL    HW1 1838   2.619   4.284   1.704
  313SOL    HW2 1839   2.677   4.142   1.649
  314SOL     OW 1840   3.438   5.811   0.694
  314SOL    HW1 1841   3.513   5.874   0.672
  314SOL    HW2 1842   3.407   5.766   0.611
  315SOL     OW 1843   0.853   2.063   3.221
  315SOL    HW1 1844   0.797   2.134   3.176
  315SOL    HW2 1845   0.798   2.018   3.292
  316SOL     OW 1846   2.259   2.721   4.561
  316SOL    HW1 1847   2.255   2.761   4.652
  316SOL    HW2 1848   2.180   2.662   4.546
  317SOL     OW 1849   0.762   1.540   0.077
  317SOL    HW1 1850   0.750   1.441   0.072
  317SOL    HW2 1851   0.860   1.562   0.070
  318SOL     OW 1852   1.458   5.220   1.033
  318SOL    HW1 1853   1.458   5.188   1.128
  318SOL    HW2 1854   1.393   5.167   0.979
  319SOL     OW 1855   1.062   0.218   2.058
  319SOL    HW1 1856   1.025   0.257   2.142
  319SOL    HW2 1857   1.159   0.197   2.070
  320SOL     OW 1858   6.054   2.546   0.085
  320SOL    HW1 1859   5.956   2.547   0.066
  320SOL    HW2 1860   6.093   2.458   0.057
  321SOL     OW 1861   2.128   1.886   2.241
  321SOL    HW1 1862   2.154   1.790   2.226
  321SOL    HW2 1863   2.032   1.898   2.218
  322SOL     OW 1864   3.302   3.085   4.311
  322SOL    HW1 1865   3.309   3.180   4.280
  322SOL    HW2 1866   3.258   3.083   4.401
  323SOL     OW 1867   0.505   4.014   0.368
  323SOL    HW1 1868   0.600   4.035   0.347
  323SOL    HW2 1869   0.450   4.097   0.363
  324SOL     OW 1870   0.791   2.933   4.484
  324SOL    HW1 1871   0.789   3.020   4.534
  324SOL    HW2 1872   0.707   2.923   4.431
  325SOL     OW 1873   2.262   3.168   1.180
  325SOL    HW1 1874   2.348   3.121   1.199
  325SOL    HW2 1875   2.231   3.216   1.262
  326SOL     OW 1876   1.700   6.279   6.786
  326SOL    HW1 1877   1.609   6.289   6.825
  326SOL    HW2 1878   1.740   6.370   6.772
  327SOL     OW 1879   0.475   4.856   4.382
  327SOL    HW1 1880   0.485   4.945   4.428
  327SOL    HW2 1881   0.419   4.868   4.300
  328SOL     OW 1882   3.688   5.427   2.654
  328SOL    HW1 1883   3.628   5.346   2.659
  328SOL    HW2 1884   3.757   5.422   2.726
  329SOL     OW 1885   3.572   4.177   3.460
  329SOL    HW1 1886   3.531   4.178   3.369
  329SOL    HW2 1887   3.667   4.146   3.454
  330SOL     OW 1888   2.879   6.433   2.038
  330SOL    HW1 1889   2.823   6.464   2.115
  330SOL    HW2 1890   2.921   6.346   2.060
  331SOL     OW 1891   4.825   5.546   6.224
  331SOL    HW1 1892   4.894   5.598   6.173
  331SOL    HW2 1893   4.770   5.608   6.279
  332SOL     OW 1894   3.373   2.092   3.765
  332SOL    HW1 1895   3.381   1.996   3.740
  332SOL    HW2 1896   3.299   2.103   3.831
  333SOL     OW 1897   3.966   0.261   6.478
  333SOL    HW1 1898   4.019   0.313   6.546
  333SOL    HW2 1899   3.933   0.176   6.520
  334SOL     OW 1900   3.018   6.837   2.325
  334SOL    HW1 1901   2.953   6.904   2.287
  334SOL    HW2 1902   2.967   6.765   2.372
  335SOL     OW 1903   3.872   5.721   3.922
  335SOL    HW1 1904   3.782   5.742   3.960
  335SOL    HW2 1905   3.870   5.733   3.822
  336SOL     OW 1906   2.250   1.183   3.415
  336SOL    HW1 1907   2.202   1.217   3.334
  336SOL    HW2 1908   2.299   1.259   3.458
  337SOL     OW 1909   0.004   3.033   1.232
  337SOL    HW1 1910   7.024   3.129   1.207
  337SOL    HW2 1911   0.094   3.019   1.274
  338SOL     OW 1912   2.764   3.048   1.750
  338SOL    HW1 1913   2.847   2.993   1.755
  338SOL    HW2 1914   2.789   3.145   1.745
  339SOL     OW 1915   3.866   0.564   3.007
  339SOL    HW1 1916   3.829   0.597   3.094
  339SOL    HW2 1917   3.869   0.464   3.007
  340SOL     OW 1918   5.444   4.243   4.643
  340SOL    HW1 1919   5.513   4.303   4.683
  340SOL    HW2 1920   5.488   4.159   4.611
  341SOL     OW 1921   5.412   6.224   4.315
  341SOL    HW1 1922   5.497   6.275   4.327
  341SOL    HW2 1923   5.341   6.284   4.279
  342SOL     OW 1924   5.812   4.478   6.723
  342SOL    HW1 1925   5.899   4.430   6.718
  342SOL    HW2 1926   5.827   4.572   6.753
  343SOL     OW 1927   2.943   6.189   2.067
  343SOL    HW1 1928   2.968   6.128   2.143
  343SOL    HW2 1929   2.857   6.159   2.027
  344SOL     OW 1930   1.998   5.170   0.506
  344SOL    HW1 1931   2.073   5.163   0.572
  344SOL    HW2 1932   2.008   5.099   0.436
  345SOL     OW 1933   0.481   0.683   5.831
  345SOL    HW1 1934   0.484   0.783   5.826
  345SOL    HW2 1935   0.387   0.652   5.824
  346SOL     OW 1936   1.395   0.864   3.124
  346SOL    HW1 1937   1.487   0.849   3.162
  346SOL    HW2 1938   1.402   0.873   3.024
  347SOL     OW 1939   5.736   0.239   6.654
  347SOL    HW1 1940   5.678   0.304   6.607
  347SOL    HW2 1941   5.816   0.219   6.598
  348SOL     OW 1942   4.132   5.164   1.624
  348SOL    HW1 1943   4.045   5.169   1.576
  348SOL    HW2 1944   4.181   5.250   1.615
  349SOL     OW 1945   0.538   4.430   2.134
  349SOL    HW1 1946   0.553   4.510   2.076
  349SOL    HW2 1947   0.466   4.373   2.094
  350SOL     OW 1948   3.977   3.697   1.657
  350SOL    HW1 1949   4.036   3.691   1.738
  350SOL    HW2 1950   3.957   3.606   1.623
  351SOL     OW 1951   2.848   2.223   0.606
  351SOL    HW1 1952   2.858   2.220   0.705
  351SOL    HW2 1953   2.791   2.301   0.580
  352SOL     OW 1954   3.658   0.635   5.068
  352SOL    HW1 1955   3.673   0.626   4.970
  352SOL    HW2 1956   3.618   0.724   5.088
  353SOL     OW 1957   2.097   6.424   0.452
  353SOL    HW1 1958   2.081   6.489   0.378
  353SOL    HW2 1959   2.196   6.408   0.462
  354SOL     OW 1960   3.988   2.327   0.878
  354SOL    HW1 1961   3.929   2.401   0.911
  354SOL    HW2 1962   4.065   2.315   0.942
  355SOL     OW 1963   7.013   2.972   2.565
  355SOL    HW1 1964   0.040   2.975   2.483
  355SOL    HW2 1965   7.010   2.879   2.601
  356SOL     OW 1966   4.818   4.990   4.978
  356SOL    HW1 1967   4.884   4.925   4.940
  356SOL    HW2 1968   4.824   5.077   4.929
  357SOL     OW 1969   0.731   6.216   5.718
  357SOL    HW1 1970   0.675   6.137   5.744
  357SOL    HW2 1971   0.735   6.281   5.793
  358SOL     OW 1972   6.365   0.265   1.776
  358SOL    HW1 1973   6.364   0.310   1.865
  358SOL    HW2 1974   6.445   0.205   1.770
  359SOL     OW 1975   1.357   2.507   2.368
  359SOL    HW1 1976   1.279   2.461   2.411
  359SOL    HW2 1977   1.323   2.572   2.299
  360SOL     OW 1978   3.566   6.656   6.188
  360SOL    HW1 1979   3.472   6.675   6.160
  360SOL    HW2 1980   3.629   6.679   6.114
  361SOL     OW 1981   5.202   5.537   3.136
  361SOL    HW1 1982   5.181   5.483   3.218
  361SOL    HW2 1983   5.117   5.562   3.089
  362SOL     OW 1984   2.766   4.337   0.252
  362SOL    HW1 1985   2.709   4.397   0.196
  362SOL    HW2 1986   2.862   4.349   0.228
  363SOL     OW 1987   3.847   4.914   4.297
  363SOL    HW1 1988   3.816   5.008   4.311
  363SOL    HW2 1989   3.792   4.871   4.227
  364SOL     OW 1990   0.405   5.584   5.728
  364SOL    HW1 1991   0.305   5.594   5.737
  364SOL    HW2 1992   0.426   5.550   5.637
  365SOL     OW 1993   5.152   6.089   2.658
  365SOL    HW1 1994   5.079   6.156   2.670
  365SOL    HW2 1995   5.156   6.029   2.738
  366SOL     OW 1996   6.180   1.410   0.103
  366SOL    HW1 1997   6.195   1.503   0.070
  366SOL    HW2 1998   6.082   1.390   0.105
  367SOL     OW 1999   5.238   3.097   0.986
  367SOL    HW1 2000   5.281   3.152   0.914
  367SOL    HW2 2001   5.264   3.133   1.075
  368SOL     OW 2002   1.401   4.813   4.961
  368SOL    HW1 2003   1.484   4.766   4.993
  368SOL    HW2 2004   1.334   4.815   5.035
  369SOL     OW 2005   6.587   4.286   1.617
  369SOL    HW1 2006   6.516   4.271   1.685
  369SOL    HW2 2007   6.638   4.201   1.603
  370SOL     OW 2008   2.500   0.498   5.759
  370SOL    HW1 2009   2.537   0.585   5.792
  370SOL    HW2 2010   2.563   0.458   5.693
  371SOL     OW 2011   2.601   3.730   0.051
  371SOL    HW1 2012   2.664   3.807   0.065
  371SOL    HW2 2013   2.635   3.673   7.006
  372SOL     OW 2014   6.841   0.451   5.123
  372SOL    HW1 2015   6.885   0.505   5.195
  372SOL    HW2 2016   6.902   0.379   5.093
  373SOL     OW 2017   0.078   6.470   6.458
  373SOL    HW1 2018   7.011   6.455   6.434
  373SOL    HW2 2019   0.086   6.556   6.509
  374SOL     OW 2020   3.611   0.430   2.871
  374SOL    HW1 2021   3.681   0.447   2.801
  374SOL    HW2 2022   3.521   0.446   2.831
  375SOL     OW 2023   6.389   4.988   3.666
  375SOL    HW1 2024   6.332   5.040   3.730
  375SOL    HW2 2025   6.394   5.037   3.579
  376SOL     OW 2026   1.526   2.748   3.687
  376SOL    HW1 2027   1.497   2.749   3.591
  376SOL    HW2 2028   1.609   2.803   3.698
  377SOL     OW 2029   5.208   2.466   2.715
  377SOL    HW1 2030   5.215   2.562   2.689
  377SOL    HW2 2031   5.293   2.419   2.691
  378SOL     OW 2032   4.019   3.581   5.788
  378SOL    HW1 2033   4.079   3.502   5.776
  378SOL    HW2 2034   4.038   3.623   5.877
  379SOL     OW 2035   5.805   3.500   1.355
  379SOL    HW1 2036   5.816   3.596   1.329
  379SOL    HW2 2037   5.708   3.476   1.354
  380SOL     OW 2038   1.312   1.622   1.044
  380SOL    HW1 2039   1.291   1.525   1.052
  380SOL    HW2 2040   1.306   1.665   1.134
  381SOL     OW 2041   2.972   5.047   1.557
  381SOL    HW1 2042   2.951   5.000   1.643
  381SOL    HW2 2043   2.982   5.145   1.574
  382SOL     OW 2044   3.207   5.952   0.411
  382SOL    HW1 2045   3.274   5.963   0.338
  382SOL    HW2 2046   3.123   5.913   0.374
  383SOL     OW 2047   6.809   2.576   6.712
  383SOL    HW1 2048   6.884   2.533   6.661
  383SOL    HW2 2049   6.804   2.536   6.804
  384SOL     OW 2050   0.139   5.495   5.640
  384SOL    HW1 2051   0.163   5.447   5.556
  384SOL    HW2 2052   0.063   5.447   5.685
  385SOL     OW 2053   4.525   6.049   0.434
  385SOL    HW1 2054   4.536   6.127   0.495
  385SOL    HW2 2055   4.564   6.070   0.344
  386SOL     OW 2056   4.034   6.608   4.851
  386SOL    HW1 2057   3.967   6.542   4.886
  386SOL    HW2 2058   3.986   6.678   4.798
  387SOL     OW 2059   0.208   0.514   4.233
  387SOL    HW1 2060   0.307   0.526   4.230
  387SOL    HW2 2061   0.184   0.425   4.193
  388SOL     OW 2062   0.054   3.114   5.264
  388SOL    HW1 2063   7.018   3.156   5.201
  388SOL    HW2 2064   0.016   3.113   5.356
  389SOL     OW 2065   4.272   4.457   1.785
  389SOL    HW1 2066   4.182   4.459   1.741
  389SOL    HW2 2067   4.298   4.363   1.804
  390SOL     OW 2068   3.960   1.461   0.756
  390SOL    HW1 2069   3.909   1.507   0.683
  390SOL    HW2 2070   3.919   1.371   0.773
  391SOL     OW 2071   3.189   4.089   6.277
  391SOL    HW1 2072   3.230   4.158   6.217
  391SOL    HW2 2073   3.134   4.025   6.223
  392SOL     OW 2074   1.497   3.994   1.805
  392SOL    HW1 2075   1.506   3.966   1.709
  392SOL    HW2 2076   1.583   3.978   1.853
  393SOL     OW 2077   0.775   4.536   0.796
  393SOL    HW1 2078   0.795   4.562   0.890
  393SOL    HW2 2079   0.701   4.469   0.795
  394SOL     OW 2080   6.303   2.467   6.650
  394SOL    HW1 2081   6.388   2.520   6.644
  394SOL    HW2 2082   6.238   2.516   6.708
  395SOL     OW 2083   4.773   4.250   1.779
  395SOL    HW1 2084   4.727   4.230   1.692
  395SOL    HW2 2085   4.706   4.249   1.853
  396SOL     OW 2086   3.141   1.978   2.628
  396SOL    HW1 2087   3.106   2.059   2.581
  396SOL    HW2 2088   3.207   2.006   2.698
  397SOL     OW 2089   4.681   1.304   5.402
  397SOL    HW1 2090   4.737   1.233   5.444
  397SOL    HW2 2091   4.671   1.284   5.304
  398SOL     OW 2092   1.348   0.174   4.517
  398SOL    HW1 2093   1.376   0.128   4.432
  398SOL    HW2 2094   1.419   0.161   4.587
  399SOL     OW 2095   5.045   5.327   3.910
  399SOL    HW1 2096   4.973   5.310   3.978
  399SOL    HW2 2097   5.005   5.326   3.818
  400SOL     OW 2098   5.853   0.812   4.492
  400SOL    HW1 2099   5.786   0.749   4.451
  400SOL    HW2 2100   5.899   0.862   4.419
  401SOL     OW 2101   6.479   6.689   5.915
  401SOL    HW1 2102   6.427   6.751   5.856
  401SOL    HW2 2103   6.528   6.741   5.984
  402SOL     OW 2104   6.401   6.979   2.613
  402SOL    HW1 2105   6.304   6.994   2.592
  402SOL    HW2 2106   6.455   6.992   2.529
  403SOL     OW 2107   2.862   0.809   6.459
  403SOL    HW1 2108   2.869   0.884   6.392
  403SOL    HW2 2109   2.780   0.755   6.439
  404SOL     OW 2110   3.628   5.459   5.409
  404SOL    HW1 2111   3.613   5.363   5.430
  404SOL    HW2 2112   3.719   5.487   5.440
  405SOL     OW 2113   2.197   3.952   3.635
  405SOL    HW1 2114   2.296   3.946   3.642
  405SOL    HW2 2115   2.172   4.040   3.593
  406SOL     OW 2116   0.382   5.271   5.778
  406SOL    HW1 2117   0.320   5.208   5.732
  406SOL    HW2 2118   0.378   5.361   5.735
  407SOL     OW 2119   1.284   2.967   4.009
  407SOL    HW1 2120   1.377   2.964   3.973
  407SOL    HW2 2121   1.249   2.874   4.018
  408SOL     OW 2122   3.136   1.568   3.052
  408SOL    HW1 2123   3.055   1.593   3.104
  408SOL    HW2 2124   3.153   1.638   2.982
  409SOL     OW 2125   1.354   4.007   2.740
  409SOL    HW1 2126   1.392   4.080   2.685
  409SOL    HW2 2127   1.415   3.928   2.738
  410SOL     OW 2128   1.669   2.447   1.375
  410SOL    HW1 2129   1.581   2.492   1.387
  410SOL    HW2 2130   1.703   2.416   1.464
  411SOL     OW 2131   0.262   2.385   1.676
  411SOL    HW1 2132   0.245   2.317   1.747
  411SOL    HW2 2133   0.361   2.392   1.660
  412SOL     OW 2134   2.184   5.110   2.581
  412SOL    HW1 2135   2.204   5.111   2.679
  412SOL    HW2 2136   2.240   5.040   2.536
  413SOL     OW 2137   4.158   4.880   2.685
  413SOL    HW1 2138   4.129   4.931   2.604
  413SOL    HW2 2139   4.143   4.935   2.767
  414SOL     OW 2140   2.678   6.618   3.733
  414SOL    HW1 2141   2.590   6.657   3.706
  414SOL    HW2 2142   2.667   6.521   3.752
  415SOL     OW 2143   6.583   0.646   0.568
  415SOL    HW1 2144   6.514   0.574   0.565
  415SOL    HW2 2145   6.565   0.713   0.496
  416SOL     OW 2146   4.920   3.490   4.837
  416SOL    HW1 2147   4.863   3.533   4.908
  416SOL    HW2 2148   5.016   3.513   4.855
  417SOL     OW 2149   3.690   2.133   6.738
  417SOL    HW1 2150   3.728   2.219   6.705
  417SOL    HW2 2151   3.687   2.067   6.662
  418SOL     OW 2152   3.577   6.131   4.142
  418SOL    HW1 2153   3.611   6.224   4.136
  418SOL    HW2 2154   3.653   6.067   4.130
  419SOL     OW 2155   0.834   7.018   1.754
  419SOL    HW1 2156   0.865   0.068   1.701
  419SOL    HW2 2157   0.884   7.014   1.840
  420SOL     OW 2158   6.140   0.554   6.637
  420SOL    HW1 2159   6.083   0.511   6.568
  420SOL    HW2 2160   6.233   0.564   6.602
  421SOL     OW 2161   5.178   3.921   4.124
  421SOL    HW1 2162   5.079   3.925   4.111
  421SOL    HW2 2163   5.198   3.878   4.212
  422SOL     OW 2164   5.608   2.545   1.631
  422SOL    HW1 2165   5.601   2.643   1.612
  422SOL    HW2 2166   5.691   2.527   1.683
  423SOL     OW 2167   3.220   1.417   6.407
  423SOL    HW1 2168   3.308   1.464   6.414
  423SOL    HW2 2169   3.165   1.459   6.335
  424SOL     OW 2170   1.607   4.378   3.154
  424SOL    HW1 2171   1.527   4.429   3.124
  424SOL    HW2 2172   1.582   4.320   3.232
  425SOL     OW 2173   3.586   0.520   5.514
  425SOL    HW1 2174   3.666   0.576   5.537
  425SOL    HW2 2175   3.613   0.424   5.510
  426SOL     OW 2176   2.399   2.461   4.531
  426SOL    HW1 2177   2.366   2.543   4.578
  426SOL    HW2 2178   2.443   2.400   4.597
  427SOL     OW 2179   4.224   1.944   3.369
  427SOL    HW1 2180   4.194   1.987   3.284
  427SOL    HW2 2181   4.292   1.873   3.348
  428SOL     OW 2182   2.663   1.349   4.938
  428SOL    HW1 2183   2.572   1.389   4.922
  428SOL    HW2 2184   2.715   1.352   4.853
  429SOL     OW 2185   0.979   6.185   3.767
  429SOL    HW1 2186   0.921   6.104   3.769
  429SOL    HW2 2187   0.975   6.227   3.676
  430SOL     OW 2188   1.945   6.758   3.407
  430SOL    HW1 2189   1.949   6.825   3.333
  430SOL    HW2 2190   2.021   6.772   3.469
  431SOL     OW 2191   2.559   1.988   1.972
  431SOL    HW1 2192   2.635   2.052   1.981
  431SOL    HW2 2193   2.496   2.020   1.901
  432SOL     OW 2194   4.047   2.256   1.530
  432SOL    HW1 2195   3.970   2.295   1.581
  432SOL    HW2 2196   4.133   2.280   1.575
  433SOL     OW 2197   2.284   6.896   6.954
  433SOL    HW1 2198   2.328   6.914   0.012
  433SOL    HW2 2199   2.334   6.823   6.906
  434SOL     OW 2200   4.047   6.661   3.833
  434SOL    HW1 2201   4.079   6.606   3.910
  434SOL    HW2 2202   3.959   6.625   3.800
  435SOL     OW 2203   3.064   1.591   6.012
  435SOL    HW1 2204   2.983   1.587   5.954
  435SOL    HW2 2205   3.038   1.614   6.105
  436SOL     OW 2206   4.438   0.031   3.020
  436SOL    HW1 2207   4.527   0.007   3.058
  436SOL    HW2 2208   4.381   0.073   3.091
  437SOL     OW 2209   0.056   0.028   4.496
  437SOL    HW1 2210   0.017   0.116   4.524
  437SOL    HW2 2211   0.130   0.043   4.431
  438SOL     OW 2212   0.877   4.322   2.674
  438SOL    HW1 2213   0.866   4.403   2.733
  438SOL    HW2 2214   0.847   4.345   2.582
  439SOL     OW 2215   5.501   0.558   2.972
  439SOL    HW1 2216   5.593   0.562   3.012
  439SOL    HW2 2217   5.476   0.649   2.939
  440SOL     OW 2218   4.291   1.062   0.519
  440SOL    HW1 2219   4.348   1.063   0.601
  440SOL    HW2 2220   4.236   1.146   0.516
  441SOL     OW 2221   0.377   4.406   2.662
  441SOL    HW1 2222   0.413   4.396   2.569
  441SOL    HW2 2223   0.337   4.496   2.673
  442SOL     OW 2224   5.611   3.326   5.532
  442SOL    HW1 2225   5.541   3.327   5.461
  442SOL    HW2 2226   5.652   3.417   5.540
  443SOL     OW 2227   4.946   3.839   2.792
  443SOL    HW1 2228   4.973   3.870   2.883
  443SOL    HW2 2229   4.998   3.757   2.767
  444SOL     OW 2230   4.413   0.964   1.200
  444SOL    HW1 2231   4.332   0.995   1.150
  444SOL    HW2 2232   4.436   1.031   1.270
  445SOL     OW 2233   1.654   5.241   2.293
  445SOL    HW1 2234   1.706   5.163   2.258
  445SOL    HW2 2235   1.717   5.304   2.339
  446SOL     OW 2236   5.674   6.714   1.981
  446SOL    HW1 2237   5.743   6.767   1.931
  446SOL    HW2 2238   5.657   6.756   2.070
  447SOL     OW 2239   5.934   3.830   7.008
  447SOL    HW1 2240   6.002   3.826   0.052
  447SOL    HW2 2241   5.842   3.819   0.017
  448SOL     OW 2242   2.785   0.274   3.253
  448SOL    HW1 2243   2.842   0.312   3.326
  448SOL    HW2 2244   2.691   0.306   3.264
  449SOL     OW 2245   1.768   2.914   4.318
  449SOL    HW1 2246   1.739   2.868   4.401
  449SOL    HW2 2247   1.848   2.869   4.280
  450SOL     OW 2248   0.650   4.046   3.521
  450SOL    HW1 2249   0.597   3.999   3.450
  450SOL    HW2 2250   0.739   4.074   3.484
  451SOL     OW 2251   1.031   2.344   2.758
  451SOL    HW1 2252   0.938   2.308   2.747
  451SOL    HW2 2253   1.051   2.355   2.855
  452SOL     OW 2254   4.561   6.077   3.174
  452SOL    HW1 2255   4.544   6.175   3.168
  452SOL    HW2 2256   4.539   6.034   3.086
  453SOL     OW 2257   3.820   0.765   0.017
  453SOL    HW1 2258   3.817   0.673   7.008
  453SOL    HW2 2259   3.726   0.798   0.029
  454SOL     OW 2260   0.391   4.217   6.493
  454SOL    HW1 2261   0.427   4.310   6.503
  454SOL    HW2 2262   0.302   4.221   6.446
  455SOL     OW 2263   6.284   4.772   6.128
  455SOL    HW1 2264   6.247   4.843   6.188
  455SOL    HW2 2265   6.339   4.815   6.057
  456SOL     OW 2266   2.481   0.946   2.544
  456SOL    HW1 2267   2.514   1.001   2.467
  456SOL    HW2 2268   2.393   0.982   2.575
  457SOL     OW 2269   2.248   6.837   6.260
  457SOL    HW1 2270   2.261   6.935   6.246
  457SOL    HW2 2271   2.249   6.817   6.358
  458SOL     OW 2272   1.993   1.754   3.430
  458SOL    HW1 2273   2.075   1.735   3.485
  458SOL    HW2 2274   2.021   1.788   3.340
  459SOL     OW 2275   2.362   0.124   4.678
  459SOL    HW1 2276   2.385   0.180   4.758
  459SOL    HW2 2277   2.413   0.038   4.682
  460SOL     OW 2278   1.054   1.794   4.952
  460SOL    HW1 2279   0.998   1.870   4.918
  460SOL    HW2 2280   1.150   1.819   4.948
  461SOL     OW 2281   0.835   5.261   5.847
  461SOL    HW1 2282   0.854   5.359   5.854
  461SOL    HW2 2283   0.911   5.210   5.887
  462SOL     OW 2284   3.170   4.131   4.584
  462SOL    HW1 2285   3.108   4.054   4.565
  462SOL    HW2 2286   3.118   4.216   4.584
  463SOL     OW 2287   6.061   6.891   2.270
  463SOL    HW1 2288   5.984   6.853   2.322
  463SOL    HW2 2289   6.146   6.873   2.318
  464SOL     OW 2290   3.840   6.065   6.776
  464SOL    HW1 2291   3.833   6.000   6.852
  464SOL    HW2 2292   3.919   6.041   6.719
  465SOL     OW 2293   1.648   2.672   7.017
  465SOL    HW1 2294   1.672   2.769   7.010
  465SOL    HW2 2295   1.679   2.624   6.935
  466SOL     OW 2296   3.813   5.863   4.612
  466SOL    HW1 2297   3.896   5.912   4.586
  466SOL    HW2 2298   3.835   5.766   4.626
  467SOL     OW 2299   6.156   0.758   2.199
  467SOL    HW1 2300   6.126   0.801   2.284
  467SOL    HW2 2301   6.076   0.724   2.149
  468SOL     OW 2302   4.158   6.930   6.528
  468SOL    HW1 2303   4.223   6.980   6.585
  468SOL    HW2 2304   4.130   6.847   6.575
  469SOL     OW 2305   2.688   5.109   5.782
  469SOL    HW1 2306   2.648   5.043   5.846
  469SOL    HW2 2307   2.666   5.082   5.688
  470SOL     OW 2308   2.069   4.872   2.989
  470SOL    HW1 2309   1.996   4.811   2.958
  470SOL    HW2 2310   2.134   4.820   3.044
  471SOL     OW 2311   2.673   2.402   4.029
  471SOL    HW1 2312   2.580   2.404   3.992
  471SOL    HW2 2313   2.674   2.446   4.119
  472SOL     OW 2314   6.450   4.283   6.006
  472SOL    HW1 2315   6.461   4.188   6.036
  472SOL    HW2 2316   6.422   4.340   6.083
  473SOL     OW 2317   6.604   2.785   2.835
  473SOL    HW1 2318   6.593   2.884   2.830
  473SOL    HW2 2319   6.699   2.763   2.859
  474SOL     OW 2320   5.020   6.054   4.255
  474SOL    HW1 2321   5.067   6.096   4.332
  474SOL    HW2 2322   5.049   5.959   4.246
  475SOL     OW 2323   5.718   1.198   1.507
  475SOL    HW1 2324   5.780   1.276   1.511
  475SOL    HW2 2325   5.667   1.192   1.592
  476SOL     OW 2326   0.624   4.581   1.690
  476SOL    HW1 2327   0.709   4.553   1.645
  476SOL    HW2 2328   0.593   4.668   1.651
  477SOL     OW 2329   1.514   4.572   3.818
  477SOL    HW1 2330   1.527   4.518   3.734
  477SOL    HW2 2331   1.427   4.547   3.860
  478SOL     OW 2332   4.599   5.915   1.543
  478SOL    HW1 2333   4.668   5.882   1.479
  478SOL    HW2 2334   4.544   5.986   1.499
  479SOL     OW 2335   3.995   3.961   4.153
  479SOL    HW1 2336   3.983   3.994   4.246
  479SOL    HW2 2337   3.964   4.030   4.089
  480SOL     OW 2338   2.261   0.250   2.872
  480SOL    HW1 2339   2.297   0.299   2.951
  480SOL    HW2 2340   2.320   0.266   2.793
  481SOL     OW 2341   0.344   0.201   0.901
  481SOL    HW1 2342   0.398   0.134   0.952
  481SOL    HW2 2343   0.366   0.293   0.933
  482SOL     OW 2344   4.916   5.010   1.761
  482SOL    HW1 2345   4.963   5.096   1.743
  482SOL    HW2 2346   4.836   5.002   1.702
  483SOL     OW 2347   5.471   2.487   3.078
  483SOL    HW1 2348   5.499   2.443   3.164
  483SOL    HW2 2349   5.543   2.549   3.048
  484SOL     OW 2350   2.148   4.118   4.149
  484SOL    HW1 2351   2.066   4.064   4.167
  484SOL    HW2 2352   2.181   4.100   4.056
  485SOL     OW 2353   5.237   3.126   1.833
  485SOL    HW1 2354   5.234   3.103   1.930
  485SOL    HW2 2355   5.175   3.066   1.782
  486SOL     OW 2356   5.700   6.533   5.999
  486SOL    HW1 2357   5.786   6.577   5.973
  486SOL    HW2 2358   5.701   6.438   5.969
  487SOL     OW 2359   0.120   6.610   4.730
  487SOL    HW1 2360   0.069   6.660   4.660
  487SOL    HW2 2361   0.190   6.553   4.686
  488SOL     OW 2362   1.436   6.085   3.792
  488SOL    HW1 2363   1.533   6.076   3.773
  488SOL    HW2 2364   1.413   6.182   3.802
  489SOL     OW 2365   0.320   5.946   5.899
  489SOL    HW1 2366   0.286   5.975   5.809
  489SOL    HW2 2367   0.272   5.863   5.926
  490SOL     OW 2368   1.232   5.088   5.739
  490SOL    HW1 2369   1.285   5.153   5.684
  490SOL    HW2 2370   1.293   5.035   5.797
  491SOL     OW 2371   0.139   2.421   1.086
  491SOL    HW1 2372   0.220   2.445   1.141
  491SOL    HW2 2373   0.062   2.479   1.114
  492SOL     OW 2374   1.527   1.892   6.008
  492SOL    HW1 2375   1.547   1.798   6.037
  492SOL    HW2 2376   1.524   1.896   5.908
  493SOL     OW 2377   2.608   6.033   4.694
  493SOL    HW1 2378   2.615   6.130   4.717
  493SOL    HW2 2379   2.700   5.995   4.683
  494SOL     OW 2380   2.237   6.671   5.147
  494SOL    HW1 2381   2.149   6.702   5.109
  494SOL    HW2 2382   2.281   6.609   5.082
  495SOL     OW 2383   3.831   5.490   5.874
  495SOL    HW1 2384   3.912   5.498   5.816
  495SOL    HW2 2385   3.825   5.571   5.933
  496SOL     OW 2386   4.904   1.733   2.693
  496SOL    HW1 2387   4.987   1.684   2.719
  496SOL    HW2 2388   4.923   1.831   2.689
  497SOL     OW 2389   3.317   1.007   6.858
  497SOL    HW1 2390   3.230   1.057   6.855
  497SOL    HW2 2391   3.341   0.986   6.952
  498SOL     OW 2392   0.360   5.760   1.832
  498SOL    HW1 2393   0.300   5.680   1.826
  498SOL    HW2 2394   0.394   5.782   1.740
  499SOL     OW 2395   3.259   6.066   0.094
  499SOL    HW1 2396   3.309   6.097   0.175
  499SOL    HW2 2397   3.164   6.098   0.098
  500SOL     OW 2398   5.658   1.658   0.367
  500SOL    HW1 2399   5.636   1.754   0.382
  500SOL    HW2 2400   5.599   1.601   0.425
  501SOL     OW 2401   1.104   0.443   3.002
  501SOL    HW1 2402   1.055   0.524   2.970
  501SOL    HW2 2403   1.141   0.460   3.093
  502SOL     OW 2404   1.932   5.145   6.556
  502SOL    HW1 2405   1.871   5.224   6.548
  502SOL    HW2 2406   1.884   5.063   6.526
  503SOL     OW 2407   3.587   5.088   6.904
  503SOL    HW1 2408   3.662   5.026   6.881
  503SOL    HW2 2409   3.562   5.076   7.001
  504SOL     OW 2410   6.185   6.440   1.884
  504SOL    HW1 2411   6.197   6.398   1.794
  504SOL    HW2 2412   6.275   6.457   1.925
  505SOL     OW 2413   4.923   6.795   4.664
  505SOL    HW1 2414   4.984   6.753   4.731
  505SOL    HW2 2415   4.908   6.891   4.688
  506SOL     OW 2416   3.640   5.206   3.068
  506SOL    HW1 2417   3.730   5.237   3.038
  506SOL    HW2 2418   3.576   5.283   3.068
  507SOL     OW 2419   3.619   0.558   0.887
  507SOL    HW1 2420   3.523   0.546   0.912
  507SOL    HW2 2421   3.637   0.512   0.800
  508SOL     OW 2422   6.871   5.047   4.062
  508SOL    HW1 2423   6.879   5.026   3.965
  508SOL    HW2 2424   6.856   4.963   4.114
  509SOL     OW 2425   4.507   6.523   5.958
  509SOL    HW1 2426   4.509   6.564   6.050
  509SOL    HW2 2427   4.589   6.551   5.908
  510SOL     OW 2428   6.972   3.938   6.743
  510SOL    HW1 2429   0.002   3.859   6.736
  510SOL    HW2 2430   6.886   3.921   6.695
  511SOL     OW 2431   0.930   1.761   0.834
  511SOL    HW1 2432   0.902   1.855   0.814
  511SOL    HW2 2433   1.029   1.756   0.840
  512SOL     OW 2434   6.641   2.473   6.371
  512SOL    HW1 2435   6.636   2.543   6.300
  512SOL    HW2 2436   6.550   2.458   6.409
  513SOL     OW 2437   5.498   0.303   2.888
  513SOL    HW1 2438   5.432   0.294   2.813
  513SOL    HW2 2439   5.535   0.396   2.889
  514SOL     OW 2440   6.271   6.736   4.048
  514SOL    HW1 2441   6.188   6.783   4.017
  514SOL    HW2 2442   6.288   6.758   4.144
  515SOL     OW 2443   3.832   6.793   6.642
  515SOL    HW1 2444   3.930   6.785   6.625
  515SOL    HW2 2445   3.781   6.773   6.558
  516SOL     OW 2446   1.900   5.606   1.474
  516SOL    HW1 2447   1.852   5.685   1.511
  516SOL    HW2 2448   1.919   5.541   1.548
  517SOL     OW 2449   3.207   5.189   2.282
  517SOL    HW1 2450   3.215   5.091   2.261
  517SOL    HW2 2451   3.199   5.201   2.381
  518SOL     OW 2452   2.110   3.461   3.560
  518SOL    HW1 2453   2.132   3.377   3.510
  518SOL    HW2 2454   2.075   3.437   3.650
  519SOL     OW 2455   0.287   6.875   3.509
  519SOL    HW1 2456   0.355   6.904   3.442
  519SOL    HW2 2457   0.216   6.821   3.463
  520SOL     OW 2458   1.742   3.157   0.250
  520SOL    HW1 2459   1.772   3.251   0.239
  520SOL    HW2 2460   1.732   3.137   0.348
  521SOL     OW 2461   5.357   4.969   5.489
  521SOL    HW1 2462   5.302   5.024   5.426
  521SOL    HW2 2463   5.401   4.896   5.438
  522SOL     OW 2464   4.271   3.878   1.422
  522SOL    HW1 2465   4.174   3.877   1.400
  522SOL    HW2 2466   4.284   3.877   1.521
  523SOL     OW 2467   0.479   6.399   1.981
  523SOL    HW1 2468   0.577   6.416   1.978
  523SOL    HW2 2469   0.456   6.321   1.922
  524SOL     OW 2470   6.979   2.039   1.666
  524SOL    HW1 2471   6.957   2.125   1.619
  524SOL    HW2 2472   6.912   2.023   1.739
  525SOL     OW 2473   1.693   4.037   6.544
  525SOL    HW1 2474   1.773   4.096   6.531
  525SOL    HW2 2475   1.723   3.942   6.549
  526SOL     OW 2476   2.875   6.884   4.503
  526SOL    HW1 2477   2.829   6.969   4.529
  526SOL    HW2 2478   2.968   6.903   4.474
  527SOL     OW 2479   1.014   1.969   0.545
  527SOL    HW1 2480   1.030   2.058   0.589
  527SOL    HW2 2481   0.971   1.907   0.611
  528SOL     OW 2482   6.427   3.061   4.209
  528SOL    HW1 2483   6.356   3.115   4.165
  528SOL    HW2 2484   6.385   2.993   4.268
  529SOL     OW 2485   2.287   0.342   5.878
  529SOL    HW1 2486   2.278   0.404   5.955
  529SOL    HW2 2487   2.363   0.371   5.820
  530SOL     OW 2488   3.681   3.726   0.945
  530SOL    HW1 2489   3.669   3.684   1.035
  530SOL    HW2 2490   3.644   3.819   0.947
  531SOL     OW 2491   2.091   0.628   1.960
  531SOL    HW1 2492   2.078   0.531   1.936
  531SOL    HW2 2493   2.110   0.680   1.877
  532SOL     OW 2494   2.702   2.440   0.512
  532SOL    HW1 2495   2.688   2.483   0.422
  532SOL    HW2 2496   2.770   2.492   0.563
  533SOL     OW 2497   3.835   0.326   3.854
  533SOL    HW1 2498   3.826   0.253   3.786
  533SOL    HW2 2499   3.793   0.410   3.819
  534SOL     OW 2500   1.189   5.208   1.317
  534SOL    HW1 2501   1.214   5.227   1.412
  534SOL    HW2 2502   1.247   5.135   1.281
  535SOL     OW 2503   5.311   3.771   3.531
  535SOL    HW1 2504   5.323   3.728   3.442
  535SOL    HW2 2505   5.295   3.701   3.601
  536SOL     OW 2506   6.478   6.245   3.041
  536SOL    HW1 2507   6.523   6.268   2.955
  536SOL    HW2 2508   6.400   6.306   3.056
  537SOL     OW 2509   3.587   0.867   4.466
  537SOL    HW1 2510   3.588   0.860   4.366
  537SOL    HW2 2511   3.564   0.960   4.493
  538SOL     OW 2512   2.539   4.714   5.632
  538SOL    HW1 2513   2.617   4.709   5.570
  538SOL    HW2 2514   2.556   4.783   5.702
  539SOL     OW 2515   0.786   6.231   0.337
  539SOL    HW1 2516   0.811   6.279   0.421
  539SOL    HW2 2517   0.861   6.238   0.271
  540SOL     OW 2518   1.047   0.328   3.959
  540SOL    HW1 2519   0.962   0.278   3.950
  540SOL    HW2 2520   1.062   0.352   4.055
  541SOL     OW 2521   4.154   6.519   4.375
  541SOL    HW1 2522   4.240   6.541   4.328
  541SOL    HW2 2523   4.157   6.555   4.468
  542SOL     OW 2524   2.984   6.377   6.760
  542SOL    HW1 2525   2.939   6.363   6.672
  542SOL    HW2 2526   3.031   6.293   6.787
  543SOL     OW 2527   5.273   2.328   4.402
  543SOL    HW1 2528   5.305   2.307   4.494
  543SOL    HW2 2529   5.276   2.427   4.387
  544SOL     OW 2530   0.576   4.323   0.740
  544SOL    HW1 2531   0.648   4.254   0.756
  544SOL    HW2 2532   0.498   4.280   0.696
  545SOL     OW 2533   5.343   1.139   1.964
  545SOL    HW1 2534   5.323   1.178   1.874
  545SOL    HW2 2535   5.288   1.057   1.978
  546SOL     OW 2536   0.556   3.977   2.280
  546SOL    HW1 2537   0.582   4.036   2.356
  546SOL    HW2 2538   0.545   3.883   2.313
  547SOL     OW 2539   4.589   1.449   6.789
  547SOL    HW1 2540   4.684   1.475   6.803
  547SOL    HW2 2541   4.585   1.360   6.744
  548SOL     OW 2542   3.592   2.751   0.125
  548SOL    HW1 2543   3.644   2.835   0.112
  548SOL    HW2 2544   3.633   2.678   0.071
  549SOL     OW 2545   5.983   2.055   1.036
  549SOL    HW1 2546   6.067   2.094   0.997
  549SOL    HW2 2547   5.965   2.097   1.125
  550SOL     OW 2548   0.033   4.558   2.986
  550SOL    HW1 2549   0.133   4.559   2.986
  550SOL    HW2 2550   0.000   4.492   3.054
  551SOL     OW 2551   6.945   0.794   0.426
  551SOL    HW1 2552   6.887   0.875   0.419
  551SOL    HW2 2553   6.912   0.735   0.500
  552SOL     OW 2554   5.628   5.530   5.895
  552SOL    HW1 2555   5.714   5.523   5.843
  552SOL    HW2 2556   5.564   5.589   5.845
  553SOL     OW 2557   3.388   1.392   5.621
  553SOL    HW1 2558   3.323   1.386   5.545
  553SOL    HW2 2559   3.465   1.330   5.605
  554SOL     OW 2560   5.978   5.867   0.841
  554SOL    HW1 2561   6.035   5.948   0.828
  554SOL    HW2 2562   5.895   5.876   0.785
  555SOL     OW 2563   2.212   5.361   5.383
  555SOL    HW1 2564   2.231   5.419   5.463
  555SOL    HW2 2565   2.280   5.378   5.312
  556SOL     OW 2566   4.761   1.564   3.764
  556SOL    HW1 2567   4.671   1.535   3.733
  556SOL    HW2 2568   4.794   1.500   3.834
  557SOL     OW 2569   6.374   4.899   5.660
  557SOL    HW1 2570   6.333   4.811   5.635
  557SOL    HW2 2571   6.453   4.917   5.602
  558SOL     OW 2572   3.640   3.736   2.590
  558SOL    HW1 2573   3.639   3.828   2.631
  558SOL    HW2 2574   3.554   3.689   2.611
  559SOL     OW 2575   6.315   6.426   5.702
  559SOL    HW1 2576   6.283   6.434   5.797
  559SOL    HW2 2577   6.262   6.355   5.655
  560SOL     OW 2578   6.494   3.177   3.046
  560SOL    HW1 2579   6.405   3.133   3.056
  560SOL    HW2 2580   6.546   3.167   3.131
  561SOL     OW 2581   0.751   3.059   6.277
  561SOL    HW1 2582   0.718   3.126   6.344
  561SOL    HW2 2583   0.842   3.087   6.246
  562SOL     OW 2584   4.221   0.590   5.882
  562SOL    HW1 2585   4.160   0.599   5.804
  562SOL    HW2 2586   4.296   0.527   5.859
  563SOL     OW 2587   1.526   1.968   4.193
  563SOL    HW1 2588   1.534   1.900   4.266
  563SOL    HW2 2589   1.457   1.939   4.128
  564SOL     OW 2590   0.275   2.075   5.304
  564SOL    HW1 2591   0.258   2.160   5.353
  564SOL    HW2 2592   0.207   2.007   5.332
  565SOL     OW 2593   3.205   2.992   3.567
  565SOL    HW1 2594   3.138   3.009   3.639
  565SOL    HW2 2595   3.276   2.929   3.601
  566SOL     OW 2596   3.454   5.852   2.943
  566SOL    HW1 2597   3.398   5.867   3.024
  566SOL    HW2 2598   3.482   5.940   2.905
  567SOL     OW 2599   2.341   2.122   6.604
  567SOL    HW1 2600   2.395   2.206   6.606
  567SOL    HW2 2601   2.385   2.056   6.542
  568SOL     OW 2602   6.495   0.421   0.890
  568SOL    HW1 2603   6.513   0.519   0.902
  568SOL    HW2 2604   6.567   0.381   0.833
  569SOL     OW 2605   0.333   1.969   0.359
  569SOL    HW1 2606   0.358   1.900   0.290
  569SOL    HW2 2607   0.352   1.933   0.450
  570SOL     OW 2608   2.881   0.273   6.236
  570SOL    HW1 2609   2.858   0.316   6.323
  570SOL    HW2 2610   2.823   0.193   6.222
  571SOL     OW 2611   2.945   4.780   3.062
  571SOL    HW1 2612   2.888   4.805   2.984
  571SOL    HW2 2613   2.933   4.683   3.082
  572SOL     OW 2614   2.276   6.269   4.103
  572SOL    HW1 2615   2.354   6.255   4.164
  572SOL    HW2 2616   2.307   6.318   4.021
  573SOL     OW 2617   5.997   2.331   5.715
  573SOL    HW1 2618   6.023   2.399   5.783
  573SOL    HW2 2619   5.931   2.267   5.755
  574SOL     OW 2620   2.683   1.731   5.083
  574SOL    HW1 2621   2.626   1.812   5.067
  574SOL    HW2 2622   2.664   1.696   5.175
  575SOL     OW 2623   3.259   3.353   0.047
  575SOL    HW1 2624   3.359   3.351   0.044
  575SOL    HW2 2625   3.228   3.448   0.051
  576SOL     OW 2626   1.755   3.355   3.042
  576SOL    HW1 2627   1.760   3.267   3.091
  576SOL    HW2 2628   1.776   3.429   3.105
  577SOL     OW 2629   1.384   1.368   2.288
  577SOL    HW1 2630   1.327   1.419   2.352
  577SOL    HW2 2631   1.440   1.431   2.236
  578SOL     OW 2632   2.169   5.517   0.063
  578SOL    HW1 2633   2.170   5.484   6.999
  578SOL    HW2 2634   2.127   5.608   0.066
  579SOL     OW 2635   2.662   4.575   2.389
  579SOL    HW1 2636   2.705   4.625   2.314
  579SOL    HW2 2637   2.709   4.596   2.474
  580SOL     OW 2638   4.365   5.835   5.198
  580SOL    HW1 2639   4.400   5.792   5.114
  580SOL    HW2 2640   4.274   5.872   5.181
  581SOL     OW 2641   1.094   2.918   3.671
  581SOL    HW1 2642   1.065   2.830   3.633
  581SOL    HW2 2643   1.073   2.920   3.769
  582SOL     OW 2644   5.637   5.187   3.350
  582SOL    HW1 2645   5.736   5.182   3.362
  582SOL    HW2 2646   5.601   5.096   3.331
  583SOL     OW 2647   3.265   5.290   6.336
  583SOL    HW1 2648   3.321   5.216   6.374
  583SOL    HW2 2649   3.280   5.296   6.238
  584SOL     OW 2650   3.866   0.550   6.816
  584SOL    HW1 2651   3.843   0.456   6.792
  584SOL    HW2 2652   3.944   0.551   6.878
  585SOL     OW 2653   2.222   6.338   2.025
  585SOL    HW1 2654   2.175   6.318   2.111
  585SOL    HW2 2655   2.205   6.433   1.999
  586SOL     OW 2656   4.103   0.087   1.115
  586SOL    HW1 2657   4.156   0.124   1.191
  586SOL    HW2 2658   4.160   0.086   1.033
  587SOL     OW 2659   5.282   2.007   1.934
  587SOL    HW1 2660   5.235   1.944   1.872
  587SOL    HW2 2661   5.295   1.963   2.023
  588SOL     OW 2662   1.192   5.564   1.593
  588SOL    HW1 2663   1.242   5.567   1.680
  588SOL    HW2 2664   1.237   5.624   1.527
  589SOL     OW 2665   3.604   5.783   1.395
  589SOL    HW1 2666   3.519   5.809   1.441
  589SOL    HW2 2667   3.640   5.700   1.436
  590SOL     OW 2668   5.470   1.128   0.892
  590SOL    HW1 2669   5.479   1.055   0.960
  590SOL    HW2 2670   5.528   1.205   0.918
  591SOL     OW 2671   4.430   5.357   4.403
  591SOL    HW1 2672   4.382   5.439   4.431
  591SOL    HW2 2673   4.520   5.381   4.368
  592SOL     OW 2674   4.639   1.791   4.533
  592SOL    HW1 2675   4.737   1.788   4.548
  592SOL    HW2 2676   4.615   1.879   4.491
  593SOL     OW 2677   3.418   2.064   5.383
  593SOL    HW1 2678   3.445   2.049   5.479
  593SOL    HW2 2679   3.337   2.122   5.380
  594SOL     OW 2680   5.527   1.346   1.693
  594SOL    HW1 2681   5.429   1.333   1.708
  594SOL    HW2 2682   5.541   1.425   1.634
  595SOL     OW 2683   5.492   6.098   2.427
  595SOL    HW1 2684   5.458   6.053   2.344
  595SOL    HW2 2685   5.569   6.045   2.463
  596SOL     OW 2686   6.935   3.894   3.723
  596SOL    HW1 2687   7.012   3.909   3.661
  596SOL    HW2 2688   6.958   3.928   3.814
  597SOL     OW 2689   2.966   6.701   5.991
  597SOL    HW1 2690   3.049   6.666   5.947
  597SOL    HW2 2691   2.932   6.633   6.055
  598SOL     OW 2692   2.907   3.956   5.028
  598SOL    HW1 2693   2.826   4.008   5.000
  598SOL    HW2 2694   2.952   3.918   4.948
  599SOL     OW 2695   1.553   5.722   1.950
  599SOL    HW1 2696   1.584   5.783   2.023
  599SOL    HW2 2697   1.462   5.751   1.920
  600SOL     OW 2698   6.984   4.015   4.682
  600SOL    HW1 2699   6.914   4.077   4.644
  600SOL    HW2 2700   0.039   4.024   4.629
  601SOL     OW 2701   1.043   0.801   4.696
  601SOL    HW1 2702   1.135   0.776   4.665
  601SOL    HW2 2703   1.031   0.774   4.792
  602SOL     OW 2704   2.642   6.303   4.717
  602SOL    HW1 2705   2.668   6.320   4.812
  602SOL    HW2 2706   2.615   6.389   4.673
  603SOL     OW 2707   1.511   0.925   5.090
  603SOL    HW1 2708   1.422   0.902   5.050
  603SOL    HW2 2709   1.537   1.018   5.064
  604SOL     OW 2710   6.909   2.501   1.874
  604SOL    HW1 2711   6.880   2.487   1.780
  604SOL    HW2 2712   6.834   2.540   1.927
  605SOL     OW 2713   0.208   4.292   2.048
  605SOL    HW1 2714   0.117   4.320   2.080
  605SOL    HW2 2715   0.225   4.197   2.073
  606SOL     OW 2716   3.872   6.969   5.244
  606SOL    HW1 2717   3.801   6.997   5.180
  606SOL    HW2 2718   3.878   6.869   5.246
  607SOL     OW 2719   1.449   4.908   5.798
  607SOL    HW1 2720   1.500   4.953   5.872
  607SOL    HW2 2721   1.512   4.888   5.723
  608SOL     OW 2722   4.060   0.187   6.193
  608SOL    HW1 2723   4.014   0.274   6.206
  608SOL    HW2 2724   4.056   0.134   6.278
  609SOL     OW 2725   3.968   2.562   1.449
  609SOL    HW1 2726   3.948   2.653   1.487
  609SOL    HW2 2727   3.921   2.493   1.504
  610SOL     OW 2728   4.513   2.680   0.234
  610SOL    HW1 2729   4.507   2.767   0.186
  610SOL    HW2 2730   4.562   2.614   0.177
  611SOL     OW 2731   3.990   0.400   2.595
  611SOL    HW1 2732   4.050   0.478   2.577
  611SOL    HW2 2733   3.961   0.359   2.509
  612SOL     OW 2734   3.633   4.797   6.059
  612SOL    HW1 2735   3.663   4.703   6.044
  612SOL    HW2 2736   3.670   4.830   6.146
  613SOL     OW 2737   5.308   5.896   5.413
  613SOL    HW1 2738   5.306   5.993   5.435
  613SOL    HW2 2739   5.252   5.878   5.333
  614SOL     OW 2740   5.128   5.626   5.597
  614SOL    HW1 2741   5.204   5.674   5.553
  614SOL    HW2 2742   5.048   5.687   5.600
  615SOL     OW 2743   0.177   4.389   0.895
  615SOL    HW1 2744   0.088   4.343   0.891
  615SOL    HW2 2745   0.202   4.406   0.991
  616SOL     OW 2746   6.294   2.696   3.447
  616SOL    HW1 2747   6.323   2.600   3.444
  616SOL    HW2 2748   6.239   2.717   3.366
  617SOL     OW 2749   2.601   5.581   6.196
  617SOL    HW1 2750   2.696   5.551   6.183
  617SOL    HW2 2751   2.545   5.549   6.121
  618SOL     OW 2752   1.328   1.373   1.438
  618SOL    HW1 2753   1.340   1.391   1.536
  618SOL    HW2 2754   1.416   1.383   1.392
  619SOL     OW 2755   1.949   1.970   6.508
  619SOL    HW1 2756   1.859   2.001   6.476
  619SOL    HW2 2757   1.940   1.931   6.600
  620SOL     OW 2758   4.632   2.545   0.541
  620SOL    HW1 2759   4.594   2.561   0.451
  620SOL    HW2 2760   4.732   2.538   0.535
  621SOL     OW 2761   6.564   5.091   0.470
  621SOL    HW1 2762   6.633   5.115   0.538
  621SOL    HW2 2763   6.480   5.144   0.488
  622SOL     OW 2764   1.923   1.656   0.297
  622SOL    HW1 2765   1.848   1.647   0.362
  622SOL    HW2 2766   1.895   1.619   0.208
  623SOL     OW 2767   0.719   4.920   6.391
  623SOL    HW1 2768   0.723   5.005   6.337
  623SOL    HW2 2769   0.810   4.901   6.429
  624SOL     OW 2770   0.540   2.345   2.579
  624SOL    HW1 2771   0.482   2.302   2.649
  624SOL    HW2 2772   0.506   2.437   2.560
  625SOL     OW 2773   2.779   1.417   2.763
  625SOL    HW1 2774   2.734   1.351   2.703
  625SOL    HW2 2775   2.819   1.490   2.709
  626SOL     OW 2776   2.025   6.461   3.563
  626SOL    HW1 2777   2.084   6.532   3.603
  626SOL    HW2 2778   1.981   6.496   3.481
  627SOL     OW 2779   5.437   1.022   0.396
  627SOL    HW1 2780   5.487   0.955   0.451
  627SOL    HW2 2781   5.438   0.993   0.300
  628SOL     OW 2782   4.893   4.695   4.000
  628SOL    HW1 2783   4.969   4.741   3.952
  628SOL    HW2 2784   4.920   4.602   4.023
  629SOL     OW 2785   0.546   6.962   1.566
  629SOL    HW1 2786   0.486   6.893   1.607
  629SOL    HW2 2787   0.545   0.015   1.622
  630SOL     OW 2788   4.664   1.224   1.799
  630SOL    HW1 2789   4.603   1.193   1.871
  630SOL    HW2 2790   4.712   1.307   1.828
  631SOL     OW 2791   2.412   0.097   5.718
  631SOL    HW1 2792   2.353   0.164   5.762
  631SOL    HW2 2793   2.374   0.006   5.730
  632SOL     OW 2794   2.377   0.800   0.634
  632SOL    HW1 2795   2.336   0.879   0.680
  632SOL    HW2 2796   2.423   0.742   0.701
  633SOL     OW 2797   3.305   6.325   0.357
  633SOL    HW1 2798   3.328   6.259   0.428
  633SOL    HW2 2799   3.363   6.406   0.367
  634SOL     OW 2800   4.388   5.197   1.253
  634SOL    HW1 2801   4.294   5.213   1.221
  634SOL    HW2 2802   4.415   5.271   1.314
  635SOL     OW 2803   3.365   0.433   2.742
  635SOL    HW1 2804   3.276   0.468   2.770
  635SOL    HW2 2805   3.361   0.334   2.732
  636SOL     OW 2806   5.453   5.267   6.741
  636SOL    HW1 2807   5.505   5.256   6.826
  636SOL    HW2 2808   5.500   5.219   6.667
  637SOL     OW 2809   4.920   5.008   1.365
  637SOL    HW1 2810   4.932   5.023   1.267
  637SOL    HW2 2811   4.969   4.926   1.393
  638SOL     OW 2812   5.230   1.329   1.724
  638SOL    HW1 2813   5.163   1.373   1.783
  638SOL    HW2 2814   5.183   1.271   1.658
  639SOL     OW 2815   4.392   4.655   1.657
  639SOL    HW1 2816   4.352   4.653   1.565
  639SOL    HW2 2817   4.363   4.574   1.708
  640SOL     OW 2818   2.249   4.069   5.587
  640SOL    HW1 2819   2.235   3.986   5.532
  640SOL    HW2 2820   2.205   4.058   5.676
  641SOL     OW 2821   0.494   5.772   4.658
  641SOL    HW1 2822   0.560   5.750   4.729
  641SOL    HW2 2823   0.469   5.689   4.608
  642SOL     OW 2824   0.224   4.955   4.947
  642SOL    HW1 2825   0.237   5.022   4.874
  642SOL    HW2 2826   0.175   4.875   4.910
  643SOL     OW 2827   6.608   5.468   6.129
  643SOL    HW1 2828   6.663   5.521   6.194
  643SOL    HW2 2829   6.525   5.437   6.174
  644SOL     OW 2830   1.221   6.428   2.668
  644SOL    HW1 2831   1.172   6.388   2.746
  644SOL    HW2 2832   1.174   6.402   2.583
  645SOL     OW 2833   4.944   2.601   4.206
  645SOL    HW1 2834   4.934   2.569   4.112
  645SOL    HW2 2835   5.028   2.656   4.213
  646SOL     OW 2836   1.346   1.101   3.938
  646SOL    HW1 2837   1.332   1.017   3.991
  646SOL    HW2 2838   1.439   1.135   3.954
  647SOL     OW 2839   6.070   2.800   6.985
  647SOL    HW1 2840   6.076   2.711   0.002
  647SOL    HW2 2841   6.023   2.865   0.015
  648SOL     OW 2842   5.919   3.591   2.465
  648SOL    HW1 2843   5.856   3.606   2.388
  648SOL    HW2 2844   5.998   3.652   2.455
  649SOL     OW 2845   3.802   4.604   0.948
  649SOL    HW1 2846   3.770   4.539   0.879
  649SOL    HW2 2847   3.838   4.686   0.902
  650SOL     OW 2848   4.701   4.366   0.835
  650SOL    HW1 2849   4.620   4.419   0.859
  650SOL    HW2 2850   4.760   4.419   0.775
  651SOL     OW 2851   0.514   6.527   1.019
  651SOL    HW1 2852   0.565   6.611   1.036
  651SOL    HW2 2853   0.569   6.448   1.045
  652SOL     OW 2854   4.611   0.435   3.101
  652SOL    HW1 2855   4.581   0.406   3.010
  652SOL    HW2 2856   4.543   0.498   3.139
  653SOL     OW 2857   3.284   4.999   4.053
  653SOL    HW1 2858   3.213   4.957   4.109
  653SOL    HW2 2859   3.339   5.060   4.110
  654SOL     OW 2860   6.881   5.398   6.876
  654SOL    HW1 2861   6.930   5.484   6.865
  654SOL    HW2 2862   6.937   5.323   6.839
  655SOL     OW 2863   0.605   0.170   1.160
  655SOL    HW1 2864   0.655   0.247   1.120
  655SOL    HW2 2865   0.644   0.146   1.248
  656SOL     OW 2866   2.287   6.092   2.352
  656SOL    HW1 2867   2.378   6.068   2.387
  656SOL    HW2 2868   2.266   6.033   2.274
  657SOL     OW 2869   2.952   1.484   0.795
  657SOL    HW1 2870   2.891   1.408   0.819
  657SOL    HW2 2871   3.019   1.453   0.728
  658SOL     OW 2872   3.340   3.750   6.861
  658SOL    HW1 2873   3.386   3.778   6.945
  658SOL    HW2 2874   3.395   3.777   6.782
  659SOL     OW 2875   3.051   6.795   0.114
  659SOL    HW1 2876   3.041   6.719   0.049
  659SOL    HW2 2877   2.971   6.854   0.107
  660SOL     OW 2878   3.946   5.839   2.337
  660SOL    HW1 2879   3.999   5.867   2.417
  660SOL    HW2 2880   3.986   5.880   2.255
  661SOL     OW 2881   4.707   5.833   2.889
  661SOL    HW1 2882   4.621   5.813   2.935
  661SOL    HW2 2883   4.776   5.859   2.957
  662SOL     OW 2884   3.577   1.327   5.884
  662SOL    HW1 2885   3.567   1.330   5.983
  662SOL    HW2 2886   3.491   1.355   5.841
  663SOL     OW 2887   2.145   4.843   5.247
  663SOL    HW1 2888   2.182   4.903   5.318
  663SOL    HW2 2889   2.076   4.782   5.288
  664SOL     OW 2890   0.061   6.949   6.733
  664SOL    HW1 2891   0.140   6.905   6.776
  664SOL    HW2 2892   0.093   7.019   6.669
  665SOL     OW 2893   3.114   5.757   3.719
  665SOL    HW1 2894   3.101   5.657   3.719
  665SOL    HW2 2895   3.178   5.782   3.792
  666SOL     OW 2896   4.164   0.881   2.562
  666SOL    HW1 2897   4.125   0.794   2.530
  666SOL    HW2 2898   4.240   0.907   2.503
  667SOL     OW 2899   0.878   5.527   1.877
  667SOL    HW1 2900   0.802   5.464   1.891
  667SOL    HW2 2901   0.878   5.560   1.782
  668SOL     OW 2902   5.674   4.395   6.277
  668SOL    HW1 2903   5.670   4.324   6.207
  668SOL    HW2 2904   5.608   4.467   6.254
  669SOL     OW 2905   6.028   1.350   2.746
  669SOL    HW1 2906   5.973   1.301   2.814
  669SOL    HW2 2907   6.105   1.292   2.719
  670SOL     OW 2908   1.532   1.710   3.662
  670SOL    HW1 2909   1.626   1.741   3.645
  670SOL    HW2 2910   1.474   1.739   3.586
  671SOL     OW 2911   2.428   6.600   1.665
  671SOL    HW1 2912   2.493   6.525   1.650
  671SOL    HW2 2913   2.394   6.596   1.758
  672SOL     OW 2914   0.532   5.972   1.987
  672SOL    HW1 2915   0.508   5.882   1.950
  672SOL    HW2 2916   0.495   6.044   1.929
  673SOL     OW 2917   5.568   6.735   1.207
  673SOL    HW1 2918   5.475   6.737   1.243
  673SOL    HW2 2919   5.606   6.827   1.206
  674SOL     OW 2920   6.877   1.371   5.055
  674SOL    HW1 2921   6.923   1.460   5.048
  674SOL    HW2 2922   6.931   1.310   5.114
  675SOL     OW 2923   5.810   2.153   2.025
  675SOL    HW1 2924   5.769   2.194   2.106
  675SOL    HW2 2925   5.773   2.061   2.012
  676SOL     OW 2926   2.442   4.763   4.957
  676SOL    HW1 2927   2.414   4.742   5.051
  676SOL    HW2 2928   2.533   4.726   4.941
  677SOL     OW 2929   4.700   0.696   1.383
  677SOL    HW1 2930   4.617   0.751   1.395
  677SOL    HW2 2931   4.706   0.665   1.288
  678SOL     OW 2932   2.437   4.457   5.555
  678SOL    HW1 2933   2.469   4.421   5.467
  678SOL    HW2 2934   2.462   4.553   5.563
  679SOL     OW 2935   5.293   1.460   5.322
  679SOL    HW1 2936   5.360   1.393   5.290
  679SOL    HW2 2937   5.264   1.518   5.247
  680SOL     OW 2938   5.582   6.959   4.473
  680SOL    HW1 2939   5.633   0.016   4.472
  680SOL    HW2 2940   5.484   6.977   4.468
  681SOL     OW 2941   5.410   6.031   1.916
  681SOL    HW1 2942   5.335   6.075   1.965
  681SOL    HW2 2943   5.376   5.995   1.829
  682SOL     OW 2944   0.676   0.671   2.453
  682SOL    HW1 2945   0.588   0.717   2.463
  682SOL    HW2 2946   0.664   0.574   2.475
  683SOL     OW 2947   4.435   3.363   0.993
  683SOL    HW1 2948   4.461   3.459   0.997
  683SOL    HW2 2949   4.514   3.306   1.017
  684SOL     OW 2950   6.375   0.586   6.501
  684SOL    HW1 2951   6.383   0.669   6.446
  684SOL    HW2 2952   6.459   0.574   6.555
  685SOL     OW 2953   3.488   1.591   3.397
  685SOL    HW1 2954   3.400   1.556   3.427
  685SOL    HW2 2955   3.561   1.554   3.455
  686SOL     OW 2956   4.278   0.789   4.120
  686SOL    HW1 2957   4.295   0.760   4.026
  686SOL    HW2 2958   4.315   0.720   4.183
  687SOL     OW 2959   0.630   1.793   4.352
  687SOL    HW1 2960   0.558   1.799   4.283
  687SOL    HW2 2961   0.714   1.759   4.311
  688SOL     OW 2962   0.031   1.479   6.293
  688SOL    HW1 2963   6.997   1.553   6.269
  688SOL    HW2 2964   0.123   1.518   6.307
  689SOL     OW 2965   0.880   4.922   5.338
  689SOL    HW1 2966   0.914   4.903   5.430
  689SOL    HW2 2967   0.780   4.923   5.338
  690SOL     OW 2968   6.308   3.397   2.747
  690SOL    HW1 2969   6.232   3.451   2.710
  690SOL    HW2 2970   6.355   3.351   2.672
  691SOL     OW 2971   4.105   1.732   0.144
  691SOL    HW1 2972   4.131   1.823   0.177
  691SOL    HW2 2973   4.170   1.703   0.074
  692SOL     OW 2974   3.192   1.318   5.438
  692SOL    HW1 2975   3.147   1.407   5.437
  692SOL    HW2 2976   3.241   1.305   5.352
  693SOL     OW 2977   4.860   5.762   3.319
  693SOL    HW1 2978   4.883   5.857   3.338
  693SOL    HW2 2979   4.767   5.742   3.352
  694SOL     OW 2980   4.007   6.254   4.341
  694SOL    HW1 2981   3.911   6.276   4.360
  694SOL    HW2 2982   4.066   6.319   4.389
  695SOL     OW 2983   3.095   5.646   4.018
  695SOL    HW1 2984   3.178   5.676   3.971
  695SOL    HW2 2985   3.099   5.547   4.032
  696SOL     OW 2986   5.054   3.880   3.048
  696SOL    HW1 2987   5.143   3.881   3.001
  696SOL    HW2 2988   5.062   3.832   3.135
  697SOL     OW 2989   0.841   4.445   1.577
  697SOL    HW1 2990   0.900   4.395   1.514
  697SOL    HW2 2991   0.824   4.390   1.659
  698SOL     OW 2992   4.641   6.941   1.719
  698SOL    HW1 2993   4.630   0.010   1.722
  698SOL    HW2 2994   4.688   6.915   1.635
  699SOL     OW 2995   2.810   2.698   0.087
  699SOL    HW1 2996   2.888   2.746   0.128
  699SOL    HW2 2997   2.786   2.742   7.029
  700SOL     OW 2998   3.153   6.853   2.555
  700SOL    HW1 2999   3.108   6.911   2.623
  700SOL    HW2 3000   3.113   6.869   2.465
  701SOL     OW 3001   6.087   4.604   0.761
  701SOL    HW1 3002   6.171   4.573   0.804
  701SOL    HW2 3003   6.032   4.526   0.733
  702SOL     OW 3004   3.109   0.930   4.555
  702SOL    HW1 3005   3.183   0.880   4.599
  702SOL    HW2 3006   3.088   0.887   4.467
  703SOL     OW 3007   2.705   3.455   5.345
  703SOL    HW1 3008   2.759   3.421   5.267
  703SOL    HW2 3009   2.646   3.382   5.379
  704SOL     OW 3010   1.226   2.526   6.277
  704SOL    HW1 3011   1.301   2.549   6.216
  704SOL    HW2 3012   1.194   2.609   6.323
  705SOL     OW 3013   6.267   6.298   4.155
  705SOL    HW1 3014   6.360   6.284   4.189
  705SOL    HW2 3015   6.214   6.214   4.168
  706SOL     OW 3016   4.021   1.007   5.536
  706SOL    HW1 3017   4.111   1.043   5.562
  706SOL    HW2 3018   4.030   0.947   5.458
  707SOL     OW 3019   3.755   5.445   3.526
  707SOL    HW1 3020   3.688   5.510   3.561
  707SOL    HW2 3021   3.812   5.412   3.601
  708SOL     OW 3022   3.129   1.333   3.167
  708SOL    HW1 3023   3.127   1.429   3.140
  708SOL    HW2 3024   3.089   1.277   3.094
  709SOL     OW 3025   1.593   6.790   1.664
  709SOL    HW1 3026   1.649   6.736   1.601
  709SOL    HW2 3027   1.605   6.887   1.645
  710SOL     OW 3028   5.127   2.943   1.414
  710SOL    HW1 3029   5.181   2.890   1.348
  710SOL    HW2 3030   5.040   2.969   1.372
  711SOL     OW 3031   0.195   2.821   5.292
  711SOL    HW1 3032   0.137   2.899   5.266
  711SOL    HW2 3033   0.251   2.794   5.213
  712SOL     OW 3034   4.357   3.016   0.988
  712SOL    HW1 3035   4.319   3.103   1.021
  712SOL    HW2 3036   4.326   2.999   0.894
  713SOL     OW 3037   4.367   2.762   5.309
  713SOL    HW1 3038   4.268   2.766   5.327
  713SOL    HW2 3039   4.387   2.686   5.247
  714SOL     OW 3040   6.559   4.497   3.718
  714SOL    HW1 3041   6.574   4.595   3.705
  714SOL    HW2 3042   6.475   4.484   3.771
  715SOL     OW 3043   6.224   5.144   5.629
  715SOL    HW1 3044   6.182   5.183   5.711
  715SOL    HW2 3045   6.297   5.080   5.657
  716SOL     OW 3046   2.255   1.072   2.606
  716SOL    HW1 3047   2.170   1.044   2.652
  716SOL    HW2 3048   2.251   1.169   2.585
  717SOL     OW 3049   5.998   4.797   3.833
  717SOL    HW1 3050   5.918   4.851   3.858
  717SOL    HW2 3051   5.971   4.724   3.771
  718SOL     OW 3052   4.729   2.269   4.356
  718SOL    HW1 3053   4.780   2.254   4.271
  718SOL    HW2 3054   4.687   2.360   4.353
  719SOL     OW 3055   6.915   0.379   2.680
  719SOL    HW1 3056   6.964   0.319   2.617
  719SOL    HW2 3057   6.831   0.413   2.636
  720SOL     OW 3058   1.674   0.749   6.270
  720SOL    HW1 3059   1.682   0.849   6.278
  720SOL    HW2 3060   1.646   0.711   6.358
  721SOL     OW 3061   0.420   2.274   2.253
  721SOL    HW1 3062   0.496   2.299   2.192
  721SOL    HW2 3063   0.387   2.356   2.300
  722SOL     OW 3064   4.362   0.058   6.636
  722SOL    HW1 3065   4.333   0.153   6.636
  722SOL    HW2 3066   4.439   0.046   6.573
  723SOL     OW 3067   2.283   6.331   3.475
  723SOL    HW1 3068   2.268   6.302   3.380
  723SOL    HW2 3069   2.197   6.359   3.516
  724SOL     OW 3070   0.804   0.711   3.387
  724SOL    HW1 3071   0.752   0.776   3.443
  724SOL    HW2 3072   0.897   0.703   3.422
  725SOL     OW 3073   2.419   4.538   2.261
  725SOL    HW1 3074   2.411   4.438   2.266
  725SOL    HW2 3075   2.502   4.567   2.309
  726SOL     OW 3076   2.298   5.160   0.393
  726SOL    HW1 3077   2.356   5.241   0.383
  726SOL    HW2 3078   2.275   5.148   0.490
  727SOL     OW 3079   4.864   5.295   6.387
  727SOL    HW1 3080   4.795   5.269   6.454
  727SOL    HW2 3081   4.833   5.377   6.338
  728SOL     OW 3082   0.161   3.426   4.512
  728SOL    HW1 3083   0.205   3.401   4.426
  728SOL    HW2 3084   0.091   3.496   4.495
  729SOL     OW 3085   0.431   3.123   0.649
  729SOL    HW1 3086   0.357   3.155   0.708
  729SOL    HW2 3087   0.452   3.027   0.671
  730SOL     OW 3088   5.025   0.692   3.200
  730SOL    HW1 3089   4.964   0.708   3.123
  730SOL    HW2 3090   4.984   0.625   3.262
  731SOL     OW 3091   4.847   4.498   6.683
  731SOL    HW1 3092   4.858   4.435   6.606
  731SOL    HW2 3093   4.805   4.583   6.651
  732SOL     OW 3094   5.362   2.135   2.911
  732SOL    HW1 3095   5.434   2.107   2.974
  732SOL    HW2 3096   5.396   2.209   2.852
  733SOL     OW 3097   5.697   6.594   3.763
  733SOL    HW1 3098   5.716   6.512   3.817
  733SOL    HW2 3099   5.714   6.575   3.667
  734SOL     OW 3100   6.519   4.921   2.450
  734SOL    HW1 3101   6.606   4.967   2.466
  734SOL    HW2 3102   6.511   4.843   2.513
  735SOL     OW 3103   5.777   0.589   1.949
  735SOL    HW1 3104   5.832   0.665   1.983
  735SOL    HW2 3105   5.680   0.609   1.962
  736SOL     OW 3106   1.587   1.199   3.993
  736SOL    HW1 3107   1.588   1.289   4.038
  736SOL    HW2 3108   1.670   1.189   3.938
  737SOL     OW 3109   5.995   1.601   6.123
  737SOL    HW1 3110   6.047   1.653   6.056
  737SOL    HW2 3111   6.056   1.574   6.198
  738SOL     OW 3112   2.955   3.949   1.245
  738SOL    HW1 3113   3.030   4.016   1.244
  738SOL    HW2 3114   2.869   3.995   1.220
  739SOL     OW 3115   3.129   0.029   5.017
  739SOL    HW1 3116   3.222   0.055   4.992
  739SOL    HW2 3117   3.065   0.098   4.983
  740SOL     OW 3118   5.485   2.382   2.800
  740SOL    HW1 3119   5.567   2.371   2.745
  740SOL    HW2 3120   5.509   2.381   2.897
  741SOL     OW 3121   2.453   0.336   4.516
  741SOL    HW1 3122   2.377   0.377   4.466
  741SOL    HW2 3123   2.421   0.257   4.568
  742SOL     OW 3124   1.509   6.598   0.823
  742SOL    HW1 3125   1.427   6.638   0.781
  742SOL    HW2 3126   1.565   6.556   0.753
  743SOL     OW 3127   0.904   6.569   3.881
  743SOL    HW1 3128   0.939   6.538   3.792
  743SOL    HW2 3129   0.807   6.546   3.888
  744SOL     OW 3130   5.988   1.318   0.714
  744SOL    HW1 3131   6.043   1.285   0.638
  744SOL    HW2 3132   5.974   1.244   0.780
  745SOL     OW 3133   2.163   5.578   4.855
  745SOL    HW1 3134   2.136   5.524   4.775
  745SOL    HW2 3135   2.236   5.641   4.829
  746SOL     OW 3136   5.435   3.999   4.905
  746SOL    HW1 3137   5.360   4.004   4.971
  746SOL    HW2 3138   5.401   4.026   4.814
  747SOL     OW 3139   5.514   5.280   3.566
  747SOL    HW1 3140   5.576   5.240   3.499
  747SOL    HW2 3141   5.536   5.246   3.657
  748SOL     OW 3142   5.021   5.656   2.698
  748SOL    HW1 3143   5.063   5.672   2.608
  748SOL    HW2 3144   4.926   5.627   2.686
  749SOL     OW 3145   4.882   3.883   3.611
  749SOL    HW1 3146   4.872   3.966   3.557
  749SOL    HW2 3147   4.931   3.814   3.558
  750SOL     OW 3148   2.361   1.359   1.667
  750SOL    HW1 3149   2.385   1.450   1.701
  750SOL    HW2 3150   2.442   1.318   1.624
  751SOL     OW 3151   5.009   1.949   0.403
  751SOL    HW1 3152   4.969   2.020   0.345
  751SOL    HW2 3153   5.108   1.947   0.389
  752SOL     OW 3154   3.183   2.676   5.577
  752SOL    HW1 3155   3.236   2.600   5.615
  752SOL    HW2 3156   3.230   2.762   5.598
  753SOL     OW 3157   3.531   3.456   5.514
  753SOL    HW1 3158   3.561   3.436   5.607
  753SOL    HW2 3159   3.580   3.535   5.479
  754SOL     OW 3160   5.767   1.065   6.322
  754SOL    HW1 3161   5.838   1.079   6.390
  754SOL    HW2 3162   5.705   0.993   6.352
  755SOL     OW 3163   3.037   4.336   5.295
  755SOL    HW1 3164   3.111   4.364   5.356
  755SOL    HW2 3165   2.989   4.417   5.261
  756SOL     OW 3166   2.603   5.419   6.987
  756SOL    HW1 3167   2.527   5.404   6.923
  756SOL    HW2 3168   2.686   5.438   6.935
  757SOL     OW 3169   1.930   6.790   2.234
  757SOL    HW1 3170   1.887   6.875   2.263
  757SOL    HW2 3171   1.881   6.712   2.275
  758SOL     OW 3172   4.319   1.406   3.736
  758SOL    HW1 3173   4.332   1.361   3.824
  758SOL    HW2 3174   4.349   1.346   3.663
  759SOL     OW 3175   7.012   3.154   3.543
  759SOL    HW1 3176   0.049   3.109   3.602
  759SOL    HW2 3177   7.009   3.252   3.565
  760SOL     OW 3178   6.929   6.645   3.702
  760SOL    HW1 3179   6.853   6.708   3.714
  760SOL    HW2 3180   6.908   6.558   3.747
  761SOL     OW 3181   5.422   3.871   5.259
  761SOL    HW1 3182   5.411   3.783   5.305
  761SOL    HW2 3183   5.390   3.944   5.319
  762SOL     OW 3184   2.975   6.167   5.595
  762SOL    HW1 3185   2.911   6.226   5.644
  762SOL    HW2 3186   2.997   6.207   5.506
  763SOL     OW 3187   5.750   0.370   6.908
  763SOL    HW1 3188   5.660   0.414   6.916
  763SOL    HW2 3189   5.750   0.309   6.829
  764SOL     OW 3190   5.740   1.164   5.538
  764SOL    HW1 3191   5.753   1.140   5.635
  764SOL    HW2 3192   5.782   1.253   5.520
  765SOL     OW 3193   0.949   6.620   0.723
  765SOL    HW1 3194   0.870   6.645   0.667
  765SOL    HW2 3195   0.938   6.659   0.814
  766SOL     OW 3196   2.204   2.125   4.920
  766SOL    HW1 3197   2.304   2.125   4.920
  766SOL    HW2 3198   2.170   2.054   4.859
  767SOL     OW 3199   6.982   6.981   3.971
  767SOL    HW1 3200   7.022   7.022   3.889
  767SOL    HW2 3201   6.930   0.020   4.021
  768SOL     OW 3202   1.864   6.237   2.633
  768SOL    HW1 3203   1.889   6.168   2.565
  768SOL    HW2 3204   1.793   6.297   2.595
  769SOL     OW 3205   3.376   1.625   5.147
  769SOL    HW1 3206   3.349   1.646   5.241
  769SOL    HW2 3207   3.310   1.666   5.083
  770SOL     OW 3208   2.033   5.074   4.537
  770SOL    HW1 3209   2.051   4.994   4.593
  770SOL    HW2 3210   2.108   5.089   4.474
  771SOL     OW 3211   1.264   5.190   3.318
  771SOL    HW1 3212   1.191   5.177   3.250
  771SOL    HW2 3213   1.312   5.276   3.300
  772SOL     OW 3214   5.453   4.931   6.977
  772SOL    HW1 3215   5.504   4.845   6.972
  772SOL    HW2 3216   5.356   4.912   6.991
  773SOL     OW 3217   1.428   3.516   3.543
  773SOL    HW1 3218   1.451   3.529   3.446
  773SOL    HW2 3219   1.439   3.420   3.567
  774SOL     OW 3220   1.988   1.765   3.842
  774SOL    HW1 3221   2.011   1.780   3.938
  774SOL    HW2 3222   2.048   1.821   3.784
  775SOL     OW 3223   2.112   3.592   3.944
  775SOL    HW1 3224   2.139   3.548   4.030
  775SOL    HW2 3225   2.157   3.681   3.937
  776SOL     OW 3226   1.110   0.078   6.546
  776SOL    HW1 3227   1.099   7.015   6.511
  776SOL    HW2 3228   1.075   0.083   6.640
  777SOL     OW 3229   1.961   3.958   0.235
  777SOL    HW1 3230   2.055   3.957   0.204
  777SOL    HW2 3231   1.899   3.968   0.157
  778SOL     OW 3232   3.580   6.485   1.966
  778SOL    HW1 3233   3.599   6.496   2.064
  778SOL    HW2 3234   3.487   6.452   1.953
  779SOL     OW 3235   0.601   2.745   1.894
  779SOL    HW1 3236   0.573   2.653   1.922
  779SOL    HW2 3237   0.523   2.807   1.902
  780SOL     OW 3238   1.441   2.156   4.709
  780SOL    HW1 3239   1.345   2.130   4.700
  780SOL    HW2 3240   1.498   2.093   4.657
  781SOL     OW 3241   0.275   4.498   0.493
  781SOL    HW1 3242   0.175   4.494   0.494
  781SOL    HW2 3243   0.312   4.420   0.544
  782SOL     OW 3244   1.877   4.129   5.868
  782SOL    HW1 3245   1.865   4.188   5.947
  782SOL    HW2 3246   1.841   4.174   5.786
  783SOL     OW 3247   5.328   4.451   6.462
  783SOL    HW1 3248   5.421   4.488   6.466
  783SOL    HW2 3249   5.311   4.395   6.543
  784SOL     OW 3250   3.138   6.016   1.611
  784SOL    HW1 3251   3.205   6.049   1.678
  784SOL    HW2 3252   3.051   5.998   1.657
  785SOL     OW 3253   0.595   6.704   4.161
  785SOL    HW1 3254   0.501   6.707   4.127
  785SOL    HW2 3255   0.607   6.624   4.220
  786SOL     OW 3256   6.557   1.003   3.814
  786SOL    HW1 3257   6.614   1.074   3.855
  786SOL    HW2 3258   6.461   1.025   3.830
  787SOL     OW 3259   2.498   0.225   0.088
  787SOL    HW1 3260   2.447   0.273   0.016
  787SOL    HW2 3261   2.518   0.289   0.163
  788SOL     OW 3262   3.770   3.205   1.089
  788SOL    HW1 3263   3.775   3.207   1.189
  788SOL    HW2 3264   3.859   3.179   1.052
  789SOL     OW 3265   4.519   5.418   1.356
  789SOL    HW1 3266   4.616   5.407   1.336
  789SOL    HW2 3267   4.503   5.506   1.401
  790SOL     OW 3268   0.840   2.833   1.506
  790SOL    HW1 3269   0.828   2.787   1.594
  790SOL    HW2 3270   0.871   2.927   1.522
  791SOL     OW 3271   2.694   4.996   5.531
  791SOL    HW1 3272   2.626   4.961   5.467
  791SOL    HW2 3273   2.782   5.005   5.485
  792SOL     OW 3274   0.498   0.980   0.822
  792SOL    HW1 3275   0.514   1.079   0.812
  792SOL    HW2 3276   0.506   0.936   0.732
  793SOL     OW 3277   3.922   5.421   3.727
  793SOL    HW1 3278   4.020   5.431   3.742
  793SOL    HW2 3279   3.874   5.425   3.815
  794SOL     OW 3280   2.923   3.533   3.656
  794SOL    HW1 3281   2.918   3.479   3.572
  794SOL    HW2 3282   2.969   3.620   3.637
  795SOL     OW 3283   3.544   0.909   6.124
  795SOL    HW1 3284   3.456   0.865   6.110
  795SOL    HW2 3285   3.617   0.848   6.094
  796SOL     OW 3286   1.914   3.182   6.572
  796SOL    HW1 3287   1.883   3.150   6.662
  796SOL    HW2 3288   1.890   3.278   6.561
  797SOL     OW 3289   4.643   6.775   1.115
  797SOL    HW1 3290   4.552   6.809   1.091
  797SOL    HW2 3291   4.670   6.812   1.204
  798SOL     OW 3292   3.206   6.265   1.267
  798SOL    HW1 3293   3.133   6.247   1.202
  798SOL    HW2 3294   3.229   6.363   1.264
  799SOL     OW 3295   1.338   1.829   6.598
  799SOL    HW1 3296   1.250   1.797   6.563
  799SOL    HW2 3297   1.373   1.900   6.537
  800SOL     OW 3298   6.169   1.494   1.872
  800SOL    HW1 3299   6.077   1.532   1.865
  800SOL    HW2 3300   6.186   1.432   1.795
  801SOL     OW 3301   1.978   5.591   5.593
  801SOL    HW1 3302   1.987   5.562   5.498
  801SOL    HW2 3303   1.887   5.568   5.626
  802SOL     OW 3304   5.416   2.104   0.122
  802SOL    HW1 3305   5.402   2.180   0.185
  802SOL    HW2 3306   5.332   2.050   0.116
  803SOL     OW 3307   2.858   0.957   5.460
  803SOL    HW1 3308   2.830   1.000   5.374
  803SOL    HW2 3309   2.812   1.002   5.537
  804SOL     OW 3310   6.253   0.434   1.983
  804SOL    HW1 3311   6.154   0.441   1.994
  804SOL    HW2 3312   6.283   0.494   1.909
  805SOL     OW 3313   3.119   1.374   3.718
  805SOL    HW1 3314   3.082   1.423   3.640
  805SOL    HW2 3315   3.122   1.434   3.798
  806SOL     OW 3316   0.827   6.868   5.217
  806SOL    HW1 3317   0.819   6.787   5.276
  806SOL    HW2 3318   0.914   6.864   5.167
  807SOL     OW 3319   0.558   6.154   5.143
  807SOL    HW1 3320   0.484   6.086   5.146
  807SOL    HW2 3321   0.576   6.187   5.236
  808SOL     OW 3322   5.743   2.684   0.386
  808SOL    HW1 3323   5.726   2.773   0.427
  808SOL    HW2 3324   5.732   2.613   0.456
  809SOL     OW 3325   0.486   5.012   0.059
  809SOL    HW1 3326   0.513   5.065   0.140
  809SOL    HW2 3327   0.512   5.061   7.006
  810SOL     OW 3328   2.990   3.833   0.291
  810SOL    HW1 3329   2.922   3.816   0.362
  810SOL    HW2 3330   3.055   3.757   0.288
  811SOL     OW 3331   5.380   5.190   4.640
  811SOL    HW1 3332   5.325   5.245   4.703
  811SOL    HW2 3333   5.429   5.250   4.578
  812SOL     OW 3334   0.862   1.851   2.138
  812SOL    HW1 3335   0.886   1.873   2.044
  812SOL    HW2 3336   0.771   1.810   2.141
  813SOL     OW 3337   1.796   1.506   4.447
  813SOL    HW1 3338   1.698   1.505   4.468
  813SOL    HW2 3339   1.835   1.415   4.466
  814SOL     OW 3340   6.921   5.876   2.981
  814SOL    HW1 3341   6.864   5.870   3.063
  814SOL    HW2 3342   6.926   5.972   2.951
  815SOL     OW 3343   5.081   2.244   3.718
  815SOL    HW1 3344   5.048   2.167   3.773
  815SOL    HW2 3345   5.179   2.257   3.735
  816SOL     OW 3346   5.106   3.731   0.234
  816SOL    HW1 3347   5.014   3.711   0.199
  816SOL    HW2 3348   5.105   3.818   0.281
  817SOL     OW 3349   1.251   5.832   0.899
  817SOL    HW1 3350   1.277   5.736   0.891
  817SOL    HW2 3351   1.334   5.888   0.901
  818SOL     OW 3352   5.839   2.924   3.538
  818SOL    HW1 3353   5.780   2.866   3.483
  818SOL    HW2 3354   5.903   2.868   3.591
  819SOL     OW 3355   5.684   2.025   1.612
  819SOL    HW1 3356   5.632   2.109   1.622
  819SOL    HW2 3357   5.688   1.977   1.700
  820SOL     OW 3358   2.121   2.192   4.267
  820SOL    HW1 3359   2.041   2.181   4.326
  820SOL    HW2 3360   2.165   2.103   4.253
  821SOL     OW 3361   5.693   4.075   4.938
  821SOL    HW1 3362   5.752   4.062   4.858
  821SOL    HW2 3363   5.605   4.031   4.922
  822SOL     OW 3364   0.876   4.321   3.868
  822SOL    HW1 3365   0.779   4.299   3.872
  822SOL    HW2 3366   0.888   4.414   3.832
  823SOL     OW 3367   1.116   3.688   5.990
  823SOL    HW1 3368   1.168   3.606   6.015
  823SOL    HW2 3369   1.083   3.679   5.896
  824SOL     OW 3370   5.706   1.095   4.905
  824SOL    HW1 3371   5.742   1.057   4.990
  824SOL    HW2 3372   5.779   1.104   4.838
  825SOL     OW 3373   6.178   5.813   1.002
  825SOL    HW1 3374   6.236   5.734   0.983
  825SOL    HW2 3375   6.112   5.825   0.927
  826SOL     OW 3376   3.855   1.203   5.651
  826SOL    HW1 3377   3.900   1.273   5.707
  826SOL    HW2 3378   3.924   1.149   5.604
  827SOL     OW 3379   3.446   4.072   4.520
  827SOL    HW1 3380   3.351   4.092   4.543
  827SOL    HW2 3381   3.506   4.110   4.591
  828SOL     OW 3382   6.115   5.633   4.266
  828SOL    HW1 3383   6.137   5.536   4.278
  828SOL    HW2 3384   6.195   5.688   4.291
  829SOL     OW 3385   3.482   2.905   2.611
  829SOL    HW1 3386   3.529   2.991   2.630
  829SOL    HW2 3387   3.540   2.828   2.639
  830SOL     OW 3388   6.337   4.487   6.592
  830SOL    HW1 3389   6.416   4.549   6.592
  830SOL    HW2 3390   6.255   4.538   6.567
  831SOL     OW 3391   5.592   6.156   1.155
  831SOL    HW1 3392   5.607   6.182   1.250
  831SOL    HW2 3393   5.661   6.089   1.128
  832SOL     OW 3394   3.540   1.418   5.019
  832SOL    HW1 3395   3.490   1.505   5.020
  832SOL    HW2 3396   3.596   1.413   4.936
  833SOL     OW 3397   1.269   3.810   6.358
  833SOL    HW1 3398   1.313   3.824   6.447
  833SOL    HW2 3399   1.195   3.876   6.347
  834SOL     OW 3400   4.549   3.173   6.561
  834SOL    HW1 3401   4.599   3.255   6.531
  834SOL    HW2 3402   4.597   3.091   6.531
  835SOL     OW 3403   1.363   0.518   4.244
  835SOL    HW1 3404   1.326   0.521   4.152
  835SOL    HW2 3405   1.288   0.510   4.310
  836SOL     OW 3406   3.296   1.825   5.386
  836SOL    HW1 3407   3.350   1.766   5.445
  836SOL    HW2 3408   3.348   1.909   5.367
  837SOL     OW 3409   1.536   0.637   1.324
  837SOL    HW1 3410   1.458   0.642   1.386
  837SOL    HW2 3411   1.544   0.545   1.287
  838SOL     OW 3412   2.105   5.495   3.777
  838SOL    HW1 3413   2.119   5.425   3.707
  838SOL    HW2 3414   2.028   5.469   3.836
  839SOL     OW 3415   1.756   1.316   1.047
  839SOL    HW1 3416   1.854   1.304   1.064
  839SOL    HW2 3417   1.721   1.234   1.001
  840SOL     OW 3418   6.372   5.498   0.343
  840SOL    HW1 3419   6.369   5.451   0.255
  840SOL    HW2 3420   6.285   5.545   0.359
  841SOL     OW 3421   4.086   5.217   5.567
  841SOL    HW1 3422   3.994   5.203   5.603
  841SOL    HW2 3423   4.141   5.135   5.586
  842SOL     OW 3424   3.270   0.184   6.677
  842SOL    HW1 3425   3.185   0.161   6.629
  842SOL    HW2 3426   3.261   0.161   6.774
  843SOL     OW 3427   1.575   1.794   1.296
  843SOL    HW1 3428   1.620   1.707   1.274
  843SOL    HW2 3429   1.644   1.866   1.302
  844SOL     OW 3430   0.294   6.941   1.105
  844SOL    HW1 3431   0.256   6.849   1.094
  844SOL    HW2 3432   0.219   7.006   1.120
  845SOL     OW 3433   4.179   1.716   2.758
  845SOL    HW1 3434   4.260   1.677   2.715
  845SOL    HW2 3435   4.157   1.665   2.841
  846SOL     OW 3436   3.142   1.570   6.734
  846SOL    HW1 3437   3.221   1.542   6.680
  846SOL    HW2 3438   3.107   1.658   6.700
  847SOL     OW 3439   2.335   3.462   1.548
  847SOL    HW1 3440   2.295   3.545   1.588
  847SOL    HW2 3441   2.405   3.426   1.610
  848SOL     OW 3442   5.941   6.615   5.909
  848SOL    HW1 3443   5.944   6.645   5.814
  848SOL    HW2 3444   6.020   6.652   5.958
  849SOL     OW 3445   5.621   3.625   0.310
  849SOL    HW1 3446   5.702   3.648   0.364
  849SOL    HW2 3447   5.541   3.672   0.348
  850SOL     OW 3448   6.355   0.906   5.083
  850SOL    HW1 3449   6.362   0.814   5.045
  850SOL    HW2 3450   6.321   0.901   5.177
  851SOL     OW 3451   6.506   3.078   6.728
  851SOL    HW1 3452   6.551   3.011   6.668
  851SOL    HW2 3453   6.414   3.096   6.694
  852SOL     OW 3454   6.872   4.012   1.189
  852SOL    HW1 3455   6.796   3.989   1.128
  852SOL    HW2 3456   6.956   4.021   1.135
  853SOL     OW 3457   1.867   4.511   0.336
  853SOL    HW1 3458   1.768   4.494   0.344
  853SOL    HW2 3459   1.914   4.426   0.313
  854SOL     OW 3460   6.297   6.570   0.032
  854SOL    HW1 3461   6.395   6.589   0.037
  854SOL    HW2 3462   6.248   6.651   7.029
  855SOL     OW 3463   0.287   0.899   6.888
  855SOL    HW1 3464   0.251   0.844   6.813
  855SOL    HW2 3465   0.377   0.865   6.915
  856SOL     OW 3466   1.931   6.592   6.372
  856SOL    HW1 3467   2.007   6.558   6.428
  856SOL    HW2 3468   1.912   6.687   6.395
  857SOL     OW 3469   0.253   4.667   3.608
  857SOL    HW1 3470   0.283   4.664   3.513
  857SOL    HW2 3471   0.308   4.733   3.659
  858SOL     OW 3472   3.734   3.954   0.504
  858SOL    HW1 3473   3.824   3.970   0.543
  858SOL    HW2 3474   3.669   4.021   0.540
  859SOL     OW 3475   4.170   6.565   5.406
  859SOL    HW1 3476   4.119   6.488   5.445
  859SOL    HW2 3477   4.268   6.546   5.412
  860SOL     OW 3478   5.256   2.738   5.284
  860SOL    HW1 3479   5.162   2.711   5.266
  860SOL    HW2 3480   5.271   2.743   5.383
  861SOL     OW 3481   2.128   5.351   3.106
  861SOL    HW1 3482   2.136   5.349   3.006
  861SOL    HW2 3483   2.099   5.260   3.138
  862SOL     OW 3484   1.645   4.319   3.850
  862SOL    HW1 3485   1.606   4.382   3.916
  862SOL    HW2 3486   1.694   4.370   3.779
  863SOL     OW 3487   6.846   0.235   5.837
  863SOL    HW1 3488   6.900   0.243   5.752
  863SOL    HW2 3489   6.908   0.235   5.915
  864SOL     OW 3490   4.695   0.489   5.608
  864SOL    HW1 3491   4.781   0.539   5.605
  864SOL    HW2 3492   4.637   0.515   5.531
  865SOL     OW 3493   2.328   6.098   4.632
  865SOL    HW1 3494   2.253   6.163   4.645
  865SOL    HW2 3495   2.414   6.148   4.622
  866SOL     OW 3496   2.714   6.718   1.197
  866SOL    HW1 3497   2.784   6.764   1.252
  866SOL    HW2 3498   2.756   6.681   1.114
  867SOL     OW 3499   5.862   1.917   0.852
  867SOL    HW1 3500   5.910   1.982   0.910
  867SOL    HW2 3501   5.890   1.824   0.875
  868SOL     OW 3502   0.018   2.058   1.922
  868SOL    HW1 3503   0.067   2.046   1.835
  868SOL    HW2 3504   0.084   2.076   1.995
  869SOL     OW 3505   7.019   4.094   4.058
  869SOL    HW1 3506   0.053   4.036   4.008
  869SOL    HW2 3507   0.011   4.091   4.156
  870SOL     OW 3508   3.482   4.943   1.815
  870SOL    HW1 3509   3.549   4.881   1.856
  870SOL    HW2 3510   3.421   4.891   1.755
  871SOL     OW 3511   4.760   1.984   4.299
  871SOL    HW1 3512   4.729   1.942   4.214
  871SOL    HW2 3513   4.723   2.077   4.305
  872SOL     OW 3514   7.007   2.283   4.620
  872SOL    HW1 3515   6.963   2.208   4.671
  872SOL    HW2 3516   0.050   2.246   4.563
  873SOL     OW 3517   4.425   6.262   5.939
  873SOL    HW1 3518   4.340   6.265   5.993
  873SOL    HW2 3519   4.464   6.353   5.934
  874SOL     OW 3520   6.060   4.346   6.627
  874SOL    HW1 3521   6.100   4.300   6.547
  874SOL    HW2 3522   6.110   4.431   6.644
  875SOL     OW 3523   5.311   5.139   0.983
  875SOL    HW1 3524   5.275   5.124   1.075
  875SOL    HW2 3525   5.353   5.230   0.978
  876SOL     OW 3526   0.279   5.385   2.082
  876SOL    HW1 3527   0.310   5.294   2.056
  876SOL    HW2 3528   0.313   5.407   2.174
  877SOL     OW 3529   2.900   4.532   0.438
  877SOL    HW1 3530   2.813   4.564   0.400
  877SOL    HW2 3531   2.937   4.459   0.380
  878SOL     OW 3532   4.282   6.780   4.059
  878SOL    HW1 3533   4.312   6.750   3.968
  878SOL    HW2 3534   4.257   6.877   4.055
  879SOL     OW 3535   4.026   0.718   1.301
  879SOL    HW1 3536   4.033   0.814   1.327
  879SOL    HW2 3537   3.960   0.671   1.359
  880SOL     OW 3538   3.332   4.118   3.601
  880SOL    HW1 3539   3.408   4.158   3.549
  880SOL    HW2 3540   3.350   4.125   3.699
  881SOL     OW 3541   4.459   2.499   5.202
  881SOL    HW1 3542   4.515   2.423   5.169
  881SOL    HW2 3543   4.375   2.503   5.148
  882SOL     OW 3544   0.411   3.513   4.784
  882SOL    HW1 3545   0.438   3.512   4.687
  882SOL    HW2 3546   0.382   3.421   4.811
  883SOL     OW 3547   2.741   0.639   3.293
  883SOL    HW1 3548   2.690   0.601   3.370
  883SOL    HW2 3549   2.836   0.653   3.321
  884SOL     OW 3550   4.765   2.825   5.422
  884SOL    HW1 3551   4.744   2.733   5.388
  884SOL    HW2 3552   4.693   2.889   5.394
  885SOL     OW 3553   3.003   1.348   5.656
  885SOL    HW1 3554   3.068   1.287   5.610
  885SOL    HW2 3555   3.001   1.436   5.610
  886SOL     OW 3556   3.714   0.680   0.477
  886SOL    HW1 3557   3.738   0.773   0.506
  886SOL    HW2 3558   3.722   0.618   0.555
  887SOL     OW 3559   3.796   6.913   3.910
  887SOL    HW1 3560   3.895   6.924   3.918
  887SOL    HW2 3561   3.754   6.917   4.000
  888SOL     OW 3562   0.700   6.896   2.902
  888SOL    HW1 3563   0.604   6.910   2.882
  888SOL    HW2 3564   0.755   6.915   2.820
  889SOL     OW 3565   0.364   3.625   0.509
  889SOL    HW1 3566   0.423   3.699   0.541
  889SOL    HW2 3567   0.316   3.585   0.587
  890SOL     OW 3568   1.275   5.141   3.712
  890SOL    HW1 3569   1.308   5.231   3.684
  890SOL    HW2 3570   1.273   5.134   3.811
  891SOL     OW 3571   5.464   5.689   1.058
  891SOL    HW1 3572   5.530   5.704   0.984
  891SOL    HW2 3573   5.492   5.741   1.138
  892SOL     OW 3574   2.665   4.006   5.692
  892SOL    HW1 3575   2.604   4.082   5.667
  892SOL    HW2 3576   2.629   3.961   5.774
  893SOL     OW 3577   2.563   6.532   2.716
  893SOL    HW1 3578   2.485   6.480   2.752
  893SOL    HW2 3579   2.541   6.629   2.718
  894SOL     OW 3580   0.912   3.235   1.321
  894SOL    HW1 3581   0.887   3.145   1.286
  894SOL    HW2 3582   0.870   3.306   1.264
  895SOL     OW 3583   0.636   4.327   3.332
  895SOL    HW1 3584   0.713   4.377   3.371
  895SOL    HW2 3585   0.669   4.255   3.271
  896SOL     OW 3586   5.943   5.195   0.624
  896SOL    HW1 3587   5.932   5.128   0.698
  896SOL    HW2 3588   5.863   5.191   0.564
  897SOL     OW 3589   4.653   1.331   0.491
  897SOL    HW1 3590   4.653   1.247   0.437
  897SOL    HW2 3591   4.572   1.332   0.550
  898SOL     OW 3592   3.563   6.085   2.870
  898SOL    HW1 3593   3.512   6.167   2.843
  898SOL    HW2 3594   3.629   6.063   2.798
  899SOL     OW 3595   0.310   5.972   6.515
  899SOL    HW1 3596   0.378   6.044   6.499
  899SOL    HW2 3597   0.347   5.884   6.484
  900SOL     OW 3598   6.262   7.001   0.087
  900SOL    HW1 3599   6.232   6.920   0.037
  900SOL    HW2 3600   6.315   6.973   0.167
  901SOL     OW 3601   2.279   0.548   2.631
  901SOL    HW1 3602   2.281   0.611   2.554
  901SOL    HW2 3603   2.218   0.583   2.702
  902SOL     OW 3604   7.010   3.088   0.549
  902SOL    HW1 3605   0.026   3.154   0.490
  902SOL    HW2 3606   0.035   3.072   0.630
  903SOL     OW 3607   6.796   2.276   6.546
  903SOL    HW1 3608   6.746   2.222   6.614
  903SOL    HW2 3609   6.734   2.342   6.503
  904SOL     OW 3610   2.882   2.074   3.651
  904SOL    HW1 3611   2.977   2.072   3.622
  904SOL    HW2 3612   2.851   2.169   3.659
  905SOL     OW 3613   5.157   1.895   0.006
  905SOL    HW1 3614   5.189   1.807   6.999
  905SOL    HW2 3615   5.058   1.892   0.018
  906SOL     OW 3616   0.153   2.406   5.922
  906SOL    HW1 3617   0.163   2.492   5.871
  906SOL    HW2 3618   0.207   2.335   5.878
  907SOL     OW 3619   5.090   3.302   0.539
  907SOL    HW1 3620   5.114   3.239   0.614
  907SOL    HW2 3621   5.000   3.278   0.503
  908SOL     OW 3622   2.467   4.907   2.684
  908SOL    HW1 3623   2.538   4.951   2.628
  908SOL    HW2 3624   2.396   4.869   2.625
  909SOL     OW 3625   4.147   5.603   0.101
  909SOL    HW1 3626   4.116   5.540   0.029
  909SOL    HW2 3627   4.215   5.665   0.063
  910SOL     OW 3628   2.835   2.950   1.444
  910SOL    HW1 3629   2.863   3.018   1.511
  910SOL    HW2 3630   2.781   2.879   1.489
  911SOL     OW 3631   1.377   5.822   6.110
  911SOL    HW1 3632   1.291   5.787   6.072
  911SOL    HW2 3633   1.390   5.787   6.203
  912SOL     OW 3634   5.529   2.888   3.178
  912SOL    HW1 3635   5.525   2.959   3.248
  912SOL    HW2 3636   5.470   2.914   3.101
  913SOL     OW 3637   4.752   6.028   3.341
  913SOL    HW1 3638   4.826   6.095   3.331
  913SOL    HW2 3639   4.673   6.057   3.289
  914SOL     OW 3640   2.129   0.316   6.473
  914SOL    HW1 3641   2.112   0.412   6.449
  914SOL    HW2 3642   2.208   0.282   6.422
  915SOL     OW 3643   6.109   4.632   6.655
  915SOL    HW1 3644   6.097   4.677   6.743
  915SOL    HW2 3645   6.039   4.663   6.591
  916SOL     OW 3646   1.697   2.507   2.142
  916SOL    HW1 3647   1.758   2.586   2.136
  916SOL    HW2 3648   1.705   2.452   2.059
  917SOL     OW 3649   6.846   6.656   0.678
  917SOL    HW1 3650   6.834   6.619   0.586
  917SOL    HW2 3651   6.758   6.657   0.725
  918SOL     OW 3652   2.428   6.850   0.412
  918SOL    HW1 3653   2.354   6.878   0.473
  918SOL    HW2 3654   2.514   6.848   0.462
  919SOL     OW 3655   5.308   1.092   3.503
  919SOL    HW1 3656   5.336   1.026   3.433
  919SOL    HW2 3657   5.389   1.137   3.541
  920SOL     OW 3658   2.298   4.665   1.592
  920SOL    HW1 3659   2.291   4.738   1.660
  920SOL    HW2 3660   2.390   4.627   1.592
  921SOL     OW 3661   5.006   5.391   4.285
  921SOL    HW1 3662   4.971   5.319   4.224
  921SOL    HW2 3663   4.962   5.478   4.263
  922SOL     OW 3664   3.853   3.554   4.395
  922SOL    HW1 3665   3.904   3.634   4.428
  922SOL    HW2 3666   3.773   3.585   4.343
  923SOL     OW 3667   2.130   2.825   5.842
  923SOL    HW1 3668   2.093   2.733   5.828
  923SOL    HW2 3669   2.229   2.819   5.855
  924SOL     OW 3670   6.551   3.604   2.456
  924SOL    HW1 3671   6.618   3.619   2.528
  924SOL    HW2 3672   6.500   3.688   2.438
  925SOL     OW 3673   6.798   2.328   0.259
  925SOL    HW1 3674   6.846   2.409   0.292
  925SOL    HW2 3675   6.699   2.346   0.261
  926SOL     OW 3676   6.788   1.600   1.432
  926SOL    HW1 3677   6.759   1.522   1.376
  926SOL    HW2 3678   6.887   1.612   1.425
  927SOL     OW 3679   5.855   3.998   3.807
  927SOL    HW1 3680   5.807   3.936   3.745
  927SOL    HW2 3681   5.798   4.015   3.888
  928SOL     OW 3682   2.807   5.880   0.759
  928SOL    HW1 3683   2.893   5.854   0.714
  928SOL    HW2 3684   2.827   5.925   0.846
  929SOL     OW 3685   6.571   1.150   7.002
  929SOL    HW1 3686   6.668   1.176   7.005
  929SOL    HW2 3687   6.543   1.134   6.908
  930SOL     OW 3688   4.168   5.316   6.193
  930SOL    HW1 3689   4.160   5.279   6.101
  930SOL    HW2 3690   4.209   5.407   6.189
  931SOL     OW 3691   6.859   2.095   3.638
  931SOL    HW1 3692   6.921   2.168   3.611
  931SOL    HW2 3693   6.898   2.045   3.715
  932SOL     OW 3694   3.376   1.553   3.775
  932SOL    HW1 3695   3.428   1.574   3.858
  932SOL    HW2 3696   3.409   1.466   3.737
  933SOL     OW 3697   1.353   4.898   2.825
  933SOL    HW1 3698   1.379   4.808   2.861
  933SOL    HW2 3699   1.431   4.940   2.780
  934SOL     OW 3700   2.316   5.931   6.254
  934SOL    HW1 3701   2.355   5.851   6.298
  934SOL    HW2 3702   2.341   5.931   6.157
  935SOL     OW 3703   5.367   4.041   3.545
  935SOL    HW1 3704   5.308   4.086   3.612
  935SOL    HW2 3705   5.355   3.942   3.553
  936SOL     OW 3706   1.331   0.481   5.950
  936SOL    HW1 3707   1.386   0.504   6.030
  936SOL    HW2 3708   1.364   0.395   5.910
  937SOL     OW 3709   4.294   1.166   5.628
  937SOL    HW1 3710   4.259   1.248   5.581
  937SOL    HW2 3711   4.394   1.166   5.625
  938SOL     OW 3712   0.045   5.754   4.104
  938SOL    HW1 3713   0.089   5.760   4.194
  938SOL    HW2 3714   0.087   5.680   4.052
  939SOL     OW 3715   6.802   6.797   4.780
  939SOL    HW1 3716   6.728   6.862   4.801
  939SOL    HW2 3717   6.801   6.724   4.848
  940SOL     OW 3718   0.989   4.832   1.168
  940SOL    HW1 3719   1.050   4.816   1.090
  940SOL    HW2 3720   0.978   4.930   1.183
  941SOL     OW 3721   4.798   0.631   6.678
  941SOL    HW1 3722   4.868   0.660   6.744
  941SOL    HW2 3723   4.755   0.547   6.710
  942SOL     OW 3724   6.656   6.404   1.113
  942SOL    HW1 3725   6.646   6.306   1.095
  942SOL    HW2 3726   6.582   6.435   1.172
  943SOL     OW 3727   2.746   4.792   2.824
  943SOL    HW1 3728   2.685   4.727   2.870
  943SOL    HW2 3729   2.755   4.766   2.728
  944SOL     OW 3730   0.457   6.171   4.304
  944SOL    HW1 3731   0.529   6.183   4.373
  944SOL    HW2 3732   0.375   6.221   4.333
  945SOL     OW 3733   0.244   5.693   5.368
  945SOL    HW1 3734   0.318   5.747   5.409
  945SOL    HW2 3735   0.259   5.596   5.387
  946SOL     OW 3736   4.961   4.503   4.335
  946SOL    HW1 3737   5.018   4.485   4.415
  946SOL    HW2 3738   5.015   4.490   4.252
  947SOL     OW 3739   4.044   3.543   3.746
  947SOL    HW1 3740   4.065   3.448   3.769
  947SOL    HW2 3741   4.046   3.599   3.828
  948SOL     OW 3742   4.918   1.218   2.817
  948SOL    HW1 3743   5.006   1.178   2.844
  948SOL    HW2 3744   4.861   1.146   2.775
  949SOL     OW 3745   2.764   6.555   0.921
  949SOL    HW1 3746   2.717   6.495   0.856
  949SOL    HW2 3747   2.780   6.506   1.007
  950SOL     OW 3748   6.672   5.789   1.693
  950SOL    HW1 3749   6.736   5.862   1.669
  950SOL    HW2 3750   6.593   5.828   1.739
  951SOL     OW 3751   1.751   0.245   3.444
  951SOL    HW1 3752   1.712   0.160   3.480
  951SOL    HW2 3753   1.811   0.224   3.367
  952SOL     OW 3754   3.869   2.105   2.437
  952SOL    HW1 3755   3.892   2.069   2.346
  952SOL    HW2 3756   3.769   2.110   2.446
  953SOL     OW 3757   6.594   5.725   4.943
  953SOL    HW1 3758   6.618   5.787   5.017
  953SOL    HW2 3759   6.669   5.660   4.928
  954SOL     OW 3760   4.839   5.715   2.085
  954SOL    HW1 3761   4.895   5.681   2.161
  954SOL    HW2 3762   4.768   5.648   2.063
  955SOL     OW 3763   1.549   4.834   6.887
  955SOL    HW1 3764   1.550   4.899   6.964
  955SOL    HW2 3765   1.456   4.822   6.854
  956SOL     OW 3766   0.117   0.669   0.990
  956SOL    HW1 3767   0.161   0.613   1.061
  956SOL    HW2 3768   0.108   0.763   1.023
  957SOL     OW 3769   6.157   1.457   2.317
  957SOL    HW1 3770   6.119   1.525   2.379
  957SOL    HW2 3771   6.099   1.375   2.319
  958SOL     OW 3772   5.018   6.691   2.374
  958SOL    HW1 3773   5.011   6.747   2.457
  958SOL    HW2 3774   5.070   6.740   2.305
  959SOL     OW 3775   3.438   6.787   4.133
  959SOL    HW1 3776   3.354   6.839   4.149
  959SOL    HW2 3777   3.424   6.692   4.160
  960SOL     OW 3778   0.413   0.523   0.600
  960SOL    HW1 3779   0.431   0.601   0.661
  960SOL    HW2 3780   0.322   0.487   0.619
  961SOL     OW 3781   3.019   6.266   3.231
  961SOL    HW1 3782   2.937   6.288   3.178
  961SOL    HW2 3783   3.098   6.308   3.188
  962SOL     OW 3784   6.589   6.958   4.813
  962SOL    HW1 3785   6.519   6.893   4.785
  962SOL    HW2 3786   6.582   0.011   4.758
  963SOL     OW 3787   4.557   2.171   1.599
  963SOL    HW1 3788   4.626   2.230   1.559
  963SOL    HW2 3789   4.508   2.122   1.527
  964SOL     OW 3790   5.295   4.446   4.906
  964SOL    HW1 3791   5.395   4.438   4.912
  964SOL    HW2 3792   5.254   4.355   4.913
  965SOL     OW 3793   5.543   2.271   2.447
  965SOL    HW1 3794   5.594   2.223   2.518
  965SOL    HW2 3795   5.606   2.323   2.391
  966SOL     OW 3796   4.833   1.896   3.446
  966SOL    HW1 3797   4.759   1.864   3.386
  966SOL    HW2 3798   4.900   1.946   3.392
  967SOL     OW 3799   4.558   4.539   6.406
  967SOL    HW1 3800   4.578   4.584   6.319
  967SOL    HW2 3801   4.464   4.559   6.433
  968SOL     OW 3802   3.672   0.419   1.938
  968SOL    HW1 3803   3.686   0.320   1.949
  968SOL    HW2 3804   3.674   0.462   2.028
  969SOL     OW 3805   3.670   5.079   5.974
  969SOL    HW1 3806   3.652   5.002   6.036
  969SOL    HW2 3807   3.698   5.158   6.028
  970SOL     OW 3808   6.235   0.655   5.086
  970SOL    HW1 3809   6.309   0.589   5.083
  970SOL    HW2 3810   6.163   0.628   5.022
  971SOL     OW 3811   6.806   4.518   2.883
  971SOL    HW1 3812   6.744   4.536   2.960
  971SOL    HW2 3813   6.899   4.544   2.909
  972SOL     OW 3814   6.849   2.520   0.995
  972SOL    HW1 3815   6.802   2.448   1.046
  972SOL    HW2 3816   6.797   2.605   1.003
  973SOL     OW 3817   0.298   4.351   5.953
  973SOL    HW1 3818   0.299   4.441   5.997
  973SOL    HW2 3819   0.217   4.343   5.895
  974SOL     OW 3820   0.332   4.850   4.156
  974SOL    HW1 3821   0.306   4.757   4.130
  974SOL    HW2 3822   0.252   4.910   4.152
  975SOL     OW 3823   2.023   6.510   1.554
  975SOL    HW1 3824   2.086   6.533   1.480
  975SOL    HW2 3825   2.057   6.549   1.640
  976SOL     OW 3826   6.471   3.977   1.908
  976SOL    HW1 3827   6.444   4.005   1.816
  976SOL    HW2 3828   6.396   3.994   1.972
  977SOL     OW 3829   1.148   1.027   2.310
  977SOL    HW1 3830   1.110   0.948   2.264
  977SOL    HW2 3831   1.174   1.002   2.404
  978SOL     OW 3832   6.101   2.113   2.008
  978SOL    HW1 3833   6.181   2.112   1.947
  978SOL    HW2 3834   6.021   2.146   1.958
  979SOL     OW 3835   0.084   3.368   6.262
  979SOL    HW1 3836   0.002   3.313   6.246
  979SOL    HW2 3837   0.081   3.450   6.204
  980SOL     OW 3838   3.923   1.039   4.630
  980SOL    HW1 3839   3.855   1.112   4.647
  980SOL    HW2 3840   3.875   0.954   4.607
  981SOL     OW 3841   6.727   0.358   4.892
  981SOL    HW1 3842   6.747   0.422   4.965
  981SOL    HW2 3843   6.720   0.265   4.929
  982SOL     OW 3844   0.382   1.791   5.411
  982SOL    HW1 3845   0.373   1.890   5.407
  982SOL    HW2 3846   0.381   1.761   5.507
  983SOL     OW 3847   0.374   3.692   3.519
  983SOL    HW1 3848   0.314   3.626   3.565
  983SOL    HW2 3849   0.419   3.647   3.441
  984SOL     OW 3850   1.725   2.324   3.109
  984SOL    HW1 3851   1.699   2.378   3.029
  984SOL    HW2 3852   1.810   2.360   3.148
  985SOL     OW 3853   5.901   3.497   3.820
  985SOL    HW1 3854   5.892   3.441   3.738
  985SOL    HW2 3855   5.812   3.535   3.845
  986SOL     OW 3856   4.903   4.295   1.364
  986SOL    HW1 3857   4.841   4.262   1.435
  986SOL    HW2 3858   4.967   4.222   1.339
  987SOL     OW 3859   5.817   5.580   3.542
  987SOL    HW1 3860   5.722   5.554   3.523
  987SOL    HW2 3861   5.819   5.663   3.597
  988SOL     OW 3862   3.652   4.011   1.721
  988SOL    HW1 3863   3.669   3.939   1.788
  988SOL    HW2 3864   3.571   4.063   1.749
  989SOL     OW 3865   0.170   2.449   0.369
  989SOL    HW1 3866   0.137   2.412   0.456
  989SOL    HW2 3867   0.218   2.535   0.385
  990SOL     OW 3868   3.508   1.002   3.203
  990SOL    HW1 3869   3.539   1.090   3.165
  990SOL    HW2 3870   3.576   0.969   3.268
  991SOL     OW 3871   6.605   3.937   4.235
  991SOL    HW1 3872   6.619   3.844   4.202
  991SOL    HW2 3873   6.508   3.960   4.232
  992SOL     OW 3874   1.078   2.803   1.026
  992SOL    HW1 3875   1.082   2.713   1.068
  992SOL    HW2 3876   1.095   2.873   1.095
  993SOL     OW 3877   1.224   4.633   0.973
  993SOL    HW1 3878   1.166   4.622   0.892
  993SOL    HW2 3879   1.295   4.562   0.973
  994SOL     OW 3880   3.479   6.455   1.482
  994SOL    HW1 3881   3.403   6.485   1.424
  994SOL    HW2 3882   3.452   6.371   1.530
  995SOL     OW 3883   5.041   3.487   5.701
  995SOL    HW1 3884   5.091   3.479   5.788
  995SOL    HW2 3885   5.055   3.579   5.664
  996SOL     OW 3886   4.408   6.140   5.478
  996SOL    HW1 3887   4.466   6.060   5.462
  996SOL    HW2 3888   4.346   6.152   5.400
  997SOL     OW 3889   1.455   6.775   3.593
  997SOL    HW1 3890   1.404   6.736   3.516
  997SOL    HW2 3891   1.402   6.764   3.677
  998SOL     OW 3892   6.121   0.325   6.155
  998SOL    HW1 3893   6.196   0.259   6.157
  998SOL    HW2 3894   6.142   0.397   6.088
  999SOL     OW 3895   4.953   3.343   1.461
  999SOL    HW1 3896   5.024   3.366   1.527
  999SOL    HW2 3897   4.953   3.411   1.387
 1000SOL     OW 3898   3.931   1.678   1.154
 1000SOL    HW1 3899   3.848   1.707   1.108
 1000SOL    HW2 3900   3.976   1.607   1.101
 1001SOL     OW 3901   2.736   6.699   2.170
 1001SOL    HW1 3902   2.716   6.693   2.072
 1001SOL    HW2 3903   2.725   6.794   2.200
 1002SOL     OW 3904   5.123   2.632   1.647
 1002SOL    HW1 3905   5.096   2.727   1.630
 1002SOL    HW2 3906   5.212   2.630   1.691
 1003SOL     OW 3907   1.444   6.100   2.681
 1003SOL    HW1 3908   1.439   6.000   2.680
 1003SOL    HW2 3909   1.490   6.133   2.599
 1004SOL     OW 3910   6.433   1.558   3.459
 1004SOL    HW1 3911   6.476   1.475   3.425
 1004SOL    HW2 3912   6.453   1.634   3.397
 1005SOL     OW 3913   1.476   4.464   4.239
 1005SOL    HW1 3914   1.557   4.414   4.270
 1005SOL    HW2 3915   1.441   4.423   4.156
 1006SOL     OW 3916   2.445   4.078   0.537
 1006SOL    HW1 3917   2.360   4.129   0.525
 1006SOL    HW2 3918   2.494   4.112   0.616
 1007SOL     OW 3919   4.574   1.518   0.059
 1007SOL    HW1 3920   4.615   1.437   0.099
 1007SOL    HW2 3921   4.550   1.500   6.993
 1008SOL     OW 3922   0.411   4.759   5.117
 1008SOL    HW1 3923   0.477   4.832   5.138
 1008SOL    HW2 3924   0.318   4.794   5.128
 1009SOL     OW 3925   6.040   4.948   5.186
 1009SOL    HW1 3926   6.038   4.973   5.283
 1009SOL    HW2 3927   5.980   4.870   5.170
 1010SOL     OW 3928   2.136   3.111   1.575
 1010SOL    HW1 3929   2.187   3.169   1.639
 1010SOL    HW2 3930   2.080   3.046   1.627
 1011SOL     OW 3931   0.946   5.141   2.437
 1011SOL    HW1 3932   0.925   5.209   2.507
 1011SOL    HW2 3933   0.861   5.104   2.399
 1012SOL     OW 3934   6.282   0.145   2.269
 1012SOL    HW1 3935   6.268   0.098   2.182
 1012SOL    HW2 3936   6.332   0.230   2.254
 1013SOL     OW 3937   6.738   1.047   5.997
 1013SOL    HW1 3938   6.750   1.143   5.975
 1013SOL    HW2 3939   6.708   0.997   5.916
 1014SOL     OW 3940   1.156   4.886   3.902
 1014SOL    HW1 3941   1.195   4.812   3.957
 1014SOL    HW2 3942   1.217   4.906   3.825
 1015SOL     OW 3943   3.138   0.113   6.282
 1015SOL    HW1 3944   3.216   0.096   6.341
 1015SOL    HW2 3945   3.082   0.186   6.321
 1016SOL     OW 3946   5.319   4.008   1.154
 1016SOL    HW1 3947   5.355   3.916   1.139
 1016SOL    HW2 3948   5.349   4.042   1.243
 1017SOL     OW 3949   2.127   1.757   1.637
 1017SOL    HW1 3950   2.054   1.690   1.646
 1017SOL    HW2 3951   2.107   1.819   1.562
 1018SOL     OW 3952   6.895   4.921   3.813
 1018SOL    HW1 3953   6.879   4.823   3.816
 1018SOL    HW2 3954   6.992   4.939   3.797
 1019SOL     OW 3955   6.667   4.907   0.755
 1019SOL    HW1 3956   6.583   4.940   0.800
 1019SOL    HW2 3957   6.643   4.835   0.690
 1020SOL     OW 3958   0.137   0.603   1.831
 1020SOL    HW1 3959   0.145   0.702   1.823
 1020SOL    HW2 3960   0.046   0.574   1.799
 1021SOL     OW 3961   6.489   5.881   2.172
 1021SOL    HW1 3962   6.584   5.851   2.174
 1021SOL    HW2 3963   6.441   5.846   2.253
 1022SOL     OW 3964   2.522   6.234   6.322
 1022SOL    HW1 3965   2.547   6.291   6.401
 1022SOL    HW2 3966   2.535   6.138   6.346
 1023SOL     OW 3967   6.817   1.618   2.660
 1023SOL    HW1 3968   6.752   1.679   2.613
 1023SOL    HW2 3969   6.834   1.538   2.602
 1024SOL     OW 3970   0.783   1.464   4.826
 1024SOL    HW1 3971   0.715   1.391   4.834
 1024SOL    HW2 3972   0.738   1.553   4.839
 1025SOL     OW 3973   5.100   3.695   6.369
 1025SOL    HW1 3974   5.060   3.690   6.277
 1025SOL    HW2 3975   5.051   3.763   6.423
 1026SOL     OW 3976   3.064   2.319   1.741
 1026SOL    HW1 3977   3.113   2.243   1.782
 1026SOL    HW2 3978   2.997   2.355   1.806
 1027SOL     OW 3979   1.243   6.084   1.924
 1027SOL    HW1 3980   1.295   6.153   1.975
 1027SOL    HW2 3981   1.149   6.082   1.956
 1028SOL     OW 3982   0.994   6.251   3.459
 1028SOL    HW1 3983   1.077   6.198   3.444
 1028SOL    HW2 3984   0.936   6.246   3.377
 1029SOL     OW 3985   1.095   2.064   5.807
 1029SOL    HW1 3986   1.032   2.094   5.879
 1029SOL    HW2 3987   1.094   2.131   5.733
 1030SOL     OW 3988   3.323   3.293   1.626
 1030SOL    HW1 3989   3.278   3.362   1.570
 1030SOL    HW2 3990   3.260   3.218   1.644
 1031SOL     OW 3991   3.625   3.452   1.609
 1031SOL    HW1 3992   3.593   3.370   1.657
 1031SOL    HW2 3993   3.725   3.455   1.612
 1032SOL     OW 3994   2.155   0.918   5.989
 1032SOL    HW1 3995   2.107   0.833   5.970
 1032SOL    HW2 3996   2.162   0.972   5.905
 1033SOL     OW 3997   1.028   5.850   2.173
 1033SOL    HW1 3998   1.056   5.775   2.112
 1033SOL    HW2 3999   0.929   5.847   2.185
 1034SOL     OW 4000   3.443   6.505   4.469
 1034SOL    HW1 4001   3.464   6.513   4.371
 1034SOL    HW2 4002   3.429   6.409   4.492
 1035SOL     OW 4003   0.590   2.053   5.489
 1035SOL    HW1 4004   0.674   2.044   5.541
 1035SOL    HW2 4005   0.592   1.990   5.411
 1036SOL     OW 4006   5.024   1.248   1.492
 1036SOL    HW1 4007   5.028   1.343   1.521
 1036SOL    HW2 4008   4.937   1.208   1.521
 1037SOL     OW 4009   2.207   2.302   2.876
 1037SOL    HW1 4010   2.118   2.344   2.894
 1037SOL    HW2 4011   2.225   2.302   2.777
 1038SOL     OW 4012   2.262   0.702   6.786
 1038SOL    HW1 4013   2.304   0.784   6.824
 1038SOL    HW2 4014   2.168   0.723   6.759
 1039SOL     OW 4015   3.078   3.109   3.791
 1039SOL    HW1 4016   3.008   3.175   3.819
 1039SOL    HW2 4017   3.168   3.142   3.819
 1040SOL     OW 4018   4.929   0.865   2.995
 1040SOL    HW1 4019   4.996   0.883   3.067
 1040SOL    HW2 4020   4.977   0.858   2.907
 1041SOL     OW 4021   6.691   6.091   4.918
 1041SOL    HW1 4022   6.757   6.124   4.985
 1041SOL    HW2 4023   6.736   6.076   4.831
 1042SOL     OW 4024   4.779   4.881   2.375
 1042SOL    HW1 4025   4.791   4.790   2.334
 1042SOL    HW2 4026   4.777   4.873   2.474
 1043SOL     OW 4027   3.290   1.166   3.441
 1043SOL    HW1 4028   3.356   1.092   3.426
 1043SOL    HW2 4029   3.225   1.167   3.365
 1044SOL     OW 4030   6.128   4.841   1.474
 1044SOL    HW1 4031   6.143   4.795   1.387
 1044SOL    HW2 4032   6.077   4.925   1.460
 1045SOL     OW 4033   2.367   0.433   3.470
 1045SOL    HW1 4034   2.349   0.343   3.431
 1045SOL    HW2 4035   2.298   0.455   3.538
 1046SOL     OW 4036   3.191   1.145   1.632
 1046SOL    HW1 4037   3.259   1.089   1.678
 1046SOL    HW2 4038   3.104   1.096   1.626
 1047SOL     OW 4039   3.484   6.805   3.793
 1047SOL    HW1 4040   3.427   6.722   3.791
 1047SOL    HW2 4041   3.552   6.800   3.721
 1048SOL     OW 4042   2.254   5.955   2.102
 1048SOL    HW1 4043   2.205   5.973   2.016
 1048SOL    HW2 4044   2.312   5.874   2.091
 1049SOL     OW 4045   4.092   7.011   4.147
 1049SOL    HW1 4046   4.068   7.000   4.050
 1049SOL    HW2 4047   4.093   6.921   4.191
 1050SOL     OW 4048   4.023   5.141   3.785
 1050SOL    HW1 4049   3.967   5.223   3.771
 1050SOL    HW2 4050   3.989   5.091   3.865
 1051SOL     OW 4051   6.856   6.745   0.143
 1051SOL    HW1 4052   6.850   6.833   0.097
 1051SOL    HW2 4053   6.881   6.674   0.077
 1052SOL     OW 4054   3.919   0.486   5.990
 1052SOL    HW1 4055   4.000   0.523   5.944
 1052SOL    HW2 4056   3.946   0.452   6.080
 1053SOL     OW 4057   5.734   3.593   2.252
 1053SOL    HW1 4058   5.820   3.608   2.203
 1053SOL    HW2 4059   5.686   3.680   2.263
 1054SOL     OW 4060   3.486   3.953   0.887
 1054SOL    HW1 4061   3.427   3.969   0.808
 1054SOL    HW2 4062   3.548   4.030   0.899
 1055SOL     OW 4063   4.888   5.801   7.007
 1055SOL    HW1 4064   4.814   5.857   6.969
 1055SOL    HW2 4065   4.854   5.709   7.025
 1056SOL     OW 4066   2.184   4.170   0.565
 1056SOL    HW1 4067   2.156   4.255   0.520
 1056SOL    HW2 4068   2.104   4.114   0.583
 1057SOL     OW 4069   3.606   1.758   1.527
 1057SOL    HW1 4070   3.671   1.688   1.500
 1057SOL    HW2 4071   3.648   1.849   1.517
 1058SOL     OW 4072   3.859   2.154   3.007
 1058SOL    HW1 4073   3.823   2.151   2.914
 1058SOL    HW2 4074   3.784   2.161   3.073
 1059SOL     OW 4075   2.130   6.348   2.301
 1059SOL    HW1 4076   2.184   6.315   2.378
 1059SOL    HW2 4077   2.038   6.309   2.305
 1060SOL     OW 4078   0.603   5.680   4.251
 1060SOL    HW1 4079   0.572   5.770   4.219
 1060SOL    HW2 4080   0.703   5.679   4.255
 1061SOL     OW 4081   6.547   4.210   6.952
 1061SOL    HW1 4082   6.562   4.113   6.970
 1061SOL    HW2 4083   6.474   4.221   6.884
 1062SOL     OW 4084   3.944   6.443   4.594
 1062SOL    HW1 4085   3.905   6.533   4.613
 1062SOL    HW2 4086   3.878   6.389   4.541
 1063SOL     OW 4087   1.177   0.063   6.121
 1063SOL    HW1 4088   1.265   0.056   6.075
 1063SOL    HW2 4089   1.190   0.100   6.213
 1064SOL     OW 4090   0.858   4.620   1.034
 1064SOL    HW1 4091   0.868   4.700   1.093
 1064SOL    HW2 4092   0.823   4.543   1.088
 1065SOL     OW 4093   3.983   0.979   3.963
 1065SOL    HW1 4094   3.964   1.017   4.053
 1065SOL    HW2 4095   3.913   0.911   3.939
 1066SOL     OW 4096   4.775   0.084   2.340
 1066SOL    HW1 4097   4.728   0.126   2.263
 1066SOL    HW2 4098   4.773   7.014   2.329
 1067SOL     OW 4099   2.737   1.050   0.160
 1067SOL    HW1 4100   2.650   1.016   0.123
 1067SOL    HW2 4101   2.813   1.013   0.107
 1068SOL     OW 4102   6.300   3.427   1.121
 1068SOL    HW1 4103   6.202   3.429   1.140
 1068SOL    HW2 4104   6.329   3.517   1.089
 1069SOL     OW 4105   5.755   4.710   0.709
 1069SOL    HW1 4106   5.743   4.614   0.688
 1069SOL    HW2 4107   5.674   4.745   0.756
 1070SOL     OW 4108   2.238   0.368   2.447
 1070SOL    HW1 4109   2.144   0.386   2.419
 1070SOL    HW2 4110   2.266   0.435   2.516
 1071SOL     OW 4111   6.918   2.527   4.962
 1071SOL    HW1 4112   6.944   2.528   4.865
 1071SOL    HW2 4113   6.868   2.443   4.983
 1072SOL     OW 4114   2.559   0.619   1.738
 1072SOL    HW1 4115   2.597   0.701   1.779
 1072SOL    HW2 4116   2.526   0.557   1.810
 1073SOL     OW 4117   5.546   1.620   3.136
 1073SOL    HW1 4118   5.500   1.654   3.218
 1073SOL    HW2 4119   5.549   1.692   3.067
 1074SOL     OW 4120   3.206   4.876   2.292
 1074SOL    HW1 4121   3.259   4.869   2.208
 1074SOL    HW2 4122   3.114   4.839   2.277
 1075SOL     OW 4123   5.691   2.071   5.006
 1075SOL    HW1 4124   5.692   2.162   5.047
 1075SOL    HW2 4125   5.754   2.069   4.928
 1076SOL     OW 4126   2.063   4.000   5.107
 1076SOL    HW1 4127   2.157   4.020   5.080
 1076SOL    HW2 4128   2.059   3.984   5.206
 1077SOL     OW 4129   6.880   0.501   0.298
 1077SOL    HW1 4130   6.860   0.528   0.392
 1077SOL    HW2 4131   6.979   0.505   0.283
 1078SOL     OW 4132   6.558   6.837   4.004
 1078SOL    HW1 4133   6.459   6.824   4.013
 1078SOL    HW2 4134   6.605   6.773   4.064
 1079SOL     OW 4135   1.378   5.677   2.565
 1079SOL    HW1 4136   1.369   5.745   2.638
 1079SOL    HW2 4137   1.319   5.703   2.488
 1080SOL     OW 4138   2.136   6.170   5.653
 1080SOL    HW1 4139   2.107   6.216   5.737
 1080SOL    HW2 4140   2.123   6.071   5.664
 1081SOL     OW 4141   6.735   5.858   4.555
 1081SOL    HW1 4142   6.683   5.860   4.640
 1081SOL    HW2 4143   6.719   5.943   4.505
 1082SOL     OW 4144   5.762   0.693   5.750
 1082SOL    HW1 4145   5.819   0.630   5.804
 1082SOL    HW2 4146   5.683   0.722   5.804
 1083SOL     OW 4147   5.070   4.328   0.637
 1083SOL    HW1 4148   4.999   4.264   0.606
 1083SOL    HW2 4149   5.154   4.313   0.585
 1084SOL     OW 4150   6.368   0.207   6.444
 1084SOL    HW1 4151   6.391   0.280   6.508
 1084SOL    HW2 4152   6.356   0.121   6.495
 1085SOL     OW 4153   1.805   3.583   4.326
 1085SOL    HW1 4154   1.787   3.667   4.378
 1085SOL    HW2 4155   1.904   3.569   4.319
 1086SOL     OW 4156   6.642   4.574   6.177
 1086SOL    HW1 4157   6.552   4.532   6.161
 1086SOL    HW2 4158   6.669   4.625   6.095
 1087SOL     OW 4159   1.082   0.874   5.279
 1087SOL    HW1 4160   1.005   0.815   5.302
 1087SOL    HW2 4161   1.166   0.820   5.276
 1088SOL     OW 4162   0.093   5.248   3.822
 1088SOL    HW1 4163   0.111   5.173   3.758
 1088SOL    HW2 4164   7.028   5.279   3.811
 1089SOL     OW 4165   0.029   5.243   4.901
 1089SOL    HW1 4166   0.085   5.248   4.983
 1089SOL    HW2 4167   0.001   5.335   4.874
 1090SOL     OW 4168   5.915   1.597   4.343
 1090SOL    HW1 4169   6.002   1.598   4.392
 1090SOL    HW2 4170   5.853   1.665   4.383
 1091SOL     OW 4171   2.001   3.395   3.797
 1091SOL    HW1 4172   1.905   3.417   3.811
 1091SOL    HW2 4173   2.058   3.463   3.843
 1092SOL     OW 4174   0.946   5.082   1.234
 1092SOL    HW1 4175   1.032   5.128   1.255
 1092SOL    HW2 4176   0.875   5.111   1.299
 1093SOL     OW 4177   2.455   6.587   1.374
 1093SOL    HW1 4178   2.426   6.575   1.469
 1093SOL    HW2 4179   2.499   6.676   1.363
 1094SOL     OW 4180   1.072   0.057   2.801
 1094SOL    HW1 4181   1.101   0.150   2.778
 1094SOL    HW2 4182   1.141   7.022   2.769
 1095SOL     OW 4183   0.198   2.628   6.432
 1095SOL    HW1 4184   0.124   2.592   6.375
 1095SOL    HW2 4185   0.163   2.705   6.486
 1096SOL     OW 4186   2.837   5.653   1.128
 1096SOL    HW1 4187   2.924   5.675   1.085
 1096SOL    HW2 4188   2.800   5.734   1.173
 1097SOL     OW 4189   1.889   5.391   3.919
 1097SOL    HW1 4190   1.900   5.397   4.018
 1097SOL    HW2 4191   1.911   5.298   3.889
 1098SOL     OW 4192   6.213   4.060   6.609
 1098SOL    HW1 4193   6.216   4.043   6.510
 1098SOL    HW2 4194   6.159   3.987   6.652
 1099SOL     OW 4195   4.343   1.543   6.129
 1099SOL    HW1 4196   4.435   1.516   6.099
 1099SOL    HW2 4197   4.328   1.513   6.223
 1100SOL     OW 4198   4.266   1.199   3.959
 1100SOL    HW1 4199   4.247   1.140   3.881
 1100SOL    HW2 4200   4.290   1.144   4.038
 1101SOL     OW 4201   5.522   3.189   5.033
 1101SOL    HW1 4202   5.572   3.148   4.956
 1101SOL    HW2 4203   5.534   3.133   5.114
 1102SOL     OW 4204   2.356   0.849   4.463
 1102SOL    HW1 4205   2.277   0.787   4.460
 1102SOL    HW2 4206   2.325   0.942   4.444
 1103SOL     OW 4207   2.884   1.441   6.627
 1103SOL    HW1 4208   2.871   1.472   6.722
 1103SOL    HW2 4209   2.974   1.470   6.595
 1104SOL     OW 4210   0.981   4.177   3.525
 1104SOL    HW1 4211   1.023   4.184   3.616
 1104SOL    HW2 4212   1.043   4.130   3.463
 1105SOL     OW 4213   5.415   1.781   5.127
 1105SOL    HW1 4214   5.371   1.837   5.198
 1105SOL    HW2 4215   5.468   1.709   5.170
 1106SOL     OW 4216   1.025   1.650   0.210
 1106SOL    HW1 4217   1.094   1.717   0.237
 1106SOL    HW2 4218   0.983   1.611   0.291
 1107SOL     OW 4219   1.353   0.576   6.243
 1107SOL    HW1 4220   1.265   0.530   6.232
 1107SOL    HW2 4221   1.340   0.675   6.236
 1108SOL     OW 4222   3.362   5.941   4.448
 1108SOL    HW1 4223   3.312   6.024   4.424
 1108SOL    HW2 4224   3.460   5.957   4.437
 1109SOL     OW 4225   5.958   1.430   3.706
 1109SOL    HW1 4226   5.963   1.339   3.749
 1109SOL    HW2 4227   6.039   1.445   3.650
 1110SOL     OW 4228   3.422   1.115   2.790
 1110SOL    HW1 4229   3.380   1.024   2.790
 1110SOL    HW2 4230   3.362   1.181   2.745
 1111SOL     OW 4231   4.531   4.087   6.154
 1111SOL    HW1 4232   4.505   4.167   6.100
 1111SOL    HW2 4233   4.449   4.034   6.175
 1112SOL     OW 4234   6.246   0.073   3.031
 1112SOL    HW1 4235   6.169   0.134   3.013
 1112SOL    HW2 4236   6.313   0.080   2.958
 1113SOL     OW 4237   6.380   3.782   2.834
 1113SOL    HW1 4238   6.456   3.719   2.812
 1113SOL    HW2 4239   6.311   3.777   2.762
 1114SOL     OW 4240   3.660   2.732   5.948
 1114SOL    HW1 4241   3.730   2.804   5.939
 1114SOL    HW2 4242   3.698   2.655   5.998
 1115SOL     OW 4243   3.338   4.178   5.660
 1115SOL    HW1 4244   3.369   4.143   5.748
 1115SOL    HW2 4245   3.309   4.102   5.602
 1116SOL     OW 4246   4.928   1.361   0.534
 1116SOL    HW1 4247   4.831   1.355   0.514
 1116SOL    HW2 4248   4.981   1.345   0.451
 1117SOL     OW 4249   1.197   2.587   1.454
 1117SOL    HW1 4250   1.124   2.591   1.385
 1117SOL    HW2 4251   1.232   2.493   1.460
 1118SOL     OW 4252   2.746   5.795   6.670
 1118SOL    HW1 4253   2.819   5.847   6.712
 1118SOL    HW2 4254   2.785   5.716   6.622
 1119SOL     OW 4255   3.906   4.836   3.169
 1119SOL    HW1 4256   3.961   4.809   3.248
 1119SOL    HW2 4257   3.826   4.888   3.200
 1120SOL     OW 4258   6.431   5.594   1.338
 1120SOL    HW1 4259   6.503   5.601   1.407
 1120SOL    HW2 4260   6.472   5.578   1.249
 1121SOL     OW 4261   0.788   5.332   4.324
 1121SOL    HW1 4262   0.707   5.277   4.344
 1121SOL    HW2 4263   0.868   5.272   4.316
 1122SOL     OW 4264   5.712   3.003   1.953
 1122SOL    HW1 4265   5.672   2.927   2.005
 1122SOL    HW2 4266   5.715   3.084   2.011
 1123SOL     OW 4267   4.402   2.048   2.989
 1123SOL    HW1 4268   4.339   2.113   2.947
 1123SOL    HW2 4269   4.453   2.000   2.917
 1124SOL     OW 4270   1.531   2.760   5.176
 1124SOL    HW1 4271   1.622   2.736   5.144
 1124SOL    HW2 4272   1.477   2.797   5.100
 1125SOL     OW 4273   1.724   3.684   4.685
 1125SOL    HW1 4274   1.743   3.602   4.740
 1125SOL    HW2 4275   1.680   3.753   4.742
 1126SOL     OW 4276   4.237   5.941   5.647
 1126SOL    HW1 4277   4.278   5.997   5.575
 1126SOL    HW2 4278   4.142   5.967   5.661
 1127SOL     OW 4279   5.313   6.156   3.616
 1127SOL    HW1 4280   5.355   6.189   3.700
 1127SOL    HW2 4281   5.235   6.098   3.638
 1128SOL     OW 4282   6.226   0.988   3.566
 1128SOL    HW1 4283   6.250   0.993   3.663
 1128SOL    HW2 4284   6.159   1.059   3.544
 1129SOL     OW 4285   1.676   6.541   1.141
 1129SOL    HW1 4286   1.718   6.630   1.122
 1129SOL    HW2 4287   1.576   6.550   1.132
 1130SOL     OW 4288   1.668   5.363   2.872
 1130SOL    HW1 4289   1.707   5.284   2.920
 1130SOL    HW2 4290   1.676   5.444   2.929
 1131SOL     OW 4291   1.114   7.021   4.147
 1131SOL    HW1 4292   1.087   0.037   4.062
 1131SOL    HW2 4293   1.185   0.045   4.192
 1132SOL     OW 4294   4.654   0.816   2.555
 1132SOL    HW1 4295   4.644   0.825   2.654
 1132SOL    HW2 4296   4.703   0.731   2.534
 1133SOL     OW 4297   1.425   0.162   5.050
 1133SOL    HW1 4298   1.358   0.205   4.990
 1133SOL    HW2 4299   1.490   0.109   4.995
 1134SOL     OW 4300   4.660   6.613   1.889
 1134SOL    HW1 4301   4.711   6.699   1.886
 1134SOL    HW2 4302   4.633   6.594   1.983
 1135SOL     OW 4303   2.622   6.381   3.852
 1135SOL    HW1 4304   2.713   6.356   3.884
 1135SOL    HW2 4305   2.597   6.323   3.774
 1136SOL     OW 4306   2.757   6.324   2.715
 1136SOL    HW1 4307   2.839   6.347   2.664
 1136SOL    HW2 4308   2.695   6.403   2.715
 1137SOL     OW 4309   0.644   6.456   6.717
 1137SOL    HW1 4310   0.559   6.408   6.735
 1137SOL    HW2 4311   0.661   6.523   6.789
 1138SOL     OW 4312   1.702   3.438   5.580
 1138SOL    HW1 4313   1.768   3.410   5.649
 1138SOL    HW2 4314   1.672   3.359   5.527
 1139SOL     OW 4315   2.440   4.366   4.127
 1139SOL    HW1 4316   2.539   4.363   4.120
 1139SOL    HW2 4317   2.401   4.279   4.096
 1140SOL     OW 4318   2.073   1.354   1.595
 1140SOL    HW1 4319   2.071   1.293   1.516
 1140SOL    HW2 4320   2.162   1.350   1.639
 1141SOL     OW 4321   6.100   5.410   6.085
 1141SOL    HW1 4322   6.015   5.388   6.132
 1141SOL    HW2 4323   6.084   5.483   6.018
 1142SOL     OW 4324   2.492   0.028   3.674
 1142SOL    HW1 4325   2.546   0.113   3.675
 1142SOL    HW2 4326   2.507   7.007   3.758
 1143SOL     OW 4327   1.104   3.790   1.667
 1143SOL    HW1 4328   1.187   3.737   1.687
 1143SOL    HW2 4329   1.060   3.815   1.753
 1144SOL     OW 4330   5.535   4.367   2.456
 1144SOL    HW1 4331   5.621   4.335   2.416
 1144SOL    HW2 4332   5.549   4.392   2.551
 1145SOL     OW 4333   1.451   2.402   0.855
 1145SOL    HW1 4334   1.432   2.343   0.933
 1145SOL    HW2 4335   1.370   2.458   0.835
 1146SOL     OW 4336   0.472   1.465   1.428
 1146SOL    HW1 4337   0.457   1.525   1.349
 1146SOL    HW2 4338   0.566   1.429   1.426
 1147SOL     OW 4339   3.157   5.690   1.244
 1147SOL    HW1 4340   3.146   5.770   1.304
 1147SOL    HW2 4341   3.226   5.710   1.175
 1148SOL     OW 4342   4.121   6.097   2.032
 1148SOL    HW1 4343   4.201   6.116   1.976
 1148SOL    HW2 4344   4.055   6.172   2.023
 1149SOL     OW 4345   6.288   3.144   1.755
 1149SOL    HW1 4346   6.356   3.202   1.710
 1149SOL    HW2 4347   6.334   3.071   1.804
 1150SOL     OW 4348   1.464   4.433   6.972
 1150SOL    HW1 4349   1.405   4.384   6.908
 1150SOL    HW2 4350   1.408   4.491   0.002
 1151SOL     OW 4351   6.625   5.582   4.068
 1151SOL    HW1 4352   6.716   5.623   4.067
 1151SOL    HW2 4353   6.633   5.485   4.045
 1152SOL     OW 4354   4.535   0.642   0.152
 1152SOL    HW1 4355   4.592   0.567   0.187
 1152SOL    HW2 4356   4.552   0.654   0.054
 1153SOL     OW 4357   0.111   0.076   1.563
 1153SOL    HW1 4358   0.188   0.139   1.549
 1153SOL    HW2 4359   0.094   0.026   1.478
 1154SOL     OW 4360   1.158   3.351   2.395
 1154SOL    HW1 4361   1.060   3.367   2.381
 1154SOL    HW2 4362   1.196   3.304   2.316
 1155SOL     OW 4363   2.400   6.649   4.876
 1155SOL    HW1 4364   2.332   6.686   4.813
 1155SOL    HW2 4365   2.458   6.723   4.910
 1156SOL     OW 4366   4.019   1.593   4.593
 1156SOL    HW1 4367   4.053   1.554   4.678
 1156SOL    HW2 4368   4.073   1.674   4.569
 1157SOL     OW 4369   4.168   0.452   5.397
 1157SOL    HW1 4370   4.204   0.544   5.383
 1157SOL    HW2 4371   4.238   0.395   5.439
 1158SOL     OW 4372   4.769   5.727   4.028
 1158SOL    HW1 4373   4.672   5.722   4.002
 1158SOL    HW2 4374   4.825   5.704   3.949
 1159SOL     OW 4375   6.406   6.626   2.976
 1159SOL    HW1 4376   6.433   6.716   2.944
 1159SOL    HW2 4377   6.358   6.577   2.902
 1160SOL     OW 4378   4.344   6.701   1.200
 1160SOL    HW1 4379   4.389   6.690   1.289
 1160SOL    HW2 4380   4.316   6.612   1.165
 1161SOL     OW 4381   6.821   5.214   6.372
 1161SOL    HW1 4382   6.727   5.239   6.394
 1161SOL    HW2 4383   6.884   5.276   6.419
 1162SOL     OW 4384   1.846   2.847   5.746
 1162SOL    HW1 4385   1.790   2.831   5.828
 1162SOL    HW2 4386   1.934   2.801   5.757
 1163SOL     OW 4387   5.998   4.160   2.155
 1163SOL    HW1 4388   5.904   4.187   2.132
 1163SOL    HW2 4389   5.997   4.107   2.240
 1164SOL     OW 4390   5.586   2.188   4.425
 1164SOL    HW1 4391   5.583   2.089   4.408
 1164SOL    HW2 4392   5.544   2.207   4.513
 1165SOL     OW 4393   4.697   5.937   3.645
 1165SOL    HW1 4394   4.736   5.951   3.554
 1165SOL    HW2 4395   4.729   6.009   3.706
 1166SOL     OW 4396   1.991   6.392   6.618
 1166SOL    HW1 4397   2.017   6.297   6.601
 1166SOL    HW2 4398   1.898   6.408   6.585
 1167SOL     OW 4399   4.947   3.879   1.938
 1167SOL    HW1 4400   4.959   3.976   1.961
 1167SOL    HW2 4401   4.875   3.869   1.870
 1168SOL     OW 4402   6.349   2.539   2.511
 1168SOL    HW1 4403   6.299   2.605   2.567
 1168SOL    HW2 4404   6.289   2.502   2.441
 1169SOL     OW 4405   5.926   1.408   5.490
 1169SOL    HW1 4406   5.851   1.473   5.499
 1169SOL    HW2 4407   5.983   1.412   5.573
 1170SOL     OW 4408   5.009   7.027   2.973
 1170SOL    HW1 4409   4.993   0.092   2.945
 1170SOL    HW2 4410   5.103   7.002   2.953
 1171SOL     OW 4411   2.067   0.084   0.497
 1171SOL    HW1 4412   2.035   0.168   0.455
 1171SOL    HW2 4413   2.024   0.072   0.587
 1172SOL     OW 4414   5.510   3.221   0.526
 1172SOL    HW1 4415   5.448   3.257   0.457
 1172SOL    HW2 4416   5.565   3.296   0.564
 1173SOL     OW 4417   2.487   0.504   1.203
 1173SOL    HW1 4418   2.396   0.464   1.217
 1173SOL    HW2 4419   2.495   0.535   1.108
 1174SOL     OW 4420   3.454   3.712   1.613
 1174SOL    HW1 4421   3.506   3.628   1.597
 1174SOL    HW2 4422   3.435   3.721   1.711
 1175SOL     OW 4423   4.514   3.142   5.630
 1175SOL    HW1 4424   4.451   3.163   5.555
 1175SOL    HW2 4425   4.465   3.089   5.700
 1176SOL     OW 4426   4.834   3.199   6.000
 1176SOL    HW1 4427   4.822   3.284   5.948
 1176SOL    HW2 4428   4.811   3.121   5.943
 1177SOL     OW 4429   6.219   2.633   5.262
 1177SOL    HW1 4430   6.170   2.710   5.304
 1177SOL    HW2 4431   6.264   2.579   5.333
 1178SOL     OW 4432   2.874   3.914   0.864
 1178SOL    HW1 4433   2.862   3.818   0.839
 1178SOL    HW2 4434   2.874   3.970   0.781
 1179SOL     OW 4435   2.102   6.130   0.408
 1179SOL    HW1 4436   2.112   6.226   0.433
 1179SOL    HW2 4437   2.126   6.072   0.486
 1180SOL     OW 4438   3.309   5.649   2.132
 1180SOL    HW1 4439   3.259   5.711   2.192
 1180SOL    HW2 4440   3.391   5.616   2.180
 1181SOL     OW 4441   0.515   5.492   6.423
 1181SOL    HW1 4442   0.492   5.442   6.340
 1181SOL    HW2 4443   0.559   5.430   6.489
 1182SOL     OW 4444   3.816   5.640   3.310
 1182SOL    HW1 4445   3.808   5.591   3.396
 1182SOL    HW2 4446   3.908   5.627   3.273
 1183SOL     OW 4447   1.822   4.798   0.362
 1183SOL    HW1 4448   1.806   4.822   0.458
 1183SOL    HW2 4449   1.825   4.698   0.353
 1184SOL     OW 4450   0.714   0.228   4.610
 1184SOL    HW1 4451   0.707   0.299   4.680
 1184SOL    HW2 4452   0.622   0.196   4.586
 1185SOL     OW 4453   0.383   0.829   6.573
 1185SOL    HW1 4454   0.452   0.901   6.579
 1185SOL    HW2 4455   0.427   0.741   6.561
 1186SOL     OW 4456   4.962   5.302   4.536
 1186SOL    HW1 4457   4.972   5.312   4.437
 1186SOL    HW2 4458   4.943   5.206   4.559
 1187SOL     OW 4459   6.579   6.671   0.017
 1187SOL    HW1 4460   6.645   6.662   6.973
 1187SOL    HW2 4461   6.616   6.731   0.088
 1188SOL     OW 4462   3.136   6.366   5.177
 1188SOL    HW1 4463   3.156   6.463   5.187
 1188SOL    HW2 4464   3.113   6.346   5.082
 1189SOL     OW 4465   6.815   3.125   2.690
 1189SOL    HW1 4466   6.825   3.212   2.643
 1189SOL    HW2 4467   6.869   3.055   2.643
 1190SOL     OW 4468   2.426   6.554   3.348
 1190SOL    HW1 4469   2.359   6.490   3.386
 1190SOL    HW2 4470   2.393   6.588   3.260
 1191SOL     OW 4471   4.617   4.944   3.015
 1191SOL    HW1 4472   4.547   4.877   2.990
 1191SOL    HW2 4473   4.687   4.899   3.071
 1192SOL     OW 4474   3.513   5.418   3.322
 1192SOL    HW1 4475   3.602   5.462   3.308
 1192SOL    HW2 4476   3.472   5.397   3.233
 1193SOL     OW 4477   6.006   4.265   4.586
 1193SOL    HW1 4478   6.035   4.279   4.680
 1193SOL    HW2 4479   6.046   4.336   4.528
 1194SOL     OW 4480   5.431   6.787   1.839
 1194SOL    HW1 4481   5.365   6.729   1.887
 1194SOL    HW2 4482   5.518   6.738   1.832
 1195SOL     OW 4483   6.169   4.264   1.949
 1195SOL    HW1 4484   6.147   4.230   2.040
 1195SOL    HW2 4485   6.099   4.329   1.919
 1196SOL     OW 4486   6.878   6.134   2.878
 1196SOL    HW1 4487   6.842   6.193   2.950
 1196SOL    HW2 4488   6.814   6.131   2.802
 1197SOL     OW 4489   3.621   1.125   6.277
 1197SOL    HW1 4490   3.574   1.053   6.225
 1197SOL    HW2 4491   3.692   1.084   6.333
 1198SOL     OW 4492   1.110   2.968   1.786
 1198SOL    HW1 4493   1.086   2.890   1.844
 1198SOL    HW2 4494   1.027   3.005   1.744
 1199SOL     OW 4495   4.575   4.877   1.758
 1199SOL    HW1 4496   4.525   4.792   1.739
 1199SOL    HW2 4497   4.649   4.888   1.691
 1200SOL     OW 4498   3.430   3.498   2.890
 1200SOL    HW1 4499   3.458   3.409   2.853
 1200SOL    HW2 4500   3.407   3.560   2.815
 1201SOL     OW 4501   1.309   0.878   4.091
 1201SOL    HW1 4502   1.280   0.793   4.048
 1201SOL    HW2 4503   1.406   0.872   4.116
 1202SOL     OW 4504   0.754   5.791   6.483
 1202SOL    HW1 4505   0.852   5.789   6.503
 1202SOL    HW2 4506   0.732   5.718   6.418
 1203SOL     OW 4507   5.653   6.306   6.637
 1203SOL    HW1 4508   5.672   6.275   6.545
 1203SOL    HW2 4509   5.736   6.300   6.693
 1204SOL     OW 4510   2.779   0.104   1.460
 1204SOL    HW1 4511   2.835   0.149   1.391
 1204SOL    HW2 4512   2.717   0.170   1.501
 1205SOL     OW 4513   5.425   4.058   1.402
 1205SOL    HW1 4514   5.426   4.063   1.502
 1205SOL    HW2 4515   5.423   3.962   1.374
 1206SOL     OW 4516   3.115   3.052   5.100
 1206SOL    HW1 4517   3.107   3.058   5.000
 1206SOL    HW2 4518   3.055   2.979   5.134
 1207SOL     OW 4519   1.820   0.024   1.066
 1207SOL    HW1 4520   1.854   6.966   1.097
 1207SOL    HW2 4521   1.875   0.098   1.106
 1208SOL     OW 4522   3.083   4.074   0.580
 1208SOL    HW1 4523   3.123   4.153   0.532
 1208SOL    HW2 4524   2.985   4.069   0.558
 1209SOL     OW 4525   3.758   0.774   5.334
 1209SOL    HW1 4526   3.682   0.837   5.346
 1209SOL    HW2 4527   3.745   0.721   5.250
 1210SOL     OW 4528   2.602   0.085   3.060
 1210SOL    HW1 4529   2.583   0.094   2.962
 1210SOL    HW2 4530   2.679   0.145   3.084
 1211SOL     OW 4531   1.793   3.519   1.288
 1211SOL    HW1 4532   1.867   3.586   1.273
 1211SOL    HW2 4533   1.831   3.427   1.284
 1212SOL     OW 4534   0.298   0.856   6.218
 1212SOL    HW1 4535   0.390   0.819   6.205
 1212SOL    HW2 4536   0.239   0.828   6.142
 1213SOL     OW 4537   5.944   2.289   0.423
 1213SOL    HW1 4538   5.972   2.370   0.371
 1213SOL    HW2 4539   6.010   2.272   0.496
 1214SOL     OW 4540   6.948   2.552   0.314
 1214SOL    HW1 4541   0.007   2.512   0.337
 1214SOL    HW2 4542   6.961   2.636   0.261
 1215SOL     OW 4543   1.542   4.027   4.162
 1215SOL    HW1 4544   1.569   3.983   4.076
 1215SOL    HW2 4545   1.596   4.110   4.175
 1216SOL     OW 4546   4.330   0.642   0.324
 1216SOL    HW1 4547   4.393   0.621   0.249
 1216SOL    HW2 4548   4.311   0.740   0.325
 1217SOL     OW 4549   1.050   5.465   0.902
 1217SOL    HW1 4550   1.091   5.456   0.993
 1217SOL    HW2 4551   1.074   5.554   0.863
 1218SOL     OW 4552   1.673   4.809   4.601
 1218SOL    HW1 4553   1.713   4.725   4.637
 1218SOL    HW2 4554   1.713   4.888   4.649
 1219SOL     OW 4555   5.207   5.688   2.019
 1219SOL    HW1 4556   5.183   5.608   1.964
 1219SOL    HW2 4557   5.129   5.713   2.077
 1220SOL     OW 4558   0.993   5.083   3.165
 1220SOL    HW1 4559   0.950   5.094   3.255
 1220SOL    HW2 4560   0.930   5.111   3.094
 1221SOL     OW 4561   5.168   2.639   5.547
 1221SOL    HW1 4562   5.109   2.593   5.613
 1221SOL    HW2 4563   5.253   2.667   5.592
 1222SOL     OW 4564   6.088   0.170   6.780
 1222SOL    HW1 4565   6.075   0.213   6.690
 1222SOL    HW2 4566   6.017   0.202   6.842
 1223SOL     OW 4567   4.030   0.402   0.830
 1223SOL    HW1 4568   3.990   0.358   0.750
 1223SOL    HW2 4569   3.987   0.491   0.845
 1224SOL     OW 4570   2.340   6.515   0.971
 1224SOL    HW1 4571   2.250   6.557   0.958
 1224SOL    HW2 4572   2.334   6.443   1.040
 1225SOL     OW 4573   3.480   4.285   6.309
 1225SOL    HW1 4574   3.496   4.384   6.314
 1225SOL    HW2 4575   3.435   4.263   6.222
 1226SOL     OW 4576   2.550   4.514   1.021
 1226SOL    HW1 4577   2.637   4.537   0.977
 1226SOL    HW2 4578   2.562   4.434   1.079
 1227SOL     OW 4579   7.016   3.430   6.589
 1227SOL    HW1 4580   6.993   3.476   6.674
 1227SOL    HW2 4581   0.063   3.476   6.546
 1228SOL     OW 4582   3.902   3.399   6.081
 1228SOL    HW1 4583   3.843   3.478   6.098
 1228SOL    HW2 4584   3.959   3.382   6.161
 1229SOL     OW 4585   4.340   4.729   5.972
 1229SOL    HW1 4586   4.328   4.812   5.918
 1229SOL    HW2 4587   4.321   4.649   5.915
 1230SOL     OW 4588   4.422   0.665   4.589
 1230SOL    HW1 4589   4.505   0.640   4.639
 1230SOL    HW2 4590   4.411   0.764   4.590
 1231SOL     OW 4591   1.277   3.984   5.193
 1231SOL    HW1 4592   1.326   3.997   5.279
 1231SOL    HW2 4593   1.274   3.887   5.170
 1232SOL     OW 4594   0.917   1.862   5.189
 1232SOL    HW1 4595   0.951   1.828   5.102
 1232SOL    HW2 4596   0.826   1.824   5.206
 1233SOL     OW 4597   1.984   3.183   5.054
 1233SOL    HW1 4598   2.024   3.152   4.968
 1233SOL    HW2 4599   2.045   3.251   5.096
 1234SOL     OW 4600   6.888   4.270   3.891
 1234SOL    HW1 4601   6.811   4.285   3.953
 1234SOL    HW2 4602   6.954   4.208   3.935
 1235SOL     OW 4603   6.930   6.060   2.287
 1235SOL    HW1 4604   7.012   6.041   2.233
 1235SOL    HW2 4605   6.954   6.117   2.365
 1236SOL     OW 4606   5.485   1.175   6.576
 1236SOL    HW1 4607   5.456   1.124   6.657
 1236SOL    HW2 4608   5.408   1.185   6.514
 1237SOL     OW 4609   2.444   5.179   6.060
 1237SOL    HW1 4610   2.477   5.271   6.079
 1237SOL    HW2 4611   2.355   5.165   6.104
 1238SOL     OW 4612   2.353   0.828   1.162
 1238SOL    HW1 4613   2.448   0.807   1.138
 1238SOL    HW2 4614   2.348   0.922   1.198
 1239SOL     OW 4615   6.602   6.290   6.509
 1239SOL    HW1 4616   6.614   6.248   6.599
 1239SOL    HW2 4617   6.609   6.220   6.438
 1240SOL     OW 4618   5.868   6.006   1.507
 1240SOL    HW1 4619   5.838   6.088   1.556
 1240SOL    HW2 4620   5.841   6.013   1.411
 1241SOL     OW 4621   6.093   3.397   3.984
 1241SOL    HW1 4622   6.117   3.480   4.034
 1241SOL    HW2 4623   6.012   3.413   3.928
 1242SOL     OW 4624   1.729   3.939   0.398
 1242SOL    HW1 4625   1.801   3.909   0.334
 1242SOL    HW2 4626   1.681   3.859   0.434
 1243SOL     OW 4627   1.794   5.814   5.632
 1243SOL    HW1 4628   1.752   5.760   5.704
 1243SOL    HW2 4629   1.867   5.761   5.588
 1244SOL     OW 4630   7.028   6.858   3.051
 1244SOL    HW1 4631   0.062   6.797   3.099
 1244SOL    HW2 4632   0.050   6.917   2.989
 1245SOL     OW 4633   3.912   3.547   6.481
 1245SOL    HW1 4634   3.963   3.528   6.565
 1245SOL    HW2 4635   3.839   3.614   6.500
 1246SOL     OW 4636   2.182   6.648   2.292
 1246SOL    HW1 4637   2.092   6.686   2.272
 1246SOL    HW2 4638   2.179   6.548   2.281
 1247SOL     OW 4639   2.666   0.522   6.773
 1247SOL    HW1 4640   2.698   0.518   6.678
 1247SOL    HW2 4641   2.567   0.509   6.775
 1248SOL     OW 4642   1.531   6.953   3.925
 1248SOL    HW1 4643   1.544   6.953   4.025
 1248SOL    HW2 4644   1.577   0.003   3.886
 1249SOL     OW 4645   5.587   2.818   2.087
 1249SOL    HW1 4646   5.646   2.738   2.079
 1249SOL    HW2 4647   5.509   2.796   2.146
 1250SOL     OW 4648   1.061   4.703   4.550
 1250SOL    HW1 4649   1.120   4.680   4.472
 1250SOL    HW2 4650   1.045   4.802   4.552
 1251SOL     OW 4651   4.150   0.179   4.554
 1251SOL    HW1 4652   4.214   0.255   4.561
 1251SOL    HW2 4653   4.107   0.164   4.643
 1252SOL     OW 4654   3.535   3.765   5.718
 1252SOL    HW1 4655   3.589   3.687   5.750
 1252SOL    HW2 4656   3.439   3.750   5.742
 1253SOL     OW 4657   3.672   5.597   2.043
 1253SOL    HW1 4658   3.640   5.535   1.971
 1253SOL    HW2 4659   3.766   5.575   2.066
 1254SOL     OW 4660   6.132   2.607   2.762
 1254SOL    HW1 4661   6.115   2.663   2.680
 1254SOL    HW2 4662   6.099   2.655   2.843
 1255SOL     OW 4663   6.565   0.696   5.445
 1255SOL    HW1 4664   6.522   0.729   5.529
 1255SOL    HW2 4665   6.562   0.596   5.443
 1256SOL     OW 4666   6.882   0.041   3.156
 1256SOL    HW1 4667   6.899   0.102   3.079
 1256SOL    HW2 4668   6.907   6.977   3.132
 1257SOL     OW 4669   0.065   0.467   3.134
 1257SOL    HW1 4670   0.036   0.414   3.213
 1257SOL    HW2 4671   7.025   0.535   3.112
 1258SOL     OW 4672   0.864   5.368   3.214
 1258SOL    HW1 4673   0.855   5.313   3.296
 1258SOL    HW2 4674   0.934   5.438   3.229
 1259SOL     OW 4675   4.182   1.417   4.765
 1259SOL    HW1 4676   4.226   1.467   4.840
 1259SOL    HW2 4677   4.183   1.319   4.785
 1260SOL     OW 4678   0.988   1.129   6.613
 1260SOL    HW1 4679   1.014   1.176   6.529
 1260SOL    HW2 4680   0.990   1.030   6.598
 1261SOL     OW 4681   6.889   5.442   0.319
 1261SOL    HW1 4682   6.966   5.378   0.321
 1261SOL    HW2 4683   6.803   5.391   0.325
 1262SOL     OW 4684   5.496   5.580   2.056
 1262SOL    HW1 4685   5.544   5.536   2.131
 1262SOL    HW2 4686   5.414   5.626   2.090
 1263SOL     OW 4687   1.111   1.445   2.375
 1263SOL    HW1 4688   1.173   1.523   2.371
 1263SOL    HW2 4689   1.016   1.477   2.380
 1264SOL     OW 4690   1.025   4.063   5.326
 1264SOL    HW1 4691   1.106   4.047   5.271
 1264SOL    HW2 4692   1.016   3.992   5.395
 1265SOL     OW 4693   6.471   5.829   4.725
 1265SOL    HW1 4694   6.475   5.758   4.655
 1265SOL    HW2 4695   6.494   5.790   4.814
 1266SOL     OW 4696   0.995   1.070   4.670
 1266SOL    HW1 4697   1.006   0.971   4.683
 1266SOL    HW2 4698   0.964   1.112   4.756
 1267SOL     OW 4699   5.107   0.594   2.123
 1267SOL    HW1 4700   5.017   0.553   2.110
 1267SOL    HW2 4701   5.177   0.537   2.078
 1268SOL     OW 4702   4.260   2.378   5.410
 1268SOL    HW1 4703   4.227   2.419   5.495
 1268SOL    HW2 4704   4.238   2.438   5.333
 1269SOL     OW 4705   5.171   2.276   4.134
 1269SOL    HW1 4706   5.073   2.284   4.114
 1269SOL    HW2 4707   5.188   2.303   4.229
 1270SOL     OW 4708   1.941   4.558   2.589
 1270SOL    HW1 4709   1.944   4.654   2.562
 1270SOL    HW2 4710   1.885   4.507   2.524
 1271SOL     OW 4711   2.003   1.087   0.977
 1271SOL    HW1 4712   2.077   1.150   0.953
 1271SOL    HW2 4713   1.991   1.086   1.077
 1272SOL     OW 4714   6.617   3.959   6.365
 1272SOL    HW1 4715   6.554   3.888   6.333
 1272SOL    HW2 4716   6.710   3.938   6.333
 1273SOL     OW 4717   1.604   4.443   4.994
 1273SOL    HW1 4718   1.533   4.430   4.925
 1273SOL    HW2 4719   1.635   4.353   5.026
 1274SOL     OW 4720   0.182   4.428   1.806
 1274SOL    HW1 4721   0.199   4.394   1.898
 1274SOL    HW2 4722   0.090   4.468   1.802
 1275SOL     OW 4723   3.478   0.797   3.728
 1275SOL    HW1 4724   3.389   0.753   3.737
 1275SOL    HW2 4725   3.550   0.731   3.749
 1276SOL     OW 4726   5.545   4.907   4.110
 1276SOL    HW1 4727   5.525   4.866   4.021
 1276SOL    HW2 4728   5.643   4.926   4.116
 1277SOL     OW 4729   0.676   6.139   0.010
 1277SOL    HW1 4730   0.690   6.140   6.940
 1277SOL    HW2 4731   0.667   6.044   0.041
 1278SOL     OW 4732   1.609   0.073   3.135
 1278SOL    HW1 4733   1.657   0.155   3.105
 1278SOL    HW2 4734   1.524   0.099   3.181
 1279SOL     OW 4735   3.018   3.704   6.492
 1279SOL    HW1 4736   2.933   3.669   6.532
 1279SOL    HW2 4737   3.028   3.669   6.399
 1280SOL     OW 4738   3.072   0.836   3.728
 1280SOL    HW1 4739   3.096   0.932   3.717
 1280SOL    HW2 4740   3.060   0.793   3.638
 1281SOL     OW 4741   3.668   6.118   3.734
 1281SOL    HW1 4742   3.638   6.212   3.744
 1281SOL    HW2 4743   3.768   6.114   3.736
 1282SOL     OW 4744   6.955   3.029   0.838
 1282SOL    HW1 4745   6.909   3.012   0.751
 1282SOL    HW2 4746   6.973   2.942   0.883
 1283SOL     OW 4747   6.494   4.047   5.439
 1283SOL    HW1 4748   6.582   4.032   5.484
 1283SOL    HW2 4749   6.500   4.016   5.344
 1284SOL     OW 4750   3.549   1.443   1.328
 1284SOL    HW1 4751   3.635   1.474   1.369
 1284SOL    HW2 4752   3.562   1.355   1.284
 1285SOL     OW 4753   3.329   1.504   4.733
 1285SOL    HW1 4754   3.428   1.506   4.747
 1285SOL    HW2 4755   3.298   1.595   4.705
 1286SOL     OW 4756   5.053   2.981   1.673
 1286SOL    HW1 4757   5.082   2.985   1.577
 1286SOL    HW2 4758   4.979   3.047   1.688
 1287SOL     OW 4759   6.182   4.561   5.039
 1287SOL    HW1 4760   6.250   4.633   5.050
 1287SOL    HW2 4761   6.164   4.519   5.128
 1288SOL     OW 4762   4.703   4.692   6.571
 1288SOL    HW1 4763   4.777   4.743   6.527
 1288SOL    HW2 4764   4.663   4.628   6.505
 1289SOL     OW 4765   6.286   0.729   1.161
 1289SOL    HW1 4766   6.350   0.654   1.176
 1289SOL    HW2 4767   6.273   0.743   1.063
 1290SOL     OW 4768   1.580   0.587   0.425
 1290SOL    HW1 4769   1.521   0.668   0.428
 1290SOL    HW2 4770   1.650   0.600   0.354
 1291SOL     OW 4771   6.774   5.212   3.202
 1291SOL    HW1 4772   6.852   5.273   3.216
 1291SOL    HW2 4773   6.729   5.194   3.289
 1292SOL     OW 4774   0.239   5.472   2.555
 1292SOL    HW1 4775   0.221   5.374   2.565
 1292SOL    HW2 4776   0.159   5.516   2.514
 1293SOL     OW 4777   2.442   1.646   0.009
 1293SOL    HW1 4778   2.443   1.609   6.946
 1293SOL    HW2 4779   2.457   1.572   0.075
 1294SOL     OW 4780   1.855   4.511   6.397
 1294SOL    HW1 4781   1.864   4.547   6.490
 1294SOL    HW2 4782   1.926   4.550   6.339
 1295SOL     OW 4783   0.244   3.795   0.787
 1295SOL    HW1 4784   0.314   3.809   0.856
 1295SOL    HW2 4785   0.243   3.698   0.760
 1296SOL     OW 4786   5.010   6.900   5.487
 1296SOL    HW1 4787   5.034   6.811   5.526
 1296SOL    HW2 4788   4.988   6.964   5.561
 1297SOL     OW 4789   0.861   0.280   2.928
 1297SOL    HW1 4790   0.798   0.357   2.940
 1297SOL    HW2 4791   0.934   0.286   2.996
 1298SOL     OW 4792   5.403   5.870   2.619
 1298SOL    HW1 4793   5.503   5.876   2.621
 1298SOL    HW2 4794   5.368   5.930   2.548
 1299SOL     OW 4795   2.152   3.147   4.325
 1299SOL    HW1 4796   2.196   3.058   4.311
 1299SOL    HW2 4797   2.084   3.138   4.398
 1300SOL     OW 4798   2.358   3.804   0.863
 1300SOL    HW1 4799   2.372   3.811   0.764
 1300SOL    HW2 4800   2.262   3.782   0.881
 1301SOL     OW 4801   0.632   0.574   1.724
 1301SOL    HW1 4802   0.720   0.614   1.698
 1301SOL    HW2 4803   0.561   0.643   1.720
 1302SOL     OW 4804   5.531   0.162   6.109
 1302SOL    HW1 4805   5.580   0.246   6.133
 1302SOL    HW2 4806   5.443   0.185   6.069
 1303SOL     OW 4807   3.953   6.310   2.016
 1303SOL    HW1 4808   3.871   6.298   2.072
 1303SOL    HW2 4809   3.926   6.341   1.925
 1304SOL     OW 4810   0.938   1.280   1.175
 1304SOL    HW1 4811   0.942   1.326   1.086
 1304SOL    HW2 4812   0.936   1.181   1.160
 1305SOL     OW 4813   5.082   4.744   6.526
 1305SOL    HW1 4814   5.012   4.812   6.501
 1305SOL    HW2 4815   5.095   4.745   6.625
 1306SOL     OW 4816   1.105   5.982   4.789
 1306SOL    HW1 4817   1.112   6.008   4.692
 1306SOL    HW2 4818   1.069   6.059   4.842
 1307SOL     OW 4819   1.776   2.941   3.783
 1307SOL    HW1 4820   1.813   3.002   3.713
 1307SOL    HW2 4821   1.818   2.850   3.774
 1308SOL     OW 4822   6.775   5.748   6.588
 1308SOL    HW1 4823   6.768   5.768   6.686
 1308SOL    HW2 4824   6.871   5.736   6.564
 1309SOL     OW 4825   4.936   4.551   5.953
 1309SOL    HW1 4826   4.981   4.462   5.943
 1309SOL    HW2 4827   4.964   4.592   6.039
 1310SOL     OW 4828   1.094   3.848   3.949
 1310SOL    HW1 4829   1.164   3.919   3.962
 1310SOL    HW2 4830   1.139   3.759   3.939
 1311SOL     OW 4831   6.233   5.778   6.973
 1311SOL    HW1 4832   6.327   5.746   6.971
 1311SOL    HW2 4833   6.185   5.736   0.020
 1312SOL     OW 4834   0.909   1.094   5.761
 1312SOL    HW1 4835   1.007   1.113   5.759
 1312SOL    HW2 4836   0.868   1.125   5.675
 1313SOL     OW 4837   6.032   5.205   3.649
 1313SOL    HW1 4838   5.971   5.268   3.697
 1313SOL    HW2 4839   6.055   5.128   3.709
 1314SOL     OW 4840   2.306   1.715   4.964
 1314SOL    HW1 4841   2.353   1.758   5.041
 1314SOL    HW2 4842   2.224   1.669   4.997
 1315SOL     OW 4843   6.666   0.576   4.003
 1315SOL    HW1 4844   6.606   0.630   3.944
 1315SOL    HW2 4845   6.761   0.597   3.983
 1316SOL     OW 4846   3.991   0.156   5.424
 1316SOL    HW1 4847   3.993   0.209   5.339
 1316SOL    HW2 4848   3.964   0.062   5.404
 1317SOL     OW 4849   3.077   3.870   6.183
 1317SOL    HW1 4850   3.136   3.796   6.213
 1317SOL    HW2 4851   3.089   3.884   6.084
 1318SOL     OW 4852   2.200   2.381   0.010
 1318SOL    HW1 4853   2.197   2.480   7.028
 1318SOL    HW2 4854   2.125   2.339   6.989
 1319SOL     OW 4855   0.039   6.232   0.351
 1319SOL    HW1 4856   6.988   6.173   0.352
 1319SOL    HW2 4857   0.120   6.178   0.373
 1320SOL     OW 4858   3.495   2.922   6.542
 1320SOL    HW1 4859   3.492   2.838   6.597
 1320SOL    HW2 4860   3.552   2.907   6.462
 1321SOL     OW 4861   5.285   1.700   6.884
 1321SOL    HW1 4862   5.327   1.642   6.954
 1321SOL    HW2 4863   5.266   1.646   6.802
 1322SOL     OW 4864   3.371   1.064   5.817
 1322SOL    HW1 4865   3.375   1.072   5.917
 1322SOL    HW2 4866   3.441   1.122   5.776
 1323SOL     OW 4867   3.168   6.752   0.792
 1323SOL    HW1 4868   3.191   6.845   0.822
 1323SOL    HW2 4869   3.153   6.694   0.873
 1324SOL     OW 4870   1.309   3.802   0.336
 1324SOL    HW1 4871   1.221   3.837   0.371
 1324SOL    HW2 4872   1.307   3.804   0.236
 1325SOL     OW 4873   2.626   6.201   5.685
 1325SOL    HW1 4874   2.578   6.242   5.607
 1325SOL    HW2 4875   2.559   6.171   5.753
 1326SOL     OW 4876   4.752   4.230   4.858
 1326SOL    HW1 4877   4.802   4.154   4.817
 1326SOL    HW2 4878   4.711   4.286   4.786
 1327SOL     OW 4879   0.643   6.765   1.053
 1327SOL    HW1 4880   0.709   6.766   1.129
 1327SOL    HW2 4881   0.602   6.856   1.044
 1328SOL     OW 4882   1.139   3.347   5.759
 1328SOL    HW1 4883   1.133   3.259   5.807
 1328SOL    HW2 4884   1.196   3.336   5.677
 1329SOL     OW 4885   0.683   2.045   2.842
 1329SOL    HW1 4886   0.683   2.095   2.928
 1329SOL    HW2 4887   0.589   2.024   2.815
 1330SOL     OW 4888   6.932   1.919   0.969
 1330SOL    HW1 4889   6.878   1.984   0.915
 1330SOL    HW2 4890   7.005   1.968   1.017
 1331SOL     OW 4891   4.837   2.323   2.529
 1331SOL    HW1 4892   4.761   2.345   2.590
 1331SOL    HW2 4893   4.894   2.404   2.516
 1332SOL     OW 4894   1.803   0.424   0.964
 1332SOL    HW1 4895   1.849   0.472   1.039
 1332SOL    HW2 4896   1.725   0.477   0.933
 1333SOL     OW 4897   3.895   3.892   3.218
 1333SOL    HW1 4898   3.941   3.882   3.306
 1333SOL    HW2 4899   3.797   3.902   3.232
 1334SOL     OW 4900   6.775   1.669   2.929
 1334SOL    HW1 4901   6.823   1.610   2.994
 1334SOL    HW2 4902   6.798   1.641   2.835
 1335SOL     OW 4903   1.798   3.676   1.769
 1335SOL    HW1 4904   1.837   3.588   1.794
 1335SOL    HW2 4905   1.872   3.738   1.741
 1336SOL     OW 4906   3.564   0.902   5.506
 1336SOL    HW1 4907   3.479   0.904   5.454
 1336SOL    HW2 4908   3.544   0.887   5.603
 1337SOL     OW 4909   6.466   1.405   3.166
 1337SOL    HW1 4910   6.478   1.481   3.103
 1337SOL    HW2 4911   6.472   1.318   3.116
 1338SOL     OW 4912   6.166   3.860   4.105
 1338SOL    HW1 4913   6.162   3.764   4.132
 1338SOL    HW2 4914   6.166   3.867   4.006
 1339SOL     OW 4915   0.325   0.320   0.193
 1339SOL    HW1 4916   0.359   0.229   0.216
 1339SOL    HW2 4917   0.293   0.321   0.098
 1340SOL     OW 4918   5.155   1.406   2.075
 1340SOL    HW1 4919   5.167   1.485   2.135
 1340SOL    HW2 4920   5.104   1.433   1.993
 1341SOL     OW 4921   4.474   6.955   0.130
 1341SOL    HW1 4922   4.567   6.926   0.110
 1341SOL    HW2 4923   4.424   6.968   0.045
 1342SOL     OW 4924   2.986   5.434   0.775
 1342SOL    HW1 4925   2.935   5.349   0.761
 1342SOL    HW2 4926   3.045   5.425   0.854
 1343SOL     OW 4927   5.464   5.190   2.995
 1343SOL    HW1 4928   5.487   5.233   3.083
 1343SOL    HW2 4929   5.498   5.248   2.921
 1344SOL     OW 4930   0.532   6.585   4.510
 1344SOL    HW1 4931   0.497   6.551   4.423
 1344SOL    HW2 4932   0.594   6.661   4.495
 1345SOL     OW 4933   0.272   5.037   1.800
 1345SOL    HW1 4934   0.308   5.117   1.753
 1345SOL    HW2 4935   0.323   4.956   1.771
 1346SOL     OW 4936   2.294   5.770   5.760
 1346SOL    HW1 4937   2.331   5.801   5.672
 1346SOL    HW2 4938   2.260   5.677   5.751
 1347SOL     OW 4939   1.727   0.035   5.922
 1347SOL    HW1 4940   1.705   0.106   5.855
 1347SOL    HW2 4941   1.775   0.076   5.999
 1348SOL     OW 4942   7.024   5.819   5.410
 1348SOL    HW1 4943   0.003   5.884   5.486
 1348SOL    HW2 4944   0.083   5.775   5.394
 1349SOL     OW 4945   5.491   2.869   3.855
 1349SOL    HW1 4946   5.537   2.946   3.898
 1349SOL    HW2 4947   5.450   2.811   3.926
 1350SOL     OW 4948   3.523   4.179   0.552
 1350SOL    HW1 4949   3.549   4.248   0.484
 1350SOL    HW2 4950   3.439   4.133   0.522
 1351SOL     OW 4951   5.968   1.872   3.757
 1351SOL    HW1 4952   5.894   1.835   3.813
 1351SOL    HW2 4953   5.949   1.854   3.661
 1352SOL     OW 4954   6.982   0.394   2.267
 1352SOL    HW1 4955   6.918   0.470   2.275
 1352SOL    HW2 4956   0.034   0.425   2.218
 1353SOL     OW 4957   0.377   1.796   0.585
 1353SOL    HW1 4958   0.295   1.837   0.623
 1353SOL    HW2 4959   0.428   1.749   0.657
 1354SOL     OW 4960   6.736   4.259   2.318
 1354SOL    HW1 4961   6.712   4.171   2.277
 1354SOL    HW2 4962   6.835   4.263   2.332
 1355SOL     OW 4963   5.863   3.555   4.177
 1355SOL    HW1 4964   5.821   3.565   4.087
 1355SOL    HW2 4965   5.823   3.623   4.239
 1356SOL     OW 4966   3.711   3.073   2.337
 1356SOL    HW1 4967   3.635   3.099   2.278
 1356SOL    HW2 4968   3.705   3.124   2.423
 1357SOL     OW 4969   6.681   3.557   6.060
 1357SOL    HW1 4970   6.590   3.584   6.028
 1357SOL    HW2 4971   6.675   3.526   6.155
 1358SOL     OW 4972   0.472   0.266   6.786
 1358SOL    HW1 4973   0.401   0.251   6.717
 1358SOL    HW2 4974   0.561   0.239   6.750
 1359SOL     OW 4975   6.336   4.304   1.491
 1359SOL    HW1 4976   6.414   4.298   1.553
 1359SOL    HW2 4977   6.296   4.395   1.495
 1360SOL     OW 4978   3.546   3.278   0.006
 1360SOL    HW1 4979   3.592   3.341   0.069
 1360SOL    HW2 4980   3.585   3.288   6.945
 1361SOL     OW 4981   0.210   4.529   4.801
 1361SOL    HW1 4982   0.182   4.571   4.887
 1361SOL    HW2 4983   0.255   4.442   4.819
 1362SOL     OW 4984   3.928   3.034   2.507
 1362SOL    HW1 4985   3.982   3.076   2.434
 1362SOL    HW2 4986   3.845   2.995   2.470
 1363SOL     OW 4987   6.951   5.378   5.255
 1363SOL    HW1 4988   6.935   5.444   5.328
 1363SOL    HW2 4989   6.977   5.426   5.171
 1364SOL     OW 4990   4.517   4.312   7.022
 1364SOL    HW1 4991   4.595   4.367   6.994
 1364SOL    HW2 4992   4.462   4.289   6.941
 1365SOL     OW 4993   0.716   3.727   6.486
 1365SOL    HW1 4994   0.760   3.667   6.419
 1365SOL    HW2 4995   0.785   3.768   6.545
 1366SOL     OW 4996   1.290   0.644   4.724
 1366SOL    HW1 4997   1.343   0.565   4.694
 1366SOL    HW2 4998   1.289   0.647   4.824
 1367SOL     OW 4999   1.849   1.646   2.494
 1367SOL    HW1 5000   1.877   1.741   2.483
 1367SOL    HW2 5001   1.801   1.635   2.582
 1368SOL     OW 5002   5.839   6.979   4.311
 1368SOL    HW1 5003   5.899   6.899   4.306
 1368SOL    HW2 5004   5.778   6.981   4.232
 1369SOL     OW 5005   0.545   6.561   3.259
 1369SOL    HW1 5006   0.569   6.482   3.315
 1369SOL    HW2 5007   0.612   6.570   3.185
 1370SOL     OW 5008   3.316   0.731   1.702
 1370SOL    HW1 5009   3.327   0.697   1.795
 1370SOL    HW2 5010   3.242   0.681   1.656
 1371SOL     OW 5011   3.909   0.232   5.873
 1371SOL    HW1 5012   4.009   0.232   5.869
 1371SOL    HW2 5013   3.876   0.326   5.884
 1372SOL     OW 5014   2.363   2.051   1.732
 1372SOL    HW1 5015   2.380   2.037   1.635
 1372SOL    HW2 5016   2.308   2.133   1.746
 1373SOL     OW 5017   0.450   5.148   1.298
 1373SOL    HW1 5018   0.390   5.199   1.236
 1373SOL    HW2 5019   0.536   5.198   1.309
 1374SOL     OW 5020   4.146   2.370   1.080
 1374SOL    HW1 5021   4.065   2.373   1.138
 1374SOL    HW2 5022   4.187   2.461   1.076
 1375SOL     OW 5023   0.285   4.873   6.142
 1375SOL    HW1 5024   0.329   4.935   6.077
 1375SOL    HW2 5025   0.259   4.788   6.094
 1376SOL     OW 5026   5.079   3.230   3.497
 1376SOL    HW1 5027   5.023   3.184   3.428
 1376SOL    HW2 5028   5.036   3.221   3.586
 1377SOL     OW 5029   0.027   5.142   5.373
 1377SOL    HW1 5030   7.027   5.226   5.327
 1377SOL    HW2 5031   6.979   5.079   5.379
 1378SOL     OW 5032   1.156   2.060   0.057
 1378SOL    HW1 5033   1.255   2.065   0.063
 1378SOL    HW2 5034   1.124   2.107   7.004
 1379SOL     OW 5035   3.726   6.588   2.787
 1379SOL    HW1 5036   3.666   6.608   2.865
 1379SOL    HW2 5037   3.821   6.605   2.813
 1380SOL     OW 5038   6.552   6.958   2.386
 1380SOL    HW1 5039   6.560   6.981   2.289
 1380SOL    HW2 5040   6.621   6.890   2.409
 1381SOL     OW 5041   6.111   2.234   0.104
 1381SOL    HW1 5042   6.186   2.260   0.043
 1381SOL    HW2 5043   6.145   2.173   0.175
 1382SOL     OW 5044   5.445   5.075   6.391
 1382SOL    HW1 5045   5.530   5.030   6.418
 1382SOL    HW2 5046   5.457   5.174   6.396
 1383SOL     OW 5047   1.794   0.413   0.583
 1383SOL    HW1 5048   1.807   0.421   0.682
 1383SOL    HW2 5049   1.709   0.460   0.557
 1384SOL     OW 5050   4.049   1.492   2.903
 1384SOL    HW1 5051   4.087   1.403   2.880
 1384SOL    HW2 5052   4.039   1.500   3.002
 1385SOL     OW 5053   6.577   3.053   2.815
 1385SOL    HW1 5054   6.651   3.097   2.766
 1385SOL    HW2 5055   6.535   3.118   2.878
 1386SOL     OW 5056   1.957   3.084   4.497
 1386SOL    HW1 5057   1.919   3.098   4.588
 1386SOL    HW2 5058   1.894   3.030   4.442
 1387SOL     OW 5059   3.264   0.357   4.803
 1387SOL    HW1 5060   3.204   0.401   4.736
 1387SOL    HW2 5061   3.358   0.356   4.769
 1388SOL     OW 5062   6.746   1.203   3.969
 1388SOL    HW1 5063   6.741   1.291   4.015
 1388SOL    HW2 5064   6.804   1.141   4.022
 1389SOL     OW 5065   5.968   0.065   4.817
 1389SOL    HW1 5066   5.957   0.022   4.727
 1389SOL    HW2 5067   6.036   0.015   4.869
 1390SOL     OW 5068   4.473   1.870   1.837
 1390SOL    HW1 5069   4.445   1.807   1.909
 1390SOL    HW2 5070   4.416   1.953   1.842
 1391SOL     OW 5071   5.458   0.750   4.637
 1391SOL    HW1 5072   5.506   0.700   4.566
 1391SOL    HW2 5073   5.461   0.848   4.617
 1392SOL     OW 5074   5.493   5.867   6.078
 1392SOL    HW1 5075   5.448   5.892   5.993
 1392SOL    HW2 5076   5.444   5.791   6.121
 1393SOL     OW 5077   6.814   1.099   6.428
 1393SOL    HW1 5078   6.749   1.144   6.488
 1393SOL    HW2 5079   6.901   1.148   6.430
 1394SOL     OW 5080   4.606   6.935   3.517
 1394SOL    HW1 5081   4.593   6.840   3.490
 1394SOL    HW2 5082   4.604   6.943   3.616
 1395SOL     OW 5083   1.547   4.656   2.744
 1395SOL    HW1 5084   1.642   4.636   2.769
 1395SOL    HW2 5085   1.502   4.572   2.716
 1396SOL     OW 5086   2.267   1.123   4.420
 1396SOL    HW1 5087   2.355   1.170   4.430
 1396SOL    HW2 5088   2.219   1.158   4.340
 1397SOL     OW 5089   0.509   5.241   4.359
 1397SOL    HW1 5090   0.428   5.295   4.335
 1397SOL    HW2 5091   0.540   5.190   4.278
 1398SOL     OW 5092   0.556   1.239   1.167
 1398SOL    HW1 5093   0.535   1.148   1.203
 1398SOL    HW2 5094   0.612   1.289   1.233
 1399SOL     OW 5095   3.919   0.428   0.234
 1399SOL    HW1 5096   3.956   0.461   0.321
 1399SOL    HW2 5097   3.823   0.457   0.226
 1400SOL     OW 5098   6.444   0.348   4.243
 1400SOL    HW1 5099   6.492   0.368   4.328
 1400SOL    HW2 5100   6.346   0.342   4.260
 1401SOL     OW 5101   5.539   0.436   3.290
 1401SOL    HW1 5102   5.601   0.510   3.266
 1401SOL    HW2 5103   5.588   0.367   3.342
 1402SOL     OW 5104   6.224   3.728   2.139
 1402SOL    HW1 5105   6.222   3.827   2.133
 1402SOL    HW2 5106   6.299   3.692   2.084
 1403SOL     OW 5107   3.396   2.962   0.191
 1403SOL    HW1 5108   3.455   2.890   0.154
 1403SOL    HW2 5109   3.401   2.961   0.291
 1404SOL     OW 5110   4.310   6.621   0.900
 1404SOL    HW1 5111   4.378   6.665   0.841
 1404SOL    HW2 5112   4.224   6.672   0.896
 1405SOL     OW 5113   2.083   3.025   1.004
 1405SOL    HW1 5114   1.993   3.049   0.966
 1405SOL    HW2 5115   2.110   3.094   1.071
 1406SOL     OW 5116   2.606   3.229   1.138
 1406SOL    HW1 5117   2.665   3.305   1.113
 1406SOL    HW2 5118   2.661   3.148   1.157
 1407SOL     OW 5119   0.964   3.151   0.986
 1407SOL    HW1 5120   1.054   3.170   1.026
 1407SOL    HW2 5121   0.972   3.078   0.919
 1408SOL     OW 5122   5.873   6.307   6.776
 1408SOL    HW1 5123   5.953   6.248   6.787
 1408SOL    HW2 5124   5.882   6.387   6.835
 1409SOL     OW 5125   6.662   1.723   5.570
 1409SOL    HW1 5126   6.762   1.720   5.559
 1409SOL    HW2 5127   6.619   1.721   5.480
 1410SOL     OW 5128   3.613   2.320   6.315
 1410SOL    HW1 5129   3.579   2.232   6.350
 1410SOL    HW2 5130   3.579   2.334   6.223
 1411SOL     OW 5131   4.074   5.469   0.517
 1411SOL    HW1 5132   4.077   5.568   0.502
 1411SOL    HW2 5133   4.033   5.423   0.438
 1412SOL     OW 5134   1.898   2.888   0.634
 1412SOL    HW1 5135   1.888   2.832   0.716
 1412SOL    HW2 5136   1.881   2.831   0.553
 1413SOL     OW 5137   1.582   1.773   5.005
 1413SOL    HW1 5138   1.538   1.703   4.949
 1413SOL    HW2 5139   1.634   1.729   5.079
 1414SOL     OW 5140   1.283   3.991   1.970
 1414SOL    HW1 5141   1.352   3.964   1.904
 1414SOL    HW2 5142   1.319   3.980   2.063
 1415SOL     OW 5143   1.886   2.074   4.361
 1415SOL    HW1 5144   1.857   2.030   4.276
 1415SOL    HW2 5145   1.826   2.150   4.382
 1416SOL     OW 5146   4.179   0.138   5.617
 1416SOL    HW1 5147   4.153   0.160   5.711
 1416SOL    HW2 5148   4.100   0.147   5.557
 1417SOL     OW 5149   4.131   3.165   5.593
 1417SOL    HW1 5150   4.035   3.173   5.622
 1417SOL    HW2 5151   4.172   3.255   5.590
 1418SOL     OW 5152   3.780   4.255   6.672
 1418SOL    HW1 5153   3.753   4.345   6.638
 1418SOL    HW2 5154   3.879   4.244   6.665
 1419SOL     OW 5155   1.790   4.667   2.870
 1419SOL    HW1 5156   1.808   4.702   2.962
 1419SOL    HW2 5157   1.854   4.593   2.849
 1420SOL     OW 5158   3.070   5.880   3.137
 1420SOL    HW1 5159   3.056   5.829   3.052
 1420SOL    HW2 5160   2.997   5.858   3.201
 1421SOL     OW 5161   1.380   5.298   5.616
 1421SOL    HW1 5162   1.398   5.366   5.687
 1421SOL    HW2 5163   1.466   5.255   5.588
 1422SOL     OW 5164   2.379   3.889   5.887
 1422SOL    HW1 5165   2.304   3.951   5.910
 1422SOL    HW2 5166   2.369   3.858   5.792
 1423SOL     OW 5167   4.377   0.973   5.132
 1423SOL    HW1 5168   4.463   0.952   5.085
 1423SOL    HW2 5169   4.342   0.890   5.176
 1424SOL     OW 5170   5.476   2.682   6.668
 1424SOL    HW1 5171   5.441   2.715   6.755
 1424SOL    HW2 5172   5.472   2.582   6.666
 1425SOL     OW 5173   4.773   6.324   3.515
 1425SOL    HW1 5174   4.771   6.398   3.582
 1425SOL    HW2 5175   4.683   6.280   3.511
 1426SOL     OW 5176   3.556   2.275   6.935
 1426SOL    HW1 5177   3.586   2.232   7.020
 1426SOL    HW2 5178   3.604   2.234   6.858
 1427SOL     OW 5179   1.880   1.253   4.132
 1427SOL    HW1 5180   1.852   1.333   4.079
 1427SOL    HW2 5181   1.908   1.180   4.069
 1428SOL     OW 5182   0.216   3.519   3.660
 1428SOL    HW1 5183   0.119   3.501   3.641
 1428SOL    HW2 5184   0.256   3.439   3.705
 1429SOL     OW 5185   5.936   0.518   1.129
 1429SOL    HW1 5186   5.994   0.458   1.185
 1429SOL    HW2 5187   5.907   0.596   1.184
 1430SOL     OW 5188   1.719   3.863   3.312
 1430SOL    HW1 5189   1.788   3.890   3.378
 1430SOL    HW2 5190   1.734   3.767   3.286
 1431SOL     OW 5191   1.817   1.233   5.685
 1431SOL    HW1 5192   1.777   1.142   5.698
 1431SOL    HW2 5193   1.906   1.223   5.640
 1432SOL     OW 5194   2.879   1.450   2.482
 1432SOL    HW1 5195   2.784   1.445   2.511
 1432SOL    HW2 5196   2.892   1.396   2.399
 1433SOL     OW 5197   2.548   7.025   4.356
 1433SOL    HW1 5198   2.613   0.008   4.281
 1433SOL    HW2 5199   2.587   0.033   4.441
 1434SOL     OW 5200   0.497   2.924   0.190
 1434SOL    HW1 5201   0.415   2.957   0.237
 1434SOL    HW2 5202   0.560   3.000   0.176
 1435SOL     OW 5203   1.107   6.823   4.717
 1435SOL    HW1 5204   1.017   6.864   4.731
 1435SOL    HW2 5205   1.097   6.734   4.673
 1436SOL     OW 5206   5.543   1.712   0.913
 1436SOL    HW1 5207   5.579   1.755   0.996
 1436SOL    HW2 5208   5.473   1.646   0.938
 1437SOL     OW 5209   4.553   0.115   6.482
 1437SOL    HW1 5210   4.533   0.203   6.439
 1437SOL    HW2 5211   4.652   0.106   6.495
 1438SOL     OW 5212   2.606   0.110   1.938
 1438SOL    HW1 5213   2.666   0.177   1.982
 1438SOL    HW2 5214   2.646   0.080   1.851
 1439SOL     OW 5215   0.217   4.959   0.136
 1439SOL    HW1 5216   0.313   4.971   0.110
 1439SOL    HW2 5217   0.159   5.019   0.080
 1440SOL     OW 5218   2.903   3.318   3.873
 1440SOL    HW1 5219   2.892   3.382   3.797
 1440SOL    HW2 5220   2.914   3.368   3.958
 1441SOL     OW 5221   6.413   3.000   3.755
 1441SOL    HW1 5222   6.392   3.013   3.658
 1441SOL    HW2 5223   6.398   3.086   3.804
 1442SOL     OW 5224   4.899   4.525   0.714
 1442SOL    HW1 5225   4.917   4.583   0.794
 1442SOL    HW2 5226   4.973   4.458   0.704
 1443SOL     OW 5227   0.636   2.458   3.044
 1443SOL    HW1 5228   0.711   2.504   2.996
 1443SOL    HW2 5229   0.625   2.499   3.135
 1444SOL     OW 5230   4.422   0.926   3.744
 1444SOL    HW1 5231   4.335   0.975   3.750
 1444SOL    HW2 5232   4.483   0.957   3.817
 1445SOL     OW 5233   6.554   2.595   1.619
 1445SOL    HW1 5234   6.493   2.566   1.693
 1445SOL    HW2 5235   6.516   2.565   1.532
 1446SOL     OW 5236   3.870   0.575   1.477
 1446SOL    HW1 5237   3.885   0.484   1.439
 1446SOL    HW2 5238   3.851   0.568   1.575
 1447SOL     OW 5239   6.301   0.577   4.675
 1447SOL    HW1 5240   6.277   0.496   4.729
 1447SOL    HW2 5241   6.266   0.567   4.582
 1448SOL     OW 5242   5.425   0.901   6.767
 1448SOL    HW1 5243   5.367   0.979   6.791
 1448SOL    HW2 5244   5.369   0.819   6.757
 1449SOL     OW 5245   5.231   5.989   1.030
 1449SOL    HW1 5246   5.207   5.892   1.023
 1449SOL    HW2 5247   5.158   6.038   1.078
 1450SOL     OW 5248   5.840   2.951   3.185
 1450SOL    HW1 5249   5.773   2.880   3.208
 1450SOL    HW2 5250   5.926   2.932   3.233
 1451SOL     OW 5251   1.403   6.369   3.009
 1451SOL    HW1 5252   1.449   6.453   3.040
 1451SOL    HW2 5253   1.309   6.391   2.981
 1452SOL     OW 5254   4.559   1.196   5.645
 1452SOL    HW1 5255   4.641   1.205   5.700
 1452SOL    HW2 5256   4.577   1.229   5.552
 1453SOL     OW 5257   5.293   4.703   5.126
 1453SOL    HW1 5258   5.256   4.616   5.158
 1453SOL    HW2 5259   5.321   4.694   5.031
 1454SOL     OW 5260   4.445   3.698   1.325
 1454SOL    HW1 5261   4.379   3.768   1.355
 1454SOL    HW2 5262   4.537   3.736   1.327
 1455SOL     OW 5263   1.835   1.877   1.882
 1455SOL    HW1 5264   1.867   1.802   1.826
 1455SOL    HW2 5265   1.735   1.885   1.874
 1456SOL     OW 5266   5.941   6.437   3.984
 1456SOL    HW1 5267   6.038   6.457   3.977
 1456SOL    HW2 5268   5.891   6.520   4.009
 1457SOL     OW 5269   1.697   0.589   2.979
 1457SOL    HW1 5270   1.661   0.599   3.072
 1457SOL    HW2 5271   1.621   0.586   2.914
 1458SOL     OW 5272   5.641   5.757   6.701
 1458SOL    HW1 5273   5.734   5.775   6.734
 1458SOL    HW2 5274   5.582   5.739   6.780
 1459SOL     OW 5275   2.228   6.487   6.504
 1459SOL    HW1 5276   2.148   6.431   6.523
 1459SOL    HW2 5277   2.224   6.571   6.557
 1460SOL     OW 5278   1.605   6.962   6.952
 1460SOL    HW1 5279   1.510   6.978   6.924
 1460SOL    HW2 5280   1.632   0.001   7.020
 1461SOL     OW 5281   5.380   4.886   1.845
 1461SOL    HW1 5282   5.400   4.802   1.895
 1461SOL    HW2 5283   5.325   4.946   1.903
 1462SOL     OW 5284   5.728   1.078   0.113
 1462SOL    HW1 5285   5.740   1.110   0.207
 1462SOL    HW2 5286   5.678   0.991   0.114
 1463SOL     OW 5287   0.908   1.102   4.942
 1463SOL    HW1 5288   0.841   1.056   5.001
 1463SOL    HW2 5289   0.962   1.165   4.998
 1464SOL     OW 5290   0.282   6.467   0.862
 1464SOL    HW1 5291   0.274   6.506   0.771
 1464SOL    HW2 5292   0.352   6.517   0.913
 1465SOL     OW 5293   0.032   6.876   4.701
 1465SOL    HW1 5294   6.962   6.873   4.703
 1465SOL    HW2 5295   0.062   6.927   4.620
 1466SOL     OW 5296   5.603   4.917   3.409
 1466SOL    HW1 5297   5.692   4.906   3.454
 1466SOL    HW2 5298   5.533   4.869   3.463
 1467SOL     OW 5299   1.026   1.973   3.028
 1467SOL    HW1 5300   0.960   1.979   3.103
 1467SOL    HW2 5301   0.978   1.986   2.941
 1468SOL     OW 5302   5.598   5.963   3.339
 1468SOL    HW1 5303   5.509   5.972   3.295
 1468SOL    HW2 5304   5.616   5.867   3.360
 1469SOL     OW 5305   1.141   1.336   2.654
 1469SOL    HW1 5306   1.103   1.379   2.572
 1469SOL    HW2 5307   1.071   1.277   2.695
 1470SOL     OW 5308   0.788   1.164   3.030
 1470SOL    HW1 5309   0.754   1.134   2.941
 1470SOL    HW2 5310   0.866   1.225   3.017
 1471SOL     OW 5311   0.689   0.017   0.144
 1471SOL    HW1 5312   0.775   0.043   0.099
 1471SOL    HW2 5313   0.710   7.006   0.233
 1472SOL     OW 5314   4.399   0.627   6.124
 1472SOL    HW1 5315   4.356   0.678   6.198
 1472SOL    HW2 5316   4.329   0.591   6.063
 1473SOL     OW 5317   6.351   3.867   3.376
 1473SOL    HW1 5318   6.298   3.836   3.297
 1473SOL    HW2 5319   6.421   3.932   3.346
 1474SOL     OW 5320   4.437   5.479   4.119
 1474SOL    HW1 5321   4.337   5.470   4.109
 1474SOL    HW2 5322   4.466   5.565   4.078
 1475SOL     OW 5323   0.254   1.528   2.701
 1475SOL    HW1 5324   0.189   1.574   2.762
 1475SOL    HW2 5325   0.272   1.436   2.735
 1476SOL     OW 5326   6.874   1.737   1.767
 1476SOL    HW1 5327   6.813   1.812   1.795
 1476SOL    HW2 5328   6.887   1.740   1.668
 1477SOL     OW 5329   3.116   5.874   4.557
 1477SOL    HW1 5330   3.210   5.909   4.555
 1477SOL    HW2 5331   3.117   5.776   4.535
 1478SOL     OW 5332   6.327   4.292   0.265
 1478SOL    HW1 5333   6.411   4.322   0.220
 1478SOL    HW2 5334   6.326   4.324   0.359
 1479SOL     OW 5335   1.499   5.287   0.267
 1479SOL    HW1 5336   1.594   5.267   0.292
 1479SOL    HW2 5337   1.493   5.306   0.169
 1480SOL     OW 5338   2.724   0.755   0.304
 1480SOL    HW1 5339   2.634   0.798   0.296
 1480SOL    HW2 5340   2.790   0.820   0.340
 1481SOL     OW 5341   5.591   2.382   6.237
 1481SOL    HW1 5342   5.614   2.362   6.332
 1481SOL    HW2 5343   5.672   2.367   6.180
 1482SOL     OW 5344   6.596   0.563   6.651
 1482SOL    HW1 5345   6.595   0.468   6.682
 1482SOL    HW2 5346   6.689   0.598   6.652
 1483SOL     OW 5347   6.183   1.868   0.585
 1483SOL    HW1 5348   6.197   1.780   0.540
 1483SOL    HW2 5349   6.086   1.895   0.577
 1484SOL     OW 5350   6.218   5.289   2.635
 1484SOL    HW1 5351   6.258   5.215   2.581
 1484SOL    HW2 5352   6.164   5.349   2.576
 1485SOL     OW 5353   5.223   2.527   3.857
 1485SOL    HW1 5354   5.284   2.459   3.818
 1485SOL    HW2 5355   5.136   2.527   3.808
 1486SOL     OW 5356   4.904   1.991   2.270
 1486SOL    HW1 5357   4.892   2.077   2.221
 1486SOL    HW2 5358   4.823   1.973   2.326
 1487SOL     OW 5359   6.312   1.323   5.440
 1487SOL    HW1 5360   6.309   1.423   5.446
 1487SOL    HW2 5361   6.236   1.291   5.383
 1488SOL     OW 5362   4.777   1.751   3.087
 1488SOL    HW1 5363   4.698   1.812   3.079
 1488SOL    HW2 5364   4.860   1.805   3.099
 1489SOL     OW 5365   3.980   5.539   5.009
 1489SOL    HW1 5366   3.934   5.457   5.043
 1489SOL    HW2 5367   4.079   5.528   5.019
 1490SOL     OW 5368   1.919   2.687   0.055
 1490SOL    HW1 5369   1.958   2.722   7.000
 1490SOL    HW2 5370   1.821   2.669   0.042
 1491SOL     OW 5371   6.767   3.134   3.943
 1491SOL    HW1 5372   6.842   3.151   4.008
 1491SOL    HW2 5373   6.790   3.055   3.887
 1492SOL     OW 5374   5.088   2.107   1.224
 1492SOL    HW1 5375   5.079   2.010   1.248
 1492SOL    HW2 5376   5.021   2.160   1.276
 1493SOL     OW 5377   5.037   0.403   5.274
 1493SOL    HW1 5378   5.069   0.409   5.179
 1493SOL    HW2 5379   4.950   0.451   5.284
 1494SOL     OW 5380   4.199   2.491   6.109
 1494SOL    HW1 5381   4.168   2.578   6.147
 1494SOL    HW2 5382   4.253   2.507   6.027
 1495SOL     OW 5383   1.748   3.010   2.507
 1495SOL    HW1 5384   1.722   2.965   2.422
 1495SOL    HW2 5385   1.753   3.109   2.492
 1496SOL     OW 5386   0.320   0.005   2.421
 1496SOL    HW1 5387   0.295   7.030   2.518
 1496SOL    HW2 5388   0.360   6.948   2.392
 1497SOL     OW 5389   5.909   5.238   4.657
 1497SOL    HW1 5390   5.827   5.190   4.626
 1497SOL    HW2 5391   5.975   5.173   4.693
 1498SOL     OW 5392   2.060   5.782   0.023
 1498SOL    HW1 5393   2.040   5.838   0.103
 1498SOL    HW2 5394   2.103   5.839   6.982
 1499SOL     OW 5395   1.332   3.758   5.382
 1499SOL    HW1 5396   1.428   3.729   5.379
 1499SOL    HW2 5397   1.296   3.744   5.474
 1500SOL     OW 5398   4.942   6.800   6.683
 1500SOL    HW1 5399   4.915   6.823   6.590
 1500SOL    HW2 5400   4.865   6.758   6.731
 1501SOL     OW 5401   4.025   6.324   6.322
 1501SOL    HW1 5402   3.933   6.290   6.342
 1501SOL    HW2 5403   4.024   6.424   6.321
 1502SOL     OW 5404   6.241   6.698   0.587
 1502SOL    HW1 5405   6.249   6.789   0.546
 1502SOL    HW2 5406   6.322   6.644   0.565
 1503SOL     OW 5407   3.574   2.936   6.248
 1503SOL    HW1 5408   3.664   2.976   6.231
 1503SOL    HW2 5409   3.503   3.000   6.219
 1504SOL     OW 5410   3.141   6.581   4.823
 1504SOL    HW1 5411   3.121   6.494   4.870
 1504SOL    HW2 5412   3.162   6.651   4.891
 1505SOL     OW 5413   5.756   5.515   0.131
 1505SOL    HW1 5414   5.742   5.582   0.058
 1505SOL    HW2 5415   5.792   5.430   0.091
 1506SOL     OW 5416   0.755   6.509   4.350
 1506SOL    HW1 5417   0.743   6.525   4.448
 1506SOL    HW2 5418   0.849   6.478   4.333
 1507SOL     OW 5419   1.512   1.571   5.466
 1507SOL    HW1 5420   1.425   1.575   5.419
 1507SOL    HW2 5421   1.538   1.663   5.498
 1508SOL     OW 5422   4.818   6.855   0.482
 1508SOL    HW1 5423   4.746   6.806   0.432
 1508SOL    HW2 5424   4.827   6.947   0.445
 1509SOL     OW 5425   4.593   2.836   0.585
 1509SOL    HW1 5426   4.580   2.769   0.511
 1509SOL    HW2 5427   4.677   2.815   0.634
 1510SOL     OW 5428   6.789   1.703   3.967
 1510SOL    HW1 5429   6.696   1.737   3.961
 1510SOL    HW2 5430   6.847   1.752   3.903
 1511SOL     OW 5431   2.335   3.374   0.883
 1511SOL    HW1 5432   2.252   3.404   0.931
 1511SOL    HW2 5433   2.414   3.422   0.920
 1512SOL     OW 5434   0.251   1.272   2.059
 1512SOL    HW1 5435   0.285   1.262   1.966
 1512SOL    HW2 5436   0.157   1.307   2.057
 1513SOL     OW 5437   3.619   1.224   3.407
 1513SOL    HW1 5438   3.605   1.132   3.446
 1513SOL    HW2 5439   3.564   1.290   3.458
 1514SOL     OW 5440   5.493   1.331   5.182
 1514SOL    HW1 5441   5.496   1.315   5.083
 1514SOL    HW2 5442   5.577   1.298   5.224
 1515SOL     OW 5443   0.426   4.580   4.453
 1515SOL    HW1 5444   0.372   4.516   4.398
 1515SOL    HW2 5445   0.436   4.666   4.403
 1516SOL     OW 5446   0.851   1.299   0.679
 1516SOL    HW1 5447   0.950   1.302   0.665
 1516SOL    HW2 5448   0.807   1.256   0.600
 1517SOL     OW 5449   4.628   5.589   3.393
 1517SOL    HW1 5450   4.654   5.497   3.423
 1517SOL    HW2 5451   4.603   5.587   3.297
 1518SOL     OW 5452   0.375   3.976   1.143
 1518SOL    HW1 5453   0.383   3.966   1.043
 1518SOL    HW2 5454   0.393   4.072   1.167
 1519SOL     OW 5455   6.339   4.532   7.027
 1519SOL    HW1 5456   6.304   4.578   0.079
 1519SOL    HW2 5457   6.265   4.481   6.983
 1520SOL     OW 5458   1.516   3.656   3.129
 1520SOL    HW1 5459   1.603   3.637   3.174
 1520SOL    HW2 5460   1.500   3.589   3.057
 1521SOL     OW 5461   2.719   3.590   6.842
 1521SOL    HW1 5462   2.795   3.650   6.867
 1521SOL    HW2 5463   2.736   3.550   6.752
 1522SOL     OW 5464   6.050   1.828   0.010
 1522SOL    HW1 5465   5.956   1.832   0.043
 1522SOL    HW2 5466   6.053   1.785   6.949
 1523SOL     OW 5467   0.126   2.143   1.004
 1523SOL    HW1 5468   0.069   2.135   0.921
 1523SOL    HW2 5469   0.111   2.234   1.044
 1524SOL     OW 5470   0.041   1.145   2.259
 1524SOL    HW1 5471   0.053   1.100   2.171
 1524SOL    HW2 5472   0.024   1.076   2.330
 1525SOL     OW 5473   4.434   1.880   6.297
 1525SOL    HW1 5474   4.465   1.923   6.212
 1525SOL    HW2 5475   4.510   1.828   6.337
 1526SOL     OW 5476   6.832   2.517   1.605
 1526SOL    HW1 5477   6.883   2.552   1.526
 1526SOL    HW2 5478   6.734   2.530   1.592
 1527SOL     OW 5479   3.465   2.106   5.663
 1527SOL    HW1 5480   3.530   2.182   5.670
 1527SOL    HW2 5481   3.440   2.075   5.755
 1528SOL     OW 5482   5.018   6.067   3.584
 1528SOL    HW1 5483   4.953   6.106   3.649
 1528SOL    HW2 5484   5.029   6.129   3.506
 1529SOL     OW 5485   3.525   0.047   5.804
 1529SOL    HW1 5486   3.438   0.047   5.755
 1529SOL    HW2 5487   3.538   0.136   5.848
 1530SOL     OW 5488   3.698   6.695   2.337
 1530SOL    HW1 5489   3.791   6.709   2.304
 1530SOL    HW2 5490   3.659   6.614   2.294
 1531SOL     OW 5491   6.294   0.089   4.717
 1531SOL    HW1 5492   6.267   0.020   4.784
 1531SOL    HW2 5493   6.393   0.103   4.720
 1532SOL     OW 5494   3.154   2.030   4.998
 1532SOL    HW1 5495   3.099   1.985   5.068
 1532SOL    HW2 5496   3.153   2.129   5.014
 1533SOL     OW 5497   6.235   3.062   6.671
 1533SOL    HW1 5498   6.149   3.016   6.693
 1533SOL    HW2 5499   6.242   3.073   6.572
 1534SOL     OW 5500   6.737   5.944   1.298
 1534SOL    HW1 5501   6.827   5.907   1.321
 1534SOL    HW2 5502   6.704   6.001   1.374
 1535SOL     OW 5503   4.433   4.938   3.820
 1535SOL    HW1 5504   4.531   4.922   3.808
 1535SOL    HW2 5505   4.398   4.876   3.890
 1536SOL     OW 5506   3.000   5.932   5.314
 1536SOL    HW1 5507   3.091   5.906   5.282
 1536SOL    HW2 5508   2.951   5.979   5.241
 1537SOL     OW 5509   1.723   5.677   4.378
 1537SOL    HW1 5510   1.713   5.628   4.464
 1537SOL    HW2 5511   1.651   5.649   4.315
 1538SOL     OW 5512   2.427   5.526   6.618
 1538SOL    HW1 5513   2.482   5.443   6.615
 1538SOL    HW2 5514   2.334   5.504   6.646
 1539SOL     OW 5515   3.573   4.455   1.645
 1539SOL    HW1 5516   3.659   4.416   1.680
 1539SOL    HW2 5517   3.536   4.519   1.713
 1540SOL     OW 5518   0.787   0.123   4.977
 1540SOL    HW1 5519   0.748   0.031   4.977
 1540SOL    HW2 5520   0.875   0.122   4.931
 1541SOL     OW 5521   5.035   2.361   0.980
 1541SOL    HW1 5522   5.128   2.363   1.016
 1541SOL    HW2 5523   4.993   2.273   1.004
 1542SOL     OW 5524   0.815   6.839   1.550
 1542SOL    HW1 5525   0.725   6.855   1.509
 1542SOL    HW2 5526   0.832   6.908   1.620
 1543SOL     OW 5527   3.613   4.036   4.099
 1543SOL    HW1 5528   3.518   4.064   4.087
 1543SOL    HW2 5529   3.635   4.030   4.196
 1544SOL     OW 5530   3.248   4.120   2.821
 1544SOL    HW1 5531   3.252   4.136   2.723
 1544SOL    HW2 5532   3.332   4.153   2.865
 1545SOL     OW 5533   5.688   7.012   5.155
 1545SOL    HW1 5534   5.627   0.010   5.080
 1545SOL    HW2 5535   5.762   0.049   5.163
 1546SOL     OW 5536   6.981   6.855   6.232
 1546SOL    HW1 5537   0.033   6.800   6.219
 1546SOL    HW2 5538   6.955   6.898   6.146
 1547SOL     OW 5539   3.151   5.945   1.351
 1547SOL    HW1 5540   3.123   5.972   1.443
 1547SOL    HW2 5541   3.181   6.025   1.300
 1548SOL     OW 5542   4.903   4.032   4.743
 1548SOL    HW1 5543   4.912   3.951   4.800
 1548SOL    HW2 5544   4.988   4.085   4.745
 1549SOL     OW 5545   6.629   1.925   1.109
 1549SOL    HW1 5546   6.597   1.935   1.014
 1549SOL    HW2 5547   6.565   1.867   1.159
 1550SOL     OW 5548   2.176   5.748   4.103
 1550SOL    HW1 5549   2.234   5.796   4.169
 1550SOL    HW2 5550   2.115   5.685   4.151
 1551SOL     OW 5551   1.952   2.335   0.664
 1551SOL    HW1 5552   1.972   2.262   0.599
 1551SOL    HW2 5553   2.028   2.400   0.666
 1552SOL     OW 5554   0.710   0.638   0.997
 1552SOL    HW1 5555   0.771   0.666   0.923
 1552SOL    HW2 5556   0.689   0.717   1.054
 1553SOL     OW 5557   6.129   1.765   5.943
 1553SOL    HW1 5558   6.094   1.855   5.969
 1553SOL    HW2 5559   6.213   1.775   5.890
 1554SOL     OW 5560   3.971   1.973   1.836
 1554SOL    HW1 5561   3.910   1.933   1.767
 1554SOL    HW2 5562   3.944   2.068   1.852
 1555SOL     OW 5563   3.442   1.658   5.594
 1555SOL    HW1 5564   3.443   1.572   5.644
 1555SOL    HW2 5565   3.517   1.660   5.528
 1556SOL     OW 5566   3.814   1.150   1.032
 1556SOL    HW1 5567   3.794   1.161   0.935
 1556SOL    HW2 5568   3.893   1.206   1.056
 1557SOL     OW 5569   1.953   1.828   1.081
 1557SOL    HW1 5570   1.918   1.750   1.133
 1557SOL    HW2 5571   1.944   1.911   1.137
 1558SOL     OW 5572   6.384   3.398   6.065
 1558SOL    HW1 5573   6.286   3.408   6.079
 1558SOL    HW2 5574   6.422   3.484   6.032
 1559SOL     OW 5575   1.484   4.710   2.989
 1559SOL    HW1 5576   1.402   4.655   3.007
 1559SOL    HW2 5577   1.533   4.672   2.911
 1560SOL     OW 5578   4.015   1.530   1.647
 1560SOL    HW1 5579   3.972   1.517   1.737
 1560SOL    HW2 5580   4.080   1.606   1.653
 1561SOL     OW 5581   6.192   6.002   1.477
 1561SOL    HW1 5582   6.093   5.989   1.466
 1561SOL    HW2 5583   6.239   5.973   1.393
 1562SOL     OW 5584   3.557   6.463   2.241
 1562SOL    HW1 5585   3.585   6.392   2.306
 1562SOL    HW2 5586   3.457   6.474   2.245
 1563SOL     OW 5587   3.959   2.170   4.387
 1563SOL    HW1 5588   3.886   2.235   4.406
 1563SOL    HW2 5589   4.048   2.216   4.395
 1564SOL     OW 5590   1.603   2.090   2.443
 1564SOL    HW1 5591   1.624   2.187   2.429
 1564SOL    HW2 5592   1.648   2.058   2.527
 1565SOL     OW 5593   3.968   0.598   3.987
 1565SOL    HW1 5594   3.999   0.642   3.903
 1565SOL    HW2 5595   4.032   0.527   4.015
 1566SOL     OW 5596   4.725   4.549   2.987
 1566SOL    HW1 5597   4.808   4.596   2.958
 1566SOL    HW2 5598   4.696   4.486   2.915
 1567SOL     OW 5599   4.741   6.474   4.907
 1567SOL    HW1 5600   4.817   6.443   4.850
 1567SOL    HW2 5601   4.654   6.450   4.863
 1568SOL     OW 5602   2.467   6.100   2.869
 1568SOL    HW1 5603   2.515   6.084   2.955
 1568SOL    HW2 5604   2.417   6.018   2.842
 1569SOL     OW 5605   2.826   6.990   3.389
 1569SOL    HW1 5606   2.891   6.929   3.344
 1569SOL    HW2 5607   2.852   7.001   3.485
 1570SOL     OW 5608   3.408   6.957   7.008
 1570SOL    HW1 5609   3.362   6.905   0.050
 1570SOL    HW2 5610   3.498   6.917   6.991
 1571SOL     OW 5611   1.167   2.712   3.935
 1571SOL    HW1 5612   1.216   2.652   3.872
 1571SOL    HW2 5613   1.162   2.669   4.026
 1572SOL     OW 5614   1.954   4.491   1.914
 1572SOL    HW1 5615   1.866   4.496   1.960
 1572SOL    HW2 5616   2.005   4.575   1.929
 1573SOL     OW 5617   5.231   5.146   0.601
 1573SOL    HW1 5618   5.280   5.093   0.670
 1573SOL    HW2 5619   5.221   5.241   0.632
 1574SOL     OW 5620   7.013   3.620   2.869
 1574SOL    HW1 5621   6.945   3.551   2.845
 1574SOL    HW2 5622   7.020   3.687   2.795
 1575SOL     OW 5623   0.299   1.171   0.329
 1575SOL    HW1 5624   0.223   1.162   0.265
 1575SOL    HW2 5625   0.365   1.097   0.314
 1576SOL     OW 5626   0.373   6.751   2.598
 1576SOL    HW1 5627   0.404   6.812   2.671
 1576SOL    HW2 5628   0.273   6.755   2.591
 1577SOL     OW 5629   4.671   0.383   5.882
 1577SOL    HW1 5630   4.763   0.344   5.892
 1577SOL    HW2 5631   4.658   0.414   5.788
 1578SOL     OW 5632   5.409   0.904   0.164
 1578SOL    HW1 5633   5.464   0.859   0.094
 1578SOL    HW2 5634   5.333   0.845   0.190
 1579SOL     OW 5635   1.423   2.569   1.269
 1579SOL    HW1 5636   1.339   2.614   1.300
 1579SOL    HW2 5637   1.456   2.612   1.186
 1580SOL     OW 5638   3.469   3.625   3.122
 1580SOL    HW1 5639   3.561   3.636   3.085
 1580SOL    HW2 5640   3.420   3.556   3.069
 1581SOL     OW 5641   6.685   4.229   5.626
 1581SOL    HW1 5642   6.693   4.316   5.578
 1581SOL    HW2 5643   6.595   4.223   5.670
 1582SOL     OW 5644   4.819   6.533   5.546
 1582SOL    HW1 5645   4.798   6.436   5.534
 1582SOL    HW2 5646   4.764   6.587   5.482
 1583SOL     OW 5647   1.335   5.718   5.169
 1583SOL    HW1 5648   1.385   5.757   5.092
 1583SOL    HW2 5649   1.391   5.724   5.252
 1584SOL     OW 5650   0.532   5.104   6.696
 1584SOL    HW1 5651   0.434   5.116   6.712
 1584SOL    HW2 5652   0.550   5.011   6.664
 1585SOL     OW 5653   4.066   0.267   3.066
 1585SOL    HW1 5654   4.129   0.206   3.113
 1585SOL    HW2 5655   4.068   0.249   2.968
 1586SOL     OW 5656   2.738   5.350   3.855
 1586SOL    HW1 5657   2.740   5.250   3.844
 1586SOL    HW2 5658   2.794   5.392   3.784
 1587SOL     OW 5659   2.434   6.155   5.870
 1587SOL    HW1 5660   2.427   6.229   5.937
 1587SOL    HW2 5661   2.360   6.089   5.885
 1588SOL     OW 5662   6.142   0.019   2.510
 1588SOL    HW1 5663   6.050   0.030   2.547
 1588SOL    HW2 5664   6.148   0.064   2.421
 1589SOL     OW 5665   6.757   4.635   3.252
 1589SOL    HW1 5666   6.692   4.584   3.308
 1589SOL    HW2 5667   6.831   4.574   3.223
 1590SOL     OW 5668   0.163   1.588   3.619
 1590SOL    HW1 5669   0.068   1.564   3.599
 1590SOL    HW2 5670   0.209   1.618   3.536
 1591SOL     OW 5671   0.760   6.012   1.771
 1591SOL    HW1 5672   0.737   5.925   1.814
 1591SOL    HW2 5673   0.685   6.039   1.710
 1592SOL     OW 5674   0.733   3.914   6.942
 1592SOL    HW1 5675   0.702   3.909   6.847
 1592SOL    HW2 5676   0.677   3.853   6.998
 1593SOL     OW 5677   1.637   0.651   6.814
 1593SOL    HW1 5678   1.572   0.699   6.874
 1593SOL    HW2 5679   1.647   0.557   6.846
 1594SOL     OW 5680   6.872   0.657   1.868
 1594SOL    HW1 5681   6.834   0.702   1.788
 1594SOL    HW2 5682   6.811   0.584   1.898
 1595SOL     OW 5683   0.983   4.558   6.875
 1595SOL    HW1 5684   0.990   4.541   6.777
 1595SOL    HW2 5685   1.050   4.501   6.923
 1596SOL     OW 5686   5.670   4.636   2.425
 1596SOL    HW1 5687   5.623   4.684   2.500
 1596SOL    HW2 5688   5.643   4.540   2.426
 1597SOL     OW 5689   3.438   6.516   7.026
 1597SOL    HW1 5690   3.527   6.486   0.030
 1597SOL    HW2 5691   3.450   6.564   6.939
 1598SOL     OW 5692   1.347   5.708   6.597
 1598SOL    HW1 5693   1.419   5.775   6.579
 1598SOL    HW2 5694   1.321   5.712   6.694
 1599SOL     OW 5695   4.401   4.865   3.529
 1599SOL    HW1 5696   4.322   4.916   3.563
 1599SOL    HW2 5697   4.482   4.890   3.583
 1600SOL     OW 5698   3.566   0.133   2.916
 1600SOL    HW1 5699   3.574   0.228   2.886
 1600SOL    HW2 5700   3.563   0.073   2.836
 1601SOL     OW 5701   5.531   6.310   3.799
 1601SOL    HW1 5702   5.551   6.232   3.857
 1601SOL    HW2 5703   5.595   6.312   3.722
 1602SOL     OW 5704   4.626   5.325   3.516
 1602SOL    HW1 5705   4.636   5.254   3.446
 1602SOL    HW2 5706   4.566   5.291   3.589
 1603SOL     OW 5707   3.046   5.500   3.718
 1603SOL    HW1 5708   3.059   5.472   3.813
 1603SOL    HW2 5709   2.952   5.530   3.705
 1604SOL     OW 5710   3.851   4.860   2.237
 1604SOL    HW1 5711   3.806   4.785   2.188
 1604SOL    HW2 5712   3.803   4.876   2.324
 1605SOL     OW 5713   4.738   5.228   1.336
 1605SOL    HW1 5714   4.806   5.155   1.336
 1605SOL    HW2 5715   4.701   5.239   1.428
 1606SOL     OW 5716   4.121   6.322   4.762
 1606SOL    HW1 5717   4.045   6.382   4.736
 1606SOL    HW2 5718   4.114   6.300   4.859
 1607SOL     OW 5719   4.908   5.912   3.050
 1607SOL    HW1 5720   4.893   5.885   3.145
 1607SOL    HW2 5721   5.000   5.951   3.040
 1608SOL     OW 5722   6.312   0.681   2.554
 1608SOL    HW1 5723   6.283   0.774   2.578
 1608SOL    HW2 5724   6.232   0.626   2.530
 1609SOL     OW 5725   3.230   6.016   0.975
 1609SOL    HW1 5726   3.323   6.053   0.979
 1609SOL    HW2 5727   3.164   6.092   0.980
 1610SOL     OW 5728   4.781   0.407   0.276
 1610SOL    HW1 5729   4.858   0.394   0.339
 1610SOL    HW2 5730   4.706   0.451   0.324
 1611SOL     OW 5731   1.211   3.673   0.957
 1611SOL    HW1 5732   1.164   3.601   1.008
 1611SOL    HW2 5733   1.298   3.638   0.922
 1612SOL     OW 5734   3.370   6.759   1.922
 1612SOL    HW1 5735   3.422   6.724   1.844
 1612SOL    HW2 5736   3.272   6.759   1.900
 1613SOL     OW 5737   6.831   5.827   2.509
 1613SOL    HW1 5738   6.901   5.802   2.576
 1613SOL    HW2 5739   6.802   5.921   2.525
 1614SOL     OW 5740   5.888   2.673   6.323
 1614SOL    HW1 5741   5.812   2.630   6.372
 1614SOL    HW2 5742   5.921   2.752   6.374
 1615SOL     OW 5743   0.667   5.057   5.972
 1615SOL    HW1 5744   0.706   5.123   5.908
 1615SOL    HW2 5745   0.706   5.072   6.063
 1616SOL     OW 5746   2.417   1.456   4.952
 1616SOL    HW1 5747   2.375   1.546   4.944
 1616SOL    HW2 5748   2.349   1.390   4.986
 1617SOL     OW 5749   5.293   6.137   3.335
 1617SOL    HW1 5750   5.235   6.057   3.339
 1617SOL    HW2 5751   5.313   6.170   3.427
 1618SOL     OW 5752   2.667   5.726   3.105
 1618SOL    HW1 5753   2.615   5.641   3.118
 1618SOL    HW2 5754   2.739   5.731   3.174
 1619SOL     OW 5755   1.083   5.195   0.127
 1619SOL    HW1 5756   1.125   5.184   0.218
 1619SOL    HW2 5757   0.992   5.235   0.137
 1620SOL     OW 5758   3.416   5.366   0.081
 1620SOL    HW1 5759   3.477   5.348   0.004
 1620SOL    HW2 5760   3.467   5.353   0.167
 1621SOL     OW 5761   5.820   6.573   0.799
 1621SOL    HW1 5762   5.809   6.475   0.816
 1621SOL    HW2 5763   5.734   6.610   0.762
 1622SOL     OW 5764   0.375   4.169   4.934
 1622SOL    HW1 5765   0.400   4.222   4.853
 1622SOL    HW2 5766   0.372   4.229   5.014
 1623SOL     OW 5767   0.578   2.256   4.781
 1623SOL    HW1 5768   0.489   2.217   4.805
 1623SOL    HW2 5769   0.605   2.226   4.690
 1624SOL     OW 5770   4.220   1.056   1.033
 1624SOL    HW1 5771   4.221   1.128   0.963
 1624SOL    HW2 5772   4.138   0.999   1.021
 1625SOL     OW 5773   1.748   5.176   0.834
 1625SOL    HW1 5774   1.806   5.257   0.844
 1625SOL    HW2 5775   1.652   5.203   0.838
 1626SOL     OW 5776   3.072   1.717   1.270
 1626SOL    HW1 5777   3.146   1.651   1.279
 1626SOL    HW2 5778   3.001   1.680   1.211
 1627SOL     OW 5779   4.254   1.836   3.803
 1627SOL    HW1 5780   4.182   1.800   3.862
 1627SOL    HW2 5781   4.323   1.766   3.787
 1628SOL     OW 5782   5.531   6.335   6.219
 1628SOL    HW1 5783   5.475   6.256   6.244
 1628SOL    HW2 5784   5.618   6.331   6.269
 1629SOL     OW 5785   2.163   1.375   2.956
 1629SOL    HW1 5786   2.097   1.403   2.886
 1629SOL    HW2 5787   2.217   1.455   2.984
 1630SOL     OW 5788   0.868   4.098   0.085
 1630SOL    HW1 5789   0.806   4.047   0.026
 1630SOL    HW2 5790   0.820   4.177   0.123
 1631SOL     OW 5791   0.438   3.327   0.480
 1631SOL    HW1 5792   0.450   3.251   0.542
 1631SOL    HW2 5793   0.448   3.413   0.530
 1632SOL     OW 5794   6.488   4.695   2.603
 1632SOL    HW1 5795   6.558   4.743   2.655
 1632SOL    HW2 5796   6.526   4.611   2.565
 1633SOL     OW 5797   4.981   3.320   3.814
 1633SOL    HW1 5798   5.023   3.259   3.880
 1633SOL    HW2 5799   4.962   3.409   3.857
 1634SOL     OW 5800   5.343   0.231   4.689
 1634SOL    HW1 5801   5.402   0.272   4.759
 1634SOL    HW2 5802   5.399   0.183   4.622
 1635SOL     OW 5803   3.450   5.176   4.705
 1635SOL    HW1 5804   3.372   5.212   4.757
 1635SOL    HW2 5805   3.487   5.096   4.752
 1636SOL     OW 5806   5.581   5.896   1.296
 1636SOL    HW1 5807   5.561   5.990   1.270
 1636SOL    HW2 5808   5.572   5.886   1.395
 1637SOL     OW 5809   0.076   7.005   2.263
 1637SOL    HW1 5810   0.159   6.951   2.282
 1637SOL    HW2 5811   0.061   0.041   2.337
 1638SOL     OW 5812   0.084   3.144   1.709
 1638SOL    HW1 5813   0.141   3.170   1.631
 1638SOL    HW2 5814   0.004   3.203   1.713
 1639SOL     OW 5815   5.298   3.249   2.352
 1639SOL    HW1 5816   5.239   3.327   2.329
 1639SOL    HW2 5817   5.256   3.198   2.428
 1640SOL     OW 5818   6.357   0.417   0.556
 1640SOL    HW1 5819   6.311   0.473   0.625
 1640SOL    HW2 5820   6.290   0.389   0.487
 1641SOL     OW 5821   6.667   2.397   2.883
 1641SOL    HW1 5822   6.665   2.369   2.979
 1641SOL    HW2 5823   6.604   2.339   2.830
 1642SOL     OW 5824   5.475   2.382   5.486
 1642SOL    HW1 5825   5.482   2.289   5.451
 1642SOL    HW2 5826   5.402   2.430   5.438
 1643SOL     OW 5827   3.283   5.323   4.510
 1643SOL    HW1 5828   3.364   5.287   4.556
 1643SOL    HW2 5829   3.210   5.255   4.511
 1644SOL     OW 5830   5.907   2.886   0.916
 1644SOL    HW1 5831   5.835   2.832   0.872
 1644SOL    HW2 5832   5.939   2.839   0.998
 1645SOL     OW 5833   2.416   0.706   5.321
 1645SOL    HW1 5834   2.389   0.670   5.232
 1645SOL    HW2 5835   2.367   0.657   5.393
 1646SOL     OW 5836   0.893   5.706   0.764
 1646SOL    HW1 5837   0.909   5.792   0.811
 1646SOL    HW2 5838   0.971   5.685   0.704
 1647SOL     OW 5839   6.205   2.693   4.576
 1647SOL    HW1 5840   6.190   2.737   4.664
 1647SOL    HW2 5841   6.156   2.606   4.573
 1648SOL     OW 5842   5.750   6.310   0.863
 1648SOL    HW1 5843   5.685   6.346   0.930
 1648SOL    HW2 5844   5.705   6.238   0.810
 1649SOL     OW 5845   3.223   0.366   3.185
 1649SOL    HW1 5846   3.230   0.464   3.167
 1649SOL    HW2 5847   3.313   0.330   3.210
 1650SOL     OW 5848   2.856   5.422   6.869
 1650SOL    HW1 5849   2.852   5.332   6.826
 1650SOL    HW2 5850   2.951   5.453   6.872
 1651SOL     OW 5851   0.935   2.825   3.893
 1651SOL    HW1 5852   1.016   2.779   3.930
 1651SOL    HW2 5853   0.912   2.904   3.949
 1652SOL     OW 5854   0.960   2.627   1.329
 1652SOL    HW1 5855   0.935   2.714   1.371
 1652SOL    HW2 5856   0.882   2.565   1.332
 1653SOL     OW 5857   0.372   4.998   3.082
 1653SOL    HW1 5858   0.330   4.929   3.140
 1653SOL    HW2 5859   0.463   5.021   3.117
 1654SOL     OW 5860   0.460   3.208   2.006
 1654SOL    HW1 5861   0.488   3.148   2.081
 1654SOL    HW2 5862   0.368   3.182   1.974
 1655SOL     OW 5863   6.588   0.539   4.715
 1655SOL    HW1 5864   6.489   0.554   4.721
 1655SOL    HW2 5865   6.622   0.505   4.803
 1656SOL     OW 5866   2.292   4.979   3.967
 1656SOL    HW1 5867   2.209   5.008   4.013
 1656SOL    HW2 5868   2.298   5.023   3.877
 1657SOL     OW 5869   0.615   0.176   5.814
 1657SOL    HW1 5870   0.671   0.106   5.859
 1657SOL    HW2 5871   0.628   0.264   5.859
 1658SOL     OW 5872   6.957   6.970   6.963
 1658SOL    HW1 5873   6.980   6.959   6.866
 1658SOL    HW2 5874   6.858   6.982   6.972
 1659SOL     OW 5875   4.489   6.864   6.858
 1659SOL    HW1 5876   4.428   6.896   6.785
 1659SOL    HW2 5877   4.578   6.910   6.850
 1660SOL     OW 5878   1.416   6.793   1.875
 1660SOL    HW1 5879   1.376   6.881   1.851
 1660SOL    HW2 5880   1.497   6.777   1.818
 1661SOL     OW 5881   3.835   4.963   2.640
 1661SOL    HW1 5882   3.910   4.975   2.575
 1661SOL    HW2 5883   3.860   4.895   2.709
 1662SOL     OW 5884   0.292   1.335   4.899
 1662SOL    HW1 5885   0.302   1.273   4.821
 1662SOL    HW2 5886   0.255   1.422   4.867
 1663SOL     OW 5887   4.348   4.467   1.286
 1663SOL    HW1 5888   4.433   4.497   1.330
 1663SOL    HW2 5889   4.347   4.367   1.279
 1664SOL     OW 5890   0.701   0.273   5.201
 1664SOL    HW1 5891   0.677   0.201   5.266
 1664SOL    HW2 5892   0.746   0.232   5.121
 1665SOL     OW 5893   2.086   4.074   1.219
 1665SOL    HW1 5894   2.059   4.170   1.229
 1665SOL    HW2 5895   2.176   4.069   1.175
 1666SOL     OW 5896   5.397   0.268   6.578
 1666SOL    HW1 5897   5.310   0.310   6.550
 1666SOL    HW2 5898   5.472   0.331   6.561
 1667SOL     OW 5899   0.373   6.822   1.367
 1667SOL    HW1 5900   0.400   6.875   1.447
 1667SOL    HW2 5901   0.375   6.880   1.286
 1668SOL     OW 5902   4.958   4.241   3.718
 1668SOL    HW1 5903   4.883   4.214   3.658
 1668SOL    HW2 5904   4.921   4.279   3.803
 1669SOL     OW 5905   0.187   3.612   5.142
 1669SOL    HW1 5906   0.191   3.564   5.054
 1669SOL    HW2 5907   0.242   3.696   5.136
 1670SOL     OW 5908   2.289   4.454   5.938
 1670SOL    HW1 5909   2.263   4.416   5.849
 1670SOL    HW2 5910   2.276   4.385   6.009
 1671SOL     OW 5911   5.102   1.725   1.710
 1671SOL    HW1 5912   5.069   1.755   1.620
 1671SOL    HW2 5913   5.030   1.739   1.778
 1672SOL     OW 5914   0.883   3.123   6.846
 1672SOL    HW1 5915   0.970   3.171   6.857
 1672SOL    HW2 5916   0.881   3.043   6.906
 1673SOL     OW 5917   2.211   1.764   4.506
 1673SOL    HW1 5918   2.310   1.760   4.519
 1673SOL    HW2 5919   2.185   1.857   4.482
 1674SOL     OW 5920   4.664   2.698   3.058
 1674SOL    HW1 5921   4.594   2.721   3.126
 1674SOL    HW2 5922   4.640   2.612   3.014
 1675SOL     OW 5923   5.126   0.703   1.217
 1675SOL    HW1 5924   5.072   0.623   1.193
 1675SOL    HW2 5925   5.115   0.773   1.146
 1676SOL     OW 5926   1.768   1.780   2.972
 1676SOL    HW1 5927   1.803   1.749   3.060
 1676SOL    HW2 5928   1.719   1.866   2.984
 1677SOL     OW 5929   4.145   3.521   3.476
 1677SOL    HW1 5930   4.103   3.545   3.564
 1677SOL    HW2 5931   4.244   3.533   3.482
 1678SOL     OW 5932   0.507   6.795   0.761
 1678SOL    HW1 5933   0.572   6.753   0.698
 1678SOL    HW2 5934   0.554   6.824   0.844
 1679SOL     OW 5935   1.720   1.821   5.548
 1679SOL    HW1 5936   1.795   1.799   5.610
 1679SOL    HW2 5937   1.676   1.906   5.577
 1680SOL     OW 5938   4.635   2.610   4.290
 1680SOL    HW1 5939   4.615   2.626   4.387
 1680SOL    HW2 5940   4.732   2.628   4.273
 1681SOL     OW 5941   1.888   6.315   3.798
 1681SOL    HW1 5942   1.937   6.341   3.881
 1681SOL    HW2 5943   1.921   6.370   3.721
 1682SOL     OW 5944   2.588   0.071   5.516
 1682SOL    HW1 5945   2.684   0.089   5.537
 1682SOL    HW2 5946   2.531   0.107   5.590
 1683SOL     OW 5947   6.213   4.700   2.665
 1683SOL    HW1 5948   6.312   4.697   2.655
 1683SOL    HW2 5949   6.175   4.768   2.601
 1684SOL     OW 5950   2.102   4.613   1.419
 1684SOL    HW1 5951   2.162   4.642   1.493
 1684SOL    HW2 5952   2.007   4.631   1.444
 1685SOL     OW 5953   0.124   1.163   5.529
 1685SOL    HW1 5954   0.103   1.248   5.480
 1685SOL    HW2 5955   0.213   1.129   5.499
 1686SOL     OW 5956   4.832   5.178   3.039
 1686SOL    HW1 5957   4.925   5.216   3.037
 1686SOL    HW2 5958   4.836   5.084   3.074
 1687SOL     OW 5959   6.606   3.654   2.746
 1687SOL    HW1 5960   6.665   3.708   2.805
 1687SOL    HW2 5961   6.612   3.557   2.772
 1688SOL     OW 5962   2.161   1.983   3.780
 1688SOL    HW1 5963   2.147   1.984   3.681
 1688SOL    HW2 5964   2.254   2.015   3.800
 1689SOL     OW 5965   5.944   0.783   2.036
 1689SOL    HW1 5966   5.978   0.809   1.946
 1689SOL    HW2 5967   5.971   0.853   2.103
 1690SOL     OW 5968   0.765   4.321   4.472
 1690SOL    HW1 5969   0.826   4.307   4.550
 1690SOL    HW2 5970   0.788   4.408   4.428
 1691SOL     OW 5971   5.274   2.968   5.133
 1691SOL    HW1 5972   5.209   3.032   5.175
 1691SOL    HW2 5973   5.272   2.882   5.183
 1692SOL     OW 5974   5.922   5.341   1.804
 1692SOL    HW1 5975   5.866   5.414   1.766
 1692SOL    HW2 5976   5.935   5.269   1.735
 1693SOL     OW 5977   6.225   0.806   5.649
 1693SOL    HW1 5978   6.213   0.725   5.592
 1693SOL    HW2 5979   6.140   0.857   5.654
 1694SOL     OW 5980   5.367   0.780   5.170
 1694SOL    HW1 5981   5.463   0.755   5.153
 1694SOL    HW2 5982   5.361   0.878   5.188
 1695SOL     OW 5983   3.757   0.729   6.608
 1695SOL    HW1 5984   3.672   0.705   6.560
 1695SOL    HW2 5985   3.781   0.656   6.671
 1696SOL     OW 5986   4.602   5.822   0.104
 1696SOL    HW1 5987   4.657   5.751   0.148
 1696SOL    HW2 5988   4.642   5.912   0.123
 1697SOL     OW 5989   5.739   2.033   1.310
 1697SOL    HW1 5990   5.721   2.015   1.407
 1697SOL    HW2 5991   5.830   2.073   1.300
 1698SOL     OW 5992   3.309   0.790   2.246
 1698SOL    HW1 5993   3.296   0.732   2.326
 1698SOL    HW2 5994   3.254   0.873   2.255
 1699SOL     OW 5995   2.497   0.630   0.015
 1699SOL    HW1 5996   2.529   0.724   0.002
 1699SOL    HW2 5997   2.522   0.575   6.964
 1700SOL     OW 5998   6.004   3.483   2.903
 1700SOL    HW1 5999   6.028   3.445   2.814
 1700SOL    HW2 6000   6.086   3.496   2.957
 1701SOL     OW 6001   6.778   4.802   4.800
 1701SOL    HW1 6002   6.826   4.719   4.828
 1701SOL    HW2 6003   6.819   4.881   4.846
 1702SOL     OW 6004   2.032   2.600   5.671
 1702SOL    HW1 6005   1.952   2.583   5.614
 1702SOL    HW2 6006   2.056   2.517   5.722
 1703SOL     OW 6007   3.316   1.904   6.900
 1703SOL    HW1 6008   3.342   1.838   6.970
 1703SOL    HW2 6009   3.217   1.919   6.904
 1704SOL     OW 6010   2.661   1.744   0.890
 1704SOL    HW1 6011   2.580   1.802   0.880
 1704SOL    HW2 6012   2.743   1.800   0.880
 1705SOL     OW 6013   4.011   1.240   1.793
 1705SOL    HW1 6014   3.958   1.233   1.877
 1705SOL    HW2 6015   3.949   1.248   1.715
 1706SOL     OW 6016   3.919   1.909   0.934
 1706SOL    HW1 6017   3.836   1.887   0.986
 1706SOL    HW2 6018   3.899   1.982   0.869
 1707SOL     OW 6019   4.709   1.449   2.432
 1707SOL    HW1 6020   4.671   1.453   2.524
 1707SOL    HW2 6021   4.676   1.366   2.386
 1708SOL     OW 6022   3.475   5.242   1.736
 1708SOL    HW1 6023   3.460   5.205   1.828
 1708SOL    HW2 6024   3.518   5.172   1.679
 1709SOL     OW 6025   5.193   5.776   0.614
 1709SOL    HW1 6026   5.160   5.688   0.578
 1709SOL    HW2 6027   5.121   5.844   0.607
 1710SOL     OW 6028   4.286   5.341   2.817
 1710SOL    HW1 6029   4.315   5.265   2.876
 1710SOL    HW2 6030   4.316   5.428   2.857
 1711SOL     OW 6031   3.390   5.734   6.235
 1711SOL    HW1 6032   3.432   5.825   6.235
 1711SOL    HW2 6033   3.332   5.724   6.154
 1712SOL     OW 6034   0.168   1.952   4.384
 1712SOL    HW1 6035   0.079   1.908   4.395
 1712SOL    HW2 6036   0.163   2.020   4.311
 1713SOL     OW 6037   4.213   0.815   2.836
 1713SOL    HW1 6038   4.291   0.756   2.815
 1713SOL    HW2 6039   4.185   0.863   2.753
 1714SOL     OW 6040   3.750   2.734   6.727
 1714SOL    HW1 6041   3.658   2.700   6.710
 1714SOL    HW2 6042   3.801   2.666   6.780
 1715SOL     OW 6043   1.063   6.330   2.484
 1715SOL    HW1 6044   1.114   6.289   2.409
 1715SOL    HW2 6045   0.982   6.377   2.448
 1716SOL     OW 6046   4.521   0.201   4.316
 1716SOL    HW1 6047   4.522   0.117   4.261
 1716SOL    HW2 6048   4.609   0.212   4.361
 1717SOL     OW 6049   3.672   6.032   5.536
 1717SOL    HW1 6050   3.591   6.079   5.570
 1717SOL    HW2 6051   3.729   6.004   5.613
 1718SOL     OW 6052   1.944   2.673   2.023
 1718SOL    HW1 6053   2.002   2.737   1.972
 1718SOL    HW2 6054   1.944   2.584   1.976
 1719SOL     OW 6055   0.892   5.021   1.527
 1719SOL    HW1 6056   0.906   5.018   1.626
 1719SOL    HW2 6057   0.926   4.937   1.486
 1720SOL     OW 6058   6.481   2.936   5.490
 1720SOL    HW1 6059   6.402   2.889   5.529
 1720SOL    HW2 6060   6.503   3.016   5.546
 1721SOL     OW 6061   1.623   1.551   1.733
 1721SOL    HW1 6062   1.668   1.527   1.819
 1721SOL    HW2 6063   1.604   1.649   1.731
 1722SOL     OW 6064   2.987   2.199   3.316
 1722SOL    HW1 6065   2.954   2.158   3.401
 1722SOL    HW2 6066   2.913   2.252   3.274
 1723SOL     OW 6067   5.410   2.987   0.388
 1723SOL    HW1 6068   5.427   3.070   0.441
 1723SOL    HW2 6069   5.344   2.930   0.436
 1724SOL     OW 6070   6.680   2.431   1.229
 1724SOL    HW1 6071   6.602   2.485   1.261
 1724SOL    HW2 6072   6.765   2.473   1.262
 1725SOL     OW 6073   1.979   5.883   6.697
 1725SOL    HW1 6074   2.036   5.954   6.738
 1725SOL    HW2 6075   1.914   5.924   6.634
 1726SOL     OW 6076   5.688   3.864   4.033
 1726SOL    HW1 6077   5.701   3.961   4.052
 1726SOL    HW2 6078   5.593   3.849   4.004
 1727SOL     OW 6079   3.263   3.402   3.130
 1727SOL    HW1 6080   3.279   3.451   3.044
 1727SOL    HW2 6081   3.176   3.431   3.170
 1728SOL     OW 6082   5.122   2.432   5.048
 1728SOL    HW1 6083   5.096   2.516   5.096
 1728SOL    HW2 6084   5.102   2.353   5.106
 1729SOL     OW 6085   1.941   4.057   1.508
 1729SOL    HW1 6086   2.024   4.105   1.481
 1729SOL    HW2 6087   1.883   4.119   1.561
 1730SOL     OW 6088   2.614   4.966   6.101
 1730SOL    HW1 6089   2.564   5.051   6.086
 1730SOL    HW2 6090   2.563   4.909   6.166
 1731SOL     OW 6091   5.788   4.106   4.057
 1731SOL    HW1 6092   5.861   4.080   4.120
 1731SOL    HW2 6093   5.761   4.201   4.074
 1732SOL     OW 6094   2.024   4.801   6.415
 1732SOL    HW1 6095   2.020   4.775   6.319
 1732SOL    HW2 6096   2.066   4.728   6.468
 1733SOL     OW 6097   3.105   4.108   0.252
 1733SOL    HW1 6098   3.092   4.016   0.291
 1733SOL    HW2 6099   3.068   4.110   0.159
 1734SOL     OW 6100   0.351   2.739   1.019
 1734SOL    HW1 6101   0.417   2.665   1.031
 1734SOL    HW2 6102   0.388   2.823   1.058
 1735SOL     OW 6103   3.956   5.443   6.325
 1735SOL    HW1 6104   3.885   5.373   6.310
 1735SOL    HW2 6105   4.035   5.422   6.268
 1736SOL     OW 6106   4.918   3.243   0.830
 1736SOL    HW1 6107   4.968   3.166   0.868
 1736SOL    HW2 6108   4.880   3.218   0.741
 1737SOL     OW 6109   4.799   1.066   4.912
 1737SOL    HW1 6110   4.868   1.110   4.970
 1737SOL    HW2 6111   4.807   1.101   4.818
 1738SOL     OW 6112   1.000   3.427   4.234
 1738SOL    HW1 6113   1.096   3.445   4.216
 1738SOL    HW2 6114   0.981   3.330   4.218
 1739SOL     OW 6115   5.314   0.039   4.055
 1739SOL    HW1 6116   5.232   0.016   4.107
 1739SOL    HW2 6117   5.294   0.111   3.989
 1740SOL     OW 6118   6.735   2.308   4.425
 1740SOL    HW1 6119   6.784   2.224   4.404
 1740SOL    HW2 6120   6.767   2.381   4.364
 1741SOL     OW 6121   0.973   1.982   4.530
 1741SOL    HW1 6122   0.956   1.884   4.526
 1741SOL    HW2 6123   0.886   2.031   4.531
 1742SOL     OW 6124   6.272   5.758   6.429
 1742SOL    HW1 6125   6.266   5.754   6.329
 1742SOL    HW2 6126   6.341   5.693   6.461
 1743SOL     OW 6127   1.684   0.959   3.051
 1743SOL    HW1 6128   1.766   0.908   3.024
 1743SOL    HW2 6129   1.623   0.967   2.973
 1744SOL     OW 6130   4.694   2.102   3.921
 1744SOL    HW1 6131   4.604   2.133   3.889
 1744SOL    HW2 6132   4.683   2.020   3.977
 1745SOL     OW 6133   7.013   6.553   1.475
 1745SOL    HW1 6134   6.956   6.543   1.393
 1745SOL    HW2 6135   0.069   6.597   1.450
 1746SOL     OW 6136   1.839   4.229   3.325
 1746SOL    HW1 6137   1.855   4.327   3.328
 1746SOL    HW2 6138   1.760   4.206   3.381
 1747SOL     OW 6139   3.572   1.280   2.605
 1747SOL    HW1 6140   3.518   1.286   2.521
 1747SOL    HW2 6141   3.519   1.234   2.675
 1748SOL     OW 6142   6.622   1.957   5.068
 1748SOL    HW1 6143   6.641   2.019   5.144
 1748SOL    HW2 6144   6.697   1.963   5.002
 1749SOL     OW 6145   2.116   5.107   0.952
 1749SOL    HW1 6146   2.150   5.069   1.038
 1749SOL    HW2 6147   2.030   5.063   0.928
 1750SOL     OW 6148   4.357   0.238   5.461
 1750SOL    HW1 6149   4.440   0.214   5.511
 1750SOL    HW2 6150   4.277   0.208   5.514
 1751SOL     OW 6151   5.916   2.446   4.985
 1751SOL    HW1 6152   5.959   2.357   4.968
 1751SOL    HW2 6153   5.987   2.514   5.002
 1752SOL     OW 6154   6.809   0.917   1.386
 1752SOL    HW1 6155   6.836   0.915   1.290
 1752SOL    HW2 6156   6.806   1.012   1.418
 1753SOL     OW 6157   6.094   1.220   1.736
 1753SOL    HW1 6158   6.171   1.157   1.745
 1753SOL    HW2 6159   6.081   1.243   1.639
 1754SOL     OW 6160   3.019   5.608   5.726
 1754SOL    HW1 6161   3.027   5.691   5.671
 1754SOL    HW2 6162   2.973   5.537   5.672
 1755SOL     OW 6163   6.212   6.953   4.932
 1755SOL    HW1 6164   6.258   6.883   4.878
 1755SOL    HW2 6165   6.145   6.910   4.993
 1756SOL     OW 6166   5.672   0.730   6.179
 1756SOL    HW1 6167   5.641   0.780   6.098
 1756SOL    HW2 6168   5.655   0.785   6.260
 1757SOL     OW 6169   2.527   5.174   5.002
 1757SOL    HW1 6170   2.505   5.241   5.074
 1757SOL    HW2 6171   2.619   5.139   5.017
 1758SOL     OW 6172   2.129   6.278   4.697
 1758SOL    HW1 6173   2.079   6.365   4.695
 1758SOL    HW2 6174   2.065   6.203   4.686
 1759SOL     OW 6175   1.376   6.710   6.941
 1759SOL    HW1 6176   1.283   6.673   6.937
 1759SOL    HW2 6177   1.378   6.800   6.897
 1760SOL     OW 6178   6.056   1.007   5.388
 1760SOL    HW1 6179   6.028   1.096   5.351
 1760SOL    HW2 6180   6.007   0.934   5.340
 1761SOL     OW 6181   6.274   1.778   1.965
 1761SOL    HW1 6182   6.372   1.776   1.984
 1761SOL    HW2 6183   6.245   1.689   1.930
 1762SOL     OW 6184   0.238   1.666   5.175
 1762SOL    HW1 6185   0.289   1.701   5.097
 1762SOL    HW2 6186   0.285   1.691   5.260
 1763SOL     OW 6187   0.593   4.105   4.504
 1763SOL    HW1 6188   0.667   4.170   4.488
 1763SOL    HW2 6189   0.506   4.153   4.510
 1764SOL     OW 6190   1.225   5.244   2.435
 1764SOL    HW1 6191   1.279   5.199   2.364
 1764SOL    HW2 6192   1.151   5.183   2.465
 1765SOL     OW 6193   5.595   3.501   2.046
 1765SOL    HW1 6194   5.637   3.529   2.132
 1765SOL    HW2 6195   5.578   3.402   2.048
 1766SOL     OW 6196   4.256   4.811   4.349
 1766SOL    HW1 6197   4.289   4.763   4.431
 1766SOL    HW2 6198   4.278   4.908   4.357
 1767SOL     OW 6199   0.720   4.774   2.186
 1767SOL    HW1 6200   0.790   4.731   2.243
 1767SOL    HW2 6201   0.754   4.862   2.152
 1768SOL     OW 6202   5.199   6.437   2.247
 1768SOL    HW1 6203   5.129   6.404   2.311
 1768SOL    HW2 6204   5.223   6.365   2.183
 1769SOL     OW 6205   5.472   0.438   6.839
 1769SOL    HW1 6206   5.458   0.379   6.759
 1769SOL    HW2 6207   5.514   0.524   6.810
 1770SOL     OW 6208   2.132   5.077   6.398
 1770SOL    HW1 6209   2.061   5.122   6.451
 1770SOL    HW2 6210   2.130   4.978   6.416
 1771SOL     OW 6211   0.899   3.602   6.301
 1771SOL    HW1 6212   0.998   3.589   6.289
 1771SOL    HW2 6213   0.872   3.687   6.257
 1772SOL     OW 6214   2.377   4.299   3.713
 1772SOL    HW1 6215   2.408   4.394   3.718
 1772SOL    HW2 6216   2.344   4.280   3.621
 1773SOL     OW 6217   0.855   6.505   5.134
 1773SOL    HW1 6218   0.863   6.405   5.138
 1773SOL    HW2 6219   0.836   6.541   5.225
 1774SOL     OW 6220   6.010   5.086   1.409
 1774SOL    HW1 6221   6.027   5.184   1.422
 1774SOL    HW2 6222   5.922   5.073   1.365
 1775SOL     OW 6223   2.133   5.514   6.227
 1775SOL    HW1 6224   2.068   5.473   6.291
 1775SOL    HW2 6225   2.138   5.613   6.245
 1776SOL     OW 6226   4.267   1.227   6.169
 1776SOL    HW1 6227   4.356   1.274   6.173
 1776SOL    HW2 6228   4.250   1.196   6.076
 1777SOL     OW 6229   4.650   6.649   6.948
 1777SOL    HW1 6230   4.623   6.579   6.882
 1777SOL    HW2 6231   4.584   6.724   6.945
 1778SOL     OW 6232   5.971   0.155   4.181
 1778SOL    HW1 6233   5.910   0.232   4.165
 1778SOL    HW2 6234   5.926   0.089   4.242
 1779SOL     OW 6235   5.429   5.817   3.638
 1779SOL    HW1 6236   5.352   5.840   3.578
 1779SOL    HW2 6237   5.461   5.724   3.618
 1780SOL     OW 6238   2.384   5.652   5.263
 1780SOL    HW1 6239   2.432   5.630   5.348
 1780SOL    HW2 6240   2.380   5.752   5.253
 1781SOL     OW 6241   4.492   0.448   3.899
 1781SOL    HW1 6242   4.444   0.373   3.853
 1781SOL    HW2 6243   4.453   0.462   3.990
 1782SOL     OW 6244   1.858   1.606   2.213
 1782SOL    HW1 6245   1.864   1.655   2.300
 1782SOL    HW2 6246   1.949   1.590   2.177
 1783SOL     OW 6247   1.922   4.266   6.659
 1783SOL    HW1 6248   1.985   4.229   6.590
 1783SOL    HW2 6249   1.869   4.340   6.618
 1784SOL     OW 6250   2.636   0.254   0.824
 1784SOL    HW1 6251   2.538   0.237   0.821
 1784SOL    HW2 6252   2.684   0.187   0.766
 1785SOL     OW 6253   1.009   6.756   4.298
 1785SOL    HW1 6254   0.974   6.730   4.208
 1785SOL    HW2 6255   1.050   6.848   4.292
 1786SOL     OW 6256   0.932   6.097   0.643
 1786SOL    HW1 6257   0.948   6.191   0.612
 1786SOL    HW2 6258   0.844   6.093   0.691
 1787SOL     OW 6259   2.139   3.924   6.086
 1787SOL    HW1 6260   2.091   3.951   6.003
 1787SOL    HW2 6261   2.202   3.849   6.065
 1788SOL     OW 6262   4.739   3.691   0.837
 1788SOL    HW1 6263   4.668   3.701   0.768
 1788SOL    HW2 6264   4.822   3.655   0.794
 1789SOL     OW 6265   6.706   3.948   1.781
 1789SOL    HW1 6266   6.693   3.860   1.736
 1789SOL    HW2 6267   6.630   3.965   1.843
 1790SOL     OW 6268   2.630   2.503   4.271
 1790SOL    HW1 6269   2.719   2.509   4.315
 1790SOL    HW2 6270   2.568   2.447   4.326
 1791SOL     OW 6271   5.254   6.731   3.228
 1791SOL    HW1 6272   5.260   6.729   3.128
 1791SOL    HW2 6273   5.265   6.825   3.261
 1792SOL     OW 6274   6.915   1.538   5.367
 1792SOL    HW1 6275   6.857   1.597   5.311
 1792SOL    HW2 6276   6.875   1.446   5.370
 1793SOL     OW 6277   0.108   1.386   5.856
 1793SOL    HW1 6278   0.183   1.323   5.876
 1793SOL    HW2 6279   0.044   1.386   5.933
 1794SOL     OW 6280   0.938   6.927   6.377
 1794SOL    HW1 6281   0.871   6.879   6.434
 1794SOL    HW2 6282   0.907   7.022   6.363
 1795SOL     OW 6283   6.217   4.690   0.174
 1795SOL    HW1 6284   6.178   4.677   0.266
 1795SOL    HW2 6285   6.311   4.722   0.182
 1796SOL     OW 6286   1.134   6.816   6.242
 1796SOL    HW1 6287   1.053   6.847   6.292
 1796SOL    HW2 6288   1.188   6.895   6.214
 1797SOL     OW 6289   2.868   5.735   4.911
 1797SOL    HW1 6290   2.829   5.653   4.870
 1797SOL    HW2 6291   2.834   5.745   5.005
 1798SOL     OW 6292   2.996   3.786   4.264
 1798SOL    HW1 6293   2.992   3.822   4.171
 1798SOL    HW2 6294   2.919   3.725   4.280
 1799SOL     OW 6295   3.498   1.070   0.312
 1799SOL    HW1 6296   3.433   1.139   0.344
 1799SOL    HW2 6297   3.536   1.021   0.391
 1800SOL     OW 6298   5.333   3.206   4.455
 1800SOL    HW1 6299   5.337   3.148   4.373
 1800SOL    HW2 6300   5.382   3.161   4.529
 1801SOL     OW 6301   1.146   1.802   2.003
 1801SOL    HW1 6302   1.140   1.704   2.024
 1801SOL    HW2 6303   1.060   1.832   1.962
 1802SOL     OW 6304   6.682   5.061   3.399
 1802SOL    HW1 6305   6.740   5.079   3.479
 1802SOL    HW2 6306   6.599   5.117   3.405
 1803SOL     OW 6307   0.913   0.103   3.473
 1803SOL    HW1 6308   0.853   0.045   3.529
 1803SOL    HW2 6309   0.997   0.053   3.451
 1804SOL     OW 6310   2.390   3.393   5.861
 1804SOL    HW1 6311   2.477   3.356   5.893
 1804SOL    HW2 6312   2.357   3.338   5.784
 1805SOL     OW 6313   0.415   6.306   6.709
 1805SOL    HW1 6314   0.337   6.261   6.753
 1805SOL    HW2 6315   0.406   6.297   6.609
 1806SOL     OW 6316   6.948   2.114   2.246
 1806SOL    HW1 6317   6.942   2.029   2.297
 1806SOL    HW2 6318   7.020   2.107   2.177
 1807SOL     OW 6319   6.504   3.258   2.140
 1807SOL    HW1 6320   6.512   3.160   2.125
 1807SOL    HW2 6321   6.443   3.298   2.072
 1808SOL     OW 6322   5.090   2.158   6.125
 1808SOL    HW1 6323   5.029   2.223   6.170
 1808SOL    HW2 6324   5.183   2.170   6.161
 1809SOL     OW 6325   3.948   1.397   5.822
 1809SOL    HW1 6326   3.876   1.413   5.890
 1809SOL    HW2 6327   4.035   1.434   5.856
 1810SOL     OW 6328   0.383   0.315   4.330
 1810SOL    HW1 6329   0.422   0.322   4.238
 1810SOL    HW2 6330   0.398   0.401   4.379
 1811SOL     OW 6331   4.538   5.717   2.163
 1811SOL    HW1 6332   4.491   5.668   2.237
 1811SOL    HW2 6333   4.594   5.653   2.111
 1812SOL     OW 6334   4.440   6.746   5.004
 1812SOL    HW1 6335   4.517   6.732   4.941
 1812SOL    HW2 6336   4.448   6.835   5.048
 1813SOL     OW 6337   4.492   4.587   2.561
 1813SOL    HW1 6338   4.475   4.658   2.492
 1813SOL    HW2 6339   4.540   4.510   2.519
 1814SOL     OW 6340   6.999   6.443   0.499
 1814SOL    HW1 6341   7.013   6.370   0.432
 1814SOL    HW2 6342   0.057   6.470   0.537
 1815SOL     OW 6343   5.914   6.472   1.590
 1815SOL    HW1 6344   5.995   6.525   1.616
 1815SOL    HW2 6345   5.923   6.379   1.626
 1816SOL     OW 6346   4.580   5.191   6.252
 1816SOL    HW1 6347   4.596   5.248   6.171
 1816SOL    HW2 6348   4.632   5.107   6.244
 1817SOL     OW 6349   0.916   1.655   3.663
 1817SOL    HW1 6350   0.952   1.706   3.585
 1817SOL    HW2 6351   0.991   1.614   3.714
 1818SOL     OW 6352   1.883   6.732   1.090
 1818SOL    HW1 6353   1.847   6.772   1.006
 1818SOL    HW2 6354   1.973   6.693   1.072
 1819SOL     OW 6355   2.244   5.091   3.369
 1819SOL    HW1 6356   2.244   5.024   3.443
 1819SOL    HW2 6357   2.150   5.111   3.343
 1820SOL     OW 6358   4.072   0.248   4.261
 1820SOL    HW1 6359   4.101   0.158   4.227
 1820SOL    HW2 6360   4.037   0.238   4.354
 1821SOL     OW 6361   3.605   2.030   2.430
 1821SOL    HW1 6362   3.521   2.061   2.387
 1821SOL    HW2 6363   3.596   2.036   2.530
 1822SOL     OW 6364   0.053   2.652   2.261
 1822SOL    HW1 6365   0.024   2.713   2.188
 1822SOL    HW2 6366   0.127   2.694   2.312
 1823SOL     OW 6367   3.586   6.691   2.589
 1823SOL    HW1 6368   3.642   6.630   2.644
 1823SOL    HW2 6369   3.634   6.713   2.504
 1824SOL     OW 6370   3.539   2.667   1.409
 1824SOL    HW1 6371   3.570   2.595   1.471
 1824SOL    HW2 6372   3.617   2.703   1.358
 1825SOL     OW 6373   1.823   1.577   5.070
 1825SOL    HW1 6374   1.921   1.556   5.079
 1825SOL    HW2 6375   1.777   1.502   5.023
 1826SOL     OW 6376   3.673   2.252   1.627
 1826SOL    HW1 6377   3.700   2.292   1.714
 1826SOL    HW2 6378   3.677   2.321   1.555
 1827SOL     OW 6379   5.657   3.983   1.173
 1827SOL    HW1 6380   5.659   4.037   1.089
 1827SOL    HW2 6381   5.603   4.031   1.242
 1828SOL     OW 6382   1.704   3.435   5.295
 1828SOL    HW1 6383   1.771   3.490   5.344
 1828SOL    HW2 6384   1.686   3.351   5.347
 1829SOL     OW 6385   3.573   0.646   3.437
 1829SOL    HW1 6386   3.668   0.673   3.418
 1829SOL    HW2 6387   3.561   0.549   3.413
 1830SOL     OW 6388   4.769   6.694   5.072
 1830SOL    HW1 6389   4.755   6.615   5.012
 1830SOL    HW2 6390   4.780   6.777   5.017
 1831SOL     OW 6391   4.393   5.706   1.555
 1831SOL    HW1 6392   4.404   5.660   1.643
 1831SOL    HW2 6393   4.453   5.786   1.551
 1832SOL     OW 6394   2.684   3.452   0.528
 1832SOL    HW1 6395   2.704   3.358   0.500
 1832SOL    HW2 6396   2.697   3.461   0.626
 1833SOL     OW 6397   4.944   0.044   0.764
 1833SOL    HW1 6398   4.983   0.056   0.855
 1833SOL    HW2 6399   5.003   7.013   0.710
 1834SOL     OW 6400   2.241   2.443   6.206
 1834SOL    HW1 6401   2.191   2.513   6.155
 1834SOL    HW2 6402   2.180   2.366   6.226
 1835SOL     OW 6403   6.561   5.700   0.802
 1835SOL    HW1 6404   6.652   5.658   0.800
 1835SOL    HW2 6405   6.493   5.633   0.773
 1836SOL     OW 6406   5.323   2.227   1.773
 1836SOL    HW1 6407   5.325   2.138   1.820
 1836SOL    HW2 6408   5.228   2.252   1.755
 1837SOL     OW 6409   3.304   2.335   6.578
 1837SOL    HW1 6410   3.392   2.366   6.542
 1837SOL    HW2 6411   3.252   2.291   6.504
 1838SOL     OW 6412   6.343   1.005   0.395
 1838SOL    HW1 6413   6.349   1.103   0.411
 1838SOL    HW2 6414   6.381   0.983   0.306
 1839SOL     OW 6415   0.328   1.159   6.948
 1839SOL    HW1 6416   0.309   1.066   6.919
 1839SOL    HW2 6417   0.282   1.178   0.005
 1840SOL     OW 6418   4.903   6.463   3.314
 1840SOL    HW1 6419   4.853   6.545   3.285
 1840SOL    HW2 6420   4.850   6.415   3.384
 1841SOL     OW 6421   2.264   1.217   2.241
 1841SOL    HW1 6422   2.165   1.214   2.223
 1841SOL    HW2 6423   2.280   1.238   2.337
 1842SOL     OW 6424   1.464   5.321   7.027
 1842SOL    HW1 6425   1.550   5.280   6.998
 1842SOL    HW2 6426   1.403   5.331   6.947
 1843SOL     OW 6427   3.379   1.223   4.672
 1843SOL    HW1 6428   3.392   1.318   4.702
 1843SOL    HW2 6429   3.283   1.208   4.650
 1844SOL     OW 6430   5.529   1.895   6.910
 1844SOL    HW1 6431   5.454   1.835   6.936
 1844SOL    HW2 6432   5.494   1.973   6.858
 1845SOL     OW 6433   1.531   1.350   2.921
 1845SOL    HW1 6434   1.547   1.364   3.018
 1845SOL    HW2 6435   1.448   1.295   2.909
 1846SOL     OW 6436   4.263   1.479   2.098
 1846SOL    HW1 6437   4.258   1.503   2.001
 1846SOL    HW2 6438   4.175   1.497   2.141
 1847SOL     OW 6439   2.056   6.936   5.462
 1847SOL    HW1 6440   2.018   6.884   5.386
 1847SOL    HW2 6441   2.156   6.932   5.459
 1848SOL     OW 6442   2.789   5.712   4.365
 1848SOL    HW1 6443   2.873   5.753   4.329
 1848SOL    HW2 6444   2.725   5.784   4.391
 1849SOL     OW 6445   4.630   2.797   1.766
 1849SOL    HW1 6446   4.651   2.729   1.837
 1849SOL    HW2 6447   4.628   2.888   1.807
 1850SOL     OW 6448   5.175   1.529   1.294
 1850SOL    HW1 6449   5.127   1.552   1.379
 1850SOL    HW2 6450   5.113   1.482   1.232
 1851SOL     OW 6451   0.006   4.008   5.104
 1851SOL    HW1 6452   6.964   4.072   5.132
 1851SOL    HW2 6453   0.005   3.928   5.163
 1852SOL     OW 6454   1.465   5.925   2.349
 1852SOL    HW1 6455   1.526   5.846   2.347
 1852SOL    HW2 6456   1.371   5.895   2.360
 1853SOL     OW 6457   0.253   2.687   4.578
 1853SOL    HW1 6458   0.240   2.782   4.606
 1853SOL    HW2 6459   0.197   2.627   4.636
 1854SOL     OW 6460   6.978   0.023   3.686
 1854SOL    HW1 6461   6.900   7.010   3.641
 1854SOL    HW2 6462   0.016   6.983   3.710
 1855SOL     OW 6463   4.693   2.781   4.817
 1855SOL    HW1 6464   4.747   2.705   4.781
 1855SOL    HW2 6465   4.735   2.868   4.791
 1856SOL     OW 6466   3.865   2.490   6.839
 1856SOL    HW1 6467   3.962   2.467   6.837
 1856SOL    HW2 6468   3.822   2.462   6.753
 1857SOL     OW 6469   4.331   1.507   1.343
 1857SOL    HW1 6470   4.255   1.445   1.361
 1857SOL    HW2 6471   4.415   1.470   1.382
 1858SOL     OW 6472   4.174   2.319   4.449
 1858SOL    HW1 6473   4.140   2.369   4.529
 1858SOL    HW2 6474   4.261   2.358   4.419
 1859SOL     OW 6475   5.996   2.147   3.836
 1859SOL    HW1 6476   5.947   2.191   3.912
 1859SOL    HW2 6477   5.974   2.049   3.835
 1860SOL     OW 6478   1.065   1.557   4.809
 1860SOL    HW1 6479   1.069   1.642   4.862
 1860SOL    HW2 6480   0.978   1.512   4.827
 1861SOL     OW 6481   6.742   0.232   3.319
 1861SOL    HW1 6482   6.760   0.154   3.259
 1861SOL    HW2 6483   6.699   0.200   3.404
 1862SOL     OW 6484   2.565   5.919   6.479
 1862SOL    HW1 6485   2.521   5.837   6.442
 1862SOL    HW2 6486   2.626   5.893   6.554
 1863SOL     OW 6487   1.018   2.954   0.777
 1863SOL    HW1 6488   1.099   2.937   0.722
 1863SOL    HW2 6489   1.014   2.889   0.853
 1864SOL     OW 6490   3.866   5.558   2.884
 1864SOL    HW1 6491   3.810   5.629   2.925
 1864SOL    HW2 6492   3.884   5.486   2.951
 1865SOL     OW 6493   5.249   1.485   6.495
 1865SOL    HW1 6494   5.157   1.505   6.460
 1865SOL    HW2 6495   5.243   1.457   6.590
 1866SOL     OW 6496   0.643   4.857   3.504
 1866SOL    HW1 6497   0.691   4.814   3.580
 1866SOL    HW2 6498   0.695   4.843   3.420
 1867SOL     OW 6499   2.278   2.280   1.324
 1867SOL    HW1 6500   2.310   2.266   1.230
 1867SOL    HW2 6501   2.274   2.378   1.343
 1868SOL     OW 6502   5.693   4.342   5.760
 1868SOL    HW1 6503   5.649   4.432   5.767
 1868SOL    HW2 6504   5.743   4.323   5.844
 1869SOL     OW 6505   5.016   1.619   4.199
 1869SOL    HW1 6506   5.033   1.583   4.291
 1869SOL    HW2 6507   4.918   1.633   4.187
 1870SOL     OW 6508   0.039   5.807   4.596
 1870SOL    HW1 6509   6.973   5.804   4.624
 1870SOL    HW2 6510   0.066   5.902   4.579
 1871SOL     OW 6511   0.571   6.414   0.752
 1871SOL    HW1 6512   0.622   6.328   0.763
 1871SOL    HW2 6513   0.586   6.472   0.832
 1872SOL     OW 6514   2.590   2.848   1.228
 1872SOL    HW1 6515   2.555   2.766   1.273
 1872SOL    HW2 6516   2.609   2.828   1.132
 1873SOL     OW 6517   0.162   1.717   0.403
 1873SOL    HW1 6518   0.199   1.723   0.310
 1873SOL    HW2 6519   0.226   1.759   0.467
 1874SOL     OW 6520   0.763   6.642   0.085
 1874SOL    HW1 6521   0.682   6.671   0.135
 1874SOL    HW2 6522   0.745   6.555   0.040
 1875SOL     OW 6523   6.474   4.810   0.453
 1875SOL    HW1 6524   6.400   4.808   0.519
 1875SOL    HW2 6525   6.514   4.901   0.450
 1876SOL     OW 6526   6.994   6.246   6.956
 1876SOL    HW1 6527   6.986   6.217   6.861
 1876SOL    HW2 6528   6.936   6.187   7.013
 1877SOL     OW 6529   0.391   0.885   2.649
 1877SOL    HW1 6530   0.322   0.814   2.639
 1877SOL    HW2 6531   0.380   0.952   2.575
 1878SOL     OW 6532   6.613   4.244   3.653
 1878SOL    HW1 6533   6.594   4.343   3.654
 1878SOL    HW2 6534   6.690   4.226   3.592
 1879SOL     OW 6535   4.298   5.589   4.710
 1879SOL    HW1 6536   4.339   5.549   4.628
 1879SOL    HW2 6537   4.338   5.679   4.728
 1880SOL     OW 6538   0.742   1.422   4.104
 1880SOL    HW1 6539   0.686   1.432   4.022
 1880SOL    HW2 6540   0.817   1.359   4.086
 1881SOL     OW 6541   1.176   1.403   4.360
 1881SOL    HW1 6542   1.121   1.360   4.432
 1881SOL    HW2 6543   1.263   1.354   4.352
 1882SOL     OW 6544   1.415   5.404   6.611
 1882SOL    HW1 6545   1.424   5.470   6.535
 1882SOL    HW2 6546   1.482   5.331   6.600
 1883SOL     OW 6547   1.523   2.775   2.798
 1883SOL    HW1 6548   1.604   2.785   2.855
 1883SOL    HW2 6549   1.548   2.733   2.711
 1884SOL     OW 6550   3.087   1.042   0.202
 1884SOL    HW1 6551   3.047   0.977   0.138
 1884SOL    HW2 6552   3.036   1.128   0.198
 1885SOL     OW 6553   0.203   2.063   1.254
 1885SOL    HW1 6554   0.168   2.093   1.165
 1885SOL    HW2 6555   0.181   2.131   1.323
 1886SOL     OW 6556   3.319   3.026   6.181
 1886SOL    HW1 6557   3.269   2.940   6.194
 1886SOL    HW2 6558   3.315   3.080   6.265
 1887SOL     OW 6559   0.524   6.567   5.350
 1887SOL    HW1 6560   0.438   6.515   5.351
 1887SOL    HW2 6561   0.505   6.662   5.326
 1888SOL     OW 6562   2.251   2.138   5.933
 1888SOL    HW1 6563   2.191   2.205   5.977
 1888SOL    HW2 6564   2.318   2.187   5.877
 1889SOL     OW 6565   4.103   2.796   0.326
 1889SOL    HW1 6566   4.051   2.876   0.355
 1889SOL    HW2 6567   4.196   2.800   0.365
 1890SOL     OW 6568   6.565   5.145   6.565
 1890SOL    HW1 6569   6.489   5.116   6.622
 1890SOL    HW2 6570   6.640   5.079   6.573
 1891SOL     OW 6571   6.233   3.959   5.386
 1891SOL    HW1 6572   6.176   4.024   5.337
 1891SOL    HW2 6573   6.323   3.999   5.403
 1892SOL     OW 6574   3.960   5.787   1.500
 1892SOL    HW1 6575   3.926   5.722   1.433
 1892SOL    HW2 6576   3.890   5.806   1.568
 1893SOL     OW 6577   3.942   1.898   4.337
 1893SOL    HW1 6578   3.856   1.894   4.287
 1893SOL    HW2 6579   3.967   1.993   4.353
 1894SOL     OW 6580   4.077   4.017   0.849
 1894SOL    HW1 6581   4.117   4.095   0.899
 1894SOL    HW2 6582   4.097   3.933   0.898
 1895SOL     OW 6583   5.366   0.516   3.511
 1895SOL    HW1 6584   5.404   0.513   3.604
 1895SOL    HW2 6585   5.426   0.466   3.449
 1896SOL     OW 6586   6.689   1.226   5.694
 1896SOL    HW1 6587   6.704   1.267   5.784
 1896SOL    HW2 6588   6.593   1.238   5.667
 1897SOL     OW 6589   5.848   4.869   3.533
 1897SOL    HW1 6590   5.893   4.784   3.560
 1897SOL    HW2 6591   5.908   4.947   3.553
 1898SOL     OW 6592   5.982   4.838   0.103
 1898SOL    HW1 6593   6.071   4.792   0.109
 1898SOL    HW2 6594   5.921   4.784   0.046
 1899SOL     OW 6595   1.206   3.296   2.851
 1899SOL    HW1 6596   1.215   3.294   2.951
 1899SOL    HW2 6597   1.241   3.210   2.813
 1900SOL     OW 6598   2.315   5.337   6.299
 1900SOL    HW1 6599   2.285   5.322   6.393
 1900SOL    HW2 6600   2.268   5.417   6.262
 1901SOL     OW 6601   1.318   1.120   6.809
 1901SOL    HW1 6602   1.285   1.170   6.729
 1901SOL    HW2 6603   1.418   1.119   6.810
 1902SOL     OW 6604   0.728   3.181   4.588
 1902SOL    HW1 6605   0.679   3.180   4.676
 1902SOL    HW2 6606   0.823   3.208   4.603
 1903SOL     OW 6607   6.062   2.935   3.881
 1903SOL    HW1 6608   6.064   2.835   3.889
 1903SOL    HW2 6609   6.073   2.961   3.786
 1904SOL     OW 6610   6.594   6.563   3.591
 1904SOL    HW1 6611   6.624   6.477   3.548
 1904SOL    HW2 6612   6.571   6.629   3.521
 1905SOL     OW 6613   6.696   2.823   3.745
 1905SOL    HW1 6614   6.776   2.853   3.798
 1905SOL    HW2 6615   6.623   2.891   3.754
 1906SOL     OW 6616   2.592   0.438   0.225
 1906SOL    HW1 6617   2.691   0.450   0.220
 1906SOL    HW2 6618   2.547   0.528   0.223
 1907SOL     OW 6619   3.870   5.738   3.646
 1907SOL    HW1 6620   3.934   5.804   3.607
 1907SOL    HW2 6621   3.910   5.646   3.642
 1908SOL     OW 6622   4.342   1.469   6.404
 1908SOL    HW1 6623   4.343   1.384   6.457
 1908SOL    HW2 6624   4.295   1.540   6.456
 1909SOL     OW 6625   2.776   5.062   4.497
 1909SOL    HW1 6626   2.847   5.127   4.471
 1909SOL    HW2 6627   2.748   5.080   4.592
 1910SOL     OW 6628   5.215   1.746   5.627
 1910SOL    HW1 6629   5.241   1.701   5.713
 1910SOL    HW2 6630   5.130   1.706   5.593
 1911SOL     OW 6631   6.372   3.243   5.039
 1911SOL    HW1 6632   6.276   3.270   5.041
 1911SOL    HW2 6633   6.384   3.156   5.087
 1912SOL     OW 6634   3.824   0.201   3.243
 1912SOL    HW1 6635   3.768   0.127   3.205
 1912SOL    HW2 6636   3.891   0.230   3.175
 1913SOL     OW 6637   1.619   4.902   5.581
 1913SOL    HW1 6638   1.539   4.910   5.521
 1913SOL    HW2 6639   1.702   4.901   5.525
 1914SOL     OW 6640   3.526   2.046   5.993
 1914SOL    HW1 6641   3.618   2.076   6.019
 1914SOL    HW2 6642   3.525   1.946   5.983
 1915SOL     OW 6643   3.173   0.035   5.632
 1915SOL    HW1 6644   3.167   0.092   5.714
 1915SOL    HW2 6645   3.170   0.093   5.551
 1916SOL     OW 6646   3.523   6.161   1.585
 1916SOL    HW1 6647   3.528   6.146   1.684
 1916SOL    HW2 6648   3.601   6.116   1.541
 1917SOL     OW 6649   2.950   3.489   4.120
 1917SOL    HW1 6650   2.940   3.565   4.056
 1917SOL    HW2 6651   2.958   3.524   4.214
 1918SOL     OW 6652   5.558   6.701   4.523
 1918SOL    HW1 6653   5.570   6.799   4.509
 1918SOL    HW2 6654   5.511   6.662   4.443
 1919SOL     OW 6655   6.488   0.013   1.803
 1919SOL    HW1 6656   6.470   6.947   1.823
 1919SOL    HW2 6657   6.585   0.033   1.814
 1920SOL     OW 6658   6.672   6.085   4.424
 1920SOL    HW1 6659   6.716   6.174   4.409
 1920SOL    HW2 6660   6.574   6.098   4.438
 1921SOL     OW 6661   1.115   6.812   6.735
 1921SOL    HW1 6662   1.095   6.726   6.783
 1921SOL    HW2 6663   1.035   6.872   6.741
 1922SOL     OW 6664   3.837   4.183   0.845
 1922SOL    HW1 6665   3.900   4.258   0.864
 1922SOL    HW2 6666   3.890   4.102   0.818
 1923SOL     OW 6667   1.838   1.713   0.829
 1923SOL    HW1 6668   1.759   1.774   0.820
 1923SOL    HW2 6669   1.884   1.732   0.916
 1924SOL     OW 6670   0.193   4.628   1.610
 1924SOL    HW1 6671   0.198   4.581   1.523
 1924SOL    HW2 6672   0.197   4.561   1.685
 1925SOL     OW 6673   3.114   4.147   1.182
 1925SOL    HW1 6674   3.198   4.159   1.235
 1925SOL    HW2 6675   3.134   4.160   1.085
 1926SOL     OW 6676   1.318   6.851   3.837
 1926SOL    HW1 6677   1.260   6.931   3.823
 1926SOL    HW2 6678   1.412   6.881   3.856
 1927SOL     OW 6679   4.048   3.716   6.762
 1927SOL    HW1 6680   3.965   3.698   6.709
 1927SOL    HW2 6681   4.095   3.630   6.781
 1928SOL     OW 6682   6.141   4.381   5.859
 1928SOL    HW1 6683   6.227   4.404   5.905
 1928SOL    HW2 6684   6.111   4.290   5.888
 1929SOL     OW 6685   1.283   7.016   1.794
 1929SOL    HW1 6686   1.265   0.006   1.890
 1929SOL    HW2 6687   1.254   0.063   1.737
 1930SOL     OW 6688   5.785   3.937   6.126
 1930SOL    HW1 6689   5.754   3.856   6.176
 1930SOL    HW2 6690   5.762   3.927   6.029
 1931SOL     OW 6691   0.704   2.926   4.215
 1931SOL    HW1 6692   0.767   2.970   4.151
 1931SOL    HW2 6693   0.727   2.829   4.224
 1932SOL     OW 6694   5.846   3.790   1.288
 1932SOL    HW1 6695   5.810   3.846   1.213
 1932SOL    HW2 6696   5.791   3.805   1.370
 1933SOL     OW 6697   3.139   4.534   1.126
 1933SOL    HW1 6698   3.049   4.498   1.152
 1933SOL    HW2 6699   3.180   4.475   1.057
 1934SOL     OW 6700   0.907   6.340   5.466
 1934SOL    HW1 6701   0.980   6.316   5.530
 1934SOL    HW2 6702   0.865   6.427   5.494
 1935SOL     OW 6703   2.558   0.675   3.786
 1935SOL    HW1 6704   2.507   0.676   3.872
 1935SOL    HW2 6705   2.532   0.754   3.731
 1936SOL     OW 6706   6.115   5.667   5.364
 1936SOL    HW1 6707   6.129   5.766   5.356
 1936SOL    HW2 6708   6.204   5.622   5.374
 1937SOL     OW 6709   3.807   6.314   1.771
 1937SOL    HW1 6710   3.738   6.261   1.820
 1937SOL    HW2 6711   3.823   6.273   1.681
 1938SOL     OW 6712   4.589   1.013   3.956
 1938SOL    HW1 6713   4.659   0.967   4.011
 1938SOL    HW2 6714   4.503   1.014   4.007
 1939SOL     OW 6715   1.938   1.019   3.536
 1939SOL    HW1 6716   2.033   0.988   3.539
 1939SOL    HW2 6717   1.914   1.045   3.443
 1940SOL     OW 6718   7.019   5.175   0.201
 1940SOL    HW1 6719   0.069   5.150   0.255
 1940SOL    HW2 6720   0.018   5.196   0.107
 1941SOL     OW 6721   5.111   4.046   2.279
 1941SOL    HW1 6722   5.153   3.956   2.270
 1941SOL    HW2 6723   5.161   4.100   2.347
 1942SOL     OW 6724   6.313   5.104   2.453
 1942SOL    HW1 6725   6.391   5.042   2.441
 1942SOL    HW2 6726   6.300   5.157   2.369
 1943SOL     OW 6727   2.625   4.745   3.210
 1943SOL    HW1 6728   2.723   4.764   3.222
 1943SOL    HW2 6729   2.573   4.822   3.248
 1944SOL     OW 6730   6.594   1.051   0.752
 1944SOL    HW1 6731   6.670   1.067   0.816
 1944SOL    HW2 6732   6.549   0.965   0.776
 1945SOL     OW 6733   3.375   4.991   3.649
 1945SOL    HW1 6734   3.331   5.033   3.728
 1945SOL    HW2 6735   3.326   5.015   3.566
 1946SOL     OW 6736   1.291   0.425   0.133
 1946SOL    HW1 6737   1.290   0.352   0.065
 1946SOL    HW2 6738   1.280   0.513   0.087
 1947SOL     OW 6739   5.532   5.570   3.518
 1947SOL    HW1 6740   5.529   5.475   3.548
 1947SOL    HW2 6741   5.536   5.572   3.418
 1948SOL     OW 6742   6.800   5.590   4.588
 1948SOL    HW1 6743   6.791   5.568   4.685
 1948SOL    HW2 6744   6.778   5.686   4.572
 1949SOL     OW 6745   4.035   4.101   6.684
 1949SOL    HW1 6746   4.075   4.130   6.770
 1949SOL    HW2 6747   3.975   4.022   6.699
 1950SOL     OW 6748   3.423   4.000   6.395
 1950SOL    HW1 6749   3.324   4.010   6.384
 1950SOL    HW2 6750   3.452   4.051   6.476
 1951SOL     OW 6751   5.954   1.492   6.574
 1951SOL    HW1 6752   5.976   1.424   6.645
 1951SOL    HW2 6753   5.856   1.512   6.577
 1952SOL     OW 6754   3.974   2.131   0.110
 1952SOL    HW1 6755   4.027   2.178   0.039
 1952SOL    HW2 6756   4.007   2.157   0.200
 1953SOL     OW 6757   0.192   2.480   6.177
 1953SOL    HW1 6758   0.190   2.401   6.239
 1953SOL    HW2 6759   0.171   2.449   6.084
 1954SOL     OW 6760   3.665   2.139   4.107
 1954SOL    HW1 6761   3.758   2.174   4.094
 1954SOL    HW2 6762   3.600   2.204   4.068
 1955SOL     OW 6763   0.237   6.256   2.806
 1955SOL    HW1 6764   0.333   6.272   2.830
 1955SOL    HW2 6765   0.232   6.181   2.740
 1956SOL     OW 6766   5.958   5.563   2.667
 1956SOL    HW1 6767   6.054   5.582   2.689
 1956SOL    HW2 6768   5.927   5.483   2.718
 1957SOL     OW 6769   0.030   6.621   5.291
 1957SOL    HW1 6770   6.968   6.589   5.314
 1957SOL    HW2 6771   0.038   6.718   5.314
 1958SOL     OW 6772   5.406   3.323   5.720
 1958SOL    HW1 6773   5.345   3.246   5.701
 1958SOL    HW2 6774   5.483   3.322   5.657
 1959SOL     OW 6775   1.705   2.017   6.405
 1959SOL    HW1 6776   1.720   1.985   6.312
 1959SOL    HW2 6777   1.721   2.116   6.409
 1960SOL     OW 6778   5.731   5.615   0.645
 1960SOL    HW1 6779   5.740   5.601   0.546
 1960SOL    HW2 6780   5.673   5.542   0.683
 1961SOL     OW 6781   5.967   4.200   3.631
 1961SOL    HW1 6782   5.914   4.131   3.680
 1961SOL    HW2 6783   6.013   4.157   3.552
 1962SOL     OW 6784   1.437   6.059   3.433
 1962SOL    HW1 6785   1.412   5.979   3.488
 1962SOL    HW2 6786   1.534   6.055   3.411
 1963SOL     OW 6787   1.159   0.344   2.757
 1963SOL    HW1 6788   1.247   0.385   2.734
 1963SOL    HW2 6789   1.125   0.384   2.843
 1964SOL     OW 6790   4.875   3.205   2.881
 1964SOL    HW1 6791   4.847   3.116   2.918
 1964SOL    HW2 6792   4.847   3.277   2.944
 1965SOL     OW 6793   0.960   3.659   3.070
 1965SOL    HW1 6794   0.990   3.570   3.106
 1965SOL    HW2 6795   0.934   3.719   3.145
 1966SOL     OW 6796   6.630   5.587   5.291
 1966SOL    HW1 6797   6.615   5.588   5.390
 1966SOL    HW2 6798   6.726   5.571   5.271
 1967SOL     OW 6799   4.547   2.962   5.319
 1967SOL    HW1 6800   4.486   2.884   5.321
 1967SOL    HW2 6801   4.496   3.045   5.341
 1968SOL     OW 6802   2.704   6.217   0.466
 1968SOL    HW1 6803   2.632   6.190   0.402
 1968SOL    HW2 6804   2.782   6.155   0.456
 1969SOL     OW 6805   0.152   2.238   1.429
 1969SOL    HW1 6806   0.201   2.295   1.495
 1969SOL    HW2 6807   0.054   2.252   1.440
 1970SOL     OW 6808   1.647   7.025   4.573
 1970SOL    HW1 6809   1.617   6.946   4.519
 1970SOL    HW2 6810   1.743   7.014   4.598
 1971SOL     OW 6811   0.534   6.788   0.023
 1971SOL    HW1 6812   0.485   6.737   6.983
 1971SOL    HW2 6813   0.546   6.883   7.023
 1972SOL     OW 6814   0.971   4.584   3.866
 1972SOL    HW1 6815   0.994   4.562   3.961
 1972SOL    HW2 6816   0.879   4.624   3.863
 1973SOL     OW 6817   3.357   2.715   1.628
 1973SOL    HW1 6818   3.268   2.670   1.625
 1973SOL    HW2 6819   3.396   2.719   1.536
 1974SOL     OW 6820   5.513   0.609   4.026
 1974SOL    HW1 6821   5.571   0.690   4.036
 1974SOL    HW2 6822   5.428   0.623   4.077
 1975SOL     OW 6823   3.257   0.454   3.768
 1975SOL    HW1 6824   3.351   0.437   3.738
 1975SOL    HW2 6825   3.225   0.377   3.822
 1976SOL     OW 6826   0.367   6.045   0.407
 1976SOL    HW1 6827   0.271   6.024   0.426
 1976SOL    HW2 6828   0.425   5.970   0.440
 1977SOL     OW 6829   1.033   2.371   4.804
 1977SOL    HW1 6830   0.934   2.383   4.799
 1977SOL    HW2 6831   1.078   2.452   4.767
 1978SOL     OW 6832   6.349   2.069   4.564
 1978SOL    HW1 6833   6.309   1.991   4.614
 1978SOL    HW2 6834   6.448   2.056   4.558
 1979SOL     OW 6835   6.479   4.654   3.996
 1979SOL    HW1 6836   6.381   4.671   3.998
 1979SOL    HW2 6837   6.516   4.685   3.908
 1980SOL     OW 6838   3.621   0.383   1.597
 1980SOL    HW1 6839   3.689   0.358   1.666
 1980SOL    HW2 6840   3.656   0.361   1.506
 1981SOL     OW 6841   4.990   2.887   1.927
 1981SOL    HW1 6842   4.994   2.936   1.840
 1981SOL    HW2 6843   4.919   2.928   1.985
 1982SOL     OW 6844   5.657   5.556   4.696
 1982SOL    HW1 6845   5.742   5.607   4.708
 1982SOL    HW2 6846   5.599   5.602   4.628
 1983SOL     OW 6847   1.287   2.940   3.435
 1983SOL    HW1 6848   1.341   3.000   3.494
 1983SOL    HW2 6849   1.213   2.898   3.488
 1984SOL     OW 6850   3.735   1.787   5.787
 1984SOL    HW1 6851   3.659   1.778   5.852
 1984SOL    HW2 6852   3.781   1.698   5.778
 1985SOL     OW 6853   1.088   1.130   1.508
 1985SOL    HW1 6854   1.137   1.077   1.576
 1985SOL    HW2 6855   1.073   1.223   1.542
 1986SOL     OW 6856   1.433   2.078   0.079
 1986SOL    HW1 6857   1.480   2.165   0.058
 1986SOL    HW2 6858   1.501   2.011   0.110
 1987SOL     OW 6859   2.463   3.452   1.250
 1987SOL    HW1 6860   2.411   3.442   1.334
 1987SOL    HW2 6861   2.489   3.361   1.215
 1988SOL     OW 6862   4.653   3.721   6.834
 1988SOL    HW1 6863   4.676   3.691   6.741
 1988SOL    HW2 6864   4.631   3.641   6.890
 1989SOL     OW 6865   2.270   0.449   4.363
 1989SOL    HW1 6866   2.239   0.543   4.380
 1989SOL    HW2 6867   2.214   0.409   4.291
 1990SOL     OW 6868   3.113   0.686   1.120
 1990SOL    HW1 6869   3.177   0.742   1.068
 1990SOL    HW2 6870   3.145   0.677   1.214
 1991SOL     OW 6871   3.613   5.550   4.561
 1991SOL    HW1 6872   3.567   5.611   4.625
 1991SOL    HW2 6873   3.636   5.464   4.607
 1992SOL     OW 6874   2.459   6.750   5.256
 1992SOL    HW1 6875   2.369   6.728   5.218
 1992SOL    HW2 6876   2.449   6.822   5.324
 1993SOL     OW 6877   3.587   3.774   5.447
 1993SOL    HW1 6878   3.567   3.768   5.545
 1993SOL    HW2 6879   3.526   3.842   5.405
 1994SOL     OW 6880   6.777   1.976   1.884
 1994SOL    HW1 6881   6.717   2.041   1.929
 1994SOL    HW2 6882   6.872   2.003   1.899
 1995SOL     OW 6883   6.191   1.931   1.406
 1995SOL    HW1 6884   6.129   1.981   1.466
 1995SOL    HW2 6885   6.148   1.846   1.376
 1996SOL     OW 6886   3.289   4.513   0.167
 1996SOL    HW1 6887   3.327   4.477   0.082
 1996SOL    HW2 6888   3.349   4.487   0.243
 1997SOL     OW 6889   5.119   0.079   4.345
 1997SOL    HW1 6890   5.121   0.173   4.313
 1997SOL    HW2 6891   5.027   0.042   4.334
 1998SOL     OW 6892   2.513   4.094   6.511
 1998SOL    HW1 6893   2.471   4.178   6.477
 1998SOL    HW2 6894   2.511   4.025   6.439
 1999SOL     OW 6895   2.327   6.936   1.905
 1999SOL    HW1 6896   2.426   6.939   1.896
 1999SOL    HW2 6897   2.301   6.908   1.997
 2000SOL     OW 6898   3.960   0.862   4.969
 2000SOL    HW1 6899   3.863   0.875   4.946
 2000SOL    HW2 6900   3.997   0.948   5.005
 2001SOL     OW 6901   2.828   1.208   0.897
 2001SOL    HW1 6902   2.907   1.147   0.885
 2001SOL    HW2 6903   2.775   1.177   0.976
 2002SOL     OW 6904   2.007   5.752   5.986
 2002SOL    HW1 6905   2.022   5.812   6.064
 2002SOL    HW2 6906   2.088   5.694   5.973
 2003SOL     OW 6907   5.870   6.144   3.589
 2003SOL    HW1 6908   5.877   6.045   3.603
 2003SOL    HW2 6909   5.775   6.168   3.570
 2004SOL     OW 6910   3.096   1.012   5.807
 2004SOL    HW1 6911   3.059   0.971   5.724
 2004SOL    HW2 6912   3.188   1.048   5.790
 2005SOL     OW 6913   2.036   5.916   6.237
 2005SOL    HW1 6914   2.010   6.007   6.207
 2005SOL    HW2 6915   2.136   5.912   6.247
 2006SOL     OW 6916   4.274   5.111   4.383
 2006SOL    HW1 6917   4.373   5.115   4.394
 2006SOL    HW2 6918   4.242   5.194   4.337
 2007SOL     OW 6919   5.013   5.756   0.337
 2007SOL    HW1 6920   4.930   5.810   0.344
 2007SOL    HW2 6921   5.086   5.811   0.297
 2008SOL     OW 6922   6.827   6.313   3.089
 2008SOL    HW1 6923   6.757   6.383   3.073
 2008SOL    HW2 6924   6.825   6.286   3.185
 2009SOL     OW 6925   0.163   0.713   2.261
 2009SOL    HW1 6926   0.088   0.765   2.222
 2009SOL    HW2 6927   0.193   0.643   2.197
 2010SOL     OW 6928   0.736   0.372   1.069
 2010SOL    HW1 6929   0.724   0.471   1.054
 2010SOL    HW2 6930   0.732   0.324   0.982
 2011SOL     OW 6931   6.214   1.970   4.790
 2011SOL    HW1 6932   6.247   1.907   4.860
 2011SOL    HW2 6933   6.153   2.038   4.832
 2012SOL     OW 6934   1.100   4.491   1.200
 2012SOL    HW1 6935   1.187   4.445   1.220
 2012SOL    HW2 6936   1.114   4.558   1.127
 2013SOL     OW 6937   5.737   2.391   2.678
 2013SOL    HW1 6938   5.773   2.456   2.611
 2013SOL    HW2 6939   5.810   2.331   2.709
 2014SOL     OW 6940   1.667   5.939   3.798
 2014SOL    HW1 6941   1.645   5.932   3.895
 2014SOL    HW2 6942   1.683   5.848   3.760
 2015SOL     OW 6943   3.476   0.318   6.922
 2015SOL    HW1 6944   3.550   0.263   6.960
 2015SOL    HW2 6945   3.391   0.267   6.926
 2016SOL     OW 6946   0.879   5.645   4.274
 2016SOL    HW1 6947   0.924   5.699   4.203
 2016SOL    HW2 6948   0.946   5.587   4.320
 2017SOL     OW 6949   2.302   5.647   2.987
 2017SOL    HW1 6950   2.244   5.691   3.056
 2017SOL    HW2 6951   2.357   5.576   3.031
 2018SOL     OW 6952   0.114   5.756   5.944
 2018SOL    HW1 6953   0.035   5.765   5.884
 2018SOL    HW2 6954   0.130   5.659   5.964
 2019SOL     OW 6955   6.182   2.447   1.492
 2019SOL    HW1 6956   6.241   2.366   1.484
 2019SOL    HW2 6957   6.170   2.489   1.402
 2020SOL     OW 6958   1.968   4.897   3.732
 2020SOL    HW1 6959   1.897   4.831   3.757
 2020SOL    HW2 6960   2.019   4.864   3.653
 2021SOL     OW 6961   1.786   0.865   2.580
 2021SOL    HW1 6962   1.827   0.805   2.650
 2021SOL    HW2 6963   1.853   0.934   2.553
 2022SOL     OW 6964   2.327   3.687   1.697
 2022SOL    HW1 6965   2.311   3.773   1.744
 2022SOL    HW2 6966   2.305   3.610   1.757
 2023SOL     OW 6967   6.635   1.225   6.570
 2023SOL    HW1 6968   6.644   1.319   6.603
 2023SOL    HW2 6969   6.576   1.173   6.632
 2024SOL     OW 6970   6.086   0.394   3.573
 2024SOL    HW1 6971   6.114   0.488   3.551
 2024SOL    HW2 6972   6.043   0.393   3.663
 2025SOL     OW 6973   0.374   1.810   1.556
 2025SOL    HW1 6974   0.435   1.849   1.625
 2025SOL    HW2 6975   0.310   1.747   1.599
 2026SOL     OW 6976   2.473   2.150   5.519
 2026SOL    HW1 6977   2.399   2.206   5.558
 2026SOL    HW2 6978   2.559   2.200   5.525
 2027SOL     OW 6979   1.451   1.093   2.349
 2027SOL    HW1 6980   1.410   1.026   2.287
 2027SOL    HW2 6981   1.423   1.185   2.321
 2028SOL     OW 6982   3.546   1.983   0.603
 2028SOL    HW1 6983   3.587   1.909   0.550
 2028SOL    HW2 6984   3.507   1.947   0.687
 2029SOL     OW 6985   1.055   1.312   6.416
 2029SOL    HW1 6986   0.969   1.360   6.401
 2029SOL    HW2 6987   1.122   1.341   6.348
 2030SOL     OW 6988   1.840   2.103   3.607
 2030SOL    HW1 6989   1.796   2.054   3.532
 2030SOL    HW2 6990   1.939   2.089   3.604
 2031SOL     OW 6991   5.905   6.439   1.977
 2031SOL    HW1 6992   5.979   6.381   1.945
 2031SOL    HW2 6993   5.943   6.520   2.022
 2032SOL     OW 6994   5.074   5.990   0.040
 2032SOL    HW1 6995   5.062   5.893   0.015
 2032SOL    HW2 6996   5.155   5.999   0.097
 2033SOL     OW 6997   5.360   4.803   6.517
 2033SOL    HW1 6998   5.353   4.887   6.463
 2033SOL    HW2 6999   5.270   4.760   6.524
 2034SOL     OW 7000   2.377   6.510   3.054
 2034SOL    HW1 7001   2.356   6.449   2.978
 2034SOL    HW2 7002   2.474   6.537   3.049
 2035SOL     OW 7003   0.812   1.510   2.370
 2035SOL    HW1 7004   0.763   1.593   2.344
 2035SOL    HW2 7005   0.773   1.473   2.454
 2036SOL     OW 7006   0.369   5.312   0.741
 2036SOL    HW1 7007   0.469   5.322   0.741
 2036SOL    HW2 7008   0.345   5.218   0.717
 2037SOL     OW 7009   6.455   2.475   5.296
 2037SOL    HW1 7010   6.469   2.377   5.305
 2037SOL    HW2 7011   6.507   2.510   5.218
 2038SOL     OW 7012   0.515   1.602   4.721
 2038SOL    HW1 7013   0.504   1.503   4.731
 2038SOL    HW2 7014   0.558   1.640   4.803
 2039SOL     OW 7015   6.571   5.622   3.547
 2039SOL    HW1 7016   6.568   5.720   3.528
 2039SOL    HW2 7017   6.598   5.573   3.464
 2040SOL     OW 7018   3.671   3.239   4.432
 2040SOL    HW1 7019   3.728   3.192   4.365
 2040SOL    HW2 7020   3.656   3.178   4.510
 2041SOL     OW 7021   5.857   4.772   5.808
 2041SOL    HW1 7022   5.794   4.730   5.875
 2041SOL    HW2 7023   5.914   4.700   5.767
 2042SOL     OW 7024   5.141   5.011   0.386
 2042SOL    HW1 7025   5.071   5.074   0.353
 2042SOL    HW2 7026   5.173   5.041   0.476
 2043SOL     OW 7027   5.529   4.782   2.627
 2043SOL    HW1 7028   5.464   4.856   2.647
 2043SOL    HW2 7029   5.616   4.802   2.672
 2044SOL     OW 7030   5.990   0.209   1.903
 2044SOL    HW1 7031   5.927   0.135   1.879
 2044SOL    HW2 7032   6.078   0.193   1.859
 2045SOL     OW 7033   2.278   4.714   6.057
 2045SOL    HW1 7034   2.354   4.708   6.121
 2045SOL    HW2 7035   2.282   4.637   5.994
 2046SOL     OW 7036   6.321   0.797   4.008
 2046SOL    HW1 7037   6.392   0.776   3.940
 2046SOL    HW2 7038   6.341   0.749   4.093
 2047SOL     OW 7039   4.953   2.451   1.273
 2047SOL    HW1 7040   4.871   2.433   1.219
 2047SOL    HW2 7041   4.956   2.548   1.298
 2048SOL     OW 7042   4.043   0.184   6.822
 2048SOL    HW1 7043   4.142   0.170   6.833
 2048SOL    HW2 7044   4.014   0.263   6.876
 2049SOL     OW 7045   4.668   1.158   0.252
 2049SOL    HW1 7046   4.659   1.059   0.265
 2049SOL    HW2 7047   4.579   1.198   0.232
 2050SOL     OW 7048   6.086   2.674   3.859
 2050SOL    HW1 7049   6.185   2.679   3.848
 2050SOL    HW2 7050   6.042   2.673   3.769
 2051SOL     OW 7051   1.112   6.052   0.017
 2051SOL    HW1 7052   1.190   6.032   6.988
 2051SOL    HW2 7053   1.061   6.130   7.009
 2052SOL     OW 7054   1.127   3.000   6.615
 2052SOL    HW1 7055   1.145   3.082   6.669
 2052SOL    HW2 7056   1.036   2.965   6.637
 2053SOL     OW 7057   6.251   0.856   7.028
 2053SOL    HW1 7058   6.160   0.896   7.027
 2053SOL    HW2 7059   6.248   0.768   0.046
 2054SOL     OW 7060   6.247   2.553   0.712
 2054SOL    HW1 7061   6.319   2.524   0.649
 2054SOL    HW2 7062   6.283   2.624   0.773
 2055SOL     OW 7063   5.336   2.409   3.412
 2055SOL    HW1 7064   5.320   2.480   3.481
 2055SOL    HW2 7065   5.432   2.409   3.385
 2056SOL     OW 7066   2.150   1.178   3.138
 2056SOL    HW1 7067   2.180   1.098   3.085
 2056SOL    HW2 7068   2.144   1.257   3.077
 2057SOL     OW 7069   6.099   2.507   4.068
 2057SOL    HW1 7070   6.103   2.568   3.989
 2057SOL    HW2 7071   6.190   2.470   4.086
 2058SOL     OW 7072   0.421   1.877   2.967
 2058SOL    HW1 7073   0.431   1.901   2.870
 2058SOL    HW2 7074   0.503   1.906   3.017
 2059SOL     OW 7075   2.037   1.142   6.661
 2059SOL    HW1 7076   2.064   1.198   6.739
 2059SOL    HW2 7077   2.118   1.114   6.610
 2060SOL     OW 7078   0.086   4.729   2.045
 2060SOL    HW1 7079   0.062   4.654   2.105
 2060SOL    HW2 7080   0.003   4.778   2.018
 2061SOL     OW 7081   0.009   1.449   2.586
 2061SOL    HW1 7082   0.102   1.433   2.618
 2061SOL    HW2 7083   7.023   1.547   2.574
 2062SOL     OW 7084   4.332   6.912   2.282
 2062SOL    HW1 7085   4.354   6.827   2.329
 2062SOL    HW2 7086   4.341   6.988   2.347
 2063SOL     OW 7087   1.746   2.709   6.239
 2063SOL    HW1 7088   1.797   2.793   6.257
 2063SOL    HW2 7089   1.764   2.643   6.313
 2064SOL     OW 7090   0.847   2.387   5.551
 2064SOL    HW1 7091   0.790   2.350   5.477
 2064SOL    HW2 7092   0.792   2.394   5.634
 2065SOL     OW 7093   6.317   3.226   2.309
 2065SOL    HW1 7094   6.374   3.264   2.236
 2065SOL    HW2 7095   6.254   3.158   2.271
 2066SOL     OW 7096   0.062   6.782   4.980
 2066SOL    HW1 7097   7.023   6.725   5.025
 2066SOL    HW2 7098   0.097   6.735   4.899
 2067SOL     OW 7099   6.520   6.763   0.735
 2067SOL    HW1 7100   6.492   6.858   0.752
 2067SOL    HW2 7101   6.559   6.724   0.818
 2068SOL     OW 7102   2.036   1.535   5.305
 2068SOL    HW1 7103   2.077   1.623   5.277
 2068SOL    HW2 7104   1.960   1.552   5.367
 2069SOL     OW 7105   0.725   2.948   2.340
 2069SOL    HW1 7106   0.748   2.930   2.245
 2069SOL    HW2 7107   0.803   2.989   2.386
 2070SOL     OW 7108   1.593   0.710   2.471
 2070SOL    HW1 7109   1.541   0.701   2.556
 2070SOL    HW2 7110   1.682   0.753   2.490
 2071SOL     OW 7111   0.376   6.789   4.019
 2071SOL    HW1 7112   0.402   6.809   3.925
 2071SOL    HW2 7113   0.297   6.727   4.018
 2072SOL     OW 7114   4.807   6.061   1.773
 2072SOL    HW1 7115   4.722   6.113   1.763
 2072SOL    HW2 7116   4.884   6.119   1.748
 2073SOL     OW 7117   3.751   6.702   5.030
 2073SOL    HW1 7118   3.761   6.609   4.994
 2073SOL    HW2 7119   3.812   6.714   5.108
 2074SOL     OW 7120   6.819   1.558   0.748
 2074SOL    HW1 7121   6.875   1.604   0.681
 2074SOL    HW2 7122   6.834   1.599   0.838
 2075SOL     OW 7123   3.987   3.127   0.966
 2075SOL    HW1 7124   3.963   3.045   0.913
 2075SOL    HW2 7125   4.021   3.197   0.904
 2076SOL     OW 7126   5.257   5.860   0.282
 2076SOL    HW1 7127   5.332   5.798   0.305
 2076SOL    HW2 7128   5.282   5.953   0.310
 2077SOL     OW 7129   5.715   1.627   2.406
 2077SOL    HW1 7130   5.650   1.574   2.460
 2077SOL    HW2 7131   5.808   1.610   2.439
 2078SOL     OW 7132   2.823   5.504   6.505
 2078SOL    HW1 7133   2.770   5.564   6.445
 2078SOL    HW2 7134   2.911   5.484   6.463
 2079SOL     OW 7135   5.825   0.611   3.782
 2079SOL    HW1 7136   5.813   0.627   3.684
 2079SOL    HW2 7137   5.879   0.527   3.796
 2080SOL     OW 7138   2.520   2.128   5.005
 2080SOL    HW1 7139   2.518   2.226   5.024
 2080SOL    HW2 7140   2.597   2.086   5.054
 2081SOL     OW 7141   1.156   6.550   5.141
 2081SOL    HW1 7142   1.073   6.533   5.088
 2081SOL    HW2 7143   1.133   6.596   5.226
 2082SOL     OW 7144   5.394   0.592   1.256
 2082SOL    HW1 7145   5.393   0.528   1.179
 2082SOL    HW2 7146   5.309   0.646   1.254
 2083SOL     OW 7147   3.591   5.560   6.875
 2083SOL    HW1 7148   3.612   5.589   6.781
 2083SOL    HW2 7149   3.499   5.523   6.878
 2084SOL     OW 7150   0.078   2.271   3.294
 2084SOL    HW1 7151   0.136   2.333   3.240
 2084SOL    HW2 7152   0.024   2.214   3.232
 2085SOL     OW 7153   4.555   1.012   6.238
 2085SOL    HW1 7154   4.651   1.033   6.254
 2085SOL    HW2 7155   4.521   1.066   6.161
 2086SOL     OW 7156   3.514   4.701   0.314
 2086SOL    HW1 7157   3.495   4.711   0.216
 2086SOL    HW2 7158   3.518   4.604   0.337
 2087SOL     OW 7159   5.524   6.503   2.807
 2087SOL    HW1 7160   5.575   6.450   2.875
 2087SOL    HW2 7161   5.483   6.441   2.740
 2088SOL     OW 7162   3.361   6.765   1.265
 2088SOL    HW1 7163   3.410   6.775   1.178
 2088SOL    HW2 7164   3.404   6.823   1.334
 2089SOL     OW 7165   4.783   1.515   0.335
 2089SOL    HW1 7166   4.718   1.480   0.402
 2089SOL    HW2 7167   4.852   1.570   0.380
 2090SOL     OW 7168   3.912   3.972   4.435
 2090SOL    HW1 7169   3.883   3.976   4.531
 2090SOL    HW2 7170   3.992   3.912   4.427
 2091SOL     OW 7171   0.275   5.807   0.779
 2091SOL    HW1 7172   0.347   5.804   0.710
 2091SOL    HW2 7173   0.300   5.872   0.851
 2092SOL     OW 7174   5.962   6.175   0.961
 2092SOL    HW1 7175   6.029   6.190   1.035
 2092SOL    HW2 7176   5.903   6.255   0.954
 2093SOL     OW 7177   1.043   2.822   2.226
 2093SOL    HW1 7178   1.130   2.811   2.274
 2093SOL    HW2 7179   1.018   2.919   2.225
 2094SOL     OW 7180   5.981   0.431   2.027
 2094SOL    HW1 7181   5.967   0.345   1.978
 2094SOL    HW2 7182   5.931   0.504   1.981
 2095SOL     OW 7183   5.547   6.127   4.025
 2095SOL    HW1 7184   5.510   6.148   4.116
 2095SOL    HW2 7185   5.647   6.129   4.028
 2096SOL     OW 7186   4.764   4.119   2.439
 2096SOL    HW1 7187   4.667   4.096   2.435
 2096SOL    HW2 7188   4.817   4.036   2.457
 2097SOL     OW 7189   1.042   2.766   6.849
 2097SOL    HW1 7190   0.963   2.802   6.899
 2097SOL    HW2 7191   1.123   2.819   6.874
 2098SOL     OW 7192   4.212   6.167   3.772
 2098SOL    HW1 7193   4.245   6.097   3.708
 2098SOL    HW2 7194   4.270   6.248   3.766
 2099SOL     OW 7195   3.024   1.122   4.767
 2099SOL    HW1 7196   3.053   1.083   4.680
 2099SOL    HW2 7197   3.079   1.203   4.786
 2100SOL     OW 7198   4.283   3.919   6.743
 2100SOL    HW1 7199   4.209   3.862   6.707
 2100SOL    HW2 7200   4.290   4.003   6.688
 2101SOL     OW 7201   0.581   0.235   3.167
 2101SOL    HW1 7202   0.550   0.257   3.260
 2101SOL    HW2 7203   0.659   0.173   3.172
 2102SOL     OW 7204   0.265   5.440   2.866
 2102SOL    HW1 7205   0.260   5.448   2.766
 2102SOL    HW2 7206   0.353   5.477   2.897
 2103SOL     OW 7207   3.494   3.473   6.795
 2103SOL    HW1 7208   3.445   3.544   6.846
 2103SOL    HW2 7209   3.429   3.404   6.764
 2104SOL     OW 7210   1.532   3.273   5.884
 2104SOL    HW1 7211   1.623   3.260   5.924
 2104SOL    HW2 7212   1.496   3.184   5.854
 2105SOL     OW 7213   5.529   5.337   2.794
 2105SOL    HW1 7214   5.573   5.337   2.704
 2105SOL    HW2 7215   5.430   5.347   2.783
 2106SOL     OW 7216   4.648   5.168   6.729
 2106SOL    HW1 7217   4.668   5.264   6.714
 2106SOL    HW2 7218   4.577   5.158   6.800
 2107SOL     OW 7219   3.994   4.216   5.651
 2107SOL    HW1 7220   3.911   4.176   5.691
 2107SOL    HW2 7221   4.073   4.191   5.707
 2108SOL     OW 7222   6.224   5.378   5.447
 2108SOL    HW1 7223   6.175   5.409   5.366
 2108SOL    HW2 7224   6.189   5.288   5.474
 2109SOL     OW 7225   5.477   5.841   3.006
 2109SOL    HW1 7226   5.526   5.914   2.958
 2109SOL    HW2 7227   5.446   5.772   2.940
 2110SOL     OW 7228   2.906   4.740   6.472
 2110SOL    HW1 7229   2.976   4.767   6.406
 2110SOL    HW2 7230   2.818   4.780   6.445
 2111SOL     OW 7231   0.725   2.699   6.474
 2111SOL    HW1 7232   0.637   2.663   6.507
 2111SOL    HW2 7233   0.799   2.643   6.509
 2112SOL     OW 7234   4.115   2.913   1.725
 2112SOL    HW1 7235   4.050   2.929   1.799
 2112SOL    HW2 7236   4.159   3.000   1.700
 2113SOL     OW 7237   2.053   0.144   2.694
 2113SOL    HW1 7238   2.000   0.076   2.745
 2113SOL    HW2 7239   2.125   0.181   2.753
 2114SOL     OW 7240   1.407   4.250   0.644
 2114SOL    HW1 7241   1.318   4.254   0.598
 2114SOL    HW2 7242   1.438   4.343   0.664
 2115SOL     OW 7243   2.410   4.355   3.021
 2115SOL    HW1 7244   2.360   4.268   3.016
 2115SOL    HW2 7245   2.417   4.394   2.929
 2116SOL     OW 7246   6.787   3.768   2.909
 2116SOL    HW1 7247   6.814   3.864   2.897
 2116SOL    HW2 7248   6.868   3.711   2.914
 2117SOL     OW 7249   6.957   4.529   1.753
 2117SOL    HW1 7250   6.897   4.608   1.757
 2117SOL    HW2 7251   6.963   4.496   1.658
 2118SOL     OW 7252   0.066   3.408   2.569
 2118SOL    HW1 7253   7.006   3.406   2.613
 2118SOL    HW2 7254   0.063   3.469   2.490
 2119SOL     OW 7255   1.842   5.787   1.014
 2119SOL    HW1 7256   1.901   5.710   1.039
 2119SOL    HW2 7257   1.857   5.810   0.918
 2120SOL     OW 7258   6.273   4.424   2.609
 2120SOL    HW1 7259   6.229   4.507   2.642
 2120SOL    HW2 7260   6.358   4.408   2.660
 2121SOL     OW 7261   0.479   5.810   5.167
 2121SOL    HW1 7262   0.524   5.730   5.128
 2121SOL    HW2 7263   0.528   5.837   5.250
 2122SOL     OW 7264   5.569   4.214   5.561
 2122SOL    HW1 7265   5.604   4.270   5.637
 2122SOL    HW2 7266   5.549   4.273   5.483
 2123SOL     OW 7267   6.802   4.680   2.640
 2123SOL    HW1 7268   6.803   4.634   2.729
 2123SOL    HW2 7269   6.862   4.760   2.644
 2124SOL     OW 7270   1.814   1.265   1.402
 2124SOL    HW1 7271   1.739   1.324   1.370
 2124SOL    HW2 7272   1.838   1.290   1.495
 2125SOL     OW 7273   2.023   1.179   0.022
 2125SOL    HW1 7274   2.112   1.224   0.035
 2125SOL    HW2 7275   2.028   1.085   0.057
 2126SOL     OW 7276   2.591   1.191   6.861
 2126SOL    HW1 7277   2.687   1.187   6.831
 2126SOL    HW2 7278   2.586   1.240   6.948
 2127SOL     OW 7279   5.946   2.924   4.295
 2127SOL    HW1 7280   5.900   2.953   4.379
 2127SOL    HW2 7281   5.974   2.829   4.303
 2128SOL     OW 7282   0.834   4.582   4.891
 2128SOL    HW1 7283   0.878   4.496   4.920
 2128SOL    HW2 7284   0.777   4.616   4.966
 2129SOL     OW 7285   4.679   2.793   5.680
 2129SOL    HW1 7286   4.589   2.758   5.655
 2129SOL    HW2 7287   4.736   2.801   5.597
 2130SOL     OW 7288   5.281   6.841   2.486
 2130SOL    HW1 7289   5.183   6.844   2.505
 2130SOL    HW2 7290   5.324   6.925   2.519
 2131SOL     OW 7291   7.005   1.181   0.564
 2131SOL    HW1 7292   0.026   1.236   0.498
 2131SOL    HW2 7293   0.020   1.093   0.576
 2132SOL     OW 7294   2.822   3.025   1.184
 2132SOL    HW1 7295   2.793   2.940   1.141
 2132SOL    HW2 7296   2.823   3.014   1.283
 2133SOL     OW 7297   2.694   2.549   6.078
 2133SOL    HW1 7298   2.633   2.522   6.004
 2133SOL    HW2 7299   2.651   2.531   6.166
 2134SOL     OW 7300   6.659   1.625   1.141
 2134SOL    HW1 7301   6.610   1.586   1.219
 2134SOL    HW2 7302   6.714   1.703   1.173
 2135SOL     OW 7303   1.155   4.059   4.525
 2135SOL    HW1 7304   1.116   3.982   4.474
 2135SOL    HW2 7305   1.181   4.132   4.462
 2136SOL     OW 7306   2.315   5.497   1.481
 2136SOL    HW1 7307   2.256   5.428   1.439
 2136SOL    HW2 7308   2.411   5.468   1.471
 2137SOL     OW 7309   3.415   5.838   5.047
 2137SOL    HW1 7310   3.344   5.769   5.036
 2137SOL    HW2 7311   3.502   5.802   5.013
 2138SOL     OW 7312   6.323   1.192   2.893
 2138SOL    HW1 7313   6.294   1.101   2.863
 2138SOL    HW2 7314   6.320   1.255   2.815
 2139SOL     OW 7315   3.274   0.963   5.451
 2139SOL    HW1 7316   3.206   1.028   5.485
 2139SOL    HW2 7317   3.288   0.977   5.353
 2140SOL     OW 7318   3.016   0.999   5.036
 2140SOL    HW1 7319   2.959   1.023   5.114
 2140SOL    HW2 7320   2.985   1.050   4.955
 2141SOL     OW 7321   6.245   4.475   2.297
 2141SOL    HW1 7322   6.259   4.466   2.395
 2141SOL    HW2 7323   6.278   4.392   2.251
 2142SOL     OW 7324   1.586   3.043   3.952
 2142SOL    HW1 7325   1.609   3.140   3.953
 2142SOL    HW2 7326   1.653   2.993   3.897
 2143SOL     OW 7327   2.661   5.438   1.109
 2143SOL    HW1 7328   2.704   5.368   1.052
 2143SOL    HW2 7329   2.712   5.524   1.101
 2144SOL     OW 7330   0.052   5.530   4.788
 2144SOL    HW1 7331   0.044   5.601   4.858
 2144SOL    HW2 7332   0.096   5.568   4.706
 2145SOL     OW 7333   3.893   6.563   4.265
 2145SOL    HW1 7334   3.986   6.540   4.294
 2145SOL    HW2 7335   3.869   6.508   4.185
 2146SOL     OW 7336   2.227   2.818   1.184
 2146SOL    HW1 7337   2.183   2.906   1.168
 2146SOL    HW2 7338   2.242   2.805   1.282
 2147SOL     OW 7339   6.450   1.769   5.339
 2147SOL    HW1 7340   6.405   1.729   5.419
 2147SOL    HW2 7341   6.383   1.785   5.267
 2148SOL     OW 7342   6.995   2.809   6.411
 2148SOL    HW1 7343   7.011   2.837   6.316
 2148SOL    HW2 7344   6.985   2.710   6.416
 2149SOL     OW 7345   0.819   0.776   0.777
 2149SOL    HW1 7346   0.755   0.754   0.704
 2149SOL    HW2 7347   0.842   0.873   0.774
 2150SOL     OW 7348   2.402   2.780   1.856
 2150SOL    HW1 7349   2.332   2.849   1.872
 2150SOL    HW2 7350   2.369   2.691   1.887
 2151SOL     OW 7351   1.064   6.555   0.110
 2151SOL    HW1 7352   1.123   6.506   0.174
 2151SOL    HW2 7353   1.002   6.615   0.161
 2152SOL     OW 7354   4.107   5.624   2.444
 2152SOL    HW1 7355   4.054   5.681   2.380
 2152SOL    HW2 7356   4.201   5.615   2.411
 2153SOL     OW 7357   4.389   0.619   2.688
 2153SOL    HW1 7358   4.456   0.689   2.714
 2153SOL    HW2 7359   4.394   0.603   2.589
 2154SOL     OW 7360   3.415   6.367   3.593
 2154SOL    HW1 7361   3.498   6.334   3.548
 2154SOL    HW2 7362   3.336   6.346   3.536
 2155SOL     OW 7363   3.963   6.875   1.169
 2155SOL    HW1 7364   4.017   6.957   1.153
 2155SOL    HW2 7365   3.986   6.806   1.101
 2156SOL     OW 7366   6.145   1.440   3.511
 2156SOL    HW1 7367   6.160   1.345   3.483
 2156SOL    HW2 7368   6.218   1.498   3.475
 2157SOL     OW 7369   4.269   5.154   3.704
 2157SOL    HW1 7370   4.328   5.094   3.758
 2157SOL    HW2 7371   4.175   5.148   3.737
 2158SOL     OW 7372   3.869   0.398   0.590
 2158SOL    HW1 7373   3.807   0.373   0.516
 2158SOL    HW2 7374   3.943   0.454   0.555
 2159SOL     OW 7375   1.275   0.421   5.671
 2159SOL    HW1 7376   1.353   0.480   5.649
 2159SOL    HW2 7377   1.309   0.332   5.703
 2160SOL     OW 7378   5.176   5.744   6.956
 2160SOL    HW1 7379   5.204   5.682   7.029
 2160SOL    HW2 7380   5.096   5.706   6.909
 2161SOL     OW 7381   0.826   3.774   2.279
 2161SOL    HW1 7382   0.913   3.739   2.243
 2161SOL    HW2 7383   0.830   3.777   2.379
 2162SOL     OW 7384   2.605   6.909   3.219
 2162SOL    HW1 7385   2.599   6.980   3.149
 2162SOL    HW2 7386   2.680   6.930   3.281
 2163SOL     OW 7387   1.768   3.453   0.285
 2163SOL    HW1 7388   1.710   3.533   0.271
 2163SOL    HW2 7389   1.847   3.479   0.340
 2164SOL     OW 7390   1.993   2.678   1.178
 2164SOL    HW1 7391   2.088   2.709   1.173
 2164SOL    HW2 7392   1.984   2.591   1.130
 2165SOL     OW 7393   0.199   1.934   3.558
 2165SOL    HW1 7394   0.116   1.936   3.502
 2165SOL    HW2 7395   0.251   1.851   3.537
 2166SOL     OW 7396   0.637   4.030   4.032
 2166SOL    HW1 7397   0.580   3.970   4.088
 2166SOL    HW2 7398   0.707   3.975   3.985
 2167SOL     OW 7399   1.537   3.024   4.222
 2167SOL    HW1 7400   1.623   2.990   4.260
 2167SOL    HW2 7401   1.544   3.031   4.123
 2168SOL     OW 7402   1.293   1.895   3.081
 2168SOL    HW1 7403   1.320   1.800   3.066
 2168SOL    HW2 7404   1.194   1.904   3.071
 2169SOL     OW 7405   0.191   0.726   1.491
 2169SOL    HW1 7406   0.274   0.713   1.546
 2169SOL    HW2 7407   0.151   0.637   1.470
 2170SOL     OW 7408   1.282   4.331   5.055
 2170SOL    HW1 7409   1.276   4.249   5.113
 2170SOL    HW2 7410   1.336   4.309   4.973
 2171SOL     OW 7411   0.290   5.437   1.412
 2171SOL    HW1 7412   0.355   5.499   1.455
 2171SOL    HW2 7413   0.308   5.431   1.314
 2172SOL     OW 7414   0.061   1.870   5.168
 2172SOL    HW1 7415   0.029   1.890   5.260
 2172SOL    HW2 7416   0.122   1.791   5.170
 2173SOL     OW 7417   5.718   0.482   5.500
 2173SOL    HW1 7418   5.694   0.487   5.596
 2173SOL    HW2 7419   5.745   0.573   5.468
 2174SOL     OW 7420   0.288   6.005   5.213
 2174SOL    HW1 7421   0.347   5.924   5.203
 2174SOL    HW2 7422   0.200   5.989   5.169
 2175SOL     OW 7423   2.611   2.879   5.518
 2175SOL    HW1 7424   2.697   2.930   5.506
 2175SOL    HW2 7425   2.537   2.928   5.472
 2176SOL     OW 7426   5.226   2.694   1.260
 2176SOL    HW1 7427   5.284   2.635   1.316
 2176SOL    HW2 7428   5.130   2.680   1.285
 2177SOL     OW 7429   0.032   0.874   3.101
 2177SOL    HW1 7430   0.004   0.820   3.180
 2177SOL    HW2 7431   7.001   0.953   3.091
 2178SOL     OW 7432   1.179   1.243   2.153
 2178SOL    HW1 7433   1.244   1.297   2.207
 2178SOL    HW2 7434   1.149   1.164   2.205
 2179SOL     OW 7435   1.931   4.605   6.650
 2179SOL    HW1 7436   1.882   4.662   6.716
 2179SOL    HW2 7437   2.024   4.589   6.682
 2180SOL     OW 7438   1.440   4.518   2.004
 2180SOL    HW1 7439   1.451   4.615   2.028
 2180SOL    HW2 7440   1.371   4.509   1.933
 2181SOL     OW 7441   4.981   4.488   4.689
 2181SOL    HW1 7442   5.059   4.452   4.638
 2181SOL    HW2 7443   5.014   4.542   4.766
 2182SOL     OW 7444   0.893   4.463   3.478
 2182SOL    HW1 7445   0.970   4.519   3.509
 2182SOL    HW2 7446   0.916   4.366   3.489
 2183SOL     OW 7447   3.725   3.778   6.919
 2183SOL    HW1 7448   3.809   3.823   6.950
 2183SOL    HW2 7449   3.654   3.790   6.988
 2184SOL     OW 7450   6.220   0.339   0.323
 2184SOL    HW1 7451   6.296   0.357   0.261
 2184SOL    HW2 7452   6.159   0.271   0.282
 2185SOL     OW 7453   0.633   1.438   6.697
 2185SOL    HW1 7454   0.707   1.374   6.716
 2185SOL    HW2 7455   0.663   1.531   6.718
 2186SOL     OW 7456   6.360   4.759   5.008
 2186SOL    HW1 7457   6.450   4.774   5.048
 2186SOL    HW2 7458   6.321   4.847   4.980
 2187SOL     OW 7459   0.578   5.188   2.757
 2187SOL    HW1 7460   0.607   5.257   2.825
 2187SOL    HW2 7461   0.484   5.160   2.777
 2188SOL     OW 7462   2.050   6.142   6.965
 2188SOL    HW1 7463   2.114   6.122   0.010
 2188SOL    HW2 7464   2.100   6.174   6.885
 2189SOL     OW 7465   2.352   1.153   1.892
 2189SOL    HW1 7466   2.349   1.170   1.793
 2189SOL    HW2 7467   2.283   1.209   1.937
 2190SOL     OW 7468   6.641   3.886   2.613
 2190SOL    HW1 7469   6.637   3.793   2.650
 2190SOL    HW2 7470   6.576   3.895   2.538
 2191SOL     OW 7471   1.764   1.320   5.247
 2191SOL    HW1 7472   1.773   1.388   5.321
 2191SOL    HW2 7473   1.847   1.265   5.243
 2192SOL     OW 7474   5.177   0.428   2.359
 2192SOL    HW1 7475   5.176   0.522   2.324
 2192SOL    HW2 7476   5.085   0.403   2.388
 2193SOL     OW 7477   6.128   6.784   6.491
 2193SOL    HW1 7478   6.089   6.693   6.501
 2193SOL    HW2 7479   6.204   6.794   6.556
 2194SOL     OW 7480   0.640   4.338   5.386
 2194SOL    HW1 7481   0.723   4.336   5.330
 2194SOL    HW2 7482   0.622   4.246   5.421
 2195SOL     OW 7483   0.500   5.274   6.240
 2195SOL    HW1 7484   0.456   5.186   6.257
 2195SOL    HW2 7485   0.499   5.294   6.142
 2196SOL     OW 7486   2.729   6.737   5.371
 2196SOL    HW1 7487   2.693   6.661   5.317
 2196SOL    HW2 7488   2.676   6.820   5.352
 2197SOL     OW 7489   2.837   3.114   6.152
 2197SOL    HW1 7490   2.874   3.073   6.236
 2197SOL    HW2 7491   2.904   3.179   6.116
 2198SOL     OW 7492   0.255   6.897   6.966
 2198SOL    HW1 7493   0.226   6.918   0.030
 2198SOL    HW2 7494   0.331   6.958   6.941
 2199SOL     OW 7495   5.128   6.717   4.337
 2199SOL    HW1 7496   5.153   6.793   4.277
 2199SOL    HW2 7497   5.155   6.739   4.431
 2200SOL     OW 7498   3.496   1.074   3.831
 2200SOL    HW1 7499   3.408   1.066   3.878
 2200SOL    HW2 7500   3.506   1.000   3.766
 2201SOL     OW 7501   6.551   2.652   3.258
 2201SOL    HW1 7502   6.476   2.625   3.198
 2201SOL    HW2 7503   6.565   2.581   3.328
 2202SOL     OW 7504   3.427   5.386   3.059
 2202SOL    HW1 7505   3.353   5.320   3.046
 2202SOL    HW2 7506   3.409   5.468   3.004
 2203SOL     OW 7507   2.631   4.304   1.211
 2203SOL    HW1 7508   2.721   4.267   1.188
 2203SOL    HW2 7509   2.587   4.245   1.278
 2204SOL     OW 7510   3.988   2.800   1.200
 2204SOL    HW1 7511   3.987   2.837   1.292
 2204SOL    HW2 7512   4.077   2.819   1.157
 2205SOL     OW 7513   1.651   6.809   0.893
 2205SOL    HW1 7514   1.594   6.731   0.866
 2205SOL    HW2 7515   1.731   6.814   0.833
 2206SOL     OW 7516   2.748   3.790   6.205
 2206SOL    HW1 7517   2.741   3.777   6.304
 2206SOL    HW2 7518   2.844   3.787   6.178
 2207SOL     OW 7519   3.772   5.876   0.706
 2207SOL    HW1 7520   3.813   5.966   0.691
 2207SOL    HW2 7521   3.778   5.853   0.803
 2208SOL     OW 7522   1.091   5.813   3.412
 2208SOL    HW1 7523   1.022   5.749   3.446
 2208SOL    HW2 7524   1.145   5.847   3.489
 2209SOL     OW 7525   2.817   5.512   4.792
 2209SOL    HW1 7526   2.723   5.491   4.819
 2209SOL    HW2 7527   2.817   5.556   4.702
 2210SOL     OW 7528   6.211   5.920   2.121
 2210SOL    HW1 7529   6.297   5.875   2.140
 2210SOL    HW2 7530   6.158   5.866   2.056
 2211SOL     OW 7531   6.065   0.803   0.784
 2211SOL    HW1 7532   6.101   0.863   0.713
 2211SOL    HW2 7533   5.972   0.831   0.809
 2212SOL     OW 7534   1.776   6.026   6.926
 2212SOL    HW1 7535   1.731   6.111   6.895
 2212SOL    HW2 7536   1.874   6.040   6.930
 2213SOL     OW 7537   4.602   2.592   4.576
 2213SOL    HW1 7538   4.539   2.587   4.654
 2213SOL    HW2 7539   4.696   2.593   4.610
 2214SOL     OW 7540   4.084   2.894   5.692
 2214SOL    HW1 7541   4.082   2.823   5.621
 2214SOL    HW2 7542   4.078   2.984   5.648
 2215SOL     OW 7543   5.493   1.768   6.162
 2215SOL    HW1 7544   5.559   1.839   6.187
 2215SOL    HW2 7545   5.475   1.710   6.242
 2216SOL     OW 7546   0.236   6.251   5.970
 2216SOL    HW1 7547   0.165   6.211   5.913
 2216SOL    HW2 7548   0.301   6.300   5.911
 2217SOL     OW 7549   4.714   0.571   3.813
 2217SOL    HW1 7550   4.778   0.526   3.750
 2217SOL    HW2 7551   4.649   0.503   3.848
 2218SOL     OW 7552   0.245   5.586   6.831
 2218SOL    HW1 7553   0.287   5.676   6.843
 2218SOL    HW2 7554   0.287   5.521   6.894
 2219SOL     OW 7555   6.026   1.775   1.153
 2219SOL    HW1 7556   6.024   1.708   1.078
 2219SOL    HW2 7557   6.024   1.868   1.115
 2220SOL     OW 7558   2.054   6.229   5.385
 2220SOL    HW1 7559   2.051   6.195   5.479
 2220SOL    HW2 7560   2.069   6.153   5.322
 2221SOL     OW 7561   6.431   1.665   4.623
 2221SOL    HW1 7562   6.394   1.654   4.530
 2221SOL    HW2 7563   6.417   1.581   4.674
 2222SOL     OW 7564   6.389   0.123   0.991
 2222SOL    HW1 7565   6.336   0.200   1.025
 2222SOL    HW2 7566   6.485   0.150   0.981
 2223SOL     OW 7567   6.663   0.875   5.787
 2223SOL    HW1 7568   6.667   0.930   5.704
 2223SOL    HW2 7569   6.589   0.808   5.779
 2224SOL     OW 7570   5.966   3.598   2.113
 2224SOL    HW1 7571   5.950   3.577   2.016
 2224SOL    HW2 7572   6.059   3.634   2.124
 2225SOL     OW 7573   7.018   6.514   3.452
 2225SOL    HW1 7574   6.964   6.519   3.368
 2225SOL    HW2 7575   6.971   6.562   3.526
 2226SOL     OW 7576   3.510   5.513   0.649
 2226SOL    HW1 7577   3.431   5.573   0.655
 2226SOL    HW2 7578   3.480   5.418   0.654
 2227SOL     OW 7579   4.247   2.950   1.390
 2227SOL    HW1 7580   4.241   2.854   1.363
 2227SOL    HW2 7581   4.339   2.970   1.422
 2228SOL     OW 7582   4.683   5.176   0.262
 2228SOL    HW1 7583   4.673   5.217   0.172
 2228SOL    HW2 7584   4.599   5.129   0.288
 2229SOL     OW 7585   3.465   3.550   4.754
 2229SOL    HW1 7586   3.546   3.551   4.812
 2229SOL    HW2 7587   3.488   3.508   4.666
 2230SOL     OW 7588   5.263   6.136   1.342
 2230SOL    HW1 7589   5.259   6.074   1.264
 2230SOL    HW2 7590   5.171   6.157   1.374
 2231SOL     OW 7591   0.789   1.285   6.182
 2231SOL    HW1 7592   0.761   1.210   6.242
 2231SOL    HW2 7593   0.813   1.365   6.237
 2232SOL     OW 7594   0.371   0.517   4.991
 2232SOL    HW1 7595   0.408   0.443   5.047
 2232SOL    HW2 7596   0.446   0.579   4.966
 2233SOL     OW 7597   3.569   3.610   0.688
 2233SOL    HW1 7598   3.615   3.674   0.749
 2233SOL    HW2 7599   3.517   3.543   0.742
 2234SOL     OW 7600   3.614   1.680   0.806
 2234SOL    HW1 7601   3.628   1.600   0.864
 2234SOL    HW2 7602   3.516   1.695   0.792
 2235SOL     OW 7603   2.606   0.662   2.571
 2235SOL    HW1 7604   2.540   0.737   2.565
 2235SOL    HW2 7605   2.695   0.693   2.537
 2236SOL     OW 7606   2.106   3.989   5.831
 2236SOL    HW1 7607   2.064   3.919   5.774
 2236SOL    HW2 7608   2.042   4.064   5.845
 2237SOL     OW 7609   5.943   5.425   4.452
 2237SOL    HW1 7610   5.915   5.367   4.529
 2237SOL    HW2 7611   6.035   5.398   4.423
 2238SOL     OW 7612   4.791   4.886   2.693
 2238SOL    HW1 7613   4.703   4.838   2.685
 2238SOL    HW2 7614   4.776   4.975   2.736
 2239SOL     OW 7615   3.774   5.194   4.247
 2239SOL    HW1 7616   3.823   5.222   4.330
 2239SOL    HW2 7617   3.832   5.211   4.167
 2240SOL     OW 7618   3.712   5.686   2.403
 2240SOL    HW1 7619   3.668   5.737   2.476
 2240SOL    HW2 7620   3.791   5.738   2.370
 2241SOL     OW 7621   6.813   6.870   1.905
 2241SOL    HW1 7622   6.891   6.903   1.957
 2241SOL    HW2 7623   6.845   6.823   1.823
 2242SOL     OW 7624   5.580   3.279   2.314
 2242SOL    HW1 7625   5.540   3.257   2.225
 2242SOL    HW2 7626   5.512   3.325   2.371
 2243SOL     OW 7627   2.516   6.476   0.014
 2243SOL    HW1 7628   2.432   6.427   0.040
 2243SOL    HW2 7629   2.575   6.484   0.094
 2244SOL     OW 7630   3.034   0.275   1.496
 2244SOL    HW1 7631   3.120   0.226   1.484
 2244SOL    HW2 7632   2.971   0.219   1.551
 2245SOL     OW 7633   0.318   1.379   0.763
 2245SOL    HW1 7634   0.246   1.361   0.830
 2245SOL    HW2 7635   0.388   1.437   0.803
 2246SOL     OW 7636   1.881   0.338   3.859
 2246SOL    HW1 7637   1.924   0.372   3.943
 2246SOL    HW2 7638   1.842   0.414   3.808
 2247SOL     OW 7639   3.275   3.633   2.392
 2247SOL    HW1 7640   3.321   3.544   2.390
 2247SOL    HW2 7641   3.260   3.664   2.298
 2248SOL     OW 7642   6.706   4.218   4.143
 2248SOL    HW1 7643   6.608   4.234   4.126
 2248SOL    HW2 7644   6.720   4.123   4.169
 2249SOL     OW 7645   3.668   6.653   3.956
 2249SOL    HW1 7646   3.757   6.661   3.911
 2249SOL    HW2 7647   3.600   6.704   3.903
 2250SOL     OW 7648   3.262   3.916   5.599
 2250SOL    HW1 7649   3.277   3.836   5.657
 2250SOL    HW2 7650   3.334   3.922   5.530
 2251SOL     OW 7651   5.277   0.210   6.011
 2251SOL    HW1 7652   5.195   0.161   5.980
 2251SOL    HW2 7653   5.280   0.300   5.968
 2252SOL     OW 7654   5.317   1.550   2.898
 2252SOL    HW1 7655   5.299   1.611   2.975
 2252SOL    HW2 7656   5.239   1.552   2.835
 2253SOL     OW 7657   0.693   3.162   0.215
 2253SOL    HW1 7658   0.669   3.179   0.120
 2253SOL    HW2 7659   0.667   3.241   0.271
 2254SOL     OW 7660   3.808   3.417   3.356
 2254SOL    HW1 7661   3.801   3.496   3.416
 2254SOL    HW2 7662   3.729   3.357   3.370
 2255SOL     OW 7663   2.865   3.546   5.565
 2255SOL    HW1 7664   2.797   3.524   5.496
 2255SOL    HW2 7665   2.909   3.632   5.542
 2256SOL     OW 7666   4.209   6.442   2.044
 2256SOL    HW1 7667   4.143   6.367   2.048
 2256SOL    HW2 7668   4.170   6.517   1.990
 2257SOL     OW 7669   0.621   1.414   4.369
 2257SOL    HW1 7670   0.653   1.436   4.277
 2257SOL    HW2 7671   0.537   1.465   4.388
 2258SOL     OW 7672   2.130   6.056   4.019
 2258SOL    HW1 7673   2.111   5.990   4.092
 2258SOL    HW2 7674   2.169   6.139   4.060
 2259SOL     OW 7675   5.481   2.536   4.606
 2259SOL    HW1 7676   5.546   2.459   4.605
 2259SOL    HW2 7677   5.526   2.618   4.573
 2260SOL     OW 7678   0.858   3.572   1.207
 2260SOL    HW1 7679   0.918   3.514   1.152
 2260SOL    HW2 7680   0.913   3.643   1.252
 2261SOL     OW 7681   6.325   4.254   0.721
 2261SOL    HW1 7682   6.376   4.172   0.748
 2261SOL    HW2 7683   6.244   4.264   0.779
 2262SOL     OW 7684   6.296   0.549   2.955
 2262SOL    HW1 7685   6.278   0.553   2.857
 2262SOL    HW2 7686   6.221   0.594   3.004
 2263SOL     OW 7687   1.889   5.863   0.757
 2263SOL    HW1 7688   1.861   5.786   0.700
 2263SOL    HW2 7689   1.952   5.921   0.706
 2264SOL     OW 7690   2.673   0.076   6.669
 2264SOL    HW1 7691   2.747   0.028   6.622
 2264SOL    HW2 7692   2.585   0.049   6.629
 2265SOL     OW 7693   1.840   0.715   4.244
 2265SOL    HW1 7694   1.768   0.708   4.312
 2265SOL    HW2 7695   1.916   0.769   4.280
 2266SOL     OW 7696   4.596   1.433   6.335
 2266SOL    HW1 7697   4.508   1.429   6.383
 2266SOL    HW2 7698   4.587   1.389   6.245
 2267SOL     OW 7699   4.809   2.757   5.065
 2267SOL    HW1 7700   4.756   2.755   4.980
 2267SOL    HW2 7701   4.837   2.851   5.084
 2268SOL     OW 7702   6.056   3.564   6.344
 2268SOL    HW1 7703   5.998   3.642   6.366
 2268SOL    HW2 7704   6.009   3.479   6.368
 2269SOL     OW 7705   0.909   3.529   4.927
 2269SOL    HW1 7706   0.841   3.498   4.994
 2269SOL    HW2 7707   0.864   3.582   4.856
 2270SOL     OW 7708   4.063   3.116   6.216
 2270SOL    HW1 7709   4.030   3.203   6.253
 2270SOL    HW2 7710   4.113   3.134   6.131
 2271SOL     OW 7711   5.570   4.688   7.007
 2271SOL    HW1 7712   5.582   4.625   0.055
 2271SOL    HW2 7713   5.482   4.670   6.964
 2272SOL     OW 7714   6.850   1.647   6.162
 2272SOL    HW1 7715   6.815   1.730   6.204
 2272SOL    HW2 7716   6.791   1.620   6.086
 2273SOL     OW 7717   1.810   2.354   2.589
 2273SOL    HW1 7718   1.823   2.446   2.627
 2273SOL    HW2 7719   1.752   2.359   2.508
 2274SOL     OW 7720   0.857   1.622   6.595
 2274SOL    HW1 7721   0.872   1.540   6.649
 2274SOL    HW2 7722   0.781   1.675   6.634
 2275SOL     OW 7723   5.918   5.828   2.698
 2275SOL    HW1 7724   6.003   5.855   2.744
 2275SOL    HW2 7725   5.924   5.733   2.669
 2276SOL     OW 7726   1.438   5.990   1.722
 2276SOL    HW1 7727   1.364   6.021   1.783
 2276SOL    HW2 7728   1.519   5.968   1.776
 2277SOL     OW 7729   3.374   3.751   4.525
 2277SOL    HW1 7730   3.428   3.835   4.520
 2277SOL    HW2 7731   3.409   3.693   4.599
 2278SOL     OW 7732   6.378   2.730   3.857
 2278SOL    HW1 7733   6.442   2.746   3.932
 2278SOL    HW2 7734   6.359   2.816   3.810
 2279SOL     OW 7735   6.314   6.448   5.961
 2279SOL    HW1 7736   6.382   6.374   5.961
 2279SOL    HW2 7737   6.360   6.536   5.950
 2280SOL     OW 7738   6.322   0.895   4.687
 2280SOL    HW1 7739   6.385   0.885   4.610
 2280SOL    HW2 7740   6.333   0.818   4.750
 2281SOL     OW 7741   3.719   0.582   2.138
 2281SOL    HW1 7742   3.639   0.638   2.118
 2281SOL    HW2 7743   3.802   0.634   2.118
 2282SOL     OW 7744   4.980   6.098   5.539
 2282SOL    HW1 7745   4.893   6.143   5.562
 2282SOL    HW2 7746   5.054   6.165   5.546
 2283SOL     OW 7747   1.774   0.590   1.913
 2283SOL    HW1 7748   1.759   0.553   1.821
 2283SOL    HW2 7749   1.780   0.516   1.979
 2284SOL     OW 7750   1.036   3.600   5.761
 2284SOL    HW1 7751   0.942   3.590   5.727
 2284SOL    HW2 7752   1.078   3.510   5.772
 2285SOL     OW 7753   1.499   3.390   0.356
 2285SOL    HW1 7754   1.596   3.400   0.333
 2285SOL    HW2 7755   1.443   3.424   0.279
 2286SOL     OW 7756   5.421   6.893   3.611
 2286SOL    HW1 7757   5.478   6.836   3.671
 2286SOL    HW2 7758   5.343   6.840   3.579
 2287SOL     OW 7759   2.768   0.889   3.601
 2287SOL    HW1 7760   2.812   0.937   3.525
 2287SOL    HW2 7761   2.685   0.843   3.568
 2288SOL     OW 7762   0.361   5.602   4.140
 2288SOL    HW1 7763   0.301   5.597   4.220
 2288SOL    HW2 7764   0.455   5.620   4.170
 2289SOL     OW 7765   6.583   4.791   1.047
 2289SOL    HW1 7766   6.535   4.857   0.989
 2289SOL    HW2 7767   6.613   4.836   1.132
 2290SOL     OW 7768   0.613   4.311   1.404
 2290SOL    HW1 7769   0.649   4.374   1.472
 2290SOL    HW2 7770   0.630   4.217   1.433
 2291SOL     OW 7771   2.564   2.209   5.887
 2291SOL    HW1 7772   2.538   2.294   5.932
 2291SOL    HW2 7773   2.584   2.227   5.790
 2292SOL     OW 7774   1.565   0.996   4.732
 2292SOL    HW1 7775   1.477   1.039   4.709
 2292SOL    HW2 7776   1.611   1.050   4.803
 2293SOL     OW 7777   5.604   5.849   1.993
 2293SOL    HW1 7778   5.573   5.814   2.081
 2293SOL    HW2 7779   5.537   5.916   1.959
 2294SOL     OW 7780   3.430   6.809   0.537
 2294SOL    HW1 7781   3.496   6.832   0.465
 2294SOL    HW2 7782   3.339   6.800   0.498
 2295SOL     OW 7783   0.488   1.657   2.617
 2295SOL    HW1 7784   0.407   1.618   2.660
 2295SOL    HW2 7785   0.560   1.587   2.612
 2296SOL     OW 7786   3.127   6.664   1.065
 2296SOL    HW1 7787   3.091   6.751   1.098
 2296SOL    HW2 7788   3.227   6.667   1.064
 2297SOL     OW 7789   3.824   4.304   5.442
 2297SOL    HW1 7790   3.885   4.286   5.519
 2297SOL    HW2 7791   3.876   4.298   5.356
 2298SOL     OW 7792   3.280   2.297   1.276
 2298SOL    HW1 7793   3.320   2.387   1.261
 2298SOL    HW2 7794   3.309   2.262   1.365
 2299SOL     OW 7795   5.599   0.451   6.541
 2299SOL    HW1 7796   5.613   0.460   6.442
 2299SOL    HW2 7797   5.583   0.541   6.581
 2300SOL     OW 7798   1.938   5.073   1.803
 2300SOL    HW1 7799   1.902   5.143   1.864
 2300SOL    HW2 7800   2.006   5.114   1.742
 2301SOL     OW 7801   3.139   3.589   2.874
 2301SOL    HW1 7802   3.052   3.550   2.844
 2301SOL    HW2 7803   3.145   3.684   2.842
 2302SOL     OW 7804   3.914   6.988   2.468
 2302SOL    HW1 7805   3.814   6.982   2.460
 2302SOL    HW2 7806   3.954   7.011   2.380
 2303SOL     OW 7807   1.613   3.692   5.453
 2303SOL    HW1 7808   1.609   3.684   5.354
 2303SOL    HW2 7809   1.666   3.616   5.490
 2304SOL     OW 7810   2.674   0.258   3.634
 2304SOL    HW1 7811   2.661   0.338   3.576
 2304SOL    HW2 7812   2.745   0.277   3.702
 2305SOL     OW 7813   3.660   5.864   3.298
 2305SOL    HW1 7814   3.580   5.840   3.353
 2305SOL    HW2 7815   3.723   5.787   3.295
 2306SOL     OW 7816   2.295   5.767   1.514
 2306SOL    HW1 7817   2.294   5.667   1.519
 2306SOL    HW2 7818   2.350   5.803   1.590
 2307SOL     OW 7819   2.311   4.181   2.739
 2307SOL    HW1 7820   2.211   4.183   2.736
 2307SOL    HW2 7821   2.345   4.274   2.752
 2308SOL     OW 7822   1.405   0.181   6.698
 2308SOL    HW1 7823   1.444   0.168   6.607
 2308SOL    HW2 7824   1.435   0.270   6.734
 2309SOL     OW 7825   2.708   6.587   0.205
 2309SOL    HW1 7826   2.763   6.549   0.130
 2309SOL    HW2 7827   2.722   6.686   0.210
 2310SOL     OW 7828   6.309   6.900   1.033
 2310SOL    HW1 7829   6.255   6.854   0.963
 2310SOL    HW2 7830   6.343   6.987   0.996
 2311SOL     OW 7831   2.527   6.938   2.384
 2311SOL    HW1 7832   2.599   6.918   2.451
 2311SOL    HW2 7833   2.456   6.994   2.427
 2312SOL     OW 7834   3.147   6.814   3.464
 2312SOL    HW1 7835   3.106   6.817   3.555
 2312SOL    HW2 7836   3.074   6.814   3.395
 2313SOL     OW 7837   4.524   5.023   2.088
 2313SOL    HW1 7838   4.483   4.955   2.027
 2313SOL    HW2 7839   4.592   4.979   2.147
 2314SOL     OW 7840   5.724   0.636   3.118
 2314SOL    HW1 7841   5.770   0.581   3.188
 2314SOL    HW2 7842   5.745   0.733   3.133
 2315SOL     OW 7843   5.192   3.428   5.237
 2315SOL    HW1 7844   5.170   3.518   5.272
 2315SOL    HW2 7845   5.108   3.380   5.210
 2316SOL     OW 7846   2.391   1.482   5.350
 2316SOL    HW1 7847   2.335   1.463   5.269
 2316SOL    HW2 7848   2.473   1.532   5.323
 2317SOL     OW 7849   6.457   6.428   3.799
 2317SOL    HW1 7850   6.482   6.506   3.741
 2317SOL    HW2 7851   6.365   6.440   3.834
 2318SOL     OW 7852   2.113   3.538   4.352
 2318SOL    HW1 7853   2.184   3.467   4.352
 2318SOL    HW2 7854   2.077   3.550   4.444
 2319SOL     OW 7855   3.347   5.335   5.116
 2319SOL    HW1 7856   3.296   5.322   5.201
 2319SOL    HW2 7857   3.445   5.331   5.135
 2320SOL     OW 7858   0.837   2.141   5.223
 2320SOL    HW1 7859   0.835   2.041   5.231
 2320SOL    HW2 7860   0.771   2.180   5.288
 2321SOL     OW 7861   2.294   5.987   6.555
 2321SOL    HW1 7862   2.306   6.031   6.467
 2321SOL    HW2 7863   2.383   5.954   6.588
 2322SOL     OW 7864   1.977   4.256   2.065
 2322SOL    HW1 7865   1.981   4.349   2.029
 2322SOL    HW2 7866   1.905   4.204   2.019
 2323SOL     OW 7867   3.362   4.699   1.655
 2323SOL    HW1 7868   3.448   4.700   1.706
 2323SOL    HW2 7869   3.299   4.634   1.697
 2324SOL     OW 7870   6.556   5.621   1.083
 2324SOL    HW1 7871   6.648   5.619   1.123
 2324SOL    HW2 7872   6.552   5.694   1.015
 2325SOL     OW 7873   0.184   4.869   1.266
 2325SOL    HW1 7874   0.142   4.932   1.332
 2325SOL    HW2 7875   0.188   4.777   1.306
 2326SOL     OW 7876   1.359   6.385   6.313
 2326SOL    HW1 7877   1.419   6.418   6.387
 2326SOL    HW2 7878   1.266   6.375   6.348
 2327SOL     OW 7879   0.460   1.107   3.452
 2327SOL    HW1 7880   0.383   1.080   3.395
 2327SOL    HW2 7881   0.532   1.146   3.395
 2328SOL     OW 7882   1.687   2.086   2.955
 2328SOL    HW1 7883   1.696   2.162   3.019
 2328SOL    HW2 7884   1.594   2.085   2.919
 2329SOL     OW 7885   0.817   4.895   4.904
 2329SOL    HW1 7886   0.785   4.808   4.866
 2329SOL    HW2 7887   0.800   4.968   4.837
 2330SOL     OW 7888   0.341   2.649   0.386
 2330SOL    HW1 7889   0.419   2.696   0.347
 2330SOL    HW2 7890   0.274   2.716   0.418
 2331SOL     OW 7891   3.564   5.329   0.298
 2331SOL    HW1 7892   3.632   5.376   0.354
 2331SOL    HW2 7893   3.517   5.260   0.352
 2332SOL     OW 7894   0.114   6.993   6.034
 2332SOL    HW1 7895   0.182   0.035   6.016
 2332SOL    HW2 7896   0.160   6.904   6.035
 2333SOL     OW 7897   0.166   4.885   2.803
 2333SOL    HW1 7898   0.120   4.861   2.889
 2333SOL    HW2 7899   0.241   4.821   2.787
 2334SOL     OW 7900   1.621   1.083   6.964
 2334SOL    HW1 7901   1.629   1.128   6.875
 2334SOL    HW2 7902   1.693   1.015   6.974
 2335SOL     OW 7903   5.607   6.920   4.022
 2335SOL    HW1 7904   5.563   6.879   4.101
 2335SOL    HW2 7905   5.565   7.008   4.002
 2336SOL     OW 7906   3.200   1.272   4.216
 2336SOL    HW1 7907   3.236   1.364   4.229
 2336SOL    HW2 7908   3.267   1.218   4.164
 2337SOL     OW 7909   3.861   0.531   1.760
 2337SOL    HW1 7910   3.949   0.486   1.772
 2337SOL    HW2 7911   3.795   0.494   1.825
 2338SOL     OW 7912   0.537   3.301   4.171
 2338SOL    HW1 7913   0.574   3.361   4.101
 2338SOL    HW2 7914   0.596   3.303   4.252
 2339SOL     OW 7915   3.824   4.061   3.431
 2339SOL    HW1 7916   3.836   3.963   3.449
 2339SOL    HW2 7917   3.865   4.083   3.342
 2340SOL     OW 7918   0.322   4.252   6.917
 2340SOL    HW1 7919   0.407   4.201   6.902
 2340SOL    HW2 7920   0.279   4.221   7.002
 2341SOL     OW 7921   2.941   4.867   2.198
 2341SOL    HW1 7922   2.849   4.827   2.197
 2341SOL    HW2 7923   2.981   4.859   2.107
 2342SOL     OW 7924   1.672   0.311   4.779
 2342SOL    HW1 7925   1.628   0.222   4.783
 2342SOL    HW2 7926   1.771   0.299   4.774
 2343SOL     OW 7927   1.713   5.518   2.632
 2343SOL    HW1 7928   1.712   5.474   2.722
 2343SOL    HW2 7929   1.644   5.476   2.573
 2344SOL     OW 7930   0.379   6.065   6.987
 2344SOL    HW1 7931   0.457   6.126   7.002
 2344SOL    HW2 7932   0.339   6.085   6.897
 2345SOL     OW 7933   2.568   5.456   4.855
 2345SOL    HW1 7934   2.482   5.501   4.829
 2345SOL    HW2 7935   2.548   5.369   4.900
 2346SOL     OW 7936   3.697   3.300   5.706
 2346SOL    HW1 7937   3.755   3.283   5.627
 2346SOL    HW2 7938   3.611   3.251   5.696
 2347SOL     OW 7939   2.440   2.386   1.619
 2347SOL    HW1 7940   2.383   2.315   1.660
 2347SOL    HW2 7941   2.519   2.403   1.677
 2348SOL     OW 7942   1.634   6.408   3.679
 2348SOL    HW1 7943   1.714   6.378   3.731
 2348SOL    HW2 7944   1.655   6.494   3.633
 2349SOL     OW 7945   0.991   4.775   5.786
 2349SOL    HW1 7946   0.999   4.834   5.706
 2349SOL    HW2 7947   1.058   4.701   5.780
 2350SOL     OW 7948   6.369   5.416   6.242
 2350SOL    HW1 7949   6.276   5.438   6.213
 2350SOL    HW2 7950   6.366   5.360   6.324
 2351SOL     OW 7951   3.171   4.888   4.304
 2351SOL    HW1 7952   3.112   4.812   4.330
 2351SOL    HW2 7953   3.260   4.879   4.349
 2352SOL     OW 7954   0.312   3.564   2.636
 2352SOL    HW1 7955   0.249   3.488   2.618
 2352SOL    HW2 7956   0.296   3.637   2.571
 2353SOL     OW 7957   3.456   4.911   4.479
 2353SOL    HW1 7958   3.396   4.924   4.558
 2353SOL    HW2 7959   3.533   4.853   4.505
 2354SOL     OW 7960   2.351   2.157   4.514
 2354SOL    HW1 7961   2.367   2.208   4.429
 2354SOL    HW2 7962   2.264   2.109   4.507
 2355SOL     OW 7963   2.022   6.899   5.801
 2355SOL    HW1 7964   2.053   6.845   5.879
 2355SOL    HW2 7965   1.998   6.991   5.832
 2356SOL     OW 7966   1.292   3.210   6.109
 2356SOL    HW1 7967   1.257   3.151   6.181
 2356SOL    HW2 7968   1.365   3.164   6.060
 2357SOL     OW 7969   4.476   0.324   2.457
 2357SOL    HW1 7970   4.533   0.302   2.537
 2357SOL    HW2 7971   4.530   0.375   2.391
 2358SOL     OW 7972   3.232   5.436   5.354
 2358SOL    HW1 7973   3.287   5.472   5.429
 2358SOL    HW2 7974   3.149   5.491   5.344
 2359SOL     OW 7975   6.718   1.023   5.531
 2359SOL    HW1 7976   6.622   1.000   5.516
 2359SOL    HW2 7977   6.724   1.095   5.601
 2360SOL     OW 7978   5.675   3.338   6.851
 2360SOL    HW1 7979   5.764   3.372   6.823
 2360SOL    HW2 7980   5.685   3.283   6.934
 2361SOL     OW 7981   2.056   0.568   6.388
 2361SOL    HW1 7982   2.001   0.626   6.449
 2361SOL    HW2 7983   2.150   0.601   6.387
 2362SOL     OW 7984   2.562   5.547   3.984
 2362SOL    HW1 7985   2.463   5.531   3.994
 2362SOL    HW2 7986   2.607   5.462   3.959
 2363SOL     OW 7987   4.290   2.389   4.717
 2363SOL    HW1 7988   4.354   2.333   4.665
 2363SOL    HW2 7989   4.324   2.484   4.720
 2364SOL     OW 7990   0.917   2.566   2.313
 2364SOL    HW1 7991   0.948   2.661   2.310
 2364SOL    HW2 7992   0.839   2.558   2.376
 2365SOL     OW 7993   6.319   2.349   6.965
 2365SOL    HW1 7994   6.385   2.417   6.998
 2365SOL    HW2 7995   6.274   2.384   6.883
 2366SOL     OW 7996   2.140   5.436   6.561
 2366SOL    HW1 7997   2.135   5.535   6.575
 2366SOL    HW2 7998   2.060   5.406   6.510
 2367SOL     OW 7999   2.514   3.893   1.049
 2367SOL    HW1 8000   2.524   3.841   1.134
 2367SOL    HW2 8001   2.454   3.844   0.986
 2368SOL     OW 8002   4.628   6.377   4.504
 2368SOL    HW1 8003   4.628   6.421   4.414
 2368SOL    HW2 8004   4.719   6.385   4.545
 2369SOL     OW 8005   2.040   1.030   4.755
 2369SOL    HW1 8006   1.976   0.955   4.769
 2369SOL    HW2 8007   2.133   0.995   4.747
 2370SOL     OW 8008   5.055   3.124   0.238
 2370SOL    HW1 8009   5.023   3.035   0.270
 2370SOL    HW2 8010   5.150   3.117   0.209
 2371SOL     OW 8011   1.142   6.848   1.565
 2371SOL    HW1 8012   1.042   6.853   1.568
 2371SOL    HW2 8013   1.180   6.889   1.648
 2372SOL     OW 8014   0.174   2.763   1.952
 2372SOL    HW1 8015   0.114   2.842   1.965
 2372SOL    HW2 8016   0.135   2.703   1.881
 2373SOL     OW 8017   0.898   2.872   5.842
 2373SOL    HW1 8018   0.878   2.787   5.889
 2373SOL    HW2 8019   0.827   2.939   5.863
 2374SOL     OW 8020   6.139   1.610   3.837
 2374SOL    HW1 8021   6.101   1.687   3.888
 2374SOL    HW2 8022   6.065   1.548   3.810
 2375SOL     OW 8023   3.231   6.321   4.670
 2375SOL    HW1 8024   3.164   6.258   4.710
 2375SOL    HW2 8025   3.306   6.335   4.735
 2376SOL     OW 8026   6.287   2.897   4.426
 2376SOL    HW1 8027   6.227   2.977   4.429
 2376SOL    HW2 8028   6.246   2.823   4.479
 2377SOL     OW 8029   3.784   3.802   3.875
 2377SOL    HW1 8030   3.834   3.884   3.903
 2377SOL    HW2 8031   3.690   3.826   3.853
 2378SOL     OW 8032   4.779   1.444   0.993
 2378SOL    HW1 8033   4.747   1.380   1.062
 2378SOL    HW2 8034   4.828   1.393   0.921
 2379SOL     OW 8035   0.085   1.415   0.397
 2379SOL    HW1 8036   0.071   1.511   0.421
 2379SOL    HW2 8037   0.183   1.395   0.393
 2380SOL     OW 8038   0.435   1.837   6.547
 2380SOL    HW1 8039   0.420   1.924   6.593
 2380SOL    HW2 8040   0.356   1.817   6.488
 2381SOL     OW 8041   1.826   4.979   4.740
 2381SOL    HW1 8042   1.852   5.073   4.760
 2381SOL    HW2 8043   1.909   4.923   4.734
 2382SOL     OW 8044   2.139   3.950   4.485
 2382SOL    HW1 8045   2.160   4.039   4.444
 2382SOL    HW2 8046   2.131   3.960   4.584
 2383SOL     OW 8047   5.034   6.551   0.431
 2383SOL    HW1 8048   5.114   6.497   0.407
 2383SOL    HW2 8049   5.048   6.646   0.402
 2384SOL     OW 8050   5.784   1.054   2.811
 2384SOL    HW1 8051   5.796   1.097   2.900
 2384SOL    HW2 8052   5.785   0.954   2.821
 2385SOL     OW 8053   1.202   7.028   0.527
 2385SOL    HW1 8054   1.299   7.007   0.536
 2385SOL    HW2 8055   1.191   0.097   0.513
 2386SOL     OW 8056   6.117   5.960   4.185
 2386SOL    HW1 8057   6.119   5.906   4.270
 2386SOL    HW2 8058   6.153   5.905   4.110
 2387SOL     OW 8059   1.321   1.878   4.026
 2387SOL    HW1 8060   1.344   1.856   3.932
 2387SOL    HW2 8061   1.222   1.882   4.036
 2388SOL     OW 8062   0.496   1.947   3.835
 2388SOL    HW1 8063   0.466   2.008   3.762
 2388SOL    HW2 8064   0.541   2.000   3.907
 2389SOL     OW 8065   4.629   4.380   2.757
 2389SOL    HW1 8066   4.625   4.410   2.662
 2389SOL    HW2 8067   4.677   4.293   2.764
 2390SOL     OW 8068   3.515   2.879   3.453
 2390SOL    HW1 8069   3.522   2.848   3.358
 2390SOL    HW2 8070   3.597   2.930   3.477
 2391SOL     OW 8071   5.346   4.048   5.451
 2391SOL    HW1 8072   5.431   4.076   5.496
 2391SOL    HW2 8073   5.288   4.128   5.436
 2392SOL     OW 8074   3.661   6.286   5.053
 2392SOL    HW1 8075   3.654   6.325   5.145
 2392SOL    HW2 8076   3.719   6.205   5.055
 2393SOL     OW 8077   5.032   4.031   6.100
 2393SOL    HW1 8078   5.051   4.048   6.196
 2393SOL    HW2 8079   5.113   3.993   6.056
 2394SOL     OW 8080   0.938   4.221   4.668
 2394SOL    HW1 8081   1.011   4.197   4.604
 2394SOL    HW2 8082   0.978   4.259   4.751
 2395SOL     OW 8083   4.804   1.284   5.775
 2395SOL    HW1 8084   4.895   1.314   5.747
 2395SOL    HW2 8085   4.811   1.220   5.851
 2396SOL     OW 8086   3.759   4.939   1.101
 2396SOL    HW1 8087   3.813   4.983   1.173
 2396SOL    HW2 8088   3.673   4.905   1.140
 2397SOL     OW 8089   0.169   3.475   5.914
 2397SOL    HW1 8090   0.235   3.417   5.867
 2397SOL    HW2 8091   0.079   3.432   5.915
 2398SOL     OW 8092   4.152   4.203   6.907
 2398SOL    HW1 8093   4.129   4.191   7.004
 2398SOL    HW2 8094   4.249   4.183   6.892
 2399SOL     OW 8095   4.135   0.900   1.661
 2399SOL    HW1 8096   4.186   0.886   1.745
 2399SOL    HW2 8097   4.038   0.883   1.678
 2400SOL     OW 8098   2.863   4.268   0.981
 2400SOL    HW1 8099   2.814   4.185   1.006
 2400SOL    HW2 8100   2.957   4.245   0.956
 2401SOL     OW 8101   5.107   6.469   6.529
 2401SOL    HW1 8102   5.206   6.470   6.530
 2401SOL    HW2 8103   5.074   6.459   6.434
 2402SOL     OW 8104   0.565   0.832   3.495
 2402SOL    HW1 8105   0.484   0.780   3.520
 2402SOL    HW2 8106   0.542   0.929   3.490
 2403SOL     OW 8107   2.055   2.212   6.596
 2403SOL    HW1 8108   2.008   2.124   6.588
 2403SOL    HW2 8109   2.154   2.197   6.597
 2404SOL     OW 8110   2.866   0.753   1.028
 2404SOL    HW1 8111   2.855   0.779   0.932
 2404SOL    HW2 8112   2.963   0.754   1.052
 2405SOL     OW 8113   3.634   3.507   2.374
 2405SOL    HW1 8114   3.711   3.499   2.310
 2405SOL    HW2 8115   3.648   3.585   2.434
 2406SOL     OW 8116   2.721   0.321   2.301
 2406SOL    HW1 8117   2.716   0.328   2.201
 2406SOL    HW2 8118   2.642   0.368   2.341
 2407SOL     OW 8119   5.789   1.643   2.889
 2407SOL    HW1 8120   5.870   1.585   2.882
 2407SOL    HW2 8121   5.706   1.586   2.880
 2408SOL     OW 8122   4.647   4.333   3.462
 2408SOL    HW1 8123   4.553   4.308   3.486
 2408SOL    HW2 8124   4.655   4.433   3.457
 2409SOL     OW 8125   2.348   4.887   1.418
 2409SOL    HW1 8126   2.398   4.938   1.489
 2409SOL    HW2 8127   2.315   4.801   1.457
 2410SOL     OW 8128   3.937   3.379   5.163
 2410SOL    HW1 8129   4.016   3.432   5.132
 2410SOL    HW2 8130   3.865   3.383   5.093
 2411SOL     OW 8131   4.765   5.754   4.514
 2411SOL    HW1 8132   4.743   5.676   4.573
 2411SOL    HW2 8133   4.836   5.727   4.449
 2412SOL     OW 8134   5.765   4.484   0.952
 2412SOL    HW1 8135   5.707   4.456   1.028
 2412SOL    HW2 8136   5.834   4.548   0.985
 2413SOL     OW 8137   6.436   0.871   0.869
 2413SOL    HW1 8138   6.385   0.845   0.786
 2413SOL    HW2 8139   6.507   0.803   0.887
 2414SOL     OW 8140   4.931   4.235   2.936
 2414SOL    HW1 8141   4.857   4.187   2.890
 2414SOL    HW2 8142   4.985   4.287   2.869
 2415SOL     OW 8143   6.478   1.121   3.110
 2415SOL    HW1 8144   6.443   1.062   3.183
 2415SOL    HW2 8145   6.404   1.145   3.047
 2416SOL     OW 8146   5.124   2.629   4.857
 2416SOL    HW1 8147   5.133   2.556   4.925
 2416SOL    HW2 8148   5.029   2.637   4.829
 2417SOL     OW 8149   3.694   3.740   4.587
 2417SOL    HW1 8150   3.657   3.683   4.514
 2417SOL    HW2 8151   3.714   3.831   4.553
 2418SOL     OW 8152   3.868   3.004   4.931
 2418SOL    HW1 8153   3.905   2.913   4.951
 2418SOL    HW2 8154   3.889   3.066   5.006
 2419SOL     OW 8155   6.912   0.191   4.133
 2419SOL    HW1 8156   6.960   0.203   4.220
 2419SOL    HW2 8157   6.813   0.196   4.150
 2420SOL     OW 8158   3.519   0.728   3.124
 2420SOL    HW1 8159   3.434   0.700   3.080
 2420SOL    HW2 8160   3.520   0.828   3.134
 2421SOL     OW 8161   2.095   2.694   5.206
 2421SOL    HW1 8162   2.113   2.785   5.168
 2421SOL    HW2 8163   2.153   2.627   5.161
 2422SOL     OW 8164   5.223   1.282   0.923
 2422SOL    HW1 8165   5.154   1.270   0.852
 2422SOL    HW2 8166   5.287   1.205   0.921
 2423SOL     OW 8167   1.798   6.001   2.782
 2423SOL    HW1 8168   1.779   5.920   2.727
 2423SOL    HW2 8169   1.802   6.081   2.722
 2424SOL     OW 8170   6.303   6.747   6.296
 2424SOL    HW1 8171   6.323   6.650   6.311
 2424SOL    HW2 8172   6.233   6.777   6.360
 2425SOL     OW 8173   5.859   0.395   4.271
 2425SOL    HW1 8174   5.811   0.427   4.190
 2425SOL    HW2 8175   5.792   0.372   4.342
 2426SOL     OW 8176   1.589   5.794   5.273
 2426SOL    HW1 8177   1.623   5.875   5.320
 2426SOL    HW2 8178   1.666   5.742   5.236
 2427SOL     OW 8179   5.341   6.188   5.348
 2427SOL    HW1 8180   5.359   6.246   5.427
 2427SOL    HW2 8181   5.273   6.232   5.289
 2428SOL     OW 8182   0.078   0.170   2.440
 2428SOL    HW1 8183   0.175   0.192   2.453
 2428SOL    HW2 8184   0.034   0.241   2.386
 2429SOL     OW 8185   5.836   5.333   2.717
 2429SOL    HW1 8186   5.756   5.328   2.778
 2429SOL    HW2 8187   5.806   5.321   2.623
 2430SOL     OW 8188   6.381   1.016   1.704
 2430SOL    HW1 8189   6.400   1.019   1.803
 2430SOL    HW2 8190   6.458   0.973   1.657
 2431SOL     OW 8191   3.944   0.293   2.126
 2431SOL    HW1 8192   3.898   0.299   2.215
 2431SOL    HW2 8193   3.890   0.235   2.065
 2432SOL     OW 8194   3.970   6.554   2.893
 2432SOL    HW1 8195   4.014   6.511   2.814
 2432SOL    HW2 8196   4.038   6.575   2.962
 2433SOL     OW 8197   4.215   1.939   0.280
 2433SOL    HW1 8198   4.198   2.026   0.325
 2433SOL    HW2 8199   4.241   1.871   0.348
 2434SOL     OW 8200   4.162   1.460   5.961
 2434SOL    HW1 8201   4.219   1.510   6.025
 2434SOL    HW2 8202   4.185   1.363   5.964
 2435SOL     OW 8203   5.045   5.544   5.347
 2435SOL    HW1 8204   5.110   5.563   5.274
 2435SOL    HW2 8205   5.093   5.544   5.435
 2436SOL     OW 8206   1.543   5.405   6.282
 2436SOL    HW1 8207   1.607   5.476   6.253
 2436SOL    HW2 8208   1.582   5.355   6.359
 2437SOL     OW 8209   5.993   6.909   6.846
 2437SOL    HW1 8210   5.920   6.911   6.777
 2437SOL    HW2 8211   6.020   7.002   6.869
 2438SOL     OW 8212   3.422   2.022   0.123
 2438SOL    HW1 8213   3.366   2.064   0.194
 2438SOL    HW2 8214   3.369   2.014   0.039
 2439SOL     OW 8215   0.789   4.307   6.532
 2439SOL    HW1 8216   0.758   4.247   6.458
 2439SOL    HW2 8217   0.713   4.366   6.561
 2440SOL     OW 8218   4.498   5.586   5.900
 2440SOL    HW1 8219   4.481   5.675   5.941
 2440SOL    HW2 8220   4.473   5.588   5.803
 2441SOL     OW 8221   6.797   2.431   6.941
 2441SOL    HW1 8222   6.756   2.481   7.016
 2441SOL    HW2 8223   6.733   2.362   6.906
 2442SOL     OW 8224   1.250   4.038   5.521
 2442SOL    HW1 8225   1.156   4.023   5.551
 2442SOL    HW2 8226   1.303   3.954   5.534
 2443SOL     OW 8227   3.385   4.770   6.426
 2443SOL    HW1 8228   3.314   4.809   6.368
 2443SOL    HW2 8229   3.376   4.806   6.519
 2444SOL     OW 8230   2.819   4.924   6.275
 2444SOL    HW1 8231   2.775   4.939   6.187
 2444SOL    HW2 8232   2.910   4.967   6.274
 2445SOL     OW 8233   0.084   0.921   1.111
 2445SOL    HW1 8234   0.117   0.999   1.057
 2445SOL    HW2 8235   0.127   0.922   1.201
 2446SOL     OW 8236   5.954   4.153   4.304
 2446SOL    HW1 8237   5.965   4.207   4.388
 2446SOL    HW2 8238   5.977   4.058   4.323
 2447SOL     OW 8239   1.999   2.319   6.855
 2447SOL    HW1 8240   2.002   2.223   6.881
 2447SOL    HW2 8241   2.058   2.333   6.775
 2448SOL     OW 8242   0.484   0.821   4.321
 2448SOL    HW1 8243   0.422   0.824   4.243
 2448SOL    HW2 8244   0.577   0.801   4.289
 2449SOL     OW 8245   0.243   3.682   0.006
 2449SOL    HW1 8246   0.315   3.661   0.071
 2449SOL    HW2 8247   0.258   3.631   6.951
 2450SOL     OW 8248   2.588   4.569   2.927
 2450SOL    HW1 8249   2.574   4.527   2.837
 2450SOL    HW2 8250   2.504   4.560   2.981
 2451SOL     OW 8251   2.022   6.637   4.175
 2451SOL    HW1 8252   2.079   6.718   4.158
 2451SOL    HW2 8253   2.076   6.569   4.225
 2452SOL     OW 8254   1.480   3.775   2.842
 2452SOL    HW1 8255   1.483   3.684   2.800
 2452SOL    HW2 8256   1.533   3.774   2.927
 2453SOL     OW 8257   6.650   4.357   1.042
 2453SOL    HW1 8258   6.641   4.448   1.001
 2453SOL    HW2 8259   6.568   4.336   1.095
 2454SOL     OW 8260   3.315   0.849   2.769
 2454SOL    HW1 8261   3.271   0.864   2.681
 2454SOL    HW2 8262   3.375   0.769   2.764
 2455SOL     OW 8263   5.438   5.411   1.055
 2455SOL    HW1 8264   5.471   5.397   1.148
 2455SOL    HW2 8265   5.404   5.505   1.045
 2456SOL     OW 8266   5.283   6.374   1.716
 2456SOL    HW1 8267   5.321   6.414   1.799
 2456SOL    HW2 8268   5.235   6.445   1.664
 2457SOL     OW 8269   6.058   7.027   0.783
 2457SOL    HW1 8270   6.078   0.022   0.878
 2457SOL    HW2 8271   6.070   6.929   0.771
 2458SOL     OW 8272   2.282   6.203   3.201
 2458SOL    HW1 8273   2.225   6.242   3.129
 2458SOL    HW2 8274   2.271   6.103   3.202
 2459SOL     OW 8275   2.520   0.225   0.402
 2459SOL    HW1 8276   2.443   0.218   0.465
 2459SOL    HW2 8277   2.514   0.310   0.350
 2460SOL     OW 8278   2.717   5.892   2.228
 2460SOL    HW1 8279   2.702   5.957   2.153
 2460SOL    HW2 8280   2.634   5.888   2.284
 2461SOL     OW 8281   5.597   0.273   2.075
 2461SOL    HW1 8282   5.679   0.327   2.055
 2461SOL    HW2 8283   5.624   0.182   2.104
 2462SOL     OW 8284   2.425   5.247   6.798
 2462SOL    HW1 8285   2.491   5.276   6.729
 2462SOL    HW2 8286   2.418   5.147   6.798
 2463SOL     OW 8287   6.456   1.887   3.513
 2463SOL    HW1 8288   6.489   1.925   3.599
 2463SOL    HW2 8289   6.530   1.885   3.446
 2464SOL     OW 8290   1.081   3.434   1.057
 2464SOL    HW1 8291   1.138   3.356   1.082
 2464SOL    HW2 8292   1.065   3.434   0.958
 2465SOL     OW 8293   0.245   5.746   2.156
 2465SOL    HW1 8294   0.318   5.748   2.224
 2465SOL    HW2 8295   0.284   5.743   2.064
 2466SOL     OW 8296   4.074   1.993   2.828
 2466SOL    HW1 8297   4.123   1.912   2.794
 2466SOL    HW2 8298   4.135   2.072   2.827
 2467SOL     OW 8299   7.000   0.893   5.972
 2467SOL    HW1 8300   6.989   0.796   5.992
 2467SOL    HW2 8301   6.913   0.931   5.943
 2468SOL     OW 8302   6.781   6.222   1.474
 2468SOL    HW1 8303   6.796   6.278   1.556
 2468SOL    HW2 8304   6.869   6.193   1.437
 2469SOL     OW 8305   2.819   3.899   5.320
 2469SOL    HW1 8306   2.850   3.879   5.228
 2469SOL    HW2 8307   2.871   3.845   5.386
 2470SOL     OW 8308   4.080   3.432   6.663
 2470SOL    HW1 8309   4.065   3.342   6.704
 2470SOL    HW2 8310   4.168   3.433   6.615
 2471SOL     OW 8311   0.458   6.407   2.882
 2471SOL    HW1 8312   0.435   6.497   2.918
 2471SOL    HW2 8313   0.521   6.361   2.945
 2472SOL     OW 8314   5.270   2.613   4.346
 2472SOL    HW1 8315   5.218   2.642   4.426
 2472SOL    HW2 8316   5.359   2.659   4.346
 2473SOL     OW 8317   0.916   5.909   4.395
 2473SOL    HW1 8318   0.870   5.952   4.473
 2473SOL    HW2 8319   0.854   5.843   4.352
 2474SOL     OW 8320   6.597   4.779   5.475
 2474SOL    HW1 8321   6.534   4.751   5.402
 2474SOL    HW2 8322   6.650   4.858   5.446
 2475SOL     OW 8323   4.345   2.603   0.663
 2475SOL    HW1 8324   4.310   2.523   0.615
 2475SOL    HW2 8325   4.413   2.575   0.730
 2476SOL     OW 8326   0.779   1.808   3.835
 2476SOL    HW1 8327   0.696   1.753   3.847
 2476SOL    HW2 8328   0.831   1.774   3.757
 2477SOL     OW 8329   5.468   5.401   1.667
 2477SOL    HW1 8330   5.524   5.322   1.641
 2477SOL    HW2 8331   5.494   5.480   1.612
 2478SOL     OW 8332   5.847   6.794   2.419
 2478SOL    HW1 8333   5.766   6.737   2.432
 2478SOL    HW2 8334   5.903   6.793   2.502
 2479SOL     OW 8335   0.437   2.313   0.717
 2479SOL    HW1 8336   0.524   2.362   0.717
 2479SOL    HW2 8337   0.367   2.370   0.760
 2480SOL     OW 8338   0.601   3.571   1.226
 2480SOL    HW1 8339   0.584   3.478   1.192
 2480SOL    HW2 8340   0.699   3.586   1.235
 2481SOL     OW 8341   4.178   5.219   2.314
 2481SOL    HW1 8342   4.264   5.269   2.326
 2481SOL    HW2 8343   4.110   5.253   2.379
 2482SOL     OW 8344   5.185   2.943   4.853
 2482SOL    HW1 8345   5.224   2.853   4.872
 2482SOL    HW2 8346   5.161   2.988   4.939
 2483SOL     OW 8347   1.120   1.424   6.838
 2483SOL    HW1 8348   1.113   1.346   6.900
 2483SOL    HW2 8349   1.126   1.508   6.892
 2484SOL     OW 8350   3.356   1.262   0.424
 2484SOL    HW1 8351   3.341   1.353   0.384
 2484SOL    HW2 8352   3.268   1.221   0.447
 2485SOL     OW 8353   0.362   5.489   2.323
 2485SOL    HW1 8354   0.459   5.473   2.336
 2485SOL    HW2 8355   0.317   5.496   2.412
 2486SOL     OW 8356   1.609   5.864   2.937
 2486SOL    HW1 8357   1.605   5.941   3.000
 2486SOL    HW2 8358   1.667   5.887   2.859
 2487SOL     OW 8359   3.830   0.092   1.218
 2487SOL    HW1 8360   3.828   7.021   1.214
 2487SOL    HW2 8361   3.915   0.125   1.178
 2488SOL     OW 8362   2.725   5.219   1.523
 2488SOL    HW1 8363   2.759   5.178   1.439
 2488SOL    HW2 8364   2.786   5.196   1.599
 2489SOL     OW 8365   1.683   5.544   4.903
 2489SOL    HW1 8366   1.679   5.444   4.908
 2489SOL    HW2 8367   1.669   5.573   4.808
 2490SOL     OW 8368   5.872   3.826   0.981
 2490SOL    HW1 8369   5.775   3.803   0.989
 2490SOL    HW2 8370   5.925   3.742   0.966
 2491SOL     OW 8371   2.752   5.383   3.175
 2491SOL    HW1 8372   2.696   5.362   3.256
 2491SOL    HW2 8373   2.794   5.298   3.143
 2492SOL     OW 8374   5.148   3.417   6.443
 2492SOL    HW1 8375   5.171   3.405   6.539
 2492SOL    HW2 8376   5.147   3.515   6.421
 2493SOL     OW 8377   5.817   1.813   3.104
 2493SOL    HW1 8378   5.784   1.762   3.024
 2493SOL    HW2 8379   5.852   1.902   3.075
 2494SOL     OW 8380   4.846   2.982   2.519
 2494SOL    HW1 8381   4.872   2.934   2.603
 2494SOL    HW2 8382   4.790   3.061   2.542
 2495SOL     OW 8383   5.430   1.090   4.919
 2495SOL    HW1 8384   5.528   1.068   4.916
 2495SOL    HW2 8385   5.396   1.070   5.011
 2496SOL     OW 8386   1.011   6.324   6.967
 2496SOL    HW1 8387   1.012   6.353   6.871
 2496SOL    HW2 8388   0.972   6.396   7.024
 2497SOL     OW 8389   6.705   1.502   6.618
 2497SOL    HW1 8390   6.719   1.596   6.586
 2497SOL    HW2 8391   6.719   1.499   6.717
 2498SOL     OW 8392   1.816   3.041   4.753
 2498SOL    HW1 8393   1.890   2.974   4.743
 2498SOL    HW2 8394   1.729   2.993   4.766
 2499SOL     OW 8395   5.571   0.483   4.737
 2499SOL    HW1 8396   5.630   0.438   4.805
 2499SOL    HW2 8397   5.576   0.582   4.750
 2500SOL     OW 8398   4.918   2.709   6.604
 2500SOL    HW1 8399   4.856   2.630   6.606
 2500SOL    HW2 8400   4.884   2.779   6.668
 2501SOL     OW 8401   6.763   4.610   7.008
 2501SOL    HW1 8402   6.693   4.547   0.013
 2501SOL    HW2 8403   6.843   4.607   0.037
 2502SOL     OW 8404   3.027   6.995   2.739
 2502SOL    HW1 8405   3.024   6.970   2.836
 2502SOL    HW2 8406   2.939   0.003   2.711
 2503SOL     OW 8407   4.166   4.941   5.588
 2503SOL    HW1 8408   4.162   4.915   5.685
 2503SOL    HW2 8409   4.244   4.895   5.545
 2504SOL     OW 8410   1.595   4.695   4.362
 2504SOL    HW1 8411   1.532   4.618   4.351
 2504SOL    HW2 8412   1.612   4.711   4.459
 2505SOL     OW 8413   4.650   5.131   4.149
 2505SOL    HW1 8414   4.645   5.223   4.110
 2505SOL    HW2 8415   4.653   5.138   4.249
 2506SOL     OW 8416   6.916   2.534   6.394
 2506SOL    HW1 8417   6.821   2.519   6.421
 2506SOL    HW2 8418   6.920   2.548   6.295
 2507SOL     OW 8419   6.888   6.018   0.331
 2507SOL    HW1 8420   6.974   5.981   0.366
 2507SOL    HW2 8421   6.811   5.975   0.378
 2508SOL     OW 8422   2.627   2.114   2.256
 2508SOL    HW1 8423   2.646   2.023   2.221
 2508SOL    HW2 8424   2.708   2.150   2.303
 2509SOL     OW 8425   4.831   2.990   3.910
 2509SOL    HW1 8426   4.873   3.081   3.920
 2509SOL    HW2 8427   4.797   2.959   3.999
 2510SOL     OW 8428   4.076   5.462   0.809
 2510SOL    HW1 8429   4.062   5.452   0.710
 2510SOL    HW2 8430   4.160   5.513   0.825
 2511SOL     OW 8431   0.799   0.723   4.846
 2511SOL    HW1 8432   0.841   0.725   4.756
 2511SOL    HW2 8433   0.749   0.808   4.862
 2512SOL     OW 8434   5.201   3.624   4.846
 2512SOL    HW1 8435   5.289   3.669   4.830
 2512SOL    HW2 8436   5.212   3.525   4.839
 2513SOL     OW 8437   0.974   2.866   0.220
 2513SOL    HW1 8438   0.943   2.779   0.258
 2513SOL    HW2 8439   1.073   2.874   0.232
 2514SOL     OW 8440   1.281   0.631   3.653
 2514SOL    HW1 8441   1.241   0.549   3.694
 2514SOL    HW2 8442   1.377   0.639   3.682
 2515SOL     OW 8443   0.739   5.493   0.637
 2515SOL    HW1 8444   0.809   5.560   0.661
 2515SOL    HW2 8445   0.700   5.454   0.721
 2516SOL     OW 8446   5.365   6.518   3.659
 2516SOL    HW1 8447   5.277   6.473   3.675
 2516SOL    HW2 8448   5.436   6.472   3.713
 2517SOL     OW 8449   2.020   4.712   0.115
 2517SOL    HW1 8450   1.970   4.675   0.194
 2517SOL    HW2 8451   1.960   4.773   0.064
 2518SOL     OW 8452   2.639   2.562   6.670
 2518SOL    HW1 8453   2.654   2.601   6.579
 2518SOL    HW2 8454   2.588   2.627   6.726
 2519SOL     OW 8455   4.730   4.737   4.640
 2519SOL    HW1 8456   4.728   4.659   4.577
 2519SOL    HW2 8457   4.655   4.729   4.706
 2520SOL     OW 8458   2.341   4.185   1.823
 2520SOL    HW1 8459   2.429   4.186   1.776
 2520SOL    HW2 8460   2.269   4.213   1.760
 2521SOL     OW 8461   5.692   6.942   5.409
 2521SOL    HW1 8462   5.696   6.990   5.321
 2521SOL    HW2 8463   5.743   6.994   5.478
 2522SOL     OW 8464   0.695   3.342   4.380
 2522SOL    HW1 8465   0.674   3.288   4.461
 2522SOL    HW2 8466   0.784   3.385   4.391
 2523SOL     OW 8467   1.060   3.649   6.915
 2523SOL    HW1 8468   1.050   3.571   6.977
 2523SOL    HW2 8469   0.973   3.666   6.869
 2524SOL     OW 8470   1.738   6.688   4.217
 2524SOL    HW1 8471   1.829   6.666   4.183
 2524SOL    HW2 8472   1.669   6.647   4.157
 2525SOL     OW 8473   1.377   3.698   3.734
 2525SOL    HW1 8474   1.407   3.626   3.672
 2525SOL    HW2 8475   1.300   3.665   3.789
 2526SOL     OW 8476   6.629   1.832   4.679
 2526SOL    HW1 8477   6.561   1.763   4.655
 2526SOL    HW2 8478   6.643   1.831   4.778
 2527SOL     OW 8479   5.543   6.468   4.021
 2527SOL    HW1 8480   5.559   6.431   3.929
 2527SOL    HW2 8481   5.447   6.498   4.028
 2528SOL     OW 8482   6.550   5.697   6.974
 2528SOL    HW1 8483   6.627   5.753   6.941
 2528SOL    HW2 8484   6.552   5.695   0.044
 2529SOL     OW 8485   4.956   4.154   4.256
 2529SOL    HW1 8486   4.915   4.098   4.184
 2529SOL    HW2 8487   4.947   4.108   4.344
 2530SOL     OW 8488   0.993   0.624   3.769
 2530SOL    HW1 8489   0.944   0.537   3.774
 2530SOL    HW2 8490   0.993   0.657   3.674
 2531SOL     OW 8491   3.808   1.547   6.684
 2531SOL    HW1 8492   3.752   1.628   6.699
 2531SOL    HW2 8493   3.895   1.574   6.642
 2532SOL     OW 8494   0.894   4.873   6.758
 2532SOL    HW1 8495   0.879   4.776   6.775
 2532SOL    HW2 8496   0.827   4.927   6.809
 2533SOL     OW 8497   5.522   6.919   6.071
 2533SOL    HW1 8498   5.462   6.879   6.139
 2533SOL    HW2 8499   5.527   7.018   6.083
 2534SOL     OW 8500   0.820   1.170   3.429
 2534SOL    HW1 8501   0.911   1.161   3.387
 2534SOL    HW2 8502   0.801   1.089   3.484
 2535SOL     OW 8503   2.402   1.444   4.010
 2535SOL    HW1 8504   2.402   1.533   3.965
 2535SOL    HW2 8505   2.329   1.387   3.971
 2536SOL     OW 8506   5.812   0.867   3.879
 2536SOL    HW1 8507   5.804   0.785   3.822
 2536SOL    HW2 8508   5.730   0.924   3.866
 2537SOL     OW 8509   5.146   5.506   1.313
 2537SOL    HW1 8510   5.187   5.435   1.256
 2537SOL    HW2 8511   5.206   5.526   1.390
 2538SOL     OW 8512   2.258   4.662   4.313
 2538SOL    HW1 8513   2.177   4.707   4.349
 2538SOL    HW2 8514   2.266   4.679   4.215
 2539SOL     OW 8515   4.109   6.832   5.450
 2539SOL    HW1 8516   4.139   6.740   5.423
 2539SOL    HW2 8517   4.011   6.831   5.471
 2540SOL     OW 8518   5.773   1.705   2.165
 2540SOL    HW1 8519   5.744   1.675   2.255
 2540SOL    HW2 8520   5.693   1.717   2.106
 2541SOL     OW 8521   0.963   6.627   6.119
 2541SOL    HW1 8522   1.019   6.558   6.074
 2541SOL    HW2 8523   1.023   6.698   6.157
 2542SOL     OW 8524   3.217   2.154   4.603
 2542SOL    HW1 8525   3.177   2.064   4.584
 2542SOL    HW2 8526   3.249   2.157   4.698
 2543SOL     OW 8527   0.465   1.579   3.588
 2543SOL    HW1 8528   0.504   1.636   3.660
 2543SOL    HW2 8529   0.387   1.528   3.625
 2544SOL     OW 8530   6.598   5.127   1.646
 2544SOL    HW1 8531   6.694   5.104   1.632
 2544SOL    HW2 8532   6.560   5.069   1.719
 2545SOL     OW 8533   0.503   1.649   1.201
 2545SOL    HW1 8534   0.599   1.664   1.178
 2545SOL    HW2 8535   0.459   1.737   1.220
 2546SOL     OW 8536   6.988   3.908   2.153
 2546SOL    HW1 8537   6.974   3.978   2.083
 2546SOL    HW2 8538   0.016   3.944   2.226
 2547SOL     OW 8539   5.532   3.484   0.672
 2547SOL    HW1 8540   5.493   3.576   0.680
 2547SOL    HW2 8541   5.632   3.491   0.670
 2548SOL     OW 8542   6.752   0.085   4.959
 2548SOL    HW1 8543   6.699   0.036   4.891
 2548SOL    HW2 8544   6.848   0.055   4.956
 2549SOL     OW 8545   2.402   2.567   0.864
 2549SOL    HW1 8546   2.333   2.638   0.880
 2549SOL    HW2 8547   2.419   2.559   0.766
 2550SOL     OW 8548   4.520   6.923   6.262
 2550SOL    HW1 8549   4.514   6.943   6.165
 2550SOL    HW2 8550   4.454   6.979   6.312
 2551SOL     OW 8551   2.999   5.802   0.318
 2551SOL    HW1 8552   2.988   5.755   0.230
 2551SOL    HW2 8553   3.056   5.746   0.379
 2552SOL     OW 8554   1.977   6.081   1.036
 2552SOL    HW1 8555   1.964   6.005   0.973
 2552SOL    HW2 8556   1.892   6.099   1.085
 2553SOL     OW 8557   4.298   1.387   7.002
 2553SOL    HW1 8558   4.203   1.410   6.981
 2553SOL    HW2 8559   4.329   1.313   6.943
 2554SOL     OW 8560   1.433   5.730   1.589
 2554SOL    HW1 8561   1.446   5.803   1.656
 2554SOL    HW2 8562   1.410   5.770   1.500
 2555SOL     OW 8563   5.787   5.933   5.392
 2555SOL    HW1 8564   5.737   5.900   5.312
 2555SOL    HW2 8565   5.819   6.026   5.376
 2556SOL     OW 8566   3.959   6.612   1.592
 2556SOL    HW1 8567   3.887   6.588   1.526
 2556SOL    HW2 8568   3.922   6.606   1.685
 2557SOL     OW 8569   3.800   6.947   0.135
 2557SOL    HW1 8570   3.739   6.882   0.089
 2557SOL    HW2 8571   3.895   6.921   0.117
 2558SOL     OW 8572   6.021   4.088   6.166
 2558SOL    HW1 8573   5.946   4.037   6.207
 2558SOL    HW2 8574   6.019   4.183   6.199
 2559SOL     OW 8575   0.868   4.704   4.132
 2559SOL    HW1 8576   0.886   4.794   4.172
 2559SOL    HW2 8577   0.933   4.638   4.170
 2560SOL     OW 8578   4.929   2.000   3.091
 2560SOL    HW1 8579   4.857   2.044   3.037
 2560SOL    HW2 8580   4.978   2.069   3.145
 2561SOL     OW 8581   3.788   0.629   4.197
 2561SOL    HW1 8582   3.743   0.545   4.227
 2561SOL    HW2 8583   3.840   0.611   4.114
 2562SOL     OW 8584   3.238   0.041   3.501
 2562SOL    HW1 8585   3.219   6.973   3.490
 2562SOL    HW2 8586   3.162   0.086   3.547
 2563SOL     OW 8587   3.720   1.223   0.510
 2563SOL    HW1 8588   3.721   1.215   0.410
 2563SOL    HW2 8589   3.667   1.148   0.549
 2564SOL     OW 8590   1.460   1.121   0.546
 2564SOL    HW1 8591   1.560   1.117   0.542
 2564SOL    HW2 8592   1.424   1.125   0.452
 2565SOL     OW 8593   1.567   2.327   6.686
 2565SOL    HW1 8594   1.535   2.235   6.708
 2565SOL    HW2 8595   1.492   2.392   6.695
 2566SOL     OW 8596   2.608   0.783   1.116
 2566SOL    HW1 8597   2.702   0.774   1.082
 2566SOL    HW2 8598   2.602   0.743   1.207
 2567SOL     OW 8599   1.419   0.302   0.538
 2567SOL    HW1 8600   1.461   0.225   0.585
 2567SOL    HW2 8601   1.459   0.387   0.573
 2568SOL     OW 8602   2.730   6.179   1.527
 2568SOL    HW1 8603   2.640   6.141   1.549
 2568SOL    HW2 8604   2.800   6.127   1.576
 2569SOL     OW 8605   0.472   0.670   1.509
 2569SOL    HW1 8606   0.528   0.590   1.486
 2569SOL    HW2 8607   0.529   0.738   1.555
 2570SOL     OW 8608   5.430   6.563   6.140
 2570SOL    HW1 8609   5.442   6.477   6.190
 2570SOL    HW2 8610   5.509   6.578   6.082
 2571SOL     OW 8611   3.606   3.057   4.845
 2571SOL    HW1 8612   3.684   3.006   4.883
 2571SOL    HW2 8613   3.594   3.142   4.897
 2572SOL     OW 8614   2.162   6.145   1.812
 2572SOL    HW1 8615   2.119   6.220   1.761
 2572SOL    HW2 8616   2.212   6.182   1.890
 2573SOL     OW 8617   6.859   2.197   4.052
 2573SOL    HW1 8618   6.797   2.272   4.072
 2573SOL    HW2 8619   6.941   2.233   4.007
 2574SOL     OW 8620   0.873   4.096   1.574
 2574SOL    HW1 8621   0.853   4.113   1.477
 2574SOL    HW2 8622   0.970   4.115   1.591
 2575SOL     OW 8623   5.884   3.953   0.246
 2575SOL    HW1 8624   5.865   4.029   0.183
 2575SOL    HW2 8625   5.977   3.962   0.282
 2576SOL     OW 8626   2.216   6.981   2.959
 2576SOL    HW1 8627   2.217   0.050   2.978
 2576SOL    HW2 8628   2.252   6.964   2.868
 2577SOL     OW 8629   2.372   6.348   2.790
 2577SOL    HW1 8630   2.285   6.341   2.740
 2577SOL    HW2 8631   2.400   6.257   2.821
 2578SOL     OW 8632   5.227   2.911   4.501
 2578SOL    HW1 8633   5.224   3.000   4.547
 2578SOL    HW2 8634   5.231   2.838   4.570
 2579SOL     OW 8635   0.276   2.484   6.646
 2579SOL    HW1 8636   0.256   2.542   6.568
 2579SOL    HW2 8637   0.195   2.430   6.670
 2580SOL     OW 8638   1.680   2.727   6.578
 2580SOL    HW1 8639   1.592   2.708   6.622
 2580SOL    HW2 8640   1.679   2.821   6.542
 2581SOL     OW 8641   6.351   6.449   2.753
 2581SOL    HW1 8642   6.304   6.526   2.711
 2581SOL    HW2 8643   6.290   6.403   2.817
 2582SOL     OW 8644   0.909   5.262   2.142
 2582SOL    HW1 8645   0.994   5.233   2.099
 2582SOL    HW2 8646   0.930   5.319   2.222
 2583SOL     OW 8647   1.501   7.017   0.586
 2583SOL    HW1 8648   1.505   6.918   0.599
 2583SOL    HW2 8649   1.594   0.024   0.580
 2584SOL     OW 8650   3.846   6.105   1.004
 2584SOL    HW1 8651   3.907   6.054   1.066
 2584SOL    HW2 8652   3.800   6.177   1.055
 2585SOL     OW 8653   3.457   0.175   1.693
 2585SOL    HW1 8654   3.392   0.138   1.627
 2585SOL    HW2 8655   3.515   0.243   1.648
 2586SOL     OW 8656   6.236   1.930   3.735
 2586SOL    HW1 8657   6.139   1.906   3.738
 2586SOL    HW2 8658   6.288   1.854   3.697
 2587SOL     OW 8659   5.797   6.222   4.056
 2587SOL    HW1 8660   5.859   6.287   4.013
 2587SOL    HW2 8661   5.828   6.201   4.149
 2588SOL     OW 8662   5.391   0.363   1.770
 2588SOL    HW1 8663   5.484   0.395   1.750
 2588SOL    HW2 8664   5.377   0.274   1.727
 2589SOL     OW 8665   6.465   6.229   5.976
 2589SOL    HW1 8666   6.454   6.139   5.932
 2589SOL    HW2 8667   6.424   6.227   6.067
 2590SOL     OW 8668   4.951   6.769   2.871
 2590SOL    HW1 8669   4.904   6.712   2.939
 2590SOL    HW2 8670   4.967   6.860   2.909
 2591SOL     OW 8671   5.419   6.165   1.562
 2591SOL    HW1 8672   5.360   6.199   1.635
 2591SOL    HW2 8673   5.365   6.148   1.479
 2592SOL     OW 8674   3.452   5.215   2.035
 2592SOL    HW1 8675   3.370   5.272   2.039
 2592SOL    HW2 8676   3.453   5.152   2.114
 2593SOL     OW 8677   3.235   6.470   2.679
 2593SOL    HW1 8678   3.280   6.520   2.605
 2593SOL    HW2 8679   3.157   6.522   2.712
 2594SOL     OW 8680   0.787   6.714   6.554
 2594SOL    HW1 8681   0.846   6.636   6.531
 2594SOL    HW2 8682   0.691   6.687   6.550
 2595SOL     OW 8683   6.091   3.520   4.570
 2595SOL    HW1 8684   6.159   3.498   4.501
 2595SOL    HW2 8685   6.015   3.455   4.564
 2596SOL     OW 8686   3.972   2.231   1.888
 2596SOL    HW1 8687   4.028   2.236   1.971
 2596SOL    HW2 8688   3.876   2.237   1.912
 2597SOL     OW 8689   2.337   3.830   0.570
 2597SOL    HW1 8690   2.379   3.749   0.529
 2597SOL    HW2 8691   2.393   3.910   0.551
 2598SOL     OW 8692   6.628   3.154   3.294
 2598SOL    HW1 8693   6.720   3.138   3.258
 2598SOL    HW2 8694   6.634   3.173   3.392
 2599SOL     OW 8695   3.784   5.418   0.491
 2599SOL    HW1 8696   3.844   5.428   0.411
 2599SOL    HW2 8697   3.753   5.508   0.521
 2600SOL     OW 8698   5.920   3.472   3.284
 2600SOL    HW1 8699   5.825   3.471   3.252
 2600SOL    HW2 8700   5.956   3.379   3.283
 2601SOL     OW 8701   3.578   3.826   6.259
 2601SOL    HW1 8702   3.642   3.801   6.332
 2601SOL    HW2 8703   3.509   3.888   6.295
 2602SOL     OW 8704   6.746   5.288   4.091
 2602SOL    HW1 8705   6.728   5.301   4.189
 2602SOL    HW2 8706   6.794   5.201   4.078
 2603SOL     OW 8707   2.826   1.887   1.318
 2603SOL    HW1 8708   2.905   1.826   1.310
 2603SOL    HW2 8709   2.835   1.941   1.402
 2604SOL     OW 8710   5.590   0.546   1.505
 2604SOL    HW1 8711   5.532   0.522   1.427
 2604SOL    HW2 8712   5.581   0.644   1.525
 2605SOL     OW 8713   4.425   4.993   4.774
 2605SOL    HW1 8714   4.369   5.063   4.818
 2605SOL    HW2 8715   4.464   5.030   4.690
 2606SOL     OW 8716   6.578   4.450   0.347
 2606SOL    HW1 8717   6.602   4.441   0.250
 2606SOL    HW2 8718   6.610   4.538   0.381
 2607SOL     OW 8719   0.915   0.390   3.492
 2607SOL    HW1 8720   0.891   0.429   3.403
 2607SOL    HW2 8721   0.915   0.291   3.486
 2608SOL     OW 8722   4.658   0.672   1.042
 2608SOL    HW1 8723   4.559   0.671   1.035
 2608SOL    HW2 8724   4.688   0.760   1.078
 2609SOL     OW 8725   0.772   2.262   2.711
 2609SOL    HW1 8726   0.740   2.190   2.773
 2609SOL    HW2 8727   0.699   2.288   2.649
 2610SOL     OW 8728   6.173   5.795   4.833
 2610SOL    HW1 8729   6.134   5.825   4.746
 2610SOL    HW2 8730   6.272   5.805   4.830
 2611SOL     OW 8731   5.249   6.511   1.391
 2611SOL    HW1 8732   5.266   6.484   1.296
 2611SOL    HW2 8733   5.151   6.532   1.402
 2612SOL     OW 8734   5.606   6.700   3.199
 2612SOL    HW1 8735   5.684   6.681   3.140
 2612SOL    HW2 8736   5.565   6.614   3.228
 2613SOL     OW 8737   3.847   0.248   2.412
 2613SOL    HW1 8738   3.893   0.163   2.437
 2613SOL    HW2 8739   3.757   0.227   2.373
 2614SOL     OW 8740   6.221   6.492   6.265
 2614SOL    HW1 8741   6.261   6.479   6.175
 2614SOL    HW2 8742   6.122   6.496   6.257
 2615SOL     OW 8743   5.054   5.168   2.381
 2615SOL    HW1 8744   4.991   5.152   2.457
 2615SOL    HW2 8745   5.050   5.264   2.353
 2616SOL     OW 8746   3.888   3.047   2.966
 2616SOL    HW1 8747   3.964   3.063   3.028
 2616SOL    HW2 8748   3.810   3.104   2.994
 2617SOL     OW 8749   3.595   6.348   1.108
 2617SOL    HW1 8750   3.575   6.260   1.151
 2617SOL    HW2 8751   3.509   6.392   1.080
 2618SOL     OW 8752   7.019   0.368   0.983
 2618SOL    HW1 8753   0.049   0.321   0.919
 2618SOL    HW2 8754   0.044   0.408   1.057
 2619SOL     OW 8755   4.461   2.173   2.300
 2619SOL    HW1 8756   4.524   2.120   2.243
 2619SOL    HW2 8757   4.513   2.227   2.366
 2620SOL     OW 8758   0.862   5.240   3.897
 2620SOL    HW1 8759   0.768   5.252   3.864
 2620SOL    HW2 8760   0.879   5.143   3.913
 2621SOL     OW 8761   0.727   5.443   3.679
 2621SOL    HW1 8762   0.673   5.425   3.761
 2621SOL    HW2 8763   0.708   5.373   3.610
 2622SOL     OW 8764   2.745   2.890   6.909
 2622SOL    HW1 8765   2.786   2.937   6.832
 2622SOL    HW2 8766   2.687   2.954   6.960
 2623SOL     OW 8767   3.595   1.184   5.550
 2623SOL    HW1 8768   3.688   1.205   5.581
 2623SOL    HW2 8769   3.577   1.087   5.561
 2624SOL     OW 8770   5.694   2.772   3.362
 2624SOL    HW1 8771   5.696   2.687   3.415
 2624SOL    HW2 8772   5.617   2.770   3.298
 2625SOL     OW 8773   2.868   2.456   5.402
 2625SOL    HW1 8774   2.956   2.495   5.430
 2625SOL    HW2 8775   2.797   2.526   5.407
 2626SOL     OW 8776   2.026   6.408   3.253
 2626SOL    HW1 8777   2.055   6.385   3.160
 2626SOL    HW2 8778   2.052   6.503   3.274
 2627SOL     OW 8779   0.442   0.037   4.965
 2627SOL    HW1 8780   0.528   7.020   4.981
 2627SOL    HW2 8781   0.394   7.024   4.888
 2628SOL     OW 8782   4.024   6.433   6.948
 2628SOL    HW1 8783   3.960   6.402   6.878
 2628SOL    HW2 8784   4.037   6.361   7.016
 2629SOL     OW 8785   3.957   4.098   1.485
 2629SOL    HW1 8786   4.020   4.081   1.409
 2629SOL    HW2 8787   3.884   4.030   1.483
 2630SOL     OW 8788   3.536   1.673   2.440
 2630SOL    HW1 8789   3.499   1.747   2.383
 2630SOL    HW2 8790   3.601   1.619   2.386
 2631SOL     OW 8791   4.628   6.796   3.913
 2631SOL    HW1 8792   4.638   6.882   3.862
 2631SOL    HW2 8793   4.545   6.749   3.882
 2632SOL     OW 8794   3.528   1.788   0.222
 2632SOL    HW1 8795   3.628   1.788   0.219
 2632SOL    HW2 8796   3.494   1.881   0.208
 2633SOL     OW 8797   5.919   2.423   6.827
 2633SOL    HW1 8798   5.867   2.428   6.742
 2633SOL    HW2 8799   5.908   2.333   6.868
 2634SOL     OW 8800   1.760   4.290   1.258
 2634SOL    HW1 8801   1.719   4.271   1.347
 2634SOL    HW2 8802   1.791   4.204   1.217
 2635SOL     OW 8803   5.578   4.784   4.411
 2635SOL    HW1 8804   5.573   4.697   4.461
 2635SOL    HW2 8805   5.636   4.773   4.330
 2636SOL     OW 8806   5.199   0.453   5.676
 2636SOL    HW1 8807   5.287   0.453   5.724
 2636SOL    HW2 8808   5.205   0.395   5.596
 2637SOL     OW 8809   5.460   6.254   3.147
 2637SOL    HW1 8810   5.504   6.334   3.188
 2637SOL    HW2 8811   5.401   6.210   3.214
 2638SOL     OW 8812   5.584   6.100   0.742
 2638SOL    HW1 8813   5.507   6.036   0.751
 2638SOL    HW2 8814   5.669   6.049   0.735
 2639SOL     OW 8815   6.106   6.342   1.363
 2639SOL    HW1 8816   6.129   6.438   1.382
 2639SOL    HW2 8817   6.027   6.338   1.303
 2640SOL     OW 8818   6.996   6.185   5.445
 2640SOL    HW1 8819   6.951   6.271   5.471
 2640SOL    HW2 8820   6.961   6.155   5.356
 2641SOL     OW 8821   5.049   4.058   6.407
 2641SOL    HW1 8822   4.977   4.033   6.471
 2641SOL    HW2 8823   5.135   4.070   6.457
 2642SOL     OW 8824   5.083   0.427   3.989
 2642SOL    HW1 8825   5.035   0.349   3.949
 2642SOL    HW2 8826   5.137   0.472   3.919
 2643SOL     OW 8827   0.070   6.798   3.362
 2643SOL    HW1 8828   0.085   6.701   3.342
 2643SOL    HW2 8829   7.002   6.817   3.362
 2644SOL     OW 8830   0.612   4.971   5.611
 2644SOL    HW1 8831   0.681   4.935   5.548
 2644SOL    HW2 8832   0.590   4.901   5.679
 2645SOL     OW 8833   5.370   6.094   5.937
 2645SOL    HW1 8834   5.449   6.155   5.940
 2645SOL    HW2 8835   5.327   6.092   6.027
 2646SOL     OW 8836   6.882   0.038   6.376
 2646SOL    HW1 8837   6.807   0.021   6.440
 2646SOL    HW2 8838   6.911   6.982   6.335
 2647SOL     OW 8839   4.104   1.862   1.300
 2647SOL    HW1 8840   4.050   1.909   1.370
 2647SOL    HW2 8841   4.047   1.794   1.254
 2648SOL     OW 8842   5.986   0.123   2.205
 2648SOL    HW1 8843   6.008   0.027   2.225
 2648SOL    HW2 8844   6.011   0.144   2.111
 2649SOL     OW 8845   3.470   1.517   6.385
 2649SOL    HW1 8846   3.445   1.607   6.420
 2649SOL    HW2 8847   3.530   1.471   6.450
 2650SOL     OW 8848   0.469   5.357   3.430
 2650SOL    HW1 8849   0.398   5.367   3.360
 2650SOL    HW2 8850   0.485   5.260   3.448
 2651SOL     OW 8851   0.051   1.391   1.870
 2651SOL    HW1 8852   7.029   1.387   1.956
 2651SOL    HW2 8853   7.023   1.359   1.795
 2652SOL     OW 8854   3.010   3.550   3.205
 2652SOL    HW1 8855   2.968   3.548   3.114
 2652SOL    HW2 8856   2.997   3.641   3.245
 2653SOL     OW 8857   5.659   0.005   6.353
 2653SOL    HW1 8858   5.635   0.066   6.277
 2653SOL    HW2 8859   5.758   0.006   6.367
 2654SOL     OW 8860   4.719   2.023   6.291
 2654SOL    HW1 8861   4.804   1.977   6.317
 2654SOL    HW2 8862   4.697   2.001   6.196
 2655SOL     OW 8863   4.216   6.094   4.634
 2655SOL    HW1 8864   4.300   6.099   4.579
 2655SOL    HW2 8865   4.187   6.187   4.659
 2656SOL     OW 8866   5.548   3.791   3.257
 2656SOL    HW1 8867   5.529   3.855   3.183
 2656SOL    HW2 8868   5.635   3.815   3.301
 2657SOL     OW 8869   1.820   4.680   6.898
 2657SOL    HW1 8870   1.753   4.698   6.970
 2657SOL    HW2 8871   1.856   4.587   6.909
 2658SOL     OW 8872   6.110   4.122   5.914
 2658SOL    HW1 8873   6.088   4.047   5.851
 2658SOL    HW2 8874   6.108   4.088   6.008
 2659SOL     OW 8875   6.930   2.526   4.693
 2659SOL    HW1 8876   6.900   2.564   4.605
 2659SOL    HW2 8877   6.924   2.427   4.690
 2660SOL     OW 8878   6.489   2.111   2.505
 2660SOL    HW1 8879   6.395   2.078   2.515
 2660SOL    HW2 8880   6.523   2.088   2.414
 2661SOL     OW 8881   3.835   5.740   1.204
 2661SOL    HW1 8882   3.896   5.820   1.206
 2661SOL    HW2 8883   3.751   5.761   1.254
 2662SOL     OW 8884   4.217   6.564   4.638
 2662SOL    HW1 8885   4.208   6.464   4.643
 2662SOL    HW2 8886   4.178   6.605   4.721
 2663SOL     OW 8887   1.931   4.998   2.330
 2663SOL    HW1 8888   2.010   5.058   2.333
 2663SOL    HW2 8889   1.876   5.018   2.249
 2664SOL     OW 8890   4.123   3.647   2.760
 2664SOL    HW1 8891   4.088   3.648   2.854
 2664SOL    HW2 8892   4.184   3.569   2.749
 2665SOL     OW 8893   3.395   1.358   5.239
 2665SOL    HW1 8894   3.470   1.293   5.240
 2665SOL    HW2 8895   3.425   1.443   5.196
 2666SOL     OW 8896   5.192   4.250   1.050
 2666SOL    HW1 8897   5.203   4.160   1.093
 2666SOL    HW2 8898   5.237   4.250   0.961
 2667SOL     OW 8899   1.935   6.129   4.958
 2667SOL    HW1 8900   1.919   6.185   5.038
 2667SOL    HW2 8901   2.027   6.091   4.961
 2668SOL     OW 8902   6.855   3.228   5.178
 2668SOL    HW1 8903   6.767   3.215   5.223
 2668SOL    HW2 8904   6.843   3.286   5.097
 2669SOL     OW 8905   4.520   5.596   5.407
 2669SOL    HW1 8906   4.457   5.543   5.349
 2669SOL    HW2 8907   4.605   5.613   5.357
 2670SOL     OW 8908   0.968   0.998   0.077
 2670SOL    HW1 8909   1.010   0.910   0.104
 2670SOL    HW2 8910   0.899   1.023   0.144
 2671SOL     OW 8911   2.468   3.944   6.280
 2671SOL    HW1 8912   2.545   3.955   6.218
 2671SOL    HW2 8913   2.448   3.847   6.293
 2672SOL     OW 8914   2.251   5.569   0.324
 2672SOL    HW1 8915   2.220   5.550   0.230
 2672SOL    HW2 8916   2.309   5.650   0.324
 2673SOL     OW 8917   4.083   2.194   3.181
 2673SOL    HW1 8918   4.027   2.162   3.258
 2673SOL    HW2 8919   4.029   2.189   3.097
 2674SOL     OW 8920   0.168   5.570   4.524
 2674SOL    HW1 8921   0.126   5.660   4.524
 2674SOL    HW2 8922   0.268   5.579   4.516
 2675SOL     OW 8923   0.546   4.589   5.421
 2675SOL    HW1 8924   0.595   4.515   5.374
 2675SOL    HW2 8925   0.611   4.642   5.476
 2676SOL     OW 8926   4.847   1.725   1.839
 2676SOL    HW1 8927   4.797   1.802   1.800
 2676SOL    HW2 8928   4.792   1.682   1.910
 2677SOL     OW 8929   1.920   4.552   1.216
 2677SOL    HW1 8930   1.865   4.474   1.248
 2677SOL    HW2 8931   1.998   4.564   1.278
 2678SOL     OW 8932   1.190   5.200   6.118
 2678SOL    HW1 8933   1.114   5.265   6.110
 2678SOL    HW2 8934   1.183   5.152   6.205
 2679SOL     OW 8935   3.184   5.205   0.818
 2679SOL    HW1 8936   3.187   5.233   0.915
 2679SOL    HW2 8937   3.181   5.106   0.812
 2680SOL     OW 8938   2.297   1.796   0.954
 2680SOL    HW1 8939   2.221   1.748   0.999
 2680SOL    HW2 8940   2.270   1.820   0.861
 2681SOL     OW 8941   1.242   3.242   3.992
 2681SOL    HW1 8942   1.244   3.289   4.081
 2681SOL    HW2 8943   1.257   3.144   4.006
 2682SOL     OW 8944   5.321   3.074   2.136
 2682SOL    HW1 8945   5.312   3.155   2.194
 2682SOL    HW2 8946   5.268   2.999   2.174
 2683SOL     OW 8947   0.770   5.416   0.916
 2683SOL    HW1 8948   0.747   5.405   1.012
 2683SOL    HW2 8949   0.869   5.423   0.905
 2684SOL     OW 8950   3.243   6.648   2.942
 2684SOL    HW1 8951   3.315   6.686   2.884
 2684SOL    HW2 8952   3.158   6.641   2.890
 2685SOL     OW 8953   4.798   6.008   4.663
 2685SOL    HW1 8954   4.711   5.992   4.710
 2685SOL    HW2 8955   4.807   5.943   4.587
 2686SOL     OW 8956   2.252   2.900   4.334
 2686SOL    HW1 8957   2.266   2.872   4.429
 2686SOL    HW2 8958   2.334   2.882   4.281
 2687SOL     OW 8959   3.762   5.189   2.251
 2687SOL    HW1 8960   3.756   5.280   2.293
 2687SOL    HW2 8961   3.687   5.132   2.284
 2688SOL     OW 8962   4.889   4.910   6.452
 2688SOL    HW1 8963   4.821   4.955   6.393
 2688SOL    HW2 8964   4.866   4.928   6.548
 2689SOL     OW 8965   0.900   2.466   3.613
 2689SOL    HW1 8966   0.866   2.383   3.569
 2689SOL    HW2 8967   0.978   2.443   3.671
 2690SOL     OW 8968   3.772   3.183   3.799
 2690SOL    HW1 8969   3.723   3.097   3.784
 2690SOL    HW2 8970   3.708   3.260   3.790
 2691SOL     OW 8971   1.452   5.437   2.255
 2691SOL    HW1 8972   1.485   5.343   2.247
 2691SOL    HW2 8973   1.412   5.466   2.169
 2692SOL     OW 8974   0.443   5.585   3.606
 2692SOL    HW1 8975   0.461   5.495   3.567
 2692SOL    HW2 8976   0.484   5.592   3.697
 2693SOL     OW 8977   1.699   3.712   3.717
 2693SOL    HW1 8978   1.769   3.735   3.784
 2693SOL    HW2 8979   1.663   3.795   3.676
 2694SOL     OW 8980   2.977   6.802   3.247
 2694SOL    HW1 8981   3.021   6.839   3.165
 2694SOL    HW2 8982   2.922   6.722   3.223
 2695SOL     OW 8983   5.057   2.243   2.639
 2695SOL    HW1 8984   4.965   2.268   2.612
 2695SOL    HW2 8985   5.104   2.323   2.676
 2696SOL     OW 8986   3.946   3.804   5.656
 2696SOL    HW1 8987   3.987   3.716   5.680
 2696SOL    HW2 8988   3.955   3.819   5.557
 2697SOL     OW 8989   3.912   2.188   3.875
 2697SOL    HW1 8990   3.987   2.151   3.820
 2697SOL    HW2 8991   3.828   2.188   3.821
 2698SOL     OW 8992   0.801   3.947   0.586
 2698SOL    HW1 8993   0.816   4.014   0.514
 2698SOL    HW2 8994   0.737   3.877   0.554
 2699SOL     OW 8995   3.699   5.541   1.496
 2699SOL    HW1 8996   3.653   5.521   1.582
 2699SOL    HW2 8997   3.785   5.489   1.492
 2700SOL     OW 8998   1.797   3.390   2.745
 2700SOL    HW1 8999   1.858   3.468   2.733
 2700SOL    HW2 9000   1.781   3.374   2.842
 2701SOL     OW 9001   3.427   0.024   6.364
 2701SOL    HW1 9002   3.450   6.997   6.285
 2701SOL    HW2 9003   3.455   7.007   6.448
 2702SOL     OW 9004   6.946   1.541   3.075
 2702SOL    HW1 9005   7.016   1.485   3.030
 2702SOL    HW2 9006   6.920   1.499   3.162
 2703SOL     OW 9007   2.504   1.616   2.651
 2703SOL    HW1 9008   2.595   1.618   2.691
 2703SOL    HW2 9009   2.511   1.608   2.551
 2704SOL     OW 9010   3.011   5.254   1.737
 2704SOL    HW1 9011   2.981   5.328   1.798
 2704SOL    HW2 9012   3.097   5.279   1.694
 2705SOL     OW 9013   6.177   6.021   3.812
 2705SOL    HW1 9014   6.081   6.013   3.838
 2705SOL    HW2 9015   6.185   6.079   3.731
 2706SOL     OW 9016   6.710   1.384   2.291
 2706SOL    HW1 9017   6.756   1.343   2.370
 2706SOL    HW2 9018   6.719   1.483   2.294
 2707SOL     OW 9019   1.477   2.096   6.780
 2707SOL    HW1 9020   1.396   2.084   6.723
 2707SOL    HW2 9021   1.494   2.011   6.830
 2708SOL     OW 9022   2.129   2.790   2.200
 2708SOL    HW1 9023   2.062   2.717   2.190
 2708SOL    HW2 9024   2.204   2.759   2.258
 2709SOL     OW 9025   5.349   6.222   1.017
 2709SOL    HW1 9026   5.446   6.206   1.034
 2709SOL    HW2 9027   5.297   6.139   1.036
 2710SOL     OW 9028   6.920   3.849   2.504
 2710SOL    HW1 9029   6.932   3.778   2.434
 2710SOL    HW2 9030   6.826   3.884   2.500
 2711SOL     OW 9031   0.904   0.638   1.758
 2711SOL    HW1 9032   0.907   0.691   1.843
 2711SOL    HW2 9033   0.921   0.542   1.777
 2712SOL     OW 9034   2.294   4.599   0.394
 2712SOL    HW1 9035   2.323   4.658   0.319
 2712SOL    HW2 9036   2.350   4.618   0.475
 2713SOL     OW 9037   2.140   3.361   5.195
 2713SOL    HW1 9038   2.231   3.331   5.223
 2713SOL    HW2 9039   2.147   3.424   5.118
 2714SOL     OW 9040   5.149   0.795   5.833
 2714SOL    HW1 9041   5.124   0.703   5.862
 2714SOL    HW2 9042   5.163   0.797   5.735
 2715SOL     OW 9043   5.639   1.501   0.105
 2715SOL    HW1 9044   5.719   1.443   0.095
 2715SOL    HW2 9045   5.656   1.571   0.175
 2716SOL     OW 9046   6.773   5.600   2.343
 2716SOL    HW1 9047   6.804   5.641   2.428
 2716SOL    HW2 9048   6.763   5.671   2.273
 2717SOL     OW 9049   0.846   6.514   2.356
 2717SOL    HW1 9050   0.844   6.577   2.434
 2717SOL    HW2 9051   0.792   6.552   2.282
 2718SOL     OW 9052   1.915   3.938   4.196
 2718SOL    HW1 9053   1.842   3.897   4.139
 2718SOL    HW2 9054   1.990   3.873   4.205
 2719SOL     OW 9055   4.430   5.316   2.253
 2719SOL    HW1 9056   4.483   5.333   2.170
 2719SOL    HW2 9057   4.482   5.256   2.314
 2720SOL     OW 9058   2.026   6.427   3.998
 2720SOL    HW1 9059   2.107   6.392   4.045
 2720SOL    HW2 9060   2.001   6.516   4.034
 2721SOL     OW 9061   2.732   0.074   4.586
 2721SOL    HW1 9062   2.728   0.168   4.554
 2721SOL    HW2 9063   2.756   0.073   4.683
 2722SOL     OW 9064   0.278   5.549   3.262
 2722SOL    HW1 9065   0.251   5.627   3.206
 2722SOL    HW2 9066   0.198   5.493   3.282
 2723SOL     OW 9067   2.058   1.234   5.530
 2723SOL    HW1 9068   2.003   1.159   5.492
 2723SOL    HW2 9069   2.155   1.210   5.526
 2724SOL     OW 9070   3.867   5.722   6.790
 2724SOL    HW1 9071   3.770   5.744   6.792
 2724SOL    HW2 9072   3.886   5.660   6.714
 2725SOL     OW 9073   4.254   4.726   3.155
 2725SOL    HW1 9074   4.196   4.679   3.089
 2725SOL    HW2 9075   4.222   4.707   3.248
 2726SOL     OW 9076   4.998   4.757   1.450
 2726SOL    HW1 9077   4.996   4.658   1.464
 2726SOL    HW2 9078   5.056   4.800   1.519
 2727SOL     OW 9079   0.874   4.777   2.646
 2727SOL    HW1 9080   0.856   4.688   2.603
 2727SOL    HW2 9081   0.826   4.849   2.596
 2728SOL     OW 9082   2.700   6.683   5.664
 2728SOL    HW1 9083   2.747   6.756   5.714
 2728SOL    HW2 9084   2.704   6.701   5.566
 2729SOL     OW 9085   6.311   4.976   3.195
 2729SOL    HW1 9086   6.361   5.008   3.115
 2729SOL    HW2 9087   6.213   4.972   3.174
 2730SOL     OW 9088   2.304   0.204   0.561
 2730SOL    HW1 9089   2.223   0.153   0.533
 2730SOL    HW2 9090   2.287   0.246   0.650
 2731SOL     OW 9091   2.978   3.817   1.854
 2731SOL    HW1 9092   3.003   3.879   1.929
 2731SOL    HW2 9093   3.006   3.724   1.878
 2732SOL     OW 9094   5.618   2.600   2.352
 2732SOL    HW1 9095   5.704   2.564   2.388
 2732SOL    HW2 9096   5.571   2.653   2.424
 2733SOL     OW 9097   1.048   6.974   5.404
 2733SOL    HW1 9098   1.083   6.916   5.477
 2733SOL    HW2 9099   0.956   6.943   5.377
 2734SOL     OW 9100   1.992   6.710   3.832
 2734SOL    HW1 9101   2.083   6.692   3.794
 2734SOL    HW2 9102   1.998   6.717   3.931
 2735SOL     OW 9103   1.459   4.789   2.303
 2735SOL    HW1 9104   1.364   4.759   2.302
 2735SOL    HW2 9105   1.490   4.800   2.397
 2736SOL     OW 9106   3.988   0.365   5.198
 2736SOL    HW1 9107   4.057   0.382   5.269
 2736SOL    HW2 9108   4.015   0.411   5.114
 2737SOL     OW 9109   4.054   3.686   6.062
 2737SOL    HW1 9110   4.004   3.670   6.148
 2737SOL    HW2 9111   4.151   3.702   6.082
 2738SOL     OW 9112   5.739   5.065   4.934
 2738SOL    HW1 9113   5.653   5.072   4.984
 2738SOL    HW2 9114   5.737   4.983   4.876
 2739SOL     OW 9115   5.487   3.517   1.031
 2739SOL    HW1 9116   5.523   3.584   0.967
 2739SOL    HW2 9117   5.516   3.425   1.003
 2740SOL     OW 9118   6.039   2.313   2.850
 2740SOL    HW1 9119   6.112   2.360   2.799
 2740SOL    HW2 9120   6.069   2.220   2.871
 2741SOL     OW 9121   0.099   2.083   5.551
 2741SOL    HW1 9122   0.045   2.020   5.495
 2741SOL    HW2 9123   0.068   2.079   5.646
 2742SOL     OW 9124   1.577   5.937   6.555
 2742SOL    HW1 9125   1.587   5.929   6.654
 2742SOL    HW2 9126   1.667   5.935   6.512
 2743SOL     OW 9127   5.383   4.864   1.303
 2743SOL    HW1 9128   5.393   4.799   1.379
 2743SOL    HW2 9129   5.456   4.849   1.236
 2744SOL     OW 9130   3.965   2.351   6.325
 2744SOL    HW1 9131   3.977   2.328   6.228
 2744SOL    HW2 9132   3.890   2.417   6.334
 2745SOL     OW 9133   2.302   6.301   1.131
 2745SOL    HW1 9134   2.240   6.316   1.208
 2745SOL    HW2 9135   2.300   6.205   1.104
 2746SOL     OW 9136   1.975   1.808   5.650
 2746SOL    HW1 9137   1.974   1.835   5.746
 2746SOL    HW2 9138   2.009   1.714   5.642
 2747SOL     OW 9139   5.453   6.548   4.335
 2747SOL    HW1 9140   5.530   6.488   4.310
 2747SOL    HW2 9141   5.371   6.518   4.286
 2748SOL     OW 9142   4.484   1.537   2.927
 2748SOL    HW1 9143   4.574   1.576   2.911
 2748SOL    HW2 9144   4.493   1.444   2.961
 2749SOL     OW 9145   4.494   4.558   4.032
 2749SOL    HW1 9146   4.508   4.632   4.097
 2749SOL    HW2 9147   4.410   4.574   3.981
 2750SOL     OW 9148   0.845   5.730   2.388
 2750SOL    HW1 9149   0.917   5.742   2.457
 2750SOL    HW2 9150   0.783   5.808   2.392
 2751SOL     OW 9151   2.169   6.789   6.518
 2751SOL    HW1 9152   2.187   6.843   6.601
 2751SOL    HW2 9153   2.081   6.815   6.480
 2752SOL     OW 9154   5.816   6.188   5.304
 2752SOL    HW1 9155   5.902   6.224   5.341
 2752SOL    HW2 9156   5.761   6.264   5.269
 2753SOL     OW 9157   3.952   5.960   6.536
 2753SOL    HW1 9158   3.975   5.874   6.583
 2753SOL    HW2 9159   4.022   5.980   6.467
 2754SOL     OW 9160   0.489   0.562   4.448
 2754SOL    HW1 9161   0.509   0.649   4.403
 2754SOL    HW2 9162   0.559   0.544   4.517
 2755SOL     OW 9163   3.118   6.256   2.402
 2755SOL    HW1 9164   3.202   6.202   2.403
 2755SOL    HW2 9165   3.039   6.195   2.391
 2756SOL     OW 9166   6.513   3.197   5.638
 2756SOL    HW1 9167   6.516   3.155   5.729
 2756SOL    HW2 9168   6.509   3.296   5.648
 2757SOL     OW 9169   4.497   2.643   6.858
 2757SOL    HW1 9170   4.425   2.637   6.928
 2757SOL    HW2 9171   4.470   2.710   6.789
 2758SOL     OW 9172   5.738   4.901   2.732
 2758SOL    HW1 9173   5.724   4.957   2.814
 2758SOL    HW2 9174   5.758   4.960   2.654
 2759SOL     OW 9175   3.142   4.515   6.507
 2759SOL    HW1 9176   3.146   4.575   6.427
 2759SOL    HW2 9177   3.101   4.565   6.584
 2760SOL     OW 9178   5.105   5.607   3.638
 2760SOL    HW1 9179   5.171   5.548   3.591
 2760SOL    HW2 9180   5.124   5.702   3.616
 2761SOL     OW 9181   2.163   3.488   2.684
 2761SOL    HW1 9182   2.114   3.405   2.708
 2761SOL    HW2 9183   2.261   3.475   2.701
 2762SOL     OW 9184   2.103   1.851   0.378
 2762SOL    HW1 9185   2.082   1.846   0.476
 2762SOL    HW2 9186   2.042   1.789   0.328
 2763SOL     OW 9187   4.458   1.509   5.361
 2763SOL    HW1 9188   4.478   1.595   5.407
 2763SOL    HW2 9189   4.539   1.450   5.362
 2764SOL     OW 9190   1.072   4.160   2.023
 2764SOL    HW1 9191   1.089   4.252   1.986
 2764SOL    HW2 9192   1.155   4.105   2.017
 2765SOL     OW 9193   6.220   6.809   6.940
 2765SOL    HW1 9194   6.254   6.770   6.854
 2765SOL    HW2 9195   6.123   6.833   6.929
 2766SOL     OW 9196   5.813   0.696   6.906
 2766SOL    HW1 9197   5.830   0.766   6.836
 2766SOL    HW2 9198   5.875   0.709   6.983
 2767SOL     OW 9199   0.029   4.938   6.483
 2767SOL    HW1 9200   6.994   4.898   6.419
 2767SOL    HW2 9201   0.111   4.882   6.487
 2768SOL     OW 9202   4.679   6.965   1.316
 2768SOL    HW1 9203   4.591   7.003   1.346
 2768SOL    HW2 9204   4.710   7.015   1.235
 2769SOL     OW 9205   1.961   4.468   5.893
 2769SOL    HW1 9206   2.024   4.427   5.828
 2769SOL    HW2 9207   1.892   4.522   5.844
 2770SOL     OW 9208   2.386   6.667   0.206
 2770SOL    HW1 9209   2.392   6.732   0.282
 2770SOL    HW2 9210   2.474   6.662   0.159
 2771SOL     OW 9211   4.542   0.229   4.912
 2771SOL    HW1 9212   4.445   0.230   4.938
 2771SOL    HW2 9213   4.553   0.270   4.822
 2772SOL     OW 9214   3.913   0.807   2.893
 2772SOL    HW1 9215   4.011   0.789   2.890
 2772SOL    HW2 9216   3.865   0.724   2.921
 2773SOL     OW 9217   5.740   2.708   4.031
 2773SOL    HW1 9218   5.786   2.795   4.013
 2773SOL    HW2 9219   5.808   2.639   4.056
 2774SOL     OW 9220   5.190   1.709   3.490
 2774SOL    HW1 9221   5.102   1.664   3.505
 2774SOL    HW2 9222   5.231   1.731   3.579
 2775SOL     OW 9223   0.837   4.604   4.629
 2775SOL    HW1 9224   0.927   4.637   4.603
 2775SOL    HW2 9225   0.830   4.601   4.729
 2776SOL     OW 9226   5.085   4.348   6.083
 2776SOL    HW1 9227   5.103   4.269   6.025
 2776SOL    HW2 9228   5.001   4.332   6.136
 2777SOL     OW 9229   3.006   2.457   6.177
 2777SOL    HW1 9230   2.950   2.436   6.258
 2777SOL    HW2 9231   2.988   2.551   6.148
 2778SOL     OW 9232   2.811   6.248   6.500
 2778SOL    HW1 9233   2.874   6.212   6.431
 2778SOL    HW2 9234   2.800   6.181   6.574
 2779SOL     OW 9235   6.130   6.599   2.083
 2779SOL    HW1 9236   6.199   6.671   2.087
 2779SOL    HW2 9237   6.154   6.532   2.013
 2780SOL     OW 9238   0.340   1.995   5.783
 2780SOL    HW1 9239   0.288   1.936   5.722
 2780SOL    HW2 9240   0.436   1.994   5.756
 2781SOL     OW 9241   6.398   0.298   2.508
 2781SOL    HW1 9242   6.394   0.381   2.451
 2781SOL    HW2 9243   6.389   0.218   2.450
 2782SOL     OW 9244   4.283   1.197   6.827
 2782SOL    HW1 9245   4.185   1.183   6.813
 2782SOL    HW2 9246   4.325   1.224   6.740
 2783SOL     OW 9247   5.596   3.885   1.803
 2783SOL    HW1 9248   5.670   3.935   1.757
 2783SOL    HW2 9249   5.605   3.787   1.784
 2784SOL     OW 9250   1.210   1.739   0.842
 2784SOL    HW1 9251   1.262   1.824   0.834
 2784SOL    HW2 9252   1.235   1.692   0.927
 2785SOL     OW 9253   5.422   2.862   1.603
 2785SOL    HW1 9254   5.361   2.824   1.532
 2785SOL    HW2 9255   5.426   2.798   1.680
 2786SOL     OW 9256   6.870   6.029   0.066
 2786SOL    HW1 9257   6.875   6.036   0.166
 2786SOL    HW2 9258   6.784   6.066   0.034
 2787SOL     OW 9259   6.158   5.088   6.233
 2787SOL    HW1 9260   6.235   5.138   6.273
 2787SOL    HW2 9261   6.129   5.133   6.148
 2788SOL     OW 9262   3.287   6.176   5.710
 2788SOL    HW1 9263   3.340   6.144   5.632
 2788SOL    HW2 9264   3.218   6.108   5.733
 2789SOL     OW 9265   0.857   2.501   5.097
 2789SOL    HW1 9266   0.944   2.478   5.053
 2789SOL    HW2 9267   0.840   2.599   5.087
 2790SOL     OW 9268   1.732   5.941   1.218
 2790SOL    HW1 9269   1.778   5.883   1.150
 2790SOL    HW2 9270   1.800   5.999   1.263
 2791SOL     OW 9271   0.136   3.783   3.293
 2791SOL    HW1 9272   0.067   3.711   3.302
 2791SOL    HW2 9273   0.212   3.749   3.236
 2792SOL     OW 9274   3.124   1.598   5.324
 2792SOL    HW1 9275   3.070   1.603   5.408
 2792SOL    HW2 9276   3.163   1.689   5.305
 2793SOL     OW 9277   3.626   4.308   1.353
 2793SOL    HW1 9278   3.700   4.317   1.419
 2793SOL    HW2 9279   3.589   4.399   1.331
 2794SOL     OW 9280   0.596   2.196   6.000
 2794SOL    HW1 9281   0.576   2.137   6.078
 2794SOL    HW2 9282   0.529   2.271   5.997
 2795SOL     OW 9283   1.308   4.957   1.611
 2795SOL    HW1 9284   1.335   4.992   1.701
 2795SOL    HW2 9285   1.389   4.929   1.560
 2796SOL     OW 9286   1.476   6.189   5.661
 2796SOL    HW1 9287   1.471   6.095   5.625
 2796SOL    HW2 9288   1.522   6.248   5.595
 2797SOL     OW 9289   5.766   6.874   3.800
 2797SOL    HW1 9290   5.708   6.874   3.882
 2797SOL    HW2 9291   5.775   6.781   3.766
 2798SOL     OW 9292   5.848   6.839   1.758
 2798SOL    HW1 9293   5.795   6.825   1.674
 2798SOL    HW2 9294   5.944   6.854   1.735
 2799SOL     OW 9295   3.649   5.974   4.785
 2799SOL    HW1 9296   3.695   5.935   4.865
 2799SOL    HW2 9297   3.692   5.937   4.702
 2800SOL     OW 9298   6.564   0.804   6.744
 2800SOL    HW1 9299   6.527   0.714   6.721
 2800SOL    HW2 9300   6.620   0.797   6.827
 2801SOL     OW 9301   0.613   4.960   5.322
 2801SOL    HW1 9302   0.553   5.028   5.363
 2801SOL    HW2 9303   0.616   4.974   5.223
 2802SOL     OW 9304   6.876   5.564   5.445
 2802SOL    HW1 9305   6.869   5.499   5.520
 2802SOL    HW2 9306   6.934   5.641   5.473
 2803SOL     OW 9307   3.846   3.005   6.826
 2803SOL    HW1 9308   3.819   2.918   6.785
 2803SOL    HW2 9309   3.945   3.007   6.838
 2804SOL     OW 9310   0.033   2.680   3.746
 2804SOL    HW1 9311   7.029   2.611   3.682
 2804SOL    HW2 9312   0.131   2.694   3.731
 2805SOL     OW 9313   4.219   3.421   1.134
 2805SOL    HW1 9314   4.160   3.349   1.170
 2805SOL    HW2 9315   4.303   3.380   1.097
 2806SOL     OW 9316   0.594   4.739   5.782
 2806SOL    HW1 9317   0.652   4.784   5.850
 2806SOL    HW2 9318   0.626   4.646   5.766
 2807SOL     OW 9319   2.992   0.358   3.406
 2807SOL    HW1 9320   3.082   0.335   3.370
 2807SOL    HW2 9321   2.998   0.441   3.462
 2808SOL     OW 9322   6.616   4.833   6.980
 2808SOL    HW1 9323   6.683   4.907   6.983
 2808SOL    HW2 9324   6.663   4.745   6.978
 2809SOL     OW 9325   6.548   5.000   2.188
 2809SOL    HW1 9326   6.532   4.970   2.282
 2809SOL    HW2 9327   6.460   5.012   2.141
 2810SOL     OW 9328   2.371   5.339   3.357
 2810SOL    HW1 9329   2.289   5.396   3.354
 2810SOL    HW2 9330   2.344   5.242   3.364
 2811SOL     OW 9331   0.871   0.715   2.007
 2811SOL    HW1 9332   0.825   0.803   2.007
 2811SOL    HW2 9333   0.804   0.642   2.019
 2812SOL     OW 9334   0.805   3.010   1.148
 2812SOL    HW1 9335   0.762   2.939   1.093
 2812SOL    HW2 9336   0.863   3.067   1.090
 2813SOL     OW 9337   0.875   2.244   1.754
 2813SOL    HW1 9338   0.832   2.331   1.726
 2813SOL    HW2 9339   0.852   2.173   1.687
 2814SOL     OW 9340   1.946   4.270   0.299
 2814SOL    HW1 9341   1.957   4.228   0.389
 2814SOL    HW2 9342   1.907   4.203   0.235
 2815SOL     OW 9343   0.444   5.801   5.541
 2815SOL    HW1 9344   0.475   5.794   5.636
 2815SOL    HW2 9345   0.524   5.813   5.482
 2816SOL     OW 9346   0.395   6.079   6.137
 2816SOL    HW1 9347   0.354   6.165   6.105
 2816SOL    HW2 9348   0.408   6.018   6.060
 2817SOL     OW 9349   4.556   0.557   2.035
 2817SOL    HW1 9350   4.614   0.477   2.024
 2817SOL    HW2 9351   4.488   0.560   1.960
 2818SOL     OW 9352   1.086   0.249   1.365
 2818SOL    HW1 9353   1.084   0.334   1.312
 2818SOL    HW2 9354   1.044   0.176   1.311
 2819SOL     OW 9355   0.668   0.389   0.618
 2819SOL    HW1 9356   0.572   0.409   0.636
 2819SOL    HW2 9357   0.691   0.414   0.524
 2820SOL     OW 9358   1.169   2.967   1.275
 2820SOL    HW1 9359   1.079   2.993   1.311
 2820SOL    HW2 9360   1.227   2.936   1.350
 2821SOL     OW 9361   2.968   4.137   6.671
 2821SOL    HW1 9362   3.038   4.195   6.712
 2821SOL    HW2 9363   3.011   4.071   6.610
 2822SOL     OW 9364   4.732   2.928   1.018
 2822SOL    HW1 9365   4.633   2.913   1.017
 2822SOL    HW2 9366   4.758   2.986   0.941
 2823SOL     OW 9367   5.544   2.181   1.163
 2823SOL    HW1 9368   5.620   2.148   1.218
 2823SOL    HW2 9369   5.460   2.133   1.190
 2824SOL     OW 9370   1.258   3.481   5.284
 2824SOL    HW1 9371   1.263   3.558   5.347
 2824SOL    HW2 9372   1.191   3.501   5.212
 2825SOL     OW 9373   5.458   1.672   6.420
 2825SOL    HW1 9374   5.535   1.660   6.482
 2825SOL    HW2 9375   5.390   1.601   6.439
 2826SOL     OW 9376   2.154   3.617   6.358
 2826SOL    HW1 9377   2.182   3.534   6.407
 2826SOL    HW2 9378   2.129   3.687   6.425
 2827SOL     OW 9379   6.650   0.910   6.209
 2827SOL    HW1 9380   6.684   0.912   6.115
 2827SOL    HW2 9381   6.685   0.989   6.260
 2828SOL     OW 9382   1.489   3.971   1.008
 2828SOL    HW1 9383   1.451   3.969   0.915
 2828SOL    HW2 9384   1.583   4.005   1.005
 2829SOL     OW 9385   4.019   3.823   3.457
 2829SOL    HW1 9386   4.083   3.747   3.447
 2829SOL    HW2 9387   4.012   3.848   3.554
 2830SOL     OW 9388   3.208   5.438   5.823
 2830SOL    HW1 9389   3.276   5.444   5.750
 2830SOL    HW2 9390   3.121   5.474   5.790
 2831SOL     OW 9391   6.261   1.869   2.245
 2831SOL    HW1 9392   6.270   1.896   2.149
 2831SOL    HW2 9393   6.185   1.806   2.255
 2832SOL     OW 9394   0.744   3.269   0.912
 2832SOL    HW1 9395   0.674   3.268   0.983
 2832SOL    HW2 9396   0.830   3.233   0.950
 2833SOL     OW 9397   1.615   2.359   1.904
 2833SOL    HW1 9398   1.552   2.361   1.981
 2833SOL    HW2 9399   1.567   2.326   1.823
 2834SOL     OW 9400   3.893   6.082   5.346
 2834SOL    HW1 9401   3.988   6.057   5.366
 2834SOL    HW2 9402   3.843   6.091   5.432
 2835SOL     OW 9403   0.244   6.826   0.680
 2835SOL    HW1 9404   0.221   6.916   0.644
 2835SOL    HW2 9405   0.343   6.818   0.692
 2836SOL     OW 9406   3.492   6.322   3.193
 2836SOL    HW1 9407   3.517   6.255   3.123
 2836SOL    HW2 9408   3.392   6.334   3.193
 2837SOL     OW 9409   5.276   4.219   2.406
 2837SOL    HW1 9410   5.372   4.243   2.423
 2837SOL    HW2 9411   5.228   4.297   2.367
 2838SOL     OW 9412   5.318   4.344   6.201
 2838SOL    HW1 9413   5.322   4.391   6.289
 2838SOL    HW2 9414   5.231   4.363   6.157
 2839SOL     OW 9415   6.045   2.720   5.047
 2839SOL    HW1 9416   6.074   2.692   5.138
 2839SOL    HW2 9417   5.948   2.744   5.049
 2840SOL     OW 9418   0.226   6.416   3.624
 2840SOL    HW1 9419   0.159   6.440   3.553
 2840SOL    HW2 9420   0.303   6.368   3.582
 2841SOL     OW 9421   6.285   2.748   2.119
 2841SOL    HW1 9422   6.219   2.784   2.185
 2841SOL    HW2 9423   6.352   2.691   2.166
 2842SOL     OW 9424   1.455   6.860   3.085
 2842SOL    HW1 9425   1.501   6.785   3.038
 2842SOL    HW2 9426   1.509   6.944   3.075
 2843SOL     OW 9427   2.409   2.716   3.342
 2843SOL    HW1 9428   2.448   2.703   3.433
 2843SOL    HW2 9429   2.431   2.637   3.285
 2844SOL     OW 9430   4.737   4.721   1.366
 2844SOL    HW1 9431   4.808   4.695   1.301
 2844SOL    HW2 9432   4.779   4.771   1.442
 2845SOL     OW 9433   3.617   1.996   2.848
 2845SOL    HW1 9434   3.697   2.013   2.791
 2845SOL    HW2 9435   3.612   1.899   2.870
 2846SOL     OW 9436   5.493   0.488   0.280
 2846SOL    HW1 9437   5.472   0.494   0.378
 2846SOL    HW2 9438   5.434   0.551   0.229
 2847SOL     OW 9439   4.825   4.585   2.276
 2847SOL    HW1 9440   4.850   4.522   2.350
 2847SOL    HW2 9441   4.868   4.556   2.191
 2848SOL     OW 9442   0.909   4.303   5.253
 2848SOL    HW1 9443   0.943   4.212   5.276
 2848SOL    HW2 9444   0.862   4.301   5.165
 2849SOL     OW 9445   4.748   0.544   2.567
 2849SOL    HW1 9446   4.727   0.483   2.644
 2849SOL    HW2 9447   4.706   0.508   2.484
 2850SOL     OW 9448   2.545   6.797   2.841
 2850SOL    HW1 9449   2.553   6.751   2.929
 2850SOL    HW2 9450   2.461   6.852   2.839
 2851SOL     OW 9451   3.881   3.511   0.764
 2851SOL    HW1 9452   3.797   3.479   0.808
 2851SOL    HW2 9453   3.881   3.611   0.760
 2852SOL     OW 9454   6.081   3.912   5.736
 2852SOL    HW1 9455   6.068   3.819   5.770
 2852SOL    HW2 9456   6.040   3.920   5.645
 2853SOL     OW 9457   0.594   3.901   6.699
 2853SOL    HW1 9458   0.565   3.949   6.617
 2853SOL    HW2 9459   0.577   3.803   6.689
 2854SOL     OW 9460   3.391   1.899   6.232
 2854SOL    HW1 9461   3.428   1.990   6.250
 2854SOL    HW2 9462   3.340   1.868   6.312
 2855SOL     OW 9463   1.866   1.703   4.758
 2855SOL    HW1 9464   1.936   1.656   4.704
 2855SOL    HW2 9465   1.875   1.677   4.854
 2856SOL     OW 9466   0.227   4.546   3.291
 2856SOL    HW1 9467   0.265   4.501   3.210
 2856SOL    HW2 9468   0.168   4.481   3.340
 2857SOL     OW 9469   0.157   3.279   0.465
 2857SOL    HW1 9470   0.144   3.343   0.389
 2857SOL    HW2 9471   0.239   3.304   0.517
 2858SOL     OW 9472   4.716   5.132   2.784
 2858SOL    HW1 9473   4.621   5.105   2.801
 2858SOL    HW2 9474   4.769   5.121   2.868
 2859SOL     OW 9475   5.445   4.703   1.548
 2859SOL    HW1 9476   5.482   4.612   1.564
 2859SOL    HW2 9477   5.415   4.744   1.634
 2860SOL     OW 9478   1.015   6.118   2.106
 2860SOL    HW1 9479   0.922   6.149   2.088
 2860SOL    HW2 9480   1.013   6.027   2.146
 2861SOL     OW 9481   4.662   5.382   0.012
 2861SOL    HW1 9482   4.600   5.304   0.008
 2861SOL    HW2 9483   4.742   5.363   6.985
 2862SOL     OW 9484   3.995   3.035   0.414
 2862SOL    HW1 9485   3.903   3.017   0.380
 2862SOL    HW2 9486   3.995   3.118   0.470
 2863SOL     OW 9487   5.781   0.243   5.679
 2863SOL    HW1 9488   5.834   0.283   5.605
 2863SOL    HW2 9489   5.843   0.202   5.746
 2864SOL     OW 9490   4.325   3.952   0.611
 2864SOL    HW1 9491   4.339   3.920   0.704
 2864SOL    HW2 9492   4.401   3.921   0.553
 2865SOL     OW 9493   5.023   5.460   4.765
 2865SOL    HW1 9494   5.015   5.414   4.677
 2865SOL    HW2 9495   5.117   5.492   4.778
 2866SOL     OW 9496   4.190   4.506   6.934
 2866SOL    HW1 9497   4.268   4.502   6.997
 2866SOL    HW2 9498   4.152   4.414   6.923
 2867SOL     OW 9499   5.672   6.201   1.665
 2867SOL    HW1 9500   5.668   6.215   1.764
 2867SOL    HW2 9501   5.579   6.201   1.627
 2868SOL     OW 9502   1.310   1.630   6.291
 2868SOL    HW1 9503   1.281   1.650   6.385
 2868SOL    HW2 9504   1.319   1.716   6.241
 2869SOL     OW 9505   5.540   5.648   4.392
 2869SOL    HW1 9506   5.522   5.552   4.411
 2869SOL    HW2 9507   5.462   5.703   4.420
 2870SOL     OW 9508   6.827   2.026   1.293
 2870SOL    HW1 9509   6.912   1.977   1.315
 2870SOL    HW2 9510   6.789   1.989   1.209
 2871SOL     OW 9511   5.027   1.906   1.492
 2871SOL    HW1 9512   5.003   1.882   1.398
 2871SOL    HW2 9513   4.955   1.963   1.532
 2872SOL     OW 9514   2.819   2.065   2.532
 2872SOL    HW1 9515   2.908   2.107   2.515
 2872SOL    HW2 9516   2.815   1.977   2.484
 2873SOL     OW 9517   0.745   6.228   1.394
 2873SOL    HW1 9518   0.810   6.160   1.360
 2873SOL    HW2 9519   0.675   6.245   1.325
 2874SOL     OW 9520   2.502   0.994   2.945
 2874SOL    HW1 9521   2.498   1.094   2.955
 2874SOL    HW2 9522   2.416   0.954   2.978
 2875SOL     OW 9523   3.309   6.596   3.381
 2875SOL    HW1 9524   3.397   6.643   3.374
 2875SOL    HW2 9525   3.239   6.663   3.407
 2876SOL     OW 9526   1.498   5.956   2.098
 2876SOL    HW1 9527   1.477   5.971   2.194
 2876SOL    HW2 9528   1.579   6.010   2.073
 2877SOL     OW 9529   1.107   1.456   6.160
 2877SOL    HW1 9530   1.033   1.514   6.127
 2877SOL    HW2 9531   1.172   1.512   6.212
 2878SOL     OW 9532   4.046   3.153   4.284
 2878SOL    HW1 9533   4.061   3.204   4.199
 2878SOL    HW2 9534   3.964   3.096   4.273
 2879SOL     OW 9535   4.666   4.272   0.497
 2879SOL    HW1 9536   4.634   4.215   0.572
 2879SOL    HW2 9537   4.593   4.281   0.429
 2880SOL     OW 9538   1.276   1.087   4.687
 2880SOL    HW1 9539   1.186   1.067   4.648
 2880SOL    HW2 9540   1.272   1.173   4.738
 2881SOL     OW 9541   4.125   6.262   6.627
 2881SOL    HW1 9542   4.091   6.182   6.677
 2881SOL    HW2 9543   4.052   6.329   6.618
 2882SOL     OW 9544   4.813   6.606   0.242
 2882SOL    HW1 9545   4.754   6.634   0.318
 2882SOL    HW2 9546   4.904   6.583   0.276
 2883SOL     OW 9547   6.500   6.161   3.704
 2883SOL    HW1 9548   6.497   6.103   3.786
 2883SOL    HW2 9549   6.524   6.254   3.730
 2884SOL     OW 9550   0.338   5.087   2.754
 2884SOL    HW1 9551   0.292   5.009   2.797
 2884SOL    HW2 9552   0.278   5.127   2.685
 2885SOL     OW 9553   0.809   2.652   2.972
 2885SOL    HW1 9554   0.761   2.724   3.022
 2885SOL    HW2 9555   0.887   2.620   3.025
 2886SOL     OW 9556   2.548   4.583   5.891
 2886SOL    HW1 9557   2.451   4.562   5.906
 2886SOL    HW2 9558   2.566   4.584   5.792
 2887SOL     OW 9559   1.459   5.630   3.590
 2887SOL    HW1 9560   1.470   5.648   3.492
 2887SOL    HW2 9561   1.549   5.622   3.633
 2888SOL     OW 9562   6.322   6.860   0.329
 2888SOL    HW1 9563   6.256   6.787   0.310
 2888SOL    HW2 9564   6.299   6.904   0.416
 2889SOL     OW 9565   3.614   6.296   3.430
 2889SOL    HW1 9566   3.686   6.227   3.437
 2889SOL    HW2 9567   3.586   6.305   3.335
 2890SOL     OW 9568   2.873   0.558   1.209
 2890SOL    HW1 9569   2.869   0.469   1.164
 2890SOL    HW2 9570   2.881   0.630   1.141
 2891SOL     OW 9571   0.301   2.655   3.632
 2891SOL    HW1 9572   0.347   2.744   3.624
 2891SOL    HW2 9573   0.315   2.618   3.723
 2892SOL     OW 9574   6.860   3.703   2.297
 2892SOL    HW1 9575   6.796   3.645   2.246
 2892SOL    HW2 9576   6.888   3.780   2.239
 2893SOL     OW 9577   6.969   5.390   4.550
 2893SOL    HW1 9578   6.905   5.466   4.547
 2893SOL    HW2 9579   0.031   5.422   4.525
 2894SOL     OW 9580   1.256   5.268   2.731
 2894SOL    HW1 9581   1.284   5.262   2.635
 2894SOL    HW2 9582   1.274   5.360   2.764
 2895SOL     OW 9583   4.065   6.616   6.266
 2895SOL    HW1 9584   4.033   6.628   6.172
 2895SOL    HW2 9585   4.161   6.588   6.265
 2896SOL     OW 9586   5.901   6.026   5.054
 2896SOL    HW1 9587   5.862   5.934   5.048
 2896SOL    HW2 9588   5.882   6.063   5.145
 2897SOL     OW 9589   3.908   4.829   2.885
 2897SOL    HW1 9590   3.974   4.754   2.883
 2897SOL    HW2 9591   3.882   4.848   2.980
 2898SOL     OW 9592   5.712   3.828   2.437
 2898SOL    HW1 9593   5.761   3.915   2.441
 2898SOL    HW2 9594   5.755   3.763   2.500
 2899SOL     OW 9595   0.201   3.182   0.812
 2899SOL    HW1 9596   0.142   3.112   0.854
 2899SOL    HW2 9597   0.186   3.270   0.858
 2900SOL     OW 9598   2.822   4.254   6.946
 2900SOL    HW1 9599   2.772   4.328   6.990
 2900SOL    HW2 9600   2.759   4.201   6.888
 2901SOL     OW 9601   1.430   3.867   3.350
 2901SOL    HW1 9602   1.382   3.921   3.281
 2901SOL    HW2 9603   1.518   3.836   3.313
 2902SOL     OW 9604   0.814   5.972   3.757
 2902SOL    HW1 9605   0.797   5.883   3.799
 2902SOL    HW2 9606   0.727   6.019   3.742
 2903SOL     OW 9607   4.869   5.686   0.913
 2903SOL    HW1 9608   4.857   5.699   0.815
 2903SOL    HW2 9609   4.965   5.699   0.937
 2904SOL     OW 9610   2.311   4.404   5.132
 2904SOL    HW1 9611   2.310   4.326   5.194
 2904SOL    HW2 9612   2.291   4.373   5.039
 2905SOL     OW 9613   0.388   4.834   1.708
 2905SOL    HW1 9614   0.459   4.854   1.640
 2905SOL    HW2 9615   0.330   4.759   1.674
 2906SOL     OW 9616   6.121   5.714   3.235
 2906SOL    HW1 9617   6.221   5.716   3.234
 2906SOL    HW2 9618   6.089   5.698   3.328
 2907SOL     OW 9619   0.635   0.734   3.750
 2907SOL    HW1 9620   0.646   0.826   3.789
 2907SOL    HW2 9621   0.601   0.742   3.656
 2908SOL     OW 9622   4.225   0.018   2.667
 2908SOL    HW1 9623   4.299   0.055   2.723
 2908SOL    HW2 9624   4.245   6.952   2.646
 2909SOL     OW 9625   1.210   5.832   2.382
 2909SOL    HW1 9626   1.152   5.845   2.301
 2909SOL    HW2 9627   1.154   5.843   2.465
 2910SOL     OW 9628   0.115   0.864   3.478
 2910SOL    HW1 9629   0.169   0.910   3.407
 2910SOL    HW2 9630   0.055   0.796   3.436
 2911SOL     OW 9631   6.757   4.208   4.637
 2911SOL    HW1 9632   6.755   4.152   4.554
 2911SOL    HW2 9633   6.783   4.302   4.614
 2912SOL     OW 9634   0.064   6.913   1.375
 2912SOL    HW1 9635   0.129   6.884   1.445
 2912SOL    HW2 9636   0.080   6.861   1.291
 2913SOL     OW 9637   2.209   5.975   1.168
 2913SOL    HW1 9638   2.132   6.013   1.116
 2913SOL    HW2 9639   2.174   5.912   1.238
 2914SOL     OW 9640   5.132   5.178   0.075
 2914SOL    HW1 9641   5.089   5.143   0.158
 2914SOL    HW2 9642   5.132   5.108   0.004
 2915SOL     OW 9643   3.017   1.119   3.006
 2915SOL    HW1 9644   3.026   1.179   2.927
 2915SOL    HW2 9645   3.050   1.028   2.983
 2916SOL     OW 9646   1.302   5.715   0.119
 2916SOL    HW1 9647   1.313   5.637   0.181
 2916SOL    HW2 9648   1.234   5.778   0.156
 2917SOL     OW 9649   2.938   6.831   4.125
 2917SOL    HW1 9650   2.939   6.796   4.031
 2917SOL    HW2 9651   2.880   6.772   4.182
 2918SOL     OW 9652   6.113   3.550   1.474
 2918SOL    HW1 9653   6.026   3.599   1.481
 2918SOL    HW2 9654   6.108   3.467   1.530
 2919SOL     OW 9655   1.345   5.578   4.166
 2919SOL    HW1 9656   1.397   5.606   4.247
 2919SOL    HW2 9657   1.275   5.646   4.147
 2920SOL     OW 9658   1.847   1.968   2.188
 2920SOL    HW1 9659   1.811   1.912   2.113
 2920SOL    HW2 9660   1.809   2.060   2.183
 2921SOL     OW 9661   0.485   0.226   5.527
 2921SOL    HW1 9662   0.526   0.155   5.469
 2921SOL    HW2 9663   0.507   0.208   5.623
 2922SOL     OW 9664   3.771   0.664   3.264
 2922SOL    HW1 9665   3.678   0.633   3.244
 2922SOL    HW2 9666   3.785   0.755   3.223
 2923SOL     OW 9667   5.839   5.694   4.453
 2923SOL    HW1 9668   5.781   5.717   4.374
 2923SOL    HW2 9669   5.833   5.596   4.471
 2924SOL     OW 9670   5.989   2.768   5.369
 2924SOL    HW1 9671   5.940   2.683   5.388
 2924SOL    HW2 9672   5.938   2.822   5.303
 2925SOL     OW 9673   4.954   0.115   6.171
 2925SOL    HW1 9674   4.906   0.035   6.134
 2925SOL    HW2 9675   5.021   0.086   6.238
 2926SOL     OW 9676   0.219   2.192   4.519
 2926SOL    HW1 9677   0.267   2.171   4.605
 2926SOL    HW2 9678   0.210   2.109   4.465
 2927SOL     OW 9679   1.404   2.461   2.081
 2927SOL    HW1 9680   1.413   2.419   2.172
 2927SOL    HW2 9681   1.478   2.527   2.068
 2928SOL     OW 9682   0.255   2.778   0.673
 2928SOL    HW1 9683   0.208   2.821   0.596
 2928SOL    HW2 9684   0.199   2.789   0.756
 2929SOL     OW 9685   1.758   2.639   5.135
 2929SOL    HW1 9686   1.725   2.545   5.146
 2929SOL    HW2 9687   1.835   2.640   5.070
 2930SOL     OW 9688   6.717   5.240   5.426
 2930SOL    HW1 9689   6.626   5.236   5.385
 2930SOL    HW2 9690   6.773   5.306   5.377
 2931SOL     OW 9691   4.857   4.281   5.764
 2931SOL    HW1 9692   4.804   4.249   5.843
 2931SOL    HW2 9693   4.954   4.259   5.778
 2932SOL     OW 9694   6.807   5.434   0.601
 2932SOL    HW1 9695   6.854   5.464   0.518
 2932SOL    HW2 9696   6.775   5.340   0.589
 2933SOL     OW 9697   1.480   0.486   0.745
 2933SOL    HW1 9698   1.539   0.551   0.793
 2933SOL    HW2 9699   1.406   0.457   0.806
 2934SOL     OW 9700   4.124   4.598   0.472
 2934SOL    HW1 9701   4.145   4.591   0.569
 2934SOL    HW2 9702   4.209   4.599   0.419
 2935SOL     OW 9703   6.723   2.363   5.841
 2935SOL    HW1 9704   6.659   2.291   5.813
 2935SOL    HW2 9705   6.794   2.323   5.898
 2936SOL     OW 9706   4.778   6.814   1.511
 2936SOL    HW1 9707   4.740   6.878   1.445
 2936SOL    HW2 9708   4.790   6.725   1.467
 2937SOL     OW 9709   4.808   5.365   2.235
 2937SOL    HW1 9710   4.877   5.321   2.178
 2937SOL    HW2 9711   4.748   5.296   2.275
 2938SOL     OW 9712   6.169   5.773   6.703
 2938SOL    HW1 9713   6.201   5.772   6.798
 2938SOL    HW2 9714   6.248   5.780   6.642
 2939SOL     OW 9715   0.038   5.755   1.085
 2939SOL    HW1 9716   0.020   5.660   1.108
 2939SOL    HW2 9717   0.001   5.775   0.994
 2940SOL     OW 9718   4.375   5.899   3.583
 2940SOL    HW1 9719   4.469   5.921   3.610
 2940SOL    HW2 9720   4.370   5.805   3.551
 2941SOL     OW 9721   1.663   3.429   4.131
 2941SOL    HW1 9722   1.732   3.357   4.124
 2941SOL    HW2 9723   1.689   3.493   4.204
 2942SOL     OW 9724   3.672   1.728   1.060
 2942SOL    HW1 9725   3.602   1.702   0.993
 2942SOL    HW2 9726   3.628   1.769   1.140
 2943SOL     OW 9727   6.107   4.091   3.404
 2943SOL    HW1 9728   6.140   3.999   3.380
 2943SOL    HW2 9729   6.185   4.152   3.413
 2944SOL     OW 9730   1.839   5.920   3.187
 2944SOL    HW1 9731   1.745   5.944   3.163
 2944SOL    HW2 9732   1.861   5.956   3.277
 2945SOL     OW 9733   5.185   4.659   1.247
 2945SOL    HW1 9734   5.130   4.707   1.315
 2945SOL    HW2 9735   5.200   4.719   1.168
 2946SOL     OW 9736   3.108   3.909   5.910
 2946SOL    HW1 9737   3.072   3.886   5.819
 2946SOL    HW2 9738   3.204   3.938   5.901
 2947SOL     OW 9739   5.813   6.957   0.658
 2947SOL    HW1 9740   5.763   6.972   0.573
 2947SOL    HW2 9741   5.896   7.012   0.658
 2948SOL     OW 9742   6.519   3.867   2.344
 2948SOL    HW1 9743   6.453   3.913   2.285
 2948SOL    HW2 9744   6.606   3.859   2.297
 2949SOL     OW 9745   1.440   6.953   0.972
 2949SOL    HW1 9746   1.530   6.915   0.948
 2949SOL    HW2 9747   1.370   6.913   0.914
 2950SOL     OW 9748   5.313   4.956   2.670
 2950SOL    HW1 9749   5.330   5.001   2.758
 2950SOL    HW2 9750   5.219   4.925   2.665
 2951SOL     OW 9751   6.171   1.740   1.656
 2951SOL    HW1 9752   6.116   1.816   1.692
 2951SOL    HW2 9753   6.121   1.696   1.581
 2952SOL     OW 9754   5.556   1.460   4.294
 2952SOL    HW1 9755   5.520   1.483   4.203
 2952SOL    HW2 9756   5.654   1.482   4.297
 2953SOL     OW 9757   0.922   5.850   4.055
 2953SOL    HW1 9758   0.897   5.947   4.062
 2953SOL    HW2 9759   0.873   5.808   3.978
 2954SOL     OW 9760   0.302   4.752   5.751
 2954SOL    HW1 9761   0.402   4.762   5.753
 2954SOL    HW2 9762   0.277   4.677   5.691
 2955SOL     OW 9763   1.941   4.913   6.944
 2955SOL    HW1 9764   1.876   4.841   6.920
 2955SOL    HW2 9765   1.946   4.979   6.869
 2956SOL     OW 9766   6.304   4.281   3.433
 2956SOL    HW1 9767   6.403   4.274   3.443
 2956SOL    HW2 9768   6.274   4.371   3.462
 2957SOL     OW 9769   2.135   5.229   1.380
 2957SOL    HW1 9770   2.062   5.283   1.337
 2957SOL    HW2 9771   2.149   5.145   1.328
 2958SOL     OW 9772   2.478   5.502   3.138
 2958SOL    HW1 9773   2.402   5.452   3.181
 2958SOL    HW2 9774   2.558   5.442   3.132
 2959SOL     OW 9775   7.013   2.672   3.319
 2959SOL    HW1 9776   0.016   2.755   3.364
 2959SOL    HW2 9777   7.004   2.599   3.386
 2960SOL     OW 9778   4.605   0.852   0.546
 2960SOL    HW1 9779   4.532   0.884   0.605
 2960SOL    HW2 9780   4.640   0.764   0.580
 2961SOL     OW 9781   5.768   4.093   2.363
 2961SOL    HW1 9782   5.691   4.040   2.325
 2961SOL    HW2 9783   5.759   4.188   2.334
 2962SOL     OW 9784   0.114   6.679   2.556
 2962SOL    HW1 9785   0.119   6.595   2.611
 2962SOL    HW2 9786   0.075   6.657   2.466
 2963SOL     OW 9787   1.731   1.418   4.841
 2963SOL    HW1 9788   1.793   1.372   4.777
 2963SOL    HW2 9789   1.670   1.479   4.789
 2964SOL     OW 9790   1.121   2.478   0.184
 2964SOL    HW1 9791   1.194   2.428   0.138
 2964SOL    HW2 9792   1.033   2.457   0.141
 2965SOL     OW 9793   1.207   0.051   4.716
 2965SOL    HW1 9794   1.201   0.104   4.631
 2965SOL    HW2 9795   1.165   6.991   4.703
 2966SOL     OW 9796   4.232   5.464   3.328
 2966SOL    HW1 9797   4.152   5.501   3.280
 2966SOL    HW2 9798   4.221   5.366   3.341
 2967SOL     OW 9799   6.333   0.103   5.378
 2967SOL    HW1 9800   6.376   0.134   5.463
 2967SOL    HW2 9801   6.356   0.007   5.362
 2968SOL     OW 9802   1.769   2.469   1.126
 2968SOL    HW1 9803   1.817   2.554   1.146
 2968SOL    HW2 9804   1.737   2.427   1.211
 2969SOL     OW 9805   5.242   3.400   4.596
 2969SOL    HW1 9806   5.267   3.363   4.686
 2969SOL    HW2 9807   5.266   3.334   4.525
 2970SOL     OW 9808   2.406   2.694   4.218
 2970SOL    HW1 9809   2.496   2.661   4.246
 2970SOL    HW2 9810   2.336   2.628   4.243
 2971SOL     OW 9811   5.292   3.206   6.280
 2971SOL    HW1 9812   5.214   3.254   6.319
 2971SOL    HW2 9813   5.261   3.146   6.206
 2972SOL     OW 9814   5.801   4.707   6.850
 2972SOL    HW1 9815   5.721   4.693   6.909
 2972SOL    HW2 9816   5.804   4.803   6.821
 2973SOL     OW 9817   4.938   0.320   2.457
 2973SOL    HW1 9818   4.847   0.288   2.434
 2973SOL    HW2 9819   4.970   0.275   2.540
 2974SOL     OW 9820   4.576   5.616   3.115
 2974SOL    HW1 9821   4.663   5.584   3.077
 2974SOL    HW2 9822   4.502   5.559   3.079
 2975SOL     OW 9823   4.925   4.346   3.989
 2975SOL    HW1 9824   4.833   4.342   4.026
 2975SOL    HW2 9825   4.973   4.260   4.010
 2976SOL     OW 9826   4.145   2.182   2.088
 2976SOL    HW1 9827   4.235   2.148   2.062
 2976SOL    HW2 9828   4.153   2.240   2.169
 2977SOL     OW 9829   1.263   0.998   1.668
 2977SOL    HW1 9830   1.184   0.986   1.727
 2977SOL    HW2 9831   1.339   0.943   1.702
 2978SOL     OW 9832   4.850   4.963   6.736
 2978SOL    HW1 9833   4.942   5.001   6.749
 2978SOL    HW2 9834   4.785   5.038   6.723
 2979SOL     OW 9835   3.472   0.825   4.090
 2979SOL    HW1 9836   3.440   0.737   4.054
 2979SOL    HW2 9837   3.565   0.814   4.125
 2980SOL     OW 9838   3.539   4.254   5.969
 2980SOL    HW1 9839   3.626   4.220   6.005
 2980SOL    HW2 9840   3.555   4.302   5.882
 2981SOL     OW 9841   1.203   1.036   0.900
 2981SOL    HW1 9842   1.197   1.005   0.805
 2981SOL    HW2 9843   1.286   1.091   0.912
 2982SOL     OW 9844   0.726   0.803   1.554
 2982SOL    HW1 9845   0.804   0.835   1.500
 2982SOL    HW2 9846   0.732   0.841   1.646
 2983SOL     OW 9847   5.656   3.000   6.364
 2983SOL    HW1 9848   5.682   2.930   6.430
 2983SOL    HW2 9849   5.582   2.966   6.306
 2984SOL     OW 9850   0.236   4.844   0.381
 2984SOL    HW1 9851   0.206   4.893   0.298
 2984SOL    HW2 9852   0.302   4.774   0.355
 2985SOL     OW 9853   0.176   6.369   4.350
 2985SOL    HW1 9854   0.236   6.449   4.356
 2985SOL    HW2 9855   0.195   6.307   4.426
 2986SOL     OW 9856   3.586   4.006   2.669
 2986SOL    HW1 9857   3.492   4.039   2.661
 2986SOL    HW2 9858   3.645   4.081   2.698
 2987SOL     OW 9859   2.027   0.884   4.292
 2987SOL    HW1 9860   2.011   0.954   4.362
 2987SOL    HW2 9861   2.084   0.923   4.219
 2988SOL     OW 9862   0.975   2.072   0.248
 2988SOL    HW1 9863   0.984   1.998   0.314
 2988SOL    HW2 9864   1.041   2.061   0.174
 2989SOL     OW 9865   5.421   3.958   4.034
 2989SOL    HW1 9866   5.329   3.923   4.053
 2989SOL    HW2 9867   5.474   3.959   4.119
 2990SOL     OW 9868   5.262   1.967   4.487
 2990SOL    HW1 9869   5.252   2.006   4.578
 2990SOL    HW2 9870   5.184   1.994   4.430
 2991SOL     OW 9871   6.202   3.893   0.483
 2991SOL    HW1 9872   6.136   3.921   0.553
 2991SOL    HW2 9873   6.291   3.880   0.525
 2992SOL     OW 9874   0.488   3.583   5.321
 2992SOL    HW1 9875   0.495   3.600   5.223
 2992SOL    HW2 9876   0.431   3.502   5.337
 2993SOL     OW 9877   1.177   4.391   0.232
 2993SOL    HW1 9878   1.191   4.299   0.268
 2993SOL    HW2 9879   1.089   4.426   0.263
 2994SOL     OW 9880   4.319   0.125   6.948
 2994SOL    HW1 9881   4.365   0.098   6.864
 2994SOL    HW2 9882   4.343   0.219   6.971
 2995SOL     OW 9883   5.080   0.146   1.268
 2995SOL    HW1 9884   4.985   0.149   1.299
 2995SOL    HW2 9885   5.124   0.234   1.287
 2996SOL     OW 9886   0.182   1.844   4.820
 2996SOL    HW1 9887   0.191   1.748   4.796
 2996SOL    HW2 9888   0.100   1.857   4.876
 2997SOL     OW 9889   5.306   0.246   3.868
 2997SOL    HW1 9890   5.291   0.338   3.904
 2997SOL    HW2 9891   5.402   0.235   3.843
 2998SOL     OW 9892   2.563   1.629   2.378
 2998SOL    HW1 9893   2.547   1.533   2.357
 2998SOL    HW2 9894   2.495   1.685   2.330
 2999SOL     OW 9895   2.562   4.481   0.148
 2999SOL    HW1 9896   2.474   4.478   0.099
 2999SOL    HW2 9897   2.562   4.558   0.211
 3000SOL     OW 9898   3.038   3.849   4.798
 3000SOL    HW1 9899   3.067   3.845   4.702
 3000SOL    HW2 9900   3.101   3.795   4.854
 3001SOL     OW 9901   6.233   0.448   5.716
 3001SOL    HW1 9902   6.154   0.484   5.666
 3001SOL    HW2 9903   6.313   0.446   5.657
 3002SOL     OW 9904   2.614   1.536   1.557
 3002SOL    HW1 9905   2.533   1.594   1.570
 3002SOL    HW2 9906   2.668   1.534   1.641
 3003SOL     OW 9907   1.501   6.501   0.081
 3003SOL    HW1 9908   1.476   6.556   0.002
 3003SOL    HW2 9909   1.588   6.454   0.062
 3004SOL     OW 9910   2.438   5.988   3.750
 3004SOL    HW1 9911   2.419   5.970   3.846
 3004SOL    HW2 9912   2.352   5.985   3.698
 3005SOL     OW 9913   0.797   2.733   5.565
 3005SOL    HW1 9914   0.810   2.694   5.474
 3005SOL    HW2 9915   0.853   2.815   5.575
 3006SOL     OW 9916   5.491   1.458   5.716
 3006SOL    HW1 9917   5.464   1.465   5.812
 3006SOL    HW2 9918   5.588   1.480   5.706
 3007SOL     OW 9919   5.279   4.305   6.678
 3007SOL    HW1 9920   5.193   4.277   6.721
 3007SOL    HW2 9921   5.338   4.346   6.748
 3008SOL     OW 9922   4.391   2.279   6.223
 3008SOL    HW1 9923   4.408   2.368   6.181
 3008SOL    HW2 9924   4.355   2.215   6.155
 3009SOL     OW 9925   0.468   3.475   2.150
 3009SOL    HW1 9926   0.478   3.412   2.072
 3009SOL    HW2 9927   0.505   3.565   2.125
 3010SOL     OW 9928   4.311   5.821   6.339
 3010SOL    HW1 9929   4.375   5.757   6.295
 3010SOL    HW2 9930   4.359   5.906   6.360
 3011SOL     OW 9931   6.738   0.013   0.837
 3011SOL    HW1 9932   6.797   0.091   0.859
 3011SOL    HW2 9933   6.757   7.012   0.743
 3012SOL     OW 9934   2.745   2.826   6.180
 3012SOL    HW1 9935   2.832   2.868   6.208
 3012SOL    HW2 9936   2.764   2.744   6.126
 3013SOL     OW 9937   0.618   5.259   4.896
 3013SOL    HW1 9938   0.685   5.235   4.826
 3013SOL    HW2 9939   0.528   5.269   4.853
 3014SOL     OW 9940   5.023   0.193   5.446
 3014SOL    HW1 9941   5.010   0.264   5.377
 3014SOL    HW2 9942   5.037   0.105   5.401
 3015SOL     OW 9943   1.341   1.308   0.343
 3015SOL    HW1 9944   1.399   1.304   0.262
 3015SOL    HW2 9945   1.338   1.402   0.378
 3016SOL     OW 9946   1.887   6.652   4.503
 3016SOL    HW1 9947   1.907   6.603   4.588
 3016SOL    HW2 9948   1.788   6.662   4.493
 3017SOL     OW 9949   0.098   5.469   1.089
 3017SOL    HW1 9950   0.179   5.475   1.031
 3017SOL    HW2 9951   0.030   5.411   1.044
 3018SOL     OW 9952   3.346   0.186   0.382
 3018SOL    HW1 9953   3.334   0.142   0.471
 3018SOL    HW2 9954   3.311   0.126   0.310
 3019SOL     OW 9955   2.017   0.521   5.079
 3019SOL    HW1 9956   1.940   0.479   5.030
 3019SOL    HW2 9957   2.041   0.607   5.036
 3020SOL     OW 9958   5.084   3.306   0.041
 3020SOL    HW1 9959   5.038   3.236   0.097
 3020SOL    HW2 9960   5.142   3.362   0.099
 3021SOL     OW 9961   3.552   6.200   4.597
 3021SOL    HW1 9962   3.556   6.114   4.648
 3021SOL    HW2 9963   3.485   6.192   4.524
 3022SOL     OW 9964   4.188   5.470   4.024
 3022SOL    HW1 9965   4.149   5.559   4.050
 3022SOL    HW2 9966   4.226   5.476   3.932
 3023SOL     OW 9967   4.739   6.702   3.057
 3023SOL    HW1 9968   4.698   6.611   3.046
 3023SOL    HW2 9969   4.673   6.764   3.098
 3024SOL     OW 9970   0.480   6.660   6.578
 3024SOL    HW1 9971   0.510   6.663   6.674
 3024SOL    HW2 9972   0.431   6.575   6.562
 3025SOL     OW 9973   3.631   6.411   0.749
 3025SOL    HW1 9974   3.625   6.315   0.775
 3025SOL    HW2 9975   3.545   6.439   0.705
 3026SOL     OW 9976   6.337   0.822   0.604
 3026SOL    HW1 9977   6.362   0.887   0.532
 3026SOL    HW2 9978   6.275   0.753   0.567
 3027SOL     OW 9979   4.591   1.376   1.408
 3027SOL    HW1 9980   4.603   1.452   1.343
 3027SOL    HW2 9981   4.646   1.394   1.489
 3028SOL     OW 9982   3.033   4.313   5.745
 3028SOL    HW1 9983   3.032   4.255   5.827
 3028SOL    HW2 9984   2.947   4.302   5.696
 3029SOL     OW 9985   0.688   2.631   4.264
 3029SOL    HW1 9986   0.772   2.578   4.275
 3029SOL    HW2 9987   0.640   2.636   4.352
 3030SOL     OW 9988   2.538   2.953   0.496
 3030SOL    HW1 9989   2.500   2.917   0.410
 3030SOL    HW2 9990   2.464   2.988   0.553
 3031SOL     OW 9991   0.935   6.475   1.236
 3031SOL    HW1 9992   0.897   6.566   1.254
 3031SOL    HW2 9993   0.908   6.412   1.308
 3032SOL     OW 9994   2.134   0.809   2.204
 3032SOL    HW1 9995   2.171   0.826   2.113
 3032SOL    HW2 9996   2.047   0.761   2.196
 3033SOL     OW 9997   6.755   2.001   4.518
 3033SOL    HW1 9998   6.700   1.933   4.567
 3033SOL    HW2 9999   6.725   2.006   4.423
 3034SOL     OW10000   0.044   5.224   3.289
 3034SOL    HW110001   0.125   5.232   3.231
 3034SOL    HW210002   0.043   5.299   3.355
 3035SOL     OW10003   1.147   2.736   6.513
 3035SOL    HW110004   1.062   2.781   6.539
 3035SOL    HW210005   1.223   2.800   6.521
 3036SOL     OW10006   3.484   2.541   6.407
 3036SOL    HW110007   3.540   2.472   6.362
 3036SOL    HW210008   3.471   2.619   6.346
 3037SOL     OW10009   0.031   5.518   0.115
 3037SOL    HW110010   6.993   5.498   0.187
 3037SOL    HW210011   0.121   5.488   0.145
 3038SOL     OW10012   5.333   4.039   6.551
 3038SOL    HW110013   5.333   3.981   6.633
 3038SOL    HW210014   5.340   4.135   6.578
 3039SOL     OW10015   6.738   3.935   6.598
 3039SOL    HW110016   6.689   3.942   6.512
 3039SOL    HW210017   6.704   4.003   6.662
 3040SOL     OW10018   4.755   3.918   5.827
 3040SOL    HW110019   4.850   3.905   5.796
 3040SOL    HW210020   4.751   3.995   5.890
 3041SOL     OW10021   2.256   4.283   4.886
 3041SOL    HW110022   2.275   4.194   4.928
 3041SOL    HW210023   2.224   4.269   4.792
 3042SOL     OW10024   0.327   5.265   3.151
 3042SOL    HW110025   0.320   5.312   3.064
 3042SOL    HW210026   0.365   5.173   3.137
 3043SOL     OW10027   3.279   4.874   0.588
 3043SOL    HW110028   3.318   4.784   0.567
 3043SOL    HW210029   3.288   4.933   0.508
 3044SOL     OW10030   3.425   3.431   5.208
 3044SOL    HW110031   3.354   3.361   5.206
 3044SOL    HW210032   3.426   3.475   5.298
 3045SOL     OW10033   4.763   1.412   1.944
 3045SOL    HW110034   4.681   1.457   1.978
 3045SOL    HW210035   4.801   1.353   2.016
 3046SOL     OW10036   5.699   5.695   0.918
 3046SOL    HW110037   5.742   5.629   0.980
 3046SOL    HW210038   5.722   5.673   0.824
 3047SOL     OW10039   6.298   1.196   6.367
 3047SOL    HW110040   6.282   1.113   6.420
 3047SOL    HW210041   6.359   1.176   6.291
 3048SOL     OW10042   3.902   3.767   0.771
 3048SOL    HW110043   3.921   3.855   0.728
 3048SOL    HW210044   3.817   3.774   0.824
 3049SOL     OW10045   1.584   0.881   4.150
 3049SOL    HW110046   1.623   0.966   4.186
 3049SOL    HW210047   1.600   0.807   4.215
 3050SOL     OW10048   2.708   2.424   1.422
 3050SOL    HW110049   2.719   2.384   1.513
 3050SOL    HW210050   2.780   2.391   1.362
 3051SOL     OW10051   2.377   6.158   5.441
 3051SOL    HW110052   2.428   6.244   5.442
 3051SOL    HW210053   2.280   6.176   5.454
 3052SOL     OW10054   6.741   6.440   2.482
 3052SOL    HW110055   6.791   6.435   2.568
 3052SOL    HW210056   6.802   6.415   2.406
 3053SOL     OW10057   1.552   4.331   0.253
 3053SOL    HW110058   1.517   4.240   0.271
 3053SOL    HW210059   1.607   4.329   0.169
 3054SOL     OW10060   5.593   1.424   2.564
 3054SOL    HW110061   5.498   1.422   2.534
 3054SOL    HW210062   5.630   1.331   2.563
 3055SOL     OW10063   5.963   5.643   6.574
 3055SOL    HW110064   6.041   5.694   6.610
 3055SOL    HW210065   5.925   5.691   6.495
 3056SOL     OW10066   4.579   1.357   6.064
 3056SOL    HW110067   4.575   1.413   5.981
 3056SOL    HW210068   4.609   1.264   6.040
 3057SOL     OW10069   5.708   5.038   3.018
 3057SOL    HW110070   5.776   5.110   3.033
 3057SOL    HW210071   5.620   5.080   2.993
 3058SOL     OW10072   0.366   4.504   6.810
 3058SOL    HW110073   0.350   4.421   6.862
 3058SOL    HW210074   0.464   4.524   6.809
 3059SOL     OW10075   2.240   2.459   4.280
 3059SOL    HW110076   2.270   2.497   4.368
 3059SOL    HW210077   2.214   2.364   4.291
 3060SOL     OW10078   5.219   4.990   5.090
 3060SOL    HW110079   5.233   4.891   5.096
 3060SOL    HW210080   5.179   5.012   5.002
 3061SOL     OW10081   5.450   5.512   5.114
 3061SOL    HW110082   5.359   5.548   5.089
 3061SOL    HW210083   5.489   5.465   5.035
 3062SOL     OW10084   4.998   4.416   1.761
 3062SOL    HW110085   5.006   4.461   1.672
 3062SOL    HW210086   4.916   4.359   1.762
 3063SOL     OW10087   0.234   4.343   1.518
 3063SOL    HW110088   0.135   4.344   1.529
 3063SOL    HW210089   0.258   4.312   1.426
 3064SOL     OW10090   4.504   1.681   6.673
 3064SOL    HW110091   4.532   1.590   6.704
 3064SOL    HW210092   4.570   1.749   6.707
 3065SOL     OW10093   0.051   1.242   6.438
 3065SOL    HW110094   0.122   1.193   6.387
 3065SOL    HW210095   0.035   1.331   6.395
 3066SOL     OW10096   5.243   5.833   5.819
 3066SOL    HW110097   5.145   5.848   5.805
 3066SOL    HW210098   5.291   5.920   5.817
 3067SOL     OW10099   1.984   2.413   5.937
 3067SOL    HW110100   2.026   2.342   5.994
 3067SOL    HW210101   1.885   2.401   5.937
 3068SOL     OW10102   0.613   0.880   1.062
 3068SOL    HW110103   0.565   0.902   0.977
 3068SOL    HW210104   0.557   0.908   1.140
 3069SOL     OW10105   5.083   0.111   2.705
 3069SOL    HW110106   5.119   0.204   2.701
 3069SOL    HW210107   5.155   0.049   2.736
 3070SOL     OW10108   2.971   0.797   1.390
 3070SOL    HW110109   3.007   0.728   1.326
 3070SOL    HW210110   2.924   0.751   1.465
 3071SOL     OW10111   0.035   3.436   3.961
 3071SOL    HW110112   6.967   3.431   3.943
 3071SOL    HW210113   0.071   3.523   3.928
 3072SOL     OW10114   2.079   6.754   6.055
 3072SOL    HW110115   2.120   6.800   6.134
 3072SOL    HW210116   1.981   6.743   6.071
 3073SOL     OW10117   6.167   5.046   0.821
 3073SOL    HW110118   6.229   5.124   0.823
 3073SOL    HW210119   6.174   5.000   0.732
 3074SOL     OW10120   2.130   3.501   1.100
 3074SOL    HW110121   2.154   3.458   1.187
 3074SOL    HW210122   2.128   3.600   1.111
 3075SOL     OW10123   2.476   5.217   2.329
 3075SOL    HW110124   2.441   5.310   2.343
 3075SOL    HW210125   2.545   5.197   2.399
 3076SOL     OW10126   7.016   0.411   4.790
 3076SOL    HW110127   7.008   0.381   4.885
 3076SOL    HW210128   0.082   0.410   4.762
 3077SOL     OW10129   6.497   3.697   1.947
 3077SOL    HW110130   6.515   3.648   1.862
 3077SOL    HW210131   6.480   3.793   1.927
 3078SOL     OW10132   6.688   2.936   1.528
 3078SOL    HW110133   6.787   2.930   1.533
 3078SOL    HW210134   6.650   2.844   1.517
 3079SOL     OW10135   2.397   3.317   5.419
 3079SOL    HW110136   2.360   3.287   5.508
 3079SOL    HW210137   2.463   3.249   5.386
 3080SOL     OW10138   4.363   5.161   0.798
 3080SOL    HW110139   4.343   5.075   0.844
 3080SOL    HW210140   4.386   5.231   0.867
 3081SOL     OW10141   1.664   4.226   0.681
 3081SOL    HW110142   1.568   4.197   0.670
 3081SOL    HW210143   1.670   4.325   0.676
 3082SOL     OW10144   4.371   5.237   4.870
 3082SOL    HW110145   4.379   5.267   4.965
 3082SOL    HW210146   4.275   5.226   4.846
 3083SOL     OW10147   2.828   5.319   2.580
 3083SOL    HW110148   2.905   5.304   2.642
 3083SOL    HW210149   2.755   5.366   2.629
 3084SOL     OW10150   0.369   3.345   3.786
 3084SOL    HW110151   0.369   3.267   3.847
 3084SOL    HW210152   0.451   3.400   3.801
 3085SOL     OW10153   5.342   4.253   0.818
 3085SOL    HW110154   5.431   4.224   0.782
 3085SOL    HW210155   5.336   4.352   0.815
 3086SOL     OW10156   5.967   0.857   6.477
 3086SOL    HW110157   6.056   0.901   6.467
 3086SOL    HW210158   5.977   0.759   6.459
 3087SOL     OW10159   2.725   0.326   2.640
 3087SOL    HW110160   2.808   0.339   2.695
 3087SOL    HW210161   2.729   0.387   2.560
 3088SOL     OW10162   1.459   2.661   5.430
 3088SOL    HW110163   1.360   2.672   5.439
 3088SOL    HW210164   1.486   2.673   5.334
 3089SOL     OW10165   4.645   6.745   4.789
 3089SOL    HW110166   4.594   6.677   4.737
 3089SOL    HW210167   4.742   6.739   4.766
 3090SOL     OW10168   1.624   2.130   2.121
 3090SOL    HW110169   1.572   2.048   2.142
 3090SOL    HW210170   1.656   2.172   2.206
 3091SOL     OW10171   0.899   2.399   0.936
 3091SOL    HW110172   0.826   2.347   0.981
 3091SOL    HW210173   0.916   2.360   0.845
 3092SOL     OW10174   6.659   0.394   2.165
 3092SOL    HW110175   6.718   0.313   2.159
 3092SOL    HW210176   6.699   0.459   2.229
 3093SOL     OW10177   4.927   4.812   6.954
 3093SOL    HW110178   4.891   4.840   0.014
 3093SOL    HW210179   4.876   4.858   6.882
 3094SOL     OW10180   3.299   1.479   5.944
 3094SOL    HW110181   3.243   1.451   5.867
 3094SOL    HW210182   3.256   1.557   5.990
 3095SOL     OW10183   1.963   3.511   5.349
 3095SOL    HW110184   2.002   3.533   5.439
 3095SOL    HW210185   2.000   3.424   5.318
 3096SOL     OW10186   0.316   3.908   4.343
 3096SOL    HW110187   0.244   3.856   4.297
 3096SOL    HW210188   0.323   3.879   4.438
 3097SOL     OW10189   5.319   2.193   6.233
 3097SOL    HW110190   5.371   2.143   6.165
 3097SOL    HW210191   5.370   2.274   6.262
 3098SOL     OW10192   2.138   2.589   2.603
 3098SOL    HW110193   2.207   2.618   2.537
 3098SOL    HW210194   2.069   2.660   2.613
 3099SOL     OW10195   0.091   6.033   4.000
 3099SOL    HW110196   0.078   6.115   4.055
 3099SOL    HW210197   0.081   5.952   4.057
 3100SOL     OW10198   6.934   5.388   2.318
 3100SOL    HW110199   6.872   5.464   2.299
 3100SOL    HW210200   6.915   5.352   2.409
 3101SOL     OW10201   4.188   6.276   5.726
 3101SOL    HW110202   4.255   6.212   5.763
 3101SOL    HW210203   4.142   6.324   5.801
 3102SOL     OW10204   0.149   4.739   0.825
 3102SOL    HW110205   0.149   4.657   0.882
 3102SOL    HW210206   0.062   4.788   0.838
 3103SOL     OW10207   3.324   0.144   1.929
 3103SOL    HW110208   3.358   0.151   1.835
 3103SOL    HW210209   3.225   0.130   1.927
 3104SOL     OW10210   4.822   0.158   6.543
 3104SOL    HW110211   4.844   0.230   6.478
 3104SOL    HW210212   4.852   0.070   6.507
 3105SOL     OW10213   5.745   3.400   0.205
 3105SOL    HW110214   5.689   3.471   0.246
 3105SOL    HW210215   5.742   3.318   0.262
 3106SOL     OW10216   6.049   0.279   5.285
 3106SOL    HW110217   6.138   0.251   5.321
 3106SOL    HW210218   5.978   0.219   5.321
 3107SOL     OW10219   3.939   1.111   6.027
 3107SOL    HW110220   3.856   1.124   5.974
 3107SOL    HW210221   3.986   1.027   5.999
 3108SOL     OW10222   1.921   4.357   3.799
 3108SOL    HW110223   1.895   4.392   3.889
 3108SOL    HW210224   1.950   4.433   3.741
 3109SOL     OW10225   6.753   6.004   3.968
 3109SOL    HW110226   6.776   5.906   3.971
 3109SOL    HW210227   6.654   6.014   3.960
 3110SOL     OW10228   1.482   4.477   3.532
 3110SOL    HW110229   1.384   4.469   3.514
 3110SOL    HW210230   1.524   4.537   3.464
 3111SOL     OW10231   5.950   4.506   4.145
 3111SOL    HW110232   5.931   4.419   4.189
 3111SOL    HW210233   5.894   4.515   4.062
 3112SOL     OW10234   3.901   1.951   6.894
 3112SOL    HW110235   3.878   1.987   6.984
 3112SOL    HW210236   4.000   1.951   6.882
 3113SOL     OW10237   2.238   5.708   3.665
 3113SOL    HW110238   2.206   5.797   3.697
 3113SOL    HW210239   2.216   5.638   3.733
 3114SOL     OW10240   4.220   0.573   6.913
 3114SOL    HW110241   4.230   0.652   6.973
 3114SOL    HW210242   4.167   0.598   6.832
 3115SOL     OW10243   4.506   5.019   5.265
 3115SOL    HW110244   4.605   5.028   5.252
 3115SOL    HW210245   4.487   4.980   5.355
 3116SOL     OW10246   0.545   2.045   1.099
 3116SOL    HW110247   0.532   2.010   1.006
 3116SOL    HW210248   0.483   1.998   1.162
 3117SOL     OW10249   4.774   1.509   5.540
 3117SOL    HW110250   4.706   1.448   5.498
 3117SOL    HW210251   4.740   1.541   5.629
 3118SOL     OW10252   1.842   1.052   3.261
 3118SOL    HW110253   1.924   0.995   3.254
 3118SOL    HW210254   1.774   1.022   3.195
 3119SOL     OW10255   4.514   4.295   5.966
 3119SOL    HW110256   4.452   4.366   5.933
 3119SOL    HW210257   4.590   4.339   6.015
 3120SOL     OW10258   2.037   6.556   4.733
 3120SOL    HW110259   2.024   6.655   4.742
 3120SOL    HW210260   1.987   6.509   4.805
 3121SOL     OW10261   4.460   1.204   4.745
 3121SOL    HW110262   4.548   1.162   4.723
 3121SOL    HW210263   4.443   1.281   4.685
 3122SOL     OW10264   3.835   5.297   5.021
 3122SOL    HW110265   3.882   5.240   5.089
 3122SOL    HW210266   3.745   5.322   5.055
 3123SOL     OW10267   2.566   1.704   3.933
 3123SOL    HW110268   2.610   1.788   3.900
 3123SOL    HW210269   2.467   1.718   3.938
 3124SOL     OW10270   5.144   0.215   3.615
 3124SOL    HW110271   5.109   0.123   3.627
 3124SOL    HW210272   5.206   0.238   3.690
 3125SOL     OW10273   1.438   2.213   5.480
 3125SOL    HW110274   1.363   2.277   5.463
 3125SOL    HW210275   1.423   2.129   5.429
 3126SOL     OW10276   6.119   4.689   4.795
 3126SOL    HW110277   6.206   4.705   4.749
 3126SOL    HW210278   6.136   4.651   4.886
 3127SOL     OW10279   0.165   1.548   4.803
 3127SOL    HW110280   0.093   1.481   4.782
 3127SOL    HW210281   0.191   1.596   4.719
 3128SOL     OW10282   4.603   0.872   0.273
 3128SOL    HW110283   4.580   0.789   0.222
 3128SOL    HW210284   4.635   0.846   0.364
 3129SOL     OW10285   4.459   3.328   0.698
 3129SOL    HW110286   4.417   3.362   0.782
 3129SOL    HW210287   4.503   3.240   0.715
 3130SOL     OW10288   1.010   4.606   1.729
 3130SOL    HW110289   0.958   4.544   1.669
 3130SOL    HW210290   0.956   4.624   1.812
 3131SOL     OW10291   6.667   4.147   2.674
 3131SOL    HW110292   6.760   4.183   2.686
 3131SOL    HW210293   6.672   4.048   2.660
 3132SOL     OW10294   3.906   4.724   0.075
 3132SOL    HW110295   3.996   4.765   0.066
 3132SOL    HW210296   3.864   4.715   7.014
 3133SOL     OW10297   4.047   0.730   3.745
 3133SOL    HW110298   4.147   0.740   3.746
 3133SOL    HW210299   4.009   0.787   3.672
 3134SOL     OW10300   4.125   5.195   2.667
 3134SOL    HW110301   4.063   5.239   2.602
 3134SOL    HW210302   4.167   5.264   2.726
 3135SOL     OW10303   5.110   6.880   6.084
 3135SOL    HW110304   5.152   6.909   5.998
 3135SOL    HW210305   5.175   6.826   6.137
 3136SOL     OW10306   6.203   1.550   2.727
 3136SOL    HW110307   6.156   1.461   2.722
 3136SOL    HW210308   6.299   1.537   2.705
 3137SOL     OW10309   6.497   6.959   6.864
 3137SOL    HW110310   6.435   6.880   6.872
 3137SOL    HW210311   6.582   6.939   6.914
 3138SOL     OW10312   5.650   5.183   4.090
 3138SOL    HW110313   5.563   5.179   4.140
 3138SOL    HW210314   5.716   5.121   4.132
 3139SOL     OW10315   2.621   4.980   0.844
 3139SOL    HW110316   2.708   4.938   0.818
 3139SOL    HW210317   2.602   4.959   0.940
 3140SOL     OW10318   6.852   6.855   6.666
 3140SOL    HW110319   6.851   6.799   6.583
 3140SOL    HW210320   6.944   6.890   6.682
 3141SOL     OW10321   6.324   2.395   6.388
 3141SOL    HW110322   6.299   2.440   6.474
 3141SOL    HW210323   6.298   2.453   6.311
 3142SOL     OW10324   4.991   0.913   2.738
 3142SOL    HW110325   4.990   0.832   2.680
 3142SOL    HW210326   5.077   0.963   2.726
 3143SOL     OW10327   6.413   1.544   0.439
 3143SOL    HW110328   6.423   1.632   0.393
 3143SOL    HW210329   6.460   1.546   0.527
 3144SOL     OW10330   3.999   3.764   6.328
 3144SOL    HW110331   3.942   3.844   6.345
 3144SOL    HW210332   3.959   3.684   6.374
 3145SOL     OW10333   0.572   6.086   1.585
 3145SOL    HW110334   0.640   6.044   1.524
 3145SOL    HW210335   0.512   6.145   1.531
 3146SOL     OW10336   0.440   0.253   5.138
 3146SOL    HW110337   0.533   0.255   5.175
 3146SOL    HW210338   0.435   0.187   5.064
 3147SOL     OW10339   4.042   5.143   6.699
 3147SOL    HW110340   3.955   5.158   6.651
 3147SOL    HW210341   4.101   5.222   6.687
 3148SOL     OW10342   0.002   5.469   2.902
 3148SOL    HW110343   0.100   5.448   2.901
 3148SOL    HW210344   6.979   5.385   2.906
 3149SOL     OW10345   3.087   0.937   0.662
 3149SOL    HW110346   3.147   0.860   0.686
 3149SOL    HW210347   3.071   0.992   0.744
 3150SOL     OW10348   6.883   5.780   5.197
 3150SOL    HW110349   6.944   5.789   5.276
 3150SOL    HW210350   6.798   5.829   5.215
 3151SOL     OW10351   6.317   1.666   5.735
 3151SOL    HW110352   6.388   1.651   5.802
 3151SOL    HW210353   6.300   1.764   5.725
 3152SOL     OW10354   1.104   2.680   6.000
 3152SOL    HW110355   1.040   2.726   6.061
 3152SOL    HW210356   1.115   2.585   6.028
 3153SOL     OW10357   6.319   5.044   1.224
 3153SOL    HW110358   6.304   4.946   1.214
 3153SOL    HW210359   6.237   5.093   1.194
 3154SOL     OW10360   4.998   1.591   1.086
 3154SOL    HW110361   4.919   1.546   1.044
 3154SOL    HW210362   5.056   1.630   1.014
 3155SOL     OW10363   0.490   4.645   0.985
 3155SOL    HW110364   0.501   4.726   1.042
 3155SOL    HW210365   0.491   4.672   0.889
 3156SOL     OW10366   3.595   4.186   2.101
 3156SOL    HW110367   3.693   4.169   2.111
 3156SOL    HW210368   3.578   4.235   2.015
 3157SOL     OW10369   0.468   2.048   5.120
 3157SOL    HW110370   0.390   2.079   5.175
 3157SOL    HW210371   0.440   1.969   5.065
 3158SOL     OW10372   2.621   1.602   5.319
 3158SOL    HW110373   2.686   1.533   5.287
 3158SOL    HW210374   2.651   1.638   5.407
 3159SOL     OW10375   6.116   6.694   0.227
 3159SOL    HW110376   6.064   6.755   0.169
 3159SOL    HW210377   6.096   6.599   0.204
 3160SOL     OW10378   2.591   0.338   6.120
 3160SOL    HW110379   2.660   0.360   6.189
 3160SOL    HW210380   2.590   0.239   6.104
 3161SOL     OW10381   2.346   2.840   3.078
 3161SOL    HW110382   2.356   2.763   3.014
 3161SOL    HW210383   2.378   2.811   3.168
 3162SOL     OW10384   1.945   5.399   0.763
 3162SOL    HW110385   2.022   5.403   0.826
 3162SOL    HW210386   1.974   5.430   0.673
 3163SOL     OW10387   4.877   3.827   0.631
 3163SOL    HW110388   4.804   3.895   0.629
 3163SOL    HW210389   4.849   3.747   0.578
 3164SOL     OW10390   2.596   5.994   3.083
 3164SOL    HW110391   2.609   6.035   3.173
 3164SOL    HW210392   2.606   5.895   3.090
 3165SOL     OW10393   0.648   6.132   0.790
 3165SOL    HW110394   0.714   6.138   0.865
 3165SOL    HW210395   0.567   6.081   0.820
 3166SOL     OW10396   4.040   0.829   5.294
 3166SOL    HW110397   3.961   0.775   5.323
 3166SOL    HW210398   4.124   0.777   5.310
 3167SOL     OW10399   5.114   3.655   0.565
 3167SOL    HW110400   5.031   3.599   0.561
 3167SOL    HW210401   5.088   3.750   0.584
 3168SOL     OW10402   4.275   1.788   0.528
 3168SOL    HW110403   4.208   1.794   0.602
 3168SOL    HW210404   4.347   1.725   0.553
 3169SOL     OW10405   1.935   4.730   2.264
 3169SOL    HW110406   1.860   4.675   2.301
 3169SOL    HW210407   1.932   4.821   2.306
 3170SOL     OW10408   3.370   5.174   3.336
 3170SOL    HW110409   3.427   5.251   3.367
 3170SOL    HW210410   3.426   5.091   3.335
 3171SOL     OW10411   5.376   2.973   2.987
 3171SOL    HW110412   5.342   2.942   2.899
 3171SOL    HW210413   5.417   3.063   2.978
 3172SOL     OW10414   0.387   4.675   0.690
 3172SOL    HW110415   0.364   4.610   0.617
 3172SOL    HW210416   0.305   4.696   0.743
 3173SOL     OW10417   3.494   1.705   0.473
 3173SOL    HW110418   3.492   1.756   0.387
 3173SOL    HW210419   3.562   1.632   0.467
 3174SOL     OW10420   3.105   3.217   6.130
 3174SOL    HW110421   3.165   3.139   6.142
 3174SOL    HW210422   3.103   3.243   6.033
 3175SOL     OW10423   6.896   0.612   3.892
 3175SOL    HW110424   6.936   0.689   3.843
 3175SOL    HW210425   6.965   0.542   3.909
 3176SOL     OW10426   1.119   4.751   5.036
 3176SOL    HW110427   1.118   4.846   5.067
 3176SOL    HW210428   1.026   4.723   5.010
 3177SOL     OW10429   5.847   3.683   3.095
 3177SOL    HW110430   5.899   3.598   3.096
 3177SOL    HW210431   5.751   3.664   3.073
 3178SOL     OW10432   6.843   0.908   1.109
 3178SOL    HW110433   6.941   0.924   1.098
 3178SOL    HW210434   6.794   0.956   1.036
 3179SOL     OW10435   0.906   1.806   1.862
 3179SOL    HW110436   0.934   1.841   1.773
 3179SOL    HW210437   0.829   1.743   1.850
 3180SOL     OW10438   6.773   5.812   6.870
 3180SOL    HW110439   6.850   5.749   6.867
 3180SOL    HW210440   6.790   5.882   6.940
 3181SOL     OW10441   0.568   1.288   4.867
 3181SOL    HW110442   0.566   1.192   4.892
 3181SOL    HW210443   0.483   1.332   4.895
 3182SOL     OW10444   3.040   0.428   0.353
 3182SOL    HW110445   3.138   0.434   0.336
 3182SOL    HW210446   3.014   0.489   0.427
 3183SOL     OW10447   4.489   4.548   2.008
 3183SOL    HW110448   4.498   4.510   1.916
 3183SOL    HW210449   4.434   4.486   2.064
 3184SOL     OW10450   0.187   2.457   4.402
 3184SOL    HW110451   0.195   2.544   4.451
 3184SOL    HW210452   0.180   2.382   4.468
 3185SOL     OW10453   0.082   6.024   6.138
 3185SOL    HW110454   0.069   5.997   6.043
 3185SOL    HW210455   0.166   6.079   6.146
 3186SOL     OW10456   0.509   1.593   6.220
 3186SOL    HW110457   0.412   1.599   6.198
 3186SOL    HW210458   0.524   1.518   6.285
 3187SOL     OW10459   3.977   5.877   3.022
 3187SOL    HW110460   4.072   5.901   3.005
 3187SOL    HW210461   3.948   5.916   3.109
 3188SOL     OW10462   2.050   4.732   5.582
 3188SOL    HW110463   2.101   4.657   5.541
 3188SOL    HW210464   1.971   4.755   5.525
 3189SOL     OW10465   2.808   1.509   0.162
 3189SOL    HW110466   2.888   1.552   0.119
 3189SOL    HW210467   2.808   1.530   0.260
 3190SOL     OW10468   0.024   6.066   4.505
 3190SOL    HW110469   7.022   6.061   4.411
 3190SOL    HW210470   0.089   6.141   4.515
 3191SOL     OW10471   4.506   5.590   1.771
 3191SOL    HW110472   4.564   5.660   1.813
 3191SOL    HW210473   4.421   5.582   1.822
 3192SOL     OW10474   6.559   2.115   2.236
 3192SOL    HW110475   6.561   2.071   2.146
 3192SOL    HW210476   6.643   2.169   2.249
 3193SOL     OW10477   3.706   0.250   5.520
 3193SOL    HW110478   3.805   0.233   5.529
 3193SOL    HW210479   3.662   0.168   5.484
 3194SOL     OW10480   1.147   1.390   5.643
 3194SOL    HW110481   1.236   1.346   5.652
 3194SOL    HW210482   1.076   1.320   5.630
 3195SOL     OW10483   0.192   1.670   1.682
 3195SOL    HW110484   0.132   1.750   1.670
 3195SOL    HW210485   0.202   1.651   1.779
 3196SOL     OW10486   6.550   0.147   4.679
 3196SOL    HW110487   6.594   0.124   4.592
 3196SOL    HW210488   6.551   0.246   4.692
 3197SOL     OW10489   2.127   0.556   6.038
 3197SOL    HW110490   2.221   0.584   6.055
 3197SOL    HW210491   2.064   0.621   6.082
 3198SOL     OW10492   6.656   2.486   3.451
 3198SOL    HW110493   6.616   2.538   3.526
 3198SOL    HW210494   6.638   2.388   3.465
 3199SOL     OW10495   5.666   4.347   2.918
 3199SOL    HW110496   5.688   4.297   3.002
 3199SOL    HW210497   5.612   4.428   2.941
 3200SOL     OW10498   5.309   3.247   3.724
 3200SOL    HW110499   5.215   3.281   3.716
 3200SOL    HW210500   5.372   3.314   3.683
 3201SOL     OW10501   6.215   3.977   2.456
 3201SOL    HW110502   6.146   3.928   2.402
 3201SOL    HW210503   6.177   4.064   2.488
 3202SOL     OW10504   1.119   5.211   0.800
 3202SOL    HW110505   1.055   5.143   0.836
 3202SOL    HW210506   1.094   5.301   0.834
 3203SOL     OW10507   4.337   6.152   0.951
 3203SOL    HW110508   4.327   6.193   1.042
 3203SOL    HW210509   4.281   6.069   0.946
 3204SOL     OW10510   3.119   1.102   3.700
 3204SOL    HW110511   3.116   1.197   3.731
 3204SOL    HW210512   3.194   1.090   3.635
 3205SOL     OW10513   5.417   2.838   5.538
 3205SOL    HW110514   5.495   2.782   5.509
 3205SOL    HW210515   5.413   2.840   5.638
 3206SOL     OW10516   2.653   2.790   1.693
 3206SOL    HW110517   2.699   2.875   1.720
 3206SOL    HW210518   2.559   2.791   1.727
 3207SOL     OW10519   1.192   0.065   5.171
 3207SOL    HW110520   1.282   0.108   5.171
 3207SOL    HW210521   1.164   0.046   5.266
 3208SOL     OW10522   6.287   6.250   5.461
 3208SOL    HW110523   6.223   6.204   5.521
 3208SOL    HW210524   6.256   6.243   5.366
 3209SOL     OW10525   4.928   5.692   5.902
 3209SOL    HW110526   4.888   5.779   5.872
 3209SOL    HW210527   4.980   5.707   5.986
 3210SOL     OW10528   6.684   4.897   1.293
 3210SOL    HW110529   6.619   4.969   1.319
 3210SOL    HW210530   6.716   4.850   1.376
 3211SOL     OW10531   1.368   6.036   6.941
 3211SOL    HW110532   1.386   6.132   6.960
 3211SOL    HW210533   1.429   5.979   6.997
 3212SOL     OW10534   2.622   6.673   3.087
 3212SOL    HW110535   2.691   6.610   3.123
 3212SOL    HW210536   2.631   6.762   3.131
 3213SOL     OW10537   1.404   1.149   6.424
 3213SOL    HW110538   1.363   1.198   6.501
 3213SOL    HW210539   1.407   1.209   6.344
 3214SOL     OW10540   3.820   1.219   3.057
 3214SOL    HW110541   3.723   1.240   3.042
 3214SOL    HW210542   3.871   1.305   3.068
 3215SOL     OW10543   1.581   2.867   0.662
 3215SOL    HW110544   1.664   2.874   0.717
 3215SOL    HW210545   1.545   2.774   0.666
 3216SOL     OW10546   5.991   4.342   0.598
 3216SOL    HW110547   6.004   4.320   0.501
 3216SOL    HW210548   5.896   4.368   0.614
 3217SOL     OW10549   0.870   4.589   3.073
 3217SOL    HW110550   0.809   4.607   3.150
 3217SOL    HW210551   0.965   4.585   3.106
 3218SOL     OW10552   6.526   2.029   3.082
 3218SOL    HW110553   6.611   2.036   3.133
 3218SOL    HW210554   6.470   2.110   3.098
 3219SOL     OW10555   6.676   0.811   5.207
 3219SOL    HW110556   6.594   0.779   5.255
 3219SOL    HW210557   6.648   0.875   5.134
 3220SOL     OW10558   6.644   5.272   0.003
 3220SOL    HW110559   6.727   5.325   7.013
 3220SOL    HW210560   6.576   5.289   6.962
 3221SOL     OW10561   4.381   0.177   2.118
 3221SOL    HW110562   4.346   0.156   2.210
 3221SOL    HW210563   4.480   0.166   2.117
 3222SOL     OW10564   2.686   1.212   2.611
 3222SOL    HW110565   2.716   1.201   2.516
 3222SOL    HW210566   2.690   1.123   2.657
 3223SOL     OW10567   1.406   6.541   1.078
 3223SOL    HW110568   1.433   6.545   0.982
 3223SOL    HW210569   1.316   6.498   1.085
 3224SOL     OW10570   4.748   2.342   4.777
 3224SOL    HW110571   4.721   2.270   4.714
 3224SOL    HW210572   4.668   2.397   4.802
 3225SOL     OW10573   4.173   0.419   4.093
 3225SOL    HW110574   4.133   0.360   4.164
 3225SOL    HW210575   4.270   0.432   4.111
 3226SOL     OW10576   0.728   0.357   1.865
 3226SOL    HW110577   0.687   0.420   1.799
 3226SOL    HW210578   0.689   0.373   1.956
 3227SOL     OW10579   4.378   2.723   5.943
 3227SOL    HW110580   4.357   2.667   5.863
 3227SOL    HW210581   4.367   2.820   5.920
 3228SOL     OW10582   0.792   4.378   0.545
 3228SOL    HW110583   0.859   4.370   0.619
 3228SOL    HW210584   0.707   4.415   0.581
 3229SOL     OW10585   2.762   1.513   6.381
 3229SOL    HW110586   2.782   1.466   6.467
 3229SOL    HW210587   2.688   1.465   6.333
 3230SOL     OW10588   2.861   5.900   5.565
 3230SOL    HW110589   2.909   5.912   5.477
 3230SOL    HW210590   2.878   5.979   5.623
 3231SOL     OW10591   3.032   1.133   1.997
 3231SOL    HW110592   3.071   1.043   2.012
 3231SOL    HW210593   2.942   1.124   1.953
 3232SOL     OW10594   3.981   5.740   4.347
 3232SOL    HW110595   3.888   5.703   4.356
 3232SOL    HW210596   3.987   5.825   4.400
 3233SOL     OW10597   0.891   2.433   0.027
 3233SOL    HW110598   0.922   2.492   6.982
 3233SOL    HW210599   0.827   2.364   7.021
 3234SOL     OW10600   2.658   3.173   0.832
 3234SOL    HW110601   2.591   3.125   0.888
 3234SOL    HW210602   2.750   3.157   0.870
 3235SOL     OW10603   6.721   6.188   2.196
 3235SOL    HW110604   6.661   6.200   2.275
 3235SOL    HW210605   6.806   6.145   2.225
 3236SOL     OW10606   2.734   4.407   0.677
 3236SOL    HW110607   2.739   4.436   0.581
 3236SOL    HW210608   2.669   4.331   0.685
 3237SOL     OW10609   6.021   1.263   5.299
 3237SOL    HW110610   6.089   1.316   5.249
 3237SOL    HW210611   5.982   1.318   5.373
 3238SOL     OW10612   6.374   5.198   0.786
 3238SOL    HW110613   6.420   5.272   0.834
 3238SOL    HW210614   6.367   5.220   0.689
 3239SOL     OW10615   0.221   0.314   3.816
 3239SOL    HW110616   0.221   0.215   3.832
 3239SOL    HW210617   0.162   0.335   3.738
 3240SOL     OW10618   0.543   0.736   6.143
 3240SOL    HW110619   0.637   0.712   6.166
 3240SOL    HW210620   0.517   0.692   6.057
 3241SOL     OW10621   5.183   1.429   6.773
 3241SOL    HW110622   5.241   1.400   6.849
 3241SOL    HW210623   5.100   1.373   6.771
 3242SOL     OW10624   4.711   4.215   5.544
 3242SOL    HW110625   4.754   4.224   5.633
 3242SOL    HW210626   4.725   4.299   5.491
 3243SOL     OW10627   4.377   5.202   5.894
 3243SOL    HW110628   4.448   5.197   5.964
 3243SOL    HW210629   4.414   5.248   5.813
 3244SOL     OW10630   5.732   6.674   6.605
 3244SOL    HW110631   5.719   6.713   6.513
 3244SOL    HW210632   5.763   6.746   6.667
 3245SOL     OW10633   4.152   1.542   3.902
 3245SOL    HW110634   4.076   1.499   3.951
 3245SOL    HW210635   4.168   1.494   3.816
 3246SOL     OW10636   0.695   0.158   2.081
 3246SOL    HW110637   0.762   0.177   2.009
 3246SOL    HW210638   0.623   0.100   2.044
 3247SOL     OW10639   0.316   4.061   2.577
 3247SOL    HW110640   0.245   4.108   2.628
 3247SOL    HW210641   0.383   4.128   2.543
 3248SOL     OW10642   5.629   2.104   3.049
 3248SOL    HW110643   5.681   2.088   2.965
 3248SOL    HW210644   5.689   2.141   3.119
 3249SOL     OW10645   3.532   3.614   3.542
 3249SOL    HW110646   3.629   3.604   3.564
 3249SOL    HW210647   3.509   3.711   3.534
 3250SOL     OW10648   5.355   5.868   2.262
 3250SOL    HW110649   5.270   5.911   2.231
 3250SOL    HW210650   5.346   5.768   2.257
 3251SOL     OW10651   2.720   1.189   4.612
 3251SOL    HW110652   2.800   1.246   4.631
 3251SOL    HW210653   2.740   1.128   4.536
 3252SOL     OW10654   3.000   1.625   4.285
 3252SOL    HW110655   2.953   1.628   4.373
 3252SOL    HW210656   2.934   1.644   4.211
 3253SOL     OW10657   6.338   3.145   1.191
 3253SOL    HW110658   6.429   3.131   1.151
 3253SOL    HW210659   6.304   3.235   1.166
 3254SOL     OW10660   6.048   0.855   0.342
 3254SOL    HW110661   6.111   0.930   0.361
 3254SOL    HW210662   5.962   0.870   0.391
 3255SOL     OW10663   6.075   4.604   1.716
 3255SOL    HW110664   6.098   4.691   1.760
 3255SOL    HW210665   5.997   4.618   1.655
 3256SOL     OW10666   4.507   2.542   1.396
 3256SOL    HW110667   4.424   2.595   1.384
 3256SOL    HW210668   4.491   2.447   1.370
 3257SOL     OW10669   2.723   2.294   2.658
 3257SOL    HW110670   2.762   2.208   2.624
 3257SOL    HW210671   2.634   2.276   2.699
 3258SOL     OW10672   2.589   5.711   3.421
 3258SOL    HW110673   2.613   5.797   3.465
 3258SOL    HW210674   2.517   5.728   3.353
 3259SOL     OW10675   5.277   4.290   4.223
 3259SOL    HW110676   5.265   4.192   4.239
 3259SOL    HW210677   5.327   4.330   4.300
 3260SOL     OW10678   2.289   4.420   1.371
 3260SOL    HW110679   2.229   4.499   1.388
 3260SOL    HW210680   2.384   4.449   1.380
 3261SOL     OW10681   4.427   0.602   3.212
 3261SOL    HW110682   4.334   0.575   3.187
 3261SOL    HW210683   4.423   0.661   3.293
 3262SOL     OW10684   3.846   2.061   2.705
 3262SOL    HW110685   3.855   2.087   2.609
 3262SOL    HW210686   3.937   2.044   2.743
 3263SOL     OW10687   2.538   1.566   3.104
 3263SOL    HW110688   2.568   1.476   3.072
 3263SOL    HW210689   2.445   1.584   3.072
 3264SOL     OW10690   2.364   5.341   0.146
 3264SOL    HW110691   2.403   5.398   0.219
 3264SOL    HW210692   2.295   5.393   0.097
 3265SOL     OW10693   6.130   5.628   5.855
 3265SOL    HW110694   6.198   5.604   5.786
 3265SOL    HW210695   6.039   5.629   5.814
 3266SOL     OW10696   3.058   4.913   0.155
 3266SOL    HW110697   3.025   4.819   0.157
 3266SOL    HW210698   2.982   4.976   0.171
 3267SOL     OW10699   4.227   0.089   0.839
 3267SOL    HW110700   4.324   0.089   0.864
 3267SOL    HW210701   4.219   0.110   0.741
 3268SOL     OW10702   6.697   4.794   1.540
 3268SOL    HW110703   6.652   4.705   1.554
 3268SOL    HW210704   6.768   4.807   1.609
 3269SOL     OW10705   1.119   4.930   2.423
 3269SOL    HW110706   1.143   4.880   2.340
 3269SOL    HW210707   1.050   5.000   2.402
 3270SOL     OW10708   0.810   2.581   5.342
 3270SOL    HW110709   0.833   2.535   5.256
 3270SOL    HW210710   0.794   2.512   5.413
 3271SOL     OW10711   0.099   3.402   2.060
 3271SOL    HW110712   0.137   3.477   2.114
 3271SOL    HW210713   0.072   3.436   1.970
 3272SOL     OW10714   4.256   6.040   0.135
 3272SOL    HW110715   4.214   6.057   0.224
 3272SOL    HW210716   4.335   6.100   0.124
 3273SOL     OW10717   4.310   3.723   6.169
 3273SOL    HW110718   4.269   3.787   6.234
 3273SOL    HW210719   4.363   3.774   6.101
 3274SOL     OW10720   6.009   1.019   6.971
 3274SOL    HW110721   5.920   1.009   7.014
 3274SOL    HW210722   5.997   1.046   6.875
 3275SOL     OW10723   4.424   0.378   1.288
 3275SOL    HW110724   4.394   0.470   1.310
 3275SOL    HW210725   4.431   0.367   1.189
 3276SOL     OW10726   4.846   0.061   0.360
 3276SOL    HW110727   4.763   0.077   0.307
 3276SOL    HW210728   4.910   0.137   0.346
 3277SOL     OW10729   3.302   1.579   1.885
 3277SOL    HW110730   3.307   1.631   1.970
 3277SOL    HW210731   3.312   1.642   1.807
 3278SOL     OW10732   0.235   0.254   6.968
 3278SOL    HW110733   0.296   0.199   6.912
 3278SOL    HW210734   0.178   0.312   6.909
 3279SOL     OW10735   4.464   6.441   1.018
 3279SOL    HW110736   4.382   6.387   1.035
 3279SOL    HW210737   4.443   6.517   0.955
 3280SOL     OW10738   5.485   3.664   4.207
 3280SOL    HW110739   5.402   3.697   4.163
 3280SOL    HW210740   5.488   3.564   4.202
 3281SOL     OW10741   6.914   4.347   1.985
 3281SOL    HW110742   6.884   4.401   2.064
 3281SOL    HW210743   6.932   4.408   1.908
 3282SOL     OW10744   0.692   3.968   5.270
 3282SOL    HW110745   0.735   3.879   5.283
 3282SOL    HW210746   0.632   3.965   5.191
 3283SOL     OW10747   3.614   1.035   1.416
 3283SOL    HW110748   3.691   0.972   1.422
 3283SOL    HW210749   3.554   1.021   1.495
 3284SOL     OW10750   1.838   5.864   4.775
 3284SOL    HW110751   1.856   5.818   4.862
 3284SOL    HW210752   1.755   5.827   4.734
 3285SOL     OW10753   5.377   1.023   4.633
 3285SOL    HW110754   5.399   1.068   4.546
 3285SOL    HW210755   5.422   1.072   4.708
 3286SOL     OW10756   3.208   1.961   1.496
 3286SOL    HW110757   3.279   1.981   1.563
 3286SOL    HW210758   3.250   1.950   1.406
 3287SOL     OW10759   1.455   0.407   6.441
 3287SOL    HW110760   1.457   0.447   6.532
 3287SOL    HW210761   1.451   0.480   6.373
 3288SOL     OW10762   1.692   6.266   0.969
 3288SOL    HW110763   1.681   6.310   1.059
 3288SOL    HW210764   1.771   6.307   0.922
 3289SOL     OW10765   3.635   1.370   6.572
 3289SOL    HW110766   3.629   1.279   6.612
 3289SOL    HW210767   3.688   1.429   6.632
 3290SOL     OW10768   6.662   5.191   0.701
 3290SOL    HW110769   6.706   5.241   0.776
 3290SOL    HW210770   6.675   5.093   0.714
 3291SOL     OW10771   4.659   0.197   5.639
 3291SOL    HW110772   4.705   0.245   5.564
 3291SOL    HW210773   4.720   0.126   5.675
 3292SOL     OW10774   0.527   1.676   0.776
 3292SOL    HW110775   0.524   1.608   0.849
 3292SOL    HW210776   0.613   1.727   0.781
 3293SOL     OW10777   6.230   5.324   2.902
 3293SOL    HW110778   6.172   5.396   2.941
 3293SOL    HW210779   6.223   5.326   2.802
 3294SOL     OW10780   5.119   2.329   5.506
 3294SOL    HW110781   5.076   2.386   5.577
 3294SOL    HW210782   5.186   2.383   5.456
 3295SOL     OW10783   1.866   3.000   1.211
 3295SOL    HW110784   1.888   2.910   1.248
 3295SOL    HW210785   1.835   2.990   1.116
 3296SOL     OW10786   0.028   0.018   5.617
 3296SOL    HW110787   6.994   6.995   5.672
 3296SOL    HW210788   0.092   0.067   5.677
 3297SOL     OW10789   3.043   1.925   5.404
 3297SOL    HW110790   3.012   1.911   5.498
 3297SOL    HW210791   3.140   1.902   5.396
 3298SOL     OW10792   6.204   4.011   4.771
 3298SOL    HW110793   6.214   3.940   4.702
 3298SOL    HW210794   6.280   4.076   4.764
 3299SOL     OW10795   3.635   4.927   3.591
 3299SOL    HW110796   3.684   4.889   3.669
 3299SOL    HW210797   3.546   4.961   3.620
 3300SOL     OW10798   1.977   0.106   5.648
 3300SOL    HW110799   1.891   0.149   5.622
 3300SOL    HW210800   1.992   0.025   5.591
 3301SOL     OW10801   1.793   3.278   2.505
 3301SOL    HW110802   1.800   3.296   2.603
 3301SOL    HW210803   1.884   3.274   2.465
 3302SOL     OW10804   2.297   4.930   5.517
 3302SOL    HW110805   2.392   4.931   5.484
 3302SOL    HW210806   2.294   4.886   5.607
 3303SOL     OW10807   3.635   2.757   0.734
 3303SOL    HW110808   3.542   2.728   0.713
 3303SOL    HW210809   3.645   2.855   0.713
 3304SOL     OW10810   2.483   4.731   6.237
 3304SOL    HW110811   2.538   4.649   6.219
 3304SOL    HW210812   2.494   4.759   6.333
 3305SOL     OW10813   3.450   0.400   1.349
 3305SOL    HW110814   3.505   0.321   1.322
 3305SOL    HW210815   3.498   0.451   1.420
 3306SOL     OW10816   1.468   0.231   0.280
 3306SOL    HW110817   1.453   0.250   0.377
 3306SOL    HW210818   1.412   0.293   0.224
 3307SOL     OW10819   1.071   0.194   4.928
 3307SOL    HW110820   1.122   0.184   5.013
 3307SOL    HW210821   1.122   0.151   4.853
 3308SOL     OW10822   3.728   4.602   1.215
 3308SOL    HW110823   3.758   4.612   1.120
 3308SOL    HW210824   3.785   4.533   1.260
 3309SOL     OW10825   5.253   4.531   3.638
 3309SOL    HW110826   5.260   4.440   3.679
 3309SOL    HW210827   5.227   4.522   3.542
 3310SOL     OW10828   0.514   5.066   4.558
 3310SOL    HW110829   0.505   5.144   4.496
 3310SOL    HW210830   0.428   5.054   4.609
 3311SOL     OW10831   3.110   3.556   0.367
 3311SOL    HW110832   3.117   3.479   0.304
 3311SOL    HW210833   3.110   3.522   0.461
 3312SOL     OW10834   5.096   2.882   6.398
 3312SOL    HW110835   5.191   2.885   6.431
 3312SOL    HW210836   5.042   2.823   6.458
 3313SOL     OW10837   1.018   0.682   2.892
 3313SOL    HW110838   0.994   0.752   2.960
 3313SOL    HW210839   0.962   0.695   2.810
 3314SOL     OW10840   2.310   6.877   3.222
 3314SOL    HW110841   2.276   6.884   3.128
 3314SOL    HW210842   2.403   6.913   3.227
 3315SOL     OW10843   0.194   5.313   5.093
 3315SOL    HW110844   0.248   5.247   5.146
 3315SOL    HW210845   0.200   5.403   5.135
 3316SOL     OW10846   2.783   1.236   6.479
 3316SOL    HW110847   2.831   1.298   6.541
 3316SOL    HW210848   2.821   1.245   6.387
 3317SOL     OW10849   5.167   2.642   2.006
 3317SOL    HW110850   5.152   2.741   1.997
 3317SOL    HW210851   5.079   2.597   2.022
 3318SOL     OW10852   3.144   2.604   0.067
 3318SOL    HW110853   3.075   2.603   0.139
 3318SOL    HW210854   3.235   2.609   0.108
 3319SOL     OW10855   6.783   6.718   2.724
 3319SOL    HW110856   6.731   6.746   2.805
 3319SOL    HW210857   6.855   6.785   2.705
 3320SOL     OW10858   6.248   0.397   1.001
 3320SOL    HW110859   6.223   0.460   1.074
 3320SOL    HW210860   6.337   0.422   0.964
 3321SOL     OW10861   5.694   1.491   0.740
 3321SOL    HW110862   5.760   1.527   0.674
 3321SOL    HW210863   5.680   1.559   0.813
 3322SOL     OW10864   6.512   3.067   0.999
 3322SOL    HW110865   6.541   2.971   1.006
 3322SOL    HW210866   6.592   3.124   0.980
 3323SOL     OW10867   2.658   1.751   1.849
 3323SOL    HW110868   2.571   1.704   1.845
 3323SOL    HW210869   2.643   1.847   1.873
 3324SOL     OW10870   4.741   5.526   5.784
 3324SOL    HW110871   4.654   5.564   5.816
 3324SOL    HW210872   4.817   5.577   5.823
 3325SOL     OW10873   1.594   3.251   6.614
 3325SOL    HW110874   1.547   3.317   6.672
 3325SOL    HW210875   1.563   3.260   6.520
 3326SOL     OW10876   5.151   0.930   3.138
 3326SOL    HW110877   5.189   1.020   3.161
 3326SOL    HW210878   5.174   0.865   3.210
 3327SOL     OW10879   0.940   5.761   1.351
 3327SOL    HW110880   1.025   5.750   1.299
 3327SOL    HW210881   0.959   5.808   1.437
 3328SOL     OW10882   3.345   1.387   1.066
 3328SOL    HW110883   3.316   1.353   1.156
 3328SOL    HW210884   3.270   1.439   1.024
 3329SOL     OW10885   6.701   5.829   5.463
 3329SOL    HW110886   6.748   5.911   5.497
 3329SOL    HW210887   6.746   5.747   5.498
 3330SOL     OW10888   6.579   2.718   2.214
 3330SOL    HW110889   6.552   2.623   2.197
 3330SOL    HW210890   6.581   2.735   2.313
 3331SOL     OW10891   1.567   2.215   1.244
 3331SOL    HW110892   1.598   2.288   1.305
 3331SOL    HW210893   1.486   2.246   1.193
 3332SOL     OW10894   5.512   4.696   0.334
 3332SOL    HW110895   5.514   4.767   0.404
 3332SOL    HW210896   5.606   4.674   0.306
 3333SOL     OW10897   4.307   5.109   6.266
 3333SOL    HW110898   4.404   5.132   6.273
 3333SOL    HW210899   4.252   5.191   6.277
 3334SOL     OW10900   3.484   3.485   1.382
 3334SOL    HW110901   3.540   3.467   1.463
 3334SOL    HW210902   3.430   3.567   1.397
 3335SOL     OW10903   5.015   4.888   5.823
 3335SOL    HW110904   5.057   4.956   5.763
 3335SOL    HW210905   5.085   4.823   5.854
 3336SOL     OW10906   3.193   5.633   6.026
 3336SOL    HW110907   3.097   5.631   6.051
 3336SOL    HW210908   3.211   5.568   5.953
 3337SOL     OW10909   3.383   2.274   1.544
 3337SOL    HW110910   3.293   2.299   1.581
 3337SOL    HW210911   3.451   2.341   1.572
 3338SOL     OW10912   0.015   4.097   1.390
 3338SOL    HW110913   6.989   4.079   1.309
 3338SOL    HW210914   0.084   4.026   1.400
 3339SOL     OW10915   6.575   6.116   6.725
 3339SOL    HW110916   6.552   6.042   6.662
 3339SOL    HW210917   6.584   6.078   6.818
 3340SOL     OW10918   3.226   6.499   2.271
 3340SOL    HW110919   3.194   6.424   2.329
 3340SOL    HW210920   3.256   6.575   2.330
 3341SOL     OW10921   0.846   6.975   2.683
 3341SOL    HW110922   0.793   0.022   2.646
 3341SOL    HW210923   0.929   7.009   2.726
 3342SOL     OW10924   1.911   6.904   4.315
 3342SOL    HW110925   1.860   6.820   4.296
 3342SOL    HW210926   1.893   6.971   4.243
 3343SOL     OW10927   4.905   2.694   0.937
 3343SOL    HW110928   4.868   2.611   0.980
 3343SOL    HW210929   4.839   2.768   0.946
 3344SOL     OW10930   5.678   3.826   5.152
 3344SOL    HW110931   5.586   3.831   5.192
 3344SOL    HW210932   5.690   3.901   5.087
 3345SOL     OW10933   2.930   3.997   5.662
 3345SOL    HW110934   2.831   4.004   5.676
 3345SOL    HW210935   2.967   4.086   5.636
 3346SOL     OW10936   0.655   1.245   2.033
 3346SOL    HW110937   0.575   1.247   2.094
 3346SOL    HW210938   0.732   1.291   2.077
 3347SOL     OW10939   6.338   4.034   4.224
 3347SOL    HW110940   6.290   4.065   4.306
 3347SOL    HW210941   6.288   3.957   4.183
 3348SOL     OW10942   3.304   3.258   3.912
 3348SOL    HW110943   3.314   3.326   3.839
 3348SOL    HW210944   3.394   3.238   3.952
 3349SOL     OW10945   6.699   3.676   4.196
 3349SOL    HW110946   6.655   3.595   4.158
 3349SOL    HW210947   6.772   3.707   4.134
 3350SOL     OW10948   1.869   1.362   6.903
 3350SOL    HW110949   1.914   1.283   6.945
 3350SOL    HW210950   1.936   1.436   6.893
 3351SOL     OW10951   5.534   0.838   1.185
 3351SOL    HW110952   5.527   0.915   1.248
 3351SOL    HW210953   5.485   0.759   1.223
 3352SOL     OW10954   0.792   4.199   0.882
 3352SOL    HW110955   0.851   4.267   0.925
 3352SOL    HW210956   0.821   4.108   0.910
 3353SOL     OW10957   1.714   6.964   6.708
 3353SOL    HW110958   1.792   6.903   6.726
 3353SOL    HW210959   1.651   6.962   6.786
 3354SOL     OW10960   0.034   2.266   3.562
 3354SOL    HW110961   0.117   2.285   3.616
 3354SOL    HW210962   0.053   2.282   3.465
 3355SOL     OW10963   0.413   1.917   1.309
 3355SOL    HW110964   0.321   1.951   1.287
 3355SOL    HW210965   0.414   1.883   1.403
 3356SOL     OW10966   2.908   3.769   6.934
 3356SOL    HW110967   2.982   3.822   6.893
 3356SOL    HW210968   2.862   3.824   7.004
 3357SOL     OW10969   2.758   5.106   1.281
 3357SOL    HW110970   2.837   5.045   1.285
 3357SOL    HW210971   2.764   5.163   1.198
 3358SOL     OW10972   4.791   6.555   2.378
 3358SOL    HW110973   4.880   6.601   2.388
 3358SOL    HW210974   4.806   6.457   2.367
 3359SOL     OW10975   0.853   0.674   2.669
 3359SOL    HW110976   0.796   0.610   2.721
 3359SOL    HW210977   0.814   0.687   2.578
 3360SOL     OW10978   0.524   0.987   0.297
 3360SOL    HW110979   0.621   0.978   0.318
 3360SOL    HW210980   0.489   0.901   0.260
 3361SOL     OW10981   5.937   5.855   3.067
 3361SOL    HW110982   5.999   5.810   3.131
 3361SOL    HW210983   5.850   5.805   3.064
 3362SOL     OW10984   3.080   1.403   4.570
 3362SOL    HW110985   3.116   1.313   4.545
 3362SOL    HW210986   3.151   1.455   4.618
 3363SOL     OW10987   0.427   1.676   6.950
 3363SOL    HW110988   0.331   1.695   6.930
 3363SOL    HW210989   0.441   1.578   6.962
 3364SOL     OW10990   0.880   5.817   5.928
 3364SOL    HW110991   0.896   5.870   5.845
 3364SOL    HW210992   0.930   5.859   6.004
 3365SOL     OW10993   0.178   2.494   4.758
 3365SOL    HW110994   0.079   2.484   4.748
 3365SOL    HW210995   0.214   2.419   4.814
 3366SOL     OW10996   5.296   0.398   5.440
 3366SOL    HW110997   5.209   0.422   5.399
 3366SOL    HW210998   5.337   0.322   5.389
 3367SOL     OW10999   1.649   2.359   2.376
 3367SOL    HW111000   1.669   2.415   2.296
 3367SOL    HW211001   1.562   2.388   2.416
 3368SOL     OW11002   6.236   5.469   6.665
 3368SOL    HW111003   6.310   5.516   6.617
 3368SOL    HW211004   6.151   5.478   6.612
 3369SOL     OW11005   3.653   0.416   0.145
 3369SOL    HW111006   3.577   0.463   0.102
 3369SOL    HW211007   3.661   0.323   0.108
 3370SOL     OW11008   6.498   6.873   5.082
 3370SOL    HW111009   6.513   6.934   5.005
 3370SOL    HW211010   6.553   6.903   5.161
 3371SOL     OW11011   1.223   4.447   1.828
 3371SOL    HW111012   1.254   4.356   1.801
 3371SOL    HW211013   1.155   4.481   1.762
 3372SOL     OW11014   0.456   1.064   2.430
 3372SOL    HW111015   0.454   0.965   2.417
 3372SOL    HW211016   0.435   1.109   2.343
 3373SOL     OW11017   5.920   1.403   4.862
 3373SOL    HW111018   5.927   1.309   4.828
 3373SOL    HW211019   5.823   1.426   4.875
 3374SOL     OW11020   3.382   6.049   5.486
 3374SOL    HW111021   3.430   5.965   5.464
 3374SOL    HW211022   3.361   6.098   5.401
 3375SOL     OW11023   4.584   4.322   5.119
 3375SOL    HW111024   4.622   4.279   5.037
 3375SOL    HW211025   4.517   4.392   5.092
 3376SOL     OW11026   3.214   2.923   2.683
 3376SOL    HW111027   3.212   2.955   2.778
 3376SOL    HW211028   3.309   2.917   2.652
 3377SOL     OW11029   1.363   6.382   4.808
 3377SOL    HW111030   1.335   6.446   4.736
 3377SOL    HW211031   1.436   6.323   4.773
 3378SOL     OW11032   6.771   1.192   1.446
 3378SOL    HW111033   6.843   1.260   1.461
 3378SOL    HW211034   6.689   1.219   1.496
 3379SOL     OW11035   0.780   4.735   5.542
 3379SOL    HW111036   0.792   4.689   5.630
 3379SOL    HW211037   0.843   4.695   5.475
 3380SOL     OW11038   0.129   4.464   6.642
 3380SOL    HW111039   0.135   4.380   6.589
 3380SOL    HW211040   0.217   4.484   6.684
 3381SOL     OW11041   2.930   2.624   0.494
 3381SOL    HW111042   3.023   2.637   0.460
 3381SOL    HW211043   2.881   2.711   0.492
 3382SOL     OW11044   6.964   1.851   0.079
 3382SOL    HW111045   0.011   1.806   0.125
 3382SOL    HW211046   6.953   1.943   0.117
 3383SOL     OW11047   6.007   4.592   2.947
 3383SOL    HW111048   6.069   4.670   2.945
 3383SOL    HW211049   6.059   4.508   2.967
 3384SOL     OW11050   3.079   3.161   4.817
 3384SOL    HW111051   3.151   3.126   4.759
 3384SOL    HW211052   3.015   3.216   4.762
 3385SOL     OW11053   6.698   3.647   3.446
 3385SOL    HW111054   6.727   3.580   3.514
 3385SOL    HW211055   6.698   3.739   3.487
 3386SOL     OW11056   6.061   4.480   4.398
 3386SOL    HW111057   6.156   4.472   4.430
 3386SOL    HW211058   6.059   4.528   4.311
 3387SOL     OW11059   2.586   2.449   2.478
 3387SOL    HW111060   2.615   2.410   2.565
 3387SOL    HW211061   2.666   2.465   2.420
 3388SOL     OW11062   5.993   2.202   1.262
 3388SOL    HW111063   5.943   2.267   1.320
 3388SOL    HW211064   6.086   2.190   1.299
 3389SOL     OW11065   4.624   4.273   3.828
 3389SOL    HW111066   4.646   4.361   3.784
 3389SOL    HW211067   4.621   4.286   3.927
 3390SOL     OW11068   4.893   2.447   5.981
 3390SOL    HW111069   4.842   2.402   6.054
 3390SOL    HW211070   4.899   2.545   6.001
 3391SOL     OW11071   3.579   1.804   4.902
 3391SOL    HW111072   3.665   1.789   4.854
 3391SOL    HW211073   3.596   1.810   5.001
 3392SOL     OW11074   2.406   0.606   4.034
 3392SOL    HW111075   2.381   0.511   4.052
 3392SOL    HW211076   2.439   0.649   4.118
 3393SOL     OW11077   6.525   6.408   0.321
 3393SOL    HW111078   6.432   6.371   0.320
 3393SOL    HW211079   6.526   6.494   0.372
 3394SOL     OW11080   5.901   2.294   0.753
 3394SOL    HW111081   5.888   2.197   0.735
 3394SOL    HW211082   5.914   2.342   0.666
 3395SOL     OW11083   0.324   3.320   4.318
 3395SOL    HW111084   0.299   3.224   4.322
 3395SOL    HW211085   0.404   3.332   4.260
 3396SOL     OW11086   0.335   3.295   3.176
 3396SOL    HW111087   0.319   3.203   3.142
 3396SOL    HW211088   0.273   3.359   3.131
 3397SOL     OW11089   3.795   0.010   5.806
 3397SOL    HW111090   3.839   0.097   5.830
 3397SOL    HW211091   3.696   0.024   5.796
 3398SOL     OW11092   0.948   0.312   4.277
 3398SOL    HW111093   1.038   0.340   4.310
 3398SOL    HW211094   0.931   0.217   4.302
 3399SOL     OW11095   4.514   4.769   4.234
 3399SOL    HW111096   4.597   4.814   4.268
 3399SOL    HW211097   4.436   4.798   4.290
 3400SOL     OW11098   4.889   2.175   6.501
 3400SOL    HW111099   4.864   2.085   6.466
 3400SOL    HW211100   4.872   2.179   6.600
 3401SOL     OW11101   0.081   3.365   0.173
 3401SOL    HW111102   7.025   3.314   0.180
 3401SOL    HW211103   0.061   3.463   0.172
 3402SOL     OW11104   5.485   5.573   1.436
 3402SOL    HW111105   5.541   5.655   1.426
 3402SOL    HW211106   5.398   5.598   1.478
 3403SOL     OW11107   3.690   6.920   4.902
 3403SOL    HW111108   3.756   6.993   4.917
 3403SOL    HW211109   3.729   6.833   4.929
 3404SOL     OW11110   4.160   1.368   0.614
 3404SOL    HW111111   4.090   1.406   0.675
 3404SOL    HW211112   4.135   1.387   0.519
 3405SOL     OW11113   6.181   3.948   6.351
 3405SOL    HW111114   6.133   3.998   6.279
 3405SOL    HW211115   6.247   3.884   6.310
 3406SOL     OW11116   2.502   4.573   1.915
 3406SOL    HW111117   2.431   4.597   1.981
 3406SOL    HW211118   2.589   4.564   1.962
 3407SOL     OW11119   1.778   5.615   1.832
 3407SOL    HW111120   1.748   5.542   1.771
 3407SOL    HW211121   1.700   5.650   1.883
 3408SOL     OW11122   4.843   4.011   3.236
 3408SOL    HW111123   4.875   3.966   3.152
 3408SOL    HW211124   4.779   4.084   3.213
 3409SOL     OW11125   3.864   6.926   6.086
 3409SOL    HW111126   3.922   6.916   6.167
 3409SOL    HW211127   3.833   7.020   6.077
 3410SOL     OW11128   6.164   5.384   6.924
 3410SOL    HW111129   6.172   5.376   6.825
 3410SOL    HW211130   6.200   5.301   6.967
 3411SOL     OW11131   4.977   2.402   2.063
 3411SOL    HW111132   5.046   2.371   2.129
 3411SOL    HW211133   4.898   2.341   2.066
 3412SOL     OW11134   4.172   3.440   6.941
 3412SOL    HW111135   4.175   3.369   6.870
 3412SOL    HW211136   4.217   3.523   6.907
 3413SOL     OW11137   4.404   1.593   2.660
 3413SOL    HW111138   4.450   1.571   2.746
 3413SOL    HW211139   4.370   1.509   2.618
 3414SOL     OW11140   2.415   1.768   4.718
 3414SOL    HW111141   2.407   1.867   4.713
 3414SOL    HW211142   2.370   1.735   4.801
 3415SOL     OW11143   0.885   4.954   3.951
 3415SOL    HW111144   0.973   4.929   3.911
 3415SOL    HW211145   0.888   4.941   4.050
 3416SOL     OW11146   0.552   4.030   5.658
 3416SOL    HW111147   0.516   4.098   5.722
 3416SOL    HW211148   0.633   4.066   5.613
 3417SOL     OW11149   6.987   6.212   2.510
 3417SOL    HW111150   6.969   6.220   2.607
 3417SOL    HW211151   0.048   6.250   2.489
 3418SOL     OW11152   3.152   1.354   4.874
 3418SOL    HW111153   3.214   1.414   4.824
 3418SOL    HW211154   3.070   1.405   4.900
 3419SOL     OW11155   4.564   4.895   6.983
 3419SOL    HW111156   4.545   4.812   6.929
 3419SOL    HW211157   4.638   4.876   0.018
 3420SOL     OW11158   5.223   1.676   3.772
 3420SOL    HW111159   5.200   1.765   3.811
 3420SOL    HW211160   5.181   1.604   3.827
 3421SOL     OW11161   6.763   0.519   5.578
 3421SOL    HW111162   6.799   0.605   5.541
 3421SOL    HW211163   6.823   0.444   5.551
 3422SOL     OW11164   3.221   0.060   1.145
 3422SOL    HW111165   3.315   0.091   1.155
 3422SOL    HW211166   3.160   0.121   1.196
 3423SOL     OW11167   2.132   0.880   0.429
 3423SOL    HW111168   2.184   0.808   0.474
 3423SOL    HW211169   2.173   0.969   0.449
 3424SOL     OW11170   3.413   1.411   2.372
 3424SOL    HW111171   3.480   1.476   2.407
 3424SOL    HW211172   3.321   1.438   2.399
 3425SOL     OW11173   4.942   4.421   2.051
 3425SOL    HW111174   4.857   4.371   2.067
 3425SOL    HW211175   4.957   4.430   1.952
 3426SOL     OW11176   3.626   3.513   0.209
 3426SOL    HW111177   3.528   3.531   0.199
 3426SOL    HW211178   3.675   3.599   0.222
 3427SOL     OW11179   6.627   0.173   0.263
 3427SOL    HW111180   6.608   0.222   0.349
 3427SOL    HW211181   6.719   0.195   0.232
 3428SOL     OW11182   3.972   4.936   1.948
 3428SOL    HW111183   3.924   4.951   2.035
 3428SOL    HW211184   3.905   4.915   1.877
 3429SOL     OW11185   1.035   2.497   6.794
 3429SOL    HW111186   1.055   2.594   6.811
 3429SOL    HW211187   1.000   2.486   6.701
 3430SOL     OW11188   1.237   7.011   0.029
 3430SOL    HW111189   1.292   6.997   6.976
 3430SOL    HW211190   1.292   6.988   0.109
 3431SOL     OW11191   1.528   6.051   1.357
 3431SOL    HW111192   1.600   5.996   1.314
 3431SOL    HW211193   1.566   6.140   1.384
 3432SOL     OW11194   2.584   2.343   5.242
 3432SOL    HW111195   2.594   2.422   5.302
 3432SOL    HW211196   2.664   2.284   5.251
 3433SOL     OW11197   2.862   0.986   6.243
 3433SOL    HW111198   2.923   0.945   6.175
 3433SOL    HW211199   2.843   1.081   6.217
 3434SOL     OW11200   3.703   2.801   1.230
 3434SOL    HW111201   3.658   2.890   1.228
 3434SOL    HW211202   3.801   2.812   1.212
 3435SOL     OW11203   0.095   2.610   1.735
 3435SOL    HW111204   0.022   2.570   1.790
 3435SOL    HW211205   0.164   2.540   1.716
 3436SOL     OW11206   4.155   6.760   5.027
 3436SOL    HW111207   4.100   6.713   4.959
 3436SOL    HW211208   4.252   6.736   5.014
 3437SOL     OW11209   4.446   0.187   5.821
 3437SOL    HW111210   4.442   0.097   5.776
 3437SOL    HW211211   4.540   0.221   5.820
 3438SOL     OW11212   2.104   2.693   6.746
 3438SOL    HW111213   2.057   2.612   6.712
 3438SOL    HW211214   2.037   2.765   6.765
 3439SOL     OW11215   2.922   6.897   5.095
 3439SOL    HW111216   2.987   6.950   5.041
 3439SOL    HW211217   2.971   6.838   5.158
 3440SOL     OW11218   4.551   3.620   1.023
 3440SOL    HW111219   4.626   3.621   0.956
 3440SOL    HW211220   4.519   3.714   1.038
 3441SOL     OW11221   4.059   6.916   3.898
 3441SOL    HW111222   4.123   6.965   3.839
 3441SOL    HW211223   4.058   6.819   3.873
 3442SOL     OW11224   2.091   5.344   3.569
 3442SOL    HW111225   2.118   5.252   3.596
 3442SOL    HW211226   1.996   5.343   3.537
 3443SOL     OW11227   5.784   1.581   3.279
 3443SOL    HW111228   5.706   1.599   3.218
 3443SOL    HW211229   5.782   1.645   3.356
 3444SOL     OW11230   5.052   5.862   6.342
 3444SOL    HW111231   5.151   5.867   6.336
 3444SOL    HW211232   5.017   5.943   6.390
 3445SOL     OW11233   6.769   4.032   4.424
 3445SOL    HW111234   6.861   4.010   4.392
 3445SOL    HW211235   6.702   4.003   4.356
 3446SOL     OW11236   4.072   1.123   2.666
 3446SOL    HW111237   3.982   1.138   2.626
 3446SOL    HW211238   4.105   1.032   2.639
 3447SOL     OW11239   6.034   5.339   0.133
 3447SOL    HW111240   6.017   5.244   0.106
 3447SOL    HW211241   6.093   5.383   0.065
 3448SOL     OW11242   3.679   6.943   1.003
 3448SOL    HW111243   3.637   6.991   0.926
 3448SOL    HW211244   3.683   6.845   0.983
 3449SOL     OW11245   6.524   6.611   2.269
 3449SOL    HW111246   6.536   6.520   2.230
 3449SOL    HW211247   6.607   6.638   2.318
 3450SOL     OW11248   0.758   2.005   1.297
 3450SOL    HW111249   0.669   2.021   1.255
 3450SOL    HW211250   0.779   1.907   1.293
 3451SOL     OW11251   0.913   5.631   3.529
 3451SOL    HW111252   0.814   5.641   3.522
 3451SOL    HW211253   0.935   5.535   3.549
 3452SOL     OW11254   7.029   0.773   6.649
 3452SOL    HW111255   0.029   0.832   6.574
 3452SOL    HW211256   0.021   0.816   6.737
 3453SOL     OW11257   5.348   5.861   4.699
 3453SOL    HW111258   5.415   5.931   4.676
 3453SOL    HW211259   5.256   5.901   4.697
 3454SOL     OW11260   2.063   1.590   6.923
 3454SOL    HW111261   1.978   1.643   6.920
 3454SOL    HW211262   2.133   1.634   6.867
 3455SOL     OW11263   1.326   3.378   4.729
 3455SOL    HW111264   1.253   3.445   4.733
 3455SOL    HW211265   1.415   3.424   4.738
 3456SOL     OW11266   5.918   6.176   2.127
 3456SOL    HW111267   6.008   6.192   2.167
 3456SOL    HW211268   5.901   6.078   2.121
 3457SOL     OW11269   2.495   5.232   4.165
 3457SOL    HW111270   2.566   5.301   4.152
 3457SOL    HW211271   2.527   5.144   4.132
 3458SOL     OW11272   5.994   0.127   0.477
 3458SOL    HW111273   6.079   0.174   0.503
 3458SOL    HW211274   5.982   0.134   0.378
 3459SOL     OW11275   0.600   3.345   3.040
 3459SOL    HW111276   0.526   3.312   3.100
 3459SOL    HW211277   0.561   3.389   2.959
 3460SOL     OW11278   3.220   3.111   0.635
 3460SOL    HW111279   3.147   3.158   0.585
 3460SOL    HW211280   3.220   3.141   0.730
 3461SOL     OW11281   3.829   5.384   4.672
 3461SOL    HW111282   3.893   5.387   4.595
 3461SOL    HW211283   3.823   5.474   4.714
 3462SOL     OW11284   6.139   2.848   2.588
 3462SOL    HW111285   6.212   2.896   2.638
 3462SOL    HW211286   6.135   2.881   2.494
 3463SOL     OW11287   0.621   3.385   2.393
 3463SOL    HW111288   0.562   3.399   2.313
 3463SOL    HW211289   0.717   3.393   2.366
 3464SOL     OW11290   5.629   2.434   6.869
 3464SOL    HW111291   5.544   2.452   6.820
 3464SOL    HW211292   5.636   2.336   6.889
 3465SOL     OW11293   2.089   3.635   1.490
 3465SOL    HW111294   2.129   3.698   1.557
 3465SOL    HW211295   2.049   3.556   1.539
 3466SOL     OW11296   5.523   4.876   5.884
 3466SOL    HW111297   5.536   4.960   5.831
 3466SOL    HW211298   5.492   4.901   5.976
 3467SOL     OW11299   3.190   1.586   0.874
 3467SOL    HW111300   3.100   1.552   0.847
 3467SOL    HW211301   3.233   1.632   0.796
 3468SOL     OW11302   4.677   1.722   2.231
 3468SOL    HW111303   4.636   1.638   2.197
 3468SOL    HW211304   4.724   1.703   2.318
 3469SOL     OW11305   4.812   0.294   6.287
 3469SOL    HW111306   4.863   0.223   6.238
 3469SOL    HW211307   4.754   0.343   6.223
 3470SOL     OW11308   0.623   2.806   1.280
 3470SOL    HW111309   0.649   2.784   1.186
 3470SOL    HW211310   0.703   2.842   1.329
 3471SOL     OW11311   4.757   4.248   3.152
 3471SOL    HW111312   4.748   4.338   3.195
 3471SOL    HW211313   4.828   4.252   3.081
 3472SOL     OW11314   4.578   1.947   2.800
 3472SOL    HW111315   4.591   1.868   2.741
 3472SOL    HW211316   4.662   2.000   2.805
 3473SOL     OW11317   6.963   3.432   3.574
 3473SOL    HW111318   6.970   3.490   3.493
 3473SOL    HW211319   6.871   3.436   3.611
 3474SOL     OW11320   0.335   4.155   3.904
 3474SOL    HW111321   0.325   4.129   4.000
 3474SOL    HW211322   0.371   4.248   3.899
 3475SOL     OW11323   0.609   5.013   4.140
 3475SOL    HW111324   0.700   4.987   4.173
 3475SOL    HW211325   0.553   4.930   4.130
 3476SOL     OW11326   1.737   1.133   3.708
 3476SOL    HW111327   1.797   1.092   3.639
 3476SOL    HW211328   1.644   1.137   3.673
 3477SOL     OW11329   0.681   3.603   0.512
 3477SOL    HW111330   0.665   3.667   0.437
 3477SOL    HW211331   0.683   3.509   0.476
 3478SOL     OW11332   2.389   6.994   0.170
 3478SOL    HW111333   2.399   6.959   0.263
 3478SOL    HW211334   2.427   0.057   0.165
 3479SOL     OW11335   0.870   2.136   4.064
 3479SOL    HW111336   0.786   2.167   4.018
 3479SOL    HW211337   0.942   2.205   4.053
 3480SOL     OW11338   1.088   6.002   6.355
 3480SOL    HW111339   1.065   5.918   6.403
 3480SOL    HW211340   1.173   6.040   6.391
 3481SOL     OW11341   5.547   0.845   0.564
 3481SOL    HW111342   5.512   0.760   0.602
 3481SOL    HW211343   5.639   0.829   0.527
 3482SOL     OW11344   5.762   2.124   3.292
 3482SOL    HW111345   5.762   2.029   3.261
 3482SOL    HW211346   5.856   2.158   3.295
 3483SOL     OW11347   5.209   2.454   2.996
 3483SOL    HW111348   5.191   2.488   2.903
 3483SOL    HW211349   5.307   2.446   3.010
 3484SOL     OW11350   1.796   3.677   6.788
 3484SOL    HW111351   1.885   3.697   6.828
 3484SOL    HW211352   1.785   3.727   6.702
 3485SOL     OW11353   0.120   2.323   5.447
 3485SOL    HW111354   0.082   2.248   5.502
 3485SOL    HW211355   0.045   2.383   5.418
 3486SOL     OW11356   2.127   0.371   4.125
 3486SOL    HW111357   2.051   0.429   4.099
 3486SOL    HW211358   2.184   0.352   4.045
 3487SOL     OW11359   6.692   2.083   6.724
 3487SOL    HW111360   6.646   1.994   6.725
 3487SOL    HW211361   6.658   2.139   6.799
 3488SOL     OW11362   5.745   0.413   4.951
 3488SOL    HW111363   5.664   0.408   5.010
 3488SOL    HW211364   5.828   0.405   5.006
 3489SOL     OW11365   3.419   6.929   1.484
 3489SOL    HW111366   3.467   6.967   1.563
 3489SOL    HW211367   3.348   6.867   1.515
 3490SOL     OW11368   3.995   4.834   1.521
 3490SOL    HW111369   3.937   4.818   1.441
 3490SOL    HW211370   3.942   4.883   1.590
 3491SOL     OW11371   4.703   4.098   6.378
 3491SOL    HW111372   4.658   4.071   6.293
 3491SOL    HW211373   4.718   4.017   6.434
 3492SOL     OW11374   6.888   3.828   1.386
 3492SOL    HW111375   6.892   3.914   1.334
 3492SOL    HW211376   6.796   3.789   1.379
 3493SOL     OW11377   6.454   4.186   4.032
 3493SOL    HW111378   6.387   4.125   4.075
 3493SOL    HW211379   6.427   4.204   3.937
 3494SOL     OW11380   3.214   1.360   2.089
 3494SOL    HW111381   3.286   1.427   2.104
 3494SOL    HW211382   3.222   1.323   1.996
 3495SOL     OW11383   0.604   3.704   2.083
 3495SOL    HW111384   0.677   3.695   2.015
 3495SOL    HW211385   0.624   3.783   2.142
 3496SOL     OW11386   5.951   4.722   1.181
 3496SOL    HW111387   5.990   4.630   1.183
 3496SOL    HW211388   5.983   4.770   1.099
 3497SOL     OW11389   3.467   1.337   3.603
 3497SOL    HW111390   3.501   1.297   3.689
 3497SOL    HW211391   3.389   1.285   3.570
 3498SOL     OW11392   2.854   1.643   2.208
 3498SOL    HW111393   2.837   1.662   2.305
 3498SOL    HW211394   2.767   1.620   2.163
 3499SOL     OW11395   6.353   6.074   5.041
 3499SOL    HW111396   6.328   5.992   4.989
 3499SOL    HW211397   6.438   6.112   5.005
 3500SOL     OW11398   2.004   2.806   4.226
 3500SOL    HW111399   1.998   2.823   4.127
 3500SOL    HW211400   2.090   2.841   4.261
 3501SOL     OW11401   2.532   6.911   6.312
 3501SOL    HW111402   2.519   6.854   6.230
 3501SOL    HW211403   2.606   6.976   6.296
 3502SOL     OW11404   6.122   3.357   1.662
 3502SOL    HW111405   6.135   3.436   1.722
 3502SOL    HW211406   6.200   3.295   1.672
 3503SOL     OW11407   0.022   6.437   6.051
 3503SOL    HW111408   7.012   6.415   5.962
 3503SOL    HW211409   0.107   6.385   6.063
 3504SOL     OW11410   1.983   1.243   2.235
 3504SOL    HW111411   1.934   1.186   2.300
 3504SOL    HW211412   1.989   1.196   2.147
 3505SOL     OW11413   5.932   5.584   5.211
 3505SOL    HW111414   5.992   5.621   5.282
 3505SOL    HW211415   5.988   5.550   5.135
 3506SOL     OW11416   5.563   4.490   4.999
 3506SOL    HW111417   5.592   4.460   5.090
 3506SOL    HW211418   5.623   4.563   4.967
 3507SOL     OW11419   2.379   6.382   0.497
 3507SOL    HW111420   2.403   6.330   0.579
 3507SOL    HW211421   2.447   6.454   0.482
 3508SOL     OW11422   2.994   2.632   6.560
 3508SOL    HW111423   3.016   2.638   6.657
 3508SOL    HW211424   2.983   2.725   6.523
 3509SOL     OW11425   5.697   6.962   0.052
 3509SOL    HW111426   5.652   6.946   0.140
 3509SOL    HW211427   5.652   6.907   7.011
 3510SOL     OW11428   1.814   0.677   1.418
 3510SOL    HW111429   1.720   0.667   1.383
 3510SOL    HW211430   1.835   0.774   1.429
 3511SOL     OW11431   1.830   4.604   1.503
 3511SOL    HW111432   1.801   4.669   1.573
 3511SOL    HW211433   1.793   4.632   1.414
 3512SOL     OW11434   1.275   3.335   0.550
 3512SOL    HW111435   1.342   3.281   0.600
 3512SOL    HW211436   1.315   3.366   0.463
 3513SOL     OW11437   5.954   2.051   1.519
 3513SOL    HW111438   5.903   2.133   1.495
 3513SOL    HW211439   5.894   1.984   1.562
 3514SOL     OW11440   5.565   0.629   2.250
 3514SOL    HW111441   5.529   0.714   2.212
 3514SOL    HW211442   5.545   0.625   2.348
 3515SOL     OW11443   5.246   6.429   4.213
 3515SOL    HW111444   5.165   6.433   4.271
 3515SOL    HW211445   5.220   6.435   4.117
 3516SOL     OW11446   5.247   6.446   1.124
 3516SOL    HW111447   5.187   6.480   1.051
 3516SOL    HW211448   5.279   6.355   1.100
 3517SOL     OW11449   0.484   1.525   1.707
 3517SOL    HW111450   0.466   1.554   1.613
 3517SOL    HW211451   0.555   1.454   1.707
 3518SOL     OW11452   5.049   1.904   4.911
 3518SOL    HW111453   5.005   1.823   4.950
 3518SOL    HW211454   5.084   1.962   4.985
 3519SOL     OW11455   2.283   0.932   6.266
 3519SOL    HW111456   2.231   0.935   6.180
 3519SOL    HW211457   2.327   1.020   6.280
 3520SOL     OW11458   3.460   6.737   0.189
 3520SOL    HW111459   3.438   6.732   0.286
 3520SOL    HW211460   3.464   6.645   0.151
 3521SOL     OW11461   3.795   2.918   6.525
 3521SOL    HW111462   3.786   2.846   6.593
 3521SOL    HW211463   3.831   2.880   6.440
 3522SOL     OW11464   6.388   4.990   6.680
 3522SOL    HW111465   6.396   4.896   6.713
 3522SOL    HW211466   6.298   5.004   6.639
 3523SOL     OW11467   1.370   4.604   5.581
 3523SOL    HW111468   1.320   4.522   5.553
 3523SOL    HW211469   1.323   4.685   5.548
 3524SOL     OW11470   5.153   2.091   2.431
 3524SOL    HW111471   5.133   2.121   2.524
 3524SOL    HW211472   5.090   2.019   2.404
 3525SOL     OW11473   6.121   3.602   4.162
 3525SOL    HW111474   6.028   3.571   4.182
 3525SOL    HW211475   6.183   3.571   4.233
 3526SOL     OW11476   2.165   6.646   3.204
 3526SOL    HW111477   2.220   6.589   3.143
 3526SOL    HW211478   2.205   6.737   3.211
 3527SOL     OW11479   5.930   3.310   6.440
 3527SOL    HW111480   5.830   3.313   6.440
 3527SOL    HW211481   5.962   3.237   6.381
 3528SOL     OW11482   2.232   6.279   4.939
 3528SOL    HW111483   2.253   6.190   4.979
 3528SOL    HW211484   2.198   6.267   4.846
 3529SOL     OW11485   4.067   6.706   0.339
 3529SOL    HW111486   3.981   6.751   0.314
 3529SOL    HW211487   4.062   6.609   0.315
 3530SOL     OW11488   0.045   5.014   1.460
 3530SOL    HW111489   6.991   5.068   1.470
 3530SOL    HW211490   0.065   4.968   1.547
 3531SOL     OW11491   5.953   2.706   1.222
 3531SOL    HW111492   5.934   2.804   1.228
 3531SOL    HW211493   5.867   2.655   1.225
 3532SOL     OW11494   2.554   1.257   1.500
 3532SOL    HW111495   2.626   1.189   1.490
 3532SOL    HW211496   2.594   1.345   1.522
 3533SOL     OW11497   0.703   1.448   2.609
 3533SOL    HW111498   0.626   1.386   2.626
 3533SOL    HW211499   0.779   1.424   2.669
 3534SOL     OW11500   0.805   2.166   2.006
 3534SOL    HW111501   0.871   2.168   2.082
 3534SOL    HW211502   0.848   2.202   1.924
 3535SOL     OW11503   2.146   5.546   5.799
 3535SOL    HW111504   2.082   5.575   5.728
 3535SOL    HW211505   2.134   5.449   5.817
 3536SOL     OW11506   3.158   2.094   3.595
 3536SOL    HW111507   3.244   2.083   3.644
 3536SOL    HW211508   3.177   2.120   3.500
 3537SOL     OW11509   1.740   5.267   1.958
 3537SOL    HW111510   1.799   5.326   2.014
 3537SOL    HW211511   1.687   5.323   1.894
 3538SOL     OW11512   2.698   5.367   5.845
 3538SOL    HW111513   2.717   5.422   5.763
 3538SOL    HW211514   2.693   5.270   5.820
 3539SOL     OW11515   3.540   3.481   4.499
 3539SOL    HW111516   3.521   3.535   4.417
 3539SOL    HW211517   3.619   3.423   4.482
 3540SOL     OW11518   2.051   2.324   4.593
 3540SOL    HW111519   1.981   2.284   4.533
 3540SOL    HW211520   2.108   2.251   4.630
 3541SOL     OW11521   2.918   2.716   5.642
 3541SOL    HW111522   3.016   2.705   5.624
 3541SOL    HW211523   2.893   2.663   5.723
 3542SOL     OW11524   1.342   5.062   3.063
 3542SOL    HW111525   1.318   5.025   2.974
 3542SOL    HW211526   1.292   5.148   3.079
 3543SOL     OW11527   6.344   2.988   3.481
 3543SOL    HW111528   6.372   3.009   3.387
 3543SOL    HW211529   6.320   2.892   3.488
 3544SOL     OW11530   2.223   4.216   6.614
 3544SOL    HW111531   2.247   4.122   6.588
 3544SOL    HW211532   2.236   4.277   6.536
 3545SOL     OW11533   3.906   6.432   6.625
 3545SOL    HW111534   3.843   6.435   6.548
 3545SOL    HW211535   3.855   6.425   6.710
 3546SOL     OW11536   0.746   4.651   3.305
 3546SOL    HW111537   0.653   4.615   3.299
 3546SOL    HW211538   0.790   4.613   3.386
 3547SOL     OW11539   4.667   4.917   3.633
 3547SOL    HW111540   4.761   4.892   3.657
 3547SOL    HW211541   4.667   4.965   3.545
 3548SOL     OW11542   4.790   1.876   5.796
 3548SOL    HW111543   4.796   1.940   5.872
 3548SOL    HW211544   4.828   1.787   5.823
 3549SOL     OW11545   7.020   4.904   4.464
 3549SOL    HW111546   6.967   4.966   4.521
 3549SOL    HW211547   0.069   4.870   4.515
 3550SOL     OW11548   4.834   2.643   2.682
 3550SOL    HW111549   4.892   2.627   2.602
 3550SOL    HW211550   4.856   2.732   2.722
 3551SOL     OW11551   3.870   6.340   3.134
 3551SOL    HW111552   3.885   6.341   3.035
 3551SOL    HW211553   3.807   6.266   3.157
 3552SOL     OW11554   4.904   6.297   2.385
 3552SOL    HW111555   4.990   6.309   2.434
 3552SOL    HW211556   4.867   6.206   2.402
 3553SOL     OW11557   5.893   3.188   1.679
 3553SOL    HW111558   5.899   3.101   1.728
 3553SOL    HW211559   5.979   3.237   1.688
 3554SOL     OW11560   3.734   3.467   0.480
 3554SOL    HW111561   3.680   3.495   0.559
 3554SOL    HW211562   3.680   3.477   0.396
 3555SOL     OW11563   0.691   3.023   2.780
 3555SOL    HW111564   0.788   3.026   2.803
 3555SOL    HW211565   0.680   3.038   2.681
 3556SOL     OW11566   3.727   0.369   5.126
 3556SOL    HW111567   3.818   0.375   5.168
 3556SOL    HW211568   3.697   0.462   5.101
 3557SOL     OW11569   0.725   0.462   4.243
 3557SOL    HW111570   0.809   0.408   4.251
 3557SOL    HW211571   0.650   0.411   4.284
 3558SOL     OW11572   0.096   5.699   1.508
 3558SOL    HW111573   0.151   5.664   1.584
 3558SOL    HW211574   0.135   5.667   1.422
 3559SOL     OW11575   0.439   0.207   4.600
 3559SOL    HW111576   0.368   0.222   4.531
 3559SOL    HW211577   0.408   0.242   4.688
 3560SOL     OW11578   1.278   5.896   1.221
 3560SOL    HW111579   1.348   5.963   1.246
 3560SOL    HW211580   1.272   5.891   1.121
 3561SOL     OW11581   5.101   5.081   5.641
 3561SOL    HW111582   5.101   5.170   5.687
 3561SOL    HW211583   5.169   5.082   5.567
 3562SOL     OW11584   4.736   0.839   4.679
 3562SOL    HW111585   4.819   0.823   4.732
 3562SOL    HW211586   4.656   0.823   4.737
 3563SOL     OW11587   5.397   0.828   1.841
 3563SOL    HW111588   5.426   0.919   1.873
 3563SOL    HW211589   5.444   0.758   1.894
 3564SOL     OW11590   1.383   4.334   4.030
 3564SOL    HW111591   1.335   4.391   3.963
 3564SOL    HW211592   1.378   4.238   4.002
 3565SOL     OW11593   3.187   6.785   5.004
 3565SOL    HW111594   3.158   6.881   5.007
 3565SOL    HW211595   3.285   6.780   4.987
 3566SOL     OW11596   6.953   3.346   5.937
 3566SOL    HW111597   6.895   3.278   5.982
 3566SOL    HW211598   6.904   3.389   5.862
 3567SOL     OW11599   1.691   2.053   0.466
 3567SOL    HW111600   1.674   2.141   0.509
 3567SOL    HW211601   1.746   2.066   0.384
 3568SOL     OW11602   5.590   5.326   2.507
 3568SOL    HW111603   5.598   5.344   2.409
 3568SOL    HW211604   5.517   5.259   2.522
 3569SOL     OW11605   2.862   3.207   5.265
 3569SOL    HW111606   2.938   3.218   5.328
 3569SOL    HW211607   2.884   3.250   5.178
 3570SOL     OW11608   5.600   0.956   5.475
 3570SOL    HW111609   5.549   0.935   5.558
 3570SOL    HW211610   5.651   1.041   5.487
 3571SOL     OW11611   1.924   0.744   4.869
 3571SOL    HW111612   1.938   0.720   4.773
 3571SOL    HW211613   1.844   0.696   4.904
 3572SOL     OW11614   5.204   4.033   2.593
 3572SOL    HW111615   5.220   4.111   2.533
 3572SOL    HW211616   5.110   4.036   2.627
 3573SOL     OW11617   6.815   4.697   2.374
 3573SOL    HW111618   6.727   4.718   2.332
 3573SOL    HW211619   6.805   4.694   2.473
 3574SOL     OW11620   2.153   3.015   6.594
 3574SOL    HW111621   2.161   2.927   6.548
 3574SOL    HW211622   2.069   3.061   6.563
 3575SOL     OW11623   5.425   5.599   0.707
 3575SOL    HW111624   5.411   5.687   0.754
 3575SOL    HW211625   5.395   5.607   0.612
 3576SOL     OW11626   0.562   2.558   0.054
 3576SOL    HW111627   0.596   2.490   7.019
 3576SOL    HW211628   0.525   2.512   0.135
 3577SOL     OW11629   2.343   3.202   5.664
 3577SOL    HW111630   2.396   3.165   5.740
 3577SOL    HW211631   2.326   3.130   5.597
 3578SOL     OW11632   3.654   3.429   0.936
 3578SOL    HW111633   3.603   3.492   0.994
 3578SOL    HW211634   3.697   3.359   0.993
 3579SOL     OW11635   0.434   3.171   2.491
 3579SOL    HW111636   0.477   3.081   2.500
 3579SOL    HW211637   0.503   3.240   2.468
 3580SOL     OW11638   0.282   3.214   1.490
 3580SOL    HW111639   0.222   3.292   1.472
 3580SOL    HW211640   0.322   3.223   1.581
 3581SOL     OW11641   0.845   6.860   3.240
 3581SOL    HW111642   0.919   6.816   3.290
 3581SOL    HW211643   0.881   6.933   3.184
 3582SOL     OW11644   3.396   5.076   5.881
 3582SOL    HW111645   3.495   5.063   5.879
 3582SOL    HW211646   3.372   5.143   5.951
 3583SOL     OW11647   0.292   4.254   0.627
 3583SOL    HW111648   0.236   4.313   0.684
 3583SOL    HW211649   0.242   4.170   0.604
 3584SOL     OW11650   6.059   4.597   5.697
 3584SOL    HW111651   6.008   4.573   5.615
 3584SOL    HW211652   6.083   4.513   5.746
 3585SOL     OW11653   2.839   1.990   4.766
 3585SOL    HW111654   2.877   2.064   4.821
 3585SOL    HW211655   2.740   1.997   4.764
 3586SOL     OW11656   6.185   3.159   4.109
 3586SOL    HW111657   6.149   3.229   4.048
 3586SOL    HW211658   6.158   3.069   4.076
 3587SOL     OW11659   3.615   5.881   6.911
 3587SOL    HW111660   3.556   5.856   6.835
 3587SOL    HW211661   3.588   5.831   6.993
 3588SOL     OW11662   6.277   4.584   3.757
 3588SOL    HW111663   6.240   4.497   3.788
 3588SOL    HW211664   6.207   4.655   3.766
 3589SOL     OW11665   0.334   0.162   6.020
 3589SOL    HW111666   0.388   0.091   6.066
 3589SOL    HW211667   0.342   0.248   6.071
 3590SOL     OW11668   7.012   4.229   0.413
 3590SOL    HW111669   7.012   4.130   0.431
 3590SOL    HW211670   0.036   4.248   0.331
 3591SOL     OW11671   5.762   2.532   0.046
 3591SOL    HW111672   5.712   2.511   6.992
 3591SOL    HW211673   5.766   2.450   0.103
 3592SOL     OW11674   1.424   0.382   2.221
 3592SOL    HW111675   1.515   0.422   2.222
 3592SOL    HW211676   1.428   0.288   2.254
 3593SOL     OW11677   0.277   4.611   5.510
 3593SOL    HW111678   0.368   4.590   5.473
 3593SOL    HW211679   0.229   4.671   5.446
 3594SOL     OW11680   4.100   5.918   5.166
 3594SOL    HW111681   4.082   5.970   5.082
 3594SOL    HW211682   4.013   5.886   5.204
 3595SOL     OW11683   6.320   6.053   7.009
 3595SOL    HW111684   6.305   5.955   6.996
 3595SOL    HW211685   6.253   6.089   0.044
 3596SOL     OW11686   4.578   1.966   3.162
 3596SOL    HW111687   4.515   2.009   3.097
 3596SOL    HW211688   4.641   2.034   3.198
 3597SOL     OW11689   2.068   3.244   5.648
 3597SOL    HW111690   2.160   3.208   5.634
 3597SOL    HW211691   2.002   3.181   5.608
 3598SOL     OW11692   1.759   6.415   5.904
 3598SOL    HW111693   1.671   6.439   5.945
 3598SOL    HW211694   1.753   6.425   5.805
 3599SOL     OW11695   4.638   1.721   6.408
 3599SOL    HW111696   4.617   1.623   6.403
 3599SOL    HW211697   4.606   1.757   6.496
 3600SOL     OW11698   2.246   3.472   0.633
 3600SOL    HW111699   2.280   3.441   0.721
 3600SOL    HW211700   2.156   3.514   0.645
 3601SOL     OW11701   4.993   1.047   5.810
 3601SOL    HW111702   5.045   1.107   5.748
 3601SOL    HW211703   5.039   0.959   5.818
 3602SOL     OW11704   1.990   2.926   1.708
 3602SOL    HW111705   1.947   2.839   1.686
 3602SOL    HW211706   2.060   2.913   1.779
 3603SOL     OW11707   3.095   1.141   6.391
 3603SOL    HW111708   3.132   1.233   6.407
 3603SOL    HW211709   3.067   1.133   6.295
 3604SOL     OW11710   6.695   0.774   3.387
 3604SOL    HW111711   6.667   0.841   3.455
 3604SOL    HW211712   6.680   0.682   3.423
 3605SOL     OW11713   1.180   5.497   3.435
 3605SOL    HW111714   1.219   5.578   3.479
 3605SOL    HW211715   1.147   5.433   3.504
 3606SOL     OW11716   1.228   6.312   1.406
 3606SOL    HW111717   1.244   6.225   1.453
 3606SOL    HW211718   1.218   6.385   1.474
 3607SOL     OW11719   5.248   2.730   2.509
 3607SOL    HW111720   5.340   2.692   2.520
 3607SOL    HW211721   5.241   2.814   2.563
 3608SOL     OW11722   4.960   2.030   3.831
 3608SOL    HW111723   4.926   1.947   3.787
 3608SOL    HW211724   4.896   2.061   3.900
 3609SOL     OW11725   2.372   6.100   4.356
 3609SOL    HW111726   2.429   6.028   4.397
 3609SOL    HW211727   2.421   6.187   4.362
 3610SOL     OW11728   1.721   0.207   5.585
 3610SOL    HW111729   1.712   0.213   5.486
 3610SOL    HW211730   1.732   0.300   5.623
 3611SOL     OW11731   4.723   4.424   4.641
 3611SOL    HW111732   4.817   4.460   4.644
 3611SOL    HW211733   4.714   4.358   4.566
 3612SOL     OW11734   6.619   1.741   6.483
 3612SOL    HW111735   6.657   1.766   6.572
 3612SOL    HW211736   6.520   1.754   6.483
 3613SOL     OW11737   4.116   5.286   1.283
 3613SOL    HW111738   4.079   5.371   1.244
 3613SOL    HW211739   4.163   5.306   1.368
 3614SOL     OW11740   4.026   4.142   0.121
 3614SOL    HW111741   3.965   4.222   0.118
 3614SOL    HW211742   3.973   4.059   0.104
 3615SOL     OW11743   5.744   2.940   5.796
 3615SOL    HW111744   5.661   2.988   5.767
 3615SOL    HW211745   5.734   2.842   5.781
 3616SOL     OW11746   1.933   1.809   6.218
 3616SOL    HW111747   1.894   1.734   6.271
 3616SOL    HW211748   1.986   1.869   6.278
 3617SOL     OW11749   4.520   6.950   5.988
 3617SOL    HW111750   4.521   0.006   5.936
 3617SOL    HW211751   4.463   6.883   5.941
 3618SOL     OW11752   2.092   3.720   4.774
 3618SOL    HW111753   2.019   3.743   4.839
 3618SOL    HW211754   2.150   3.800   4.761
 3619SOL     OW11755   6.008   2.867   0.591
 3619SOL    HW111756   5.934   2.916   0.637
 3619SOL    HW211757   5.990   2.769   0.594
 3620SOL     OW11758   6.104   6.368   4.488
 3620SOL    HW111759   6.156   6.365   4.574
 3620SOL    HW211760   6.135   6.295   4.428
 3621SOL     OW11761   3.380   2.906   3.762
 3621SOL    HW111762   3.342   2.888   3.853
 3621SOL    HW211763   3.478   2.889   3.763
 3622SOL     OW11764   0.704   0.452   1.336
 3622SOL    HW111765   0.723   0.441   1.239
 3622SOL    HW211766   0.714   0.364   1.383
 3623SOL     OW11767   0.643   5.639   5.941
 3623SOL    HW111768   0.733   5.683   5.936
 3623SOL    HW211769   0.586   5.672   5.865
 3624SOL     OW11770   2.687   0.357   2.021
 3624SOL    HW111771   2.593   0.387   2.004
 3624SOL    HW211772   2.750   0.429   1.994
 3625SOL     OW11773   6.553   2.626   6.628
 3625SOL    HW111774   6.562   2.723   6.606
 3625SOL    HW211775   6.643   2.585   6.640
 3626SOL     OW11776   0.083   3.752   4.291
 3626SOL    HW111777   0.043   3.708   4.371
 3626SOL    HW211778   0.142   3.687   4.244
 3627SOL     OW11779   4.540   3.041   1.259
 3627SOL    HW111780   4.516   3.012   1.352
 3627SOL    HW211781   4.462   3.024   1.198
 3628SOL     OW11782   1.430   1.968   1.560
 3628SOL    HW111783   1.369   1.929   1.629
 3628SOL    HW211784   1.394   1.949   1.469
 3629SOL     OW11785   1.104   1.161   3.669
 3629SOL    HW111786   1.030   1.228   3.679
 3629SOL    HW211787   1.110   1.105   3.751
 3630SOL     OW11788   6.804   2.722   3.175
 3630SOL    HW111789   6.881   2.690   3.230
 3630SOL    HW211790   6.718   2.692   3.216
 3631SOL     OW11791   1.819   6.926   3.075
 3631SOL    HW111792   1.737   6.964   3.116
 3631SOL    HW211793   1.900   6.971   3.113
 3632SOL     OW11794   3.980   4.000   0.614
 3632SOL    HW111795   4.032   4.007   0.699
 3632SOL    HW211796   4.009   4.073   0.551
 3633SOL     OW11797   3.391   2.871   5.675
 3633SOL    HW111798   3.382   2.885   5.576
 3633SOL    HW211799   3.488   2.859   5.698
 3634SOL     OW11800   2.810   6.208   5.899
 3634SOL    HW111801   2.783   6.277   5.965
 3634SOL    HW211802   2.750   6.212   5.819
 3635SOL     OW11803   2.769   1.114   1.428
 3635SOL    HW111804   2.847   1.134   1.486
 3635SOL    HW211805   2.778   1.161   1.340
 3636SOL     OW11806   0.096   5.642   0.652
 3636SOL    HW111807   0.060   5.592   0.730
 3636SOL    HW211808   0.157   5.714   0.684
 3637SOL     OW11809   0.864   2.878   6.605
 3637SOL    HW111810   0.838   2.840   6.517
 3637SOL    HW211811   0.795   2.856   6.673
 3638SOL     OW11812   6.382   4.305   3.116
 3638SOL    HW111813   6.413   4.220   3.073
 3638SOL    HW211814   6.290   4.326   3.084
 3639SOL     OW11815   3.941   3.877   4.883
 3639SOL    HW111816   3.911   3.953   4.825
 3639SOL    HW211817   4.005   3.819   4.832
 3640SOL     OW11818   5.500   2.577   0.271
 3640SOL    HW111819   5.592   2.614   0.277
 3640SOL    HW211820   5.443   2.615   0.344
 3641SOL     OW11821   6.307   4.101   1.089
 3641SOL    HW111822   6.327   4.005   1.070
 3641SOL    HW211823   6.212   4.110   1.118
 3642SOL     OW11824   5.816   2.248   6.628
 3642SOL    HW111825   5.852   2.272   6.538
 3642SOL    HW211826   5.892   2.222   6.688
 3643SOL     OW11827   4.495   5.804   6.042
 3643SOL    HW111828   4.576   5.840   6.088
 3643SOL    HW211829   4.451   5.877   5.990
 3644SOL     OW11830   2.760   0.924   2.096
 3644SOL    HW111831   2.667   0.888   2.108
 3644SOL    HW211832   2.791   0.906   2.003
 3645SOL     OW11833   1.636   4.043   4.660
 3645SOL    HW111834   1.558   4.007   4.711
 3645SOL    HW211835   1.608   4.124   4.608
 3646SOL     OW11836   2.675   4.699   4.815
 3646SOL    HW111837   2.734   4.716   4.736
 3646SOL    HW211838   2.729   4.657   4.889
 3647SOL     OW11839   1.771   6.564   0.305
 3647SOL    HW111840   1.793   6.661   0.313
 3647SOL    HW211841   1.746   6.544   0.210
 3648SOL     OW11842   5.249   5.392   3.554
 3648SOL    HW111843   5.186   5.315   3.565
 3648SOL    HW211844   5.342   5.357   3.542
 3649SOL     OW11845   5.528   3.569   6.925
 3649SOL    HW111846   5.482   3.613   6.848
 3649SOL    HW211847   5.570   3.484   6.895
 3650SOL     OW11848   4.834   4.513   1.221
 3650SOL    HW111849   4.756   4.474   1.173
 3650SOL    HW211850   4.889   4.439   1.261
 3651SOL     OW11851   1.339   2.285   5.850
 3651SOL    HW111852   1.338   2.282   5.750
 3651SOL    HW211853   1.376   2.373   5.880
 3652SOL     OW11854   5.249   0.875   2.172
 3652SOL    HW111855   5.343   0.874   2.206
 3652SOL    HW211856   5.209   0.965   2.185
 3653SOL     OW11857   1.693   1.275   2.367
 3653SOL    HW111858   1.667   1.325   2.449
 3653SOL    HW211859   1.621   1.211   2.342
 3654SOL     OW11860   5.045   0.007   1.020
 3654SOL    HW111861   5.138   7.010   0.994
 3654SOL    HW211862   5.048   0.058   1.106
 3655SOL     OW11863   2.442   1.463   4.271
 3655SOL    HW111864   2.440   1.451   4.172
 3655SOL    HW211865   2.351   1.486   4.304
 3656SOL     OW11866   0.692   5.352   2.031
 3656SOL    HW111867   0.782   5.320   2.060
 3656SOL    HW211868   0.629   5.274   2.024
 3657SOL     OW11869   4.834   6.170   5.200
 3657SOL    HW111870   4.914   6.222   5.230
 3657SOL    HW211871   4.761   6.233   5.174
 3658SOL     OW11872   0.704   5.608   6.209
 3658SOL    HW111873   0.686   5.620   6.112
 3658SOL    HW211874   0.687   5.513   6.235
 3659SOL     OW11875   0.021   2.022   6.283
 3659SOL    HW111876   0.026   2.022   6.383
 3659SOL    HW211877   6.957   2.001   6.254
 3660SOL     OW11878   5.164   5.355   5.709
 3660SOL    HW111879   5.155   5.446   5.668
 3660SOL    HW211880   5.178   5.363   5.807
 3661SOL     OW11881   0.023   1.550   5.057
 3661SOL    HW111882   0.094   1.582   5.121
 3661SOL    HW211883   0.063   1.540   4.966
 3662SOL     OW11884   3.638   0.838   5.769
 3662SOL    HW111885   3.541   0.817   5.781
 3662SOL    HW211886   3.664   0.914   5.829
 3663SOL     OW11887   2.502   3.182   6.926
 3663SOL    HW111888   2.454   3.182   7.014
 3663SOL    HW211889   2.470   3.105   6.871
 3664SOL     OW11890   4.344   1.755   2.056
 3664SOL    HW111891   4.328   1.803   2.143
 3664SOL    HW211892   4.355   1.657   2.074
 3665SOL     OW11893   0.079   6.145   5.778
 3665SOL    HW111894   0.030   6.063   5.807
 3665SOL    HW211895   0.166   6.118   5.735
 3666SOL     OW11896   1.639   2.578   3.973
 3666SOL    HW111897   1.589   2.500   3.935
 3666SOL    HW211898   1.583   2.624   4.041
 3667SOL     OW11899   2.006   1.428   2.433
 3667SOL    HW111900   1.979   1.382   2.349
 3667SOL    HW211901   1.928   1.476   2.472
 3668SOL     OW11902   0.986   0.386   1.819
 3668SOL    HW111903   1.051   0.348   1.884
 3668SOL    HW211904   0.897   0.341   1.829
 3669SOL     OW11905   6.605   1.980   3.725
 3669SOL    HW111906   6.693   2.001   3.682
 3669SOL    HW211907   6.610   2.001   3.822
 3670SOL     OW11908   3.384   5.135   1.376
 3670SOL    HW111909   3.455   5.198   1.345
 3670SOL    HW211910   3.425   5.047   1.399
 3671SOL     OW11911   6.959   0.541   3.598
 3671SOL    HW111912   6.957   0.619   3.661
 3671SOL    HW211913   6.942   0.457   3.648
 3672SOL     OW11914   4.701   0.995   2.973
 3672SOL    HW111915   4.785   0.941   2.979
 3672SOL    HW211916   4.712   1.078   3.028
 3673SOL     OW11917   4.845   6.071   0.636
 3673SOL    HW111918   4.920   6.134   0.616
 3673SOL    HW211919   4.767   6.093   0.578
 3674SOL     OW11920   1.507   5.670   5.492
 3674SOL    HW111921   1.539   5.703   5.403
 3674SOL    HW211922   1.582   5.628   5.542
 3675SOL     OW11923   6.837   1.717   4.256
 3675SOL    HW111924   6.845   1.759   4.165
 3675SOL    HW211925   6.745   1.679   4.267
 3676SOL     OW11926   4.999   2.400   3.201
 3676SOL    HW111927   5.045   2.476   3.154
 3676SOL    HW211928   5.047   2.380   3.286
 3677SOL     OW11929   2.154   0.629   3.861
 3677SOL    HW111930   2.247   0.626   3.897
 3677SOL    HW211931   2.131   0.724   3.836
 3678SOL     OW11932   1.538   0.530   3.713
 3678SOL    HW111933   1.543   0.476   3.797
 3678SOL    HW211934   1.617   0.592   3.708
 3679SOL     OW11935   4.782   0.629   2.903
 3679SOL    HW111936   4.797   0.680   2.988
 3679SOL    HW211937   4.866   0.627   2.850
 3680SOL     OW11938   4.591   1.528   3.408
 3680SOL    HW111939   4.536   1.609   3.388
 3680SOL    HW211940   4.685   1.543   3.378
 3681SOL     OW11941   1.302   0.419   4.909
 3681SOL    HW111942   1.365   0.421   4.831
 3681SOL    HW211943   1.208   0.420   4.877
 3682SOL     OW11944   5.601   2.063   0.868
 3682SOL    HW111945   5.560   2.044   0.957
 3682SOL    HW211946   5.692   2.024   0.864
 3683SOL     OW11947   6.902   0.963   5.245
 3683SOL    HW111948   6.869   0.993   5.335
 3683SOL    HW211949   6.839   0.897   5.206
 3684SOL     OW11950   1.711   6.937   5.600
 3684SOL    HW111951   1.642   7.006   5.622
 3684SOL    HW211952   1.789   6.948   5.662
 3685SOL     OW11953   2.424   5.872   5.992
 3685SOL    HW111954   2.420   5.851   5.895
 3685SOL    HW211955   2.519   5.867   6.023
 3686SOL     OW11956   6.945   3.607   3.347
 3686SOL    HW111957   6.855   3.615   3.390
 3686SOL    HW211958   6.945   3.528   3.285
 3687SOL     OW11959   4.538   6.191   3.521
 3687SOL    HW111960   4.453   6.151   3.485
 3687SOL    HW211961   4.567   6.140   3.602
 3688SOL     OW11962   5.525   2.951   0.028
 3688SOL    HW111963   5.581   3.015   7.006
 3688SOL    HW211964   5.584   2.892   0.084
 3689SOL     OW11965   1.595   0.732   5.259
 3689SOL    HW111966   1.500   0.701   5.254
 3689SOL    HW211967   1.609   0.805   5.193
 3690SOL     OW11968   5.367   4.994   0.763
 3690SOL    HW111969   5.453   5.021   0.720
 3690SOL    HW211970   5.367   5.022   0.859
 3691SOL     OW11971   3.024   1.656   0.074
 3691SOL    HW111972   3.084   1.661   7.024
 3691SOL    HW211973   3.035   1.740   0.129
 3692SOL     OW11974   0.697   3.405   6.318
 3692SOL    HW111975   0.726   3.376   6.409
 3692SOL    HW211976   0.773   3.448   6.270
 3693SOL     OW11977   1.160   1.785   2.696
 3693SOL    HW111978   1.187   1.821   2.606
 3693SOL    HW211979   1.067   1.814   2.717
 3694SOL     OW11980   0.618   0.595   2.018
 3694SOL    HW111981   0.541   0.626   1.963
 3694SOL    HW211982   0.585   0.537   2.093
 3695SOL     OW11983   6.311   2.424   2.869
 3695SOL    HW111984   6.383   2.394   2.808
 3695SOL    HW211985   6.260   2.499   2.827
 3696SOL     OW11986   4.883   0.650   5.066
 3696SOL    HW111987   4.915   0.571   5.014
 3696SOL    HW211988   4.818   0.620   5.136
 3697SOL     OW11989   6.263   6.180   3.591
 3697SOL    HW111990   6.359   6.185   3.619
 3697SOL    HW211991   6.212   6.255   3.632
 3698SOL     OW11992   2.115   0.668   2.804
 3698SOL    HW111993   2.017   0.668   2.784
 3698SOL    HW211994   2.131   0.627   2.894
 3699SOL     OW11995   2.450   2.135   4.083
 3699SOL    HW111996   2.525   2.126   4.148
 3699SOL    HW211997   2.439   2.232   4.059
 3700SOL     OW11998   1.455   5.129   4.967
 3700SOL    HW111999   1.359   5.119   4.995
 3700SOL    HW212000   1.458   5.164   4.873
 3701SOL     OW12001   1.200   6.935   3.191
 3701SOL    HW112002   1.108   6.927   3.152
 3701SOL    HW212003   1.263   6.878   3.139
 3702SOL     OW12004   5.339   4.456   3.355
 3702SOL    HW112005   5.434   4.427   3.345
 3702SOL    HW212006   5.281   4.401   3.294
 3703SOL     OW12007   1.334   1.881   5.763
 3703SOL    HW112008   1.288   1.793   5.747
 3703SOL    HW212009   1.264   1.951   5.779
 3704SOL     OW12010   6.465   2.561   1.320
 3704SOL    HW112011   6.370   2.551   1.289
 3704SOL    HW212012   6.488   2.658   1.326
 3705SOL     OW12013   4.893   4.691   3.524
 3705SOL    HW112014   4.919   4.594   3.528
 3705SOL    HW212015   4.813   4.701   3.465
 3706SOL     OW12016   1.096   3.883   0.528
 3706SOL    HW112017   1.160   3.835   0.589
 3706SOL    HW212018   1.006   3.887   0.571
 3707SOL     OW12019   2.280   5.007   3.665
 3707SOL    HW112020   2.328   4.920   3.667
 3707SOL    HW212021   2.346   5.082   3.667
 3708SOL     OW12022   3.705   6.814   1.252
 3708SOL    HW112023   3.805   6.813   1.248
 3708SOL    HW212024   3.670   6.880   1.186
 3709SOL     OW12025   1.941   0.413   2.679
 3709SOL    HW112026   1.962   0.327   2.724
 3709SOL    HW212027   2.015   0.437   2.616
 3710SOL     OW12028   0.242   5.393   5.412
 3710SOL    HW112029   0.332   5.385   5.455
 3710SOL    HW212030   0.219   5.308   5.365
 3711SOL     OW12031   1.932   6.107   4.643
 3711SOL    HW112032   1.924   6.066   4.734
 3711SOL    HW212033   1.848   6.090   4.591
 3712SOL     OW12034   2.160   5.575   5.133
 3712SOL    HW112035   2.246   5.603   5.176
 3712SOL    HW212036   2.171   5.576   5.034
 3713SOL     OW12037   6.708   6.880   5.283
 3713SOL    HW112038   6.709   6.866   5.382
 3713SOL    HW212039   6.797   6.854   5.245
 3714SOL     OW12040   1.092   4.998   0.503
 3714SOL    HW112041   1.130   4.962   0.589
 3714SOL    HW212042   1.160   5.055   0.458
 3715SOL     OW12043   6.899   5.828   3.264
 3715SOL    HW112044   6.910   5.863   3.357
 3715SOL    HW212045   6.981   5.777   3.238
 3716SOL     OW12046   5.483   5.859   3.928
 3716SOL    HW112047   5.483   5.831   3.832
 3716SOL    HW212048   5.547   5.935   3.941
 3717SOL     OW12049   4.441   1.167   1.375
 3717SOL    HW112050   4.431   1.123   1.464
 3717SOL    HW212051   4.498   1.248   1.384
 3718SOL     OW12052   0.375   6.899   6.467
 3718SOL    HW112053   0.378   6.857   6.376
 3718SOL    HW212054   0.413   6.836   6.534
 3719SOL     OW12055   4.555   3.761   6.562
 3719SOL    HW112056   4.482   3.795   6.621
 3719SOL    HW212057   4.515   3.718   6.481
 3720SOL     OW12058   6.740   3.122   1.309
 3720SOL    HW112059   6.721   3.077   1.397
 3720SOL    HW212060   6.789   3.060   1.249
 3721SOL     OW12061   6.683   4.390   6.619
 3721SOL    HW112062   6.629   4.474   6.615
 3721SOL    HW212063   6.765   4.406   6.674
 3722SOL     OW12064   3.815   0.002   2.756
 3722SOL    HW112065   3.837   0.086   2.806
 3722SOL    HW212066   3.861   0.002   2.667
 3723SOL     OW12067   4.064   5.443   6.918
 3723SOL    HW112068   3.969   5.431   6.890
 3723SOL    HW212069   4.120   5.464   6.838
 3724SOL     OW12070   1.400   4.869   4.692
 3724SOL    HW112071   1.486   4.839   4.651
 3724SOL    HW212072   1.401   4.850   4.790
 3725SOL     OW12073   0.101   6.718   0.180
 3725SOL    HW112074   0.013   6.765   0.181
 3725SOL    HW212075   0.088   6.622   0.154
 3726SOL     OW12076   5.721   3.807   3.624
 3726SOL    HW112077   5.751   3.714   3.605
 3726SOL    HW212078   5.642   3.805   3.685
 3727SOL     OW12079   6.809   2.784   4.363
 3727SOL    HW112080   6.869   2.831   4.298
 3727SOL    HW212081   6.863   2.717   4.415
 3728SOL     OW12082   3.460   3.844   0.040
 3728SOL    HW112083   3.430   3.816   0.131
 3728SOL    HW212084   3.496   3.938   0.045
 3729SOL     OW12085   0.608   0.063   5.363
 3729SOL    HW112086   0.518   0.021   5.370
 3729SOL    HW212087   0.672   7.027   5.323
 3730SOL     OW12088   4.348   5.988   5.919
 3730SOL    HW112089   4.330   5.966   5.823
 3730SOL    HW212090   4.366   6.086   5.928
 3731SOL     OW12091   0.510   2.088   6.226
 3731SOL    HW112092   0.534   2.013   6.287
 3731SOL    HW212093   0.502   2.173   6.279
 3732SOL     OW12094   2.716   1.765   6.856
 3732SOL    HW112095   2.741   1.811   6.771
 3732SOL    HW212096   2.756   1.813   6.934
 3733SOL     OW12097   1.825   2.452   3.603
 3733SOL    HW112098   1.825   2.363   3.647
 3733SOL    HW212099   1.852   2.442   3.507
 3734SOL     OW12100   4.128   0.084   1.557
 3734SOL    HW112101   4.143   0.065   1.654
 3734SOL    HW212102   4.112   7.028   1.508
 3735SOL     OW12103   4.467   6.711   2.421
 3735SOL    HW112104   4.540   6.651   2.455
 3735SOL    HW212105   4.389   6.656   2.394
 3736SOL     OW12106   6.539   1.199   1.573
 3736SOL    HW112107   6.478   1.129   1.611
 3736SOL    HW212108   6.545   1.276   1.637
 3737SOL     OW12109   0.533   2.346   3.544
 3737SOL    HW112110   0.596   2.290   3.489
 3737SOL    HW212111   0.580   2.375   3.627
 3738SOL     OW12112   6.710   6.307   0.522
 3738SOL    HW112113   6.778   6.377   0.500
 3738SOL    HW212114   6.679   6.263   0.437
 3739SOL     OW12115   2.822   4.792   1.102
 3739SOL    HW112116   2.877   4.834   1.173
 3739SOL    HW212117   2.739   4.753   1.142
 3740SOL     OW12118   5.461   5.504   0.039
 3740SOL    HW112119   5.484   5.563   6.991
 3740SOL    HW212120   5.530   5.433   0.049
 3741SOL     OW12121   5.688   2.282   0.520
 3741SOL    HW112122   5.779   2.302   0.483
 3741SOL    HW212123   5.690   2.195   0.569
 3742SOL     OW12124   3.964   5.768   0.182
 3742SOL    HW112125   3.963   5.769   0.282
 3742SOL    HW212126   4.021   5.693   0.150
 3743SOL     OW12127   4.113   3.560   1.360
 3743SOL    HW112128   4.172   3.573   1.440
 3743SOL    HW212129   4.166   3.518   1.286
 3744SOL     OW12130   0.735   6.208   2.055
 3744SOL    HW112131   0.703   6.129   2.004
 3744SOL    HW212132   0.719   6.291   2.001
 3745SOL     OW12133   5.071   3.704   2.407
 3745SOL    HW112134   5.056   3.605   2.399
 3745SOL    HW212135   5.084   3.743   2.316
 3746SOL     OW12136   6.717   0.468   3.461
 3746SOL    HW112137   6.725   0.375   3.427
 3746SOL    HW212138   6.804   0.495   3.503
 3747SOL     OW12139   4.808   6.584   6.368
 3747SOL    HW112140   4.889   6.643   6.373
 3747SOL    HW212141   4.773   6.567   6.460
 3748SOL     OW12142   5.341   1.283   2.991
 3748SOL    HW112143   5.253   1.267   3.035
 3748SOL    HW212144   5.354   1.382   2.978
 3749SOL     OW12145   0.547   5.203   2.490
 3749SOL    HW112146   0.561   5.201   2.589
 3749SOL    HW212147   0.555   5.298   2.458
 3750SOL     OW12148   5.843   4.150   0.063
 3750SOL    HW112149   5.875   4.178   7.003
 3750SOL    HW212150   5.758   4.099   0.054
 3751SOL     OW12151   1.908   3.252   1.274
 3751SOL    HW112152   1.891   3.154   1.261
 3751SOL    HW212153   1.997   3.265   1.318
 3752SOL     OW12154   0.902   0.338   6.712
 3752SOL    HW112155   0.973   0.289   6.763
 3752SOL    HW212156   0.944   0.415   6.663
 3753SOL     OW12157   6.963   6.500   4.316
 3753SOL    HW112158   6.988   6.594   4.292
 3753SOL    HW212159   0.017   6.444   4.323
 3754SOL     OW12160   5.571   6.457   1.085
 3754SOL    HW112161   5.499   6.410   1.137
 3754SOL    HW212162   5.587   6.548   1.124
 3755SOL     OW12163   5.612   4.154   3.661
 3755SOL    HW112164   5.606   4.171   3.759
 3755SOL    HW212165   5.522   4.125   3.627
 3756SOL     OW12166   2.076   2.225   6.133
 3756SOL    HW112167   2.098   2.131   6.158
 3756SOL    HW212168   1.983   2.247   6.164
 3757SOL     OW12169   3.097   5.982   5.755
 3757SOL    HW112170   3.031   5.938   5.816
 3757SOL    HW212171   3.047   6.035   5.686
 3758SOL     OW12172   2.487   1.251   4.463
 3758SOL    HW112173   2.487   1.351   4.471
 3758SOL    HW212174   2.554   1.213   4.528
 3759SOL     OW12175   4.928   5.028   6.063
 3759SOL    HW112176   4.954   5.006   5.969
 3759SOL    HW212177   4.837   5.069   6.065
 3760SOL     OW12178   1.341   3.127   4.361
 3760SOL    HW112179   1.384   3.066   4.295
 3760SOL    HW212180   1.410   3.160   4.426
 3761SOL     OW12181   0.573   6.637   5.003
 3761SOL    HW112182   0.547   6.692   5.083
 3761SOL    HW212183   0.641   6.569   5.031
 3762SOL     OW12184   0.382   4.041   0.081
 3762SOL    HW112185   0.419   4.019   0.171
 3762SOL    HW212186   0.450   4.093   0.029
 3763SOL     OW12187   6.032   3.190   6.217
 3763SOL    HW112188   5.981   3.114   6.176
 3763SOL    HW212189   6.041   3.264   6.150
 3764SOL     OW12190   2.901   0.260   4.151
 3764SOL    HW112191   2.845   0.329   4.198
 3764SOL    HW212192   2.996   0.289   4.151
 3765SOL     OW12193   4.873   0.809   3.891
 3765SOL    HW112194   4.810   0.732   3.885
 3765SOL    HW212195   4.846   0.868   3.967
 3766SOL     OW12196   0.557   1.080   4.049
 3766SOL    HW112197   0.636   1.119   4.096
 3766SOL    HW212198   0.475   1.097   4.104
 3767SOL     OW12199   1.064   5.180   6.479
 3767SOL    HW112200   1.153   5.158   6.439
 3767SOL    HW212201   1.021   5.096   6.512
 3768SOL     OW12202   4.434   6.555   6.736
 3768SOL    HW112203   4.402   6.623   6.802
 3768SOL    HW212204   4.413   6.587   6.643
 3769SOL     OW12205   5.544   6.022   4.604
 3769SOL    HW112206   5.590   5.958   4.666
 3769SOL    HW212207   5.535   6.111   4.648
 3770SOL     OW12208   1.807   1.286   6.292
 3770SOL    HW112209   1.751   1.283   6.209
 3770SOL    HW212210   1.903   1.274   6.268
 3771SOL     OW12211   5.109   2.314   0.473
 3771SOL    HW112212   5.103   2.314   0.573
 3771SOL    HW212213   5.158   2.233   0.443
 3772SOL     OW12214   6.004   0.902   1.518
 3772SOL    HW112215   5.923   0.854   1.487
 3772SOL    HW212216   6.017   0.985   1.465
 3773SOL     OW12217   5.695   3.105   5.423
 3773SOL    HW112218   5.617   3.049   5.396
 3773SOL    HW212219   5.663   3.190   5.466
 3774SOL     OW12220   1.167   0.588   6.855
 3774SOL    HW112221   1.077   0.603   6.895
 3774SOL    HW212222   1.190   0.663   6.792
 3775SOL     OW12223   5.218   3.631   3.206
 3775SOL    HW112224   5.145   3.682   3.251
 3775SOL    HW212225   5.274   3.585   3.276
 3776SOL     OW12226   2.205   2.656   1.608
 3776SOL    HW112227   2.186   2.628   1.702
 3776SOL    HW212228   2.265   2.589   1.565
 3777SOL     OW12229   2.985   5.301   4.777
 3777SOL    HW112230   2.940   5.390   4.782
 3777SOL    HW212231   3.082   5.311   4.797
 3778SOL     OW12232   2.814   5.619   2.430
 3778SOL    HW112233   2.808   5.686   2.504
 3778SOL    HW212234   2.790   5.662   2.343
 3779SOL     OW12235   2.334   4.485   0.031
 3779SOL    HW112236   2.315   4.460   6.965
 3779SOL    HW212237   2.286   4.421   0.092
 3780SOL     OW12238   3.055   5.627   5.272
 3780SOL    HW112239   3.122   5.698   5.293
 3780SOL    HW212240   3.019   5.641   5.180
 3781SOL     OW12241   3.334   0.131   4.284
 3781SOL    HW112242   3.424   0.132   4.240
 3781SOL    HW212243   3.345   0.133   4.383
 3782SOL     OW12244   2.174   1.510   4.327
 3782SOL    HW112245   2.197   1.595   4.374
 3782SOL    HW212246   2.091   1.523   4.273
 3783SOL     OW12247   5.661   6.320   4.745
 3783SOL    HW112248   5.739   6.382   4.733
 3783SOL    HW212249   5.579   6.373   4.763
 3784SOL     OW12250   5.883   0.815   3.516
 3784SOL    HW112251   5.858   0.907   3.544
 3784SOL    HW212252   5.803   0.769   3.479
 3785SOL     OW12253   2.386   2.370   1.056
 3785SOL    HW112254   2.471   2.343   1.102
 3785SOL    HW212255   2.403   2.450   0.999
 3786SOL     OW12256   2.812   4.734   3.442
 3786SOL    HW112257   2.764   4.819   3.417
 3786SOL    HW212258   2.874   4.752   3.519
 3787SOL     OW12259   4.867   1.303   4.366
 3787SOL    HW112260   4.778   1.341   4.341
 3787SOL    HW212261   4.932   1.377   4.382
 3788SOL     OW12262   6.478   2.923   3.255
 3788SOL    HW112263   6.508   2.830   3.276
 3788SOL    HW212264   6.556   2.984   3.257
 3789SOL     OW12265   1.250   4.529   4.367
 3789SOL    HW112266   1.339   4.524   4.321
 3789SOL    HW212267   1.229   4.440   4.408
 3790SOL     OW12268   2.046   3.462   4.655
 3790SOL    HW112269   2.027   3.390   4.722
 3790SOL    HW212270   2.065   3.548   4.702
 3791SOL     OW12271   5.370   6.715   1.572
 3791SOL    HW112272   5.406   6.729   1.664
 3791SOL    HW212273   5.299   6.645   1.575
 3792SOL     OW12274   6.345   6.664   5.139
 3792SOL    HW112275   6.282   6.627   5.070
 3792SOL    HW212276   6.406   6.731   5.096
 3793SOL     OW12277   2.238   1.417   2.009
 3793SOL    HW112278   2.262   1.380   2.099
 3793SOL    HW212279   2.153   1.469   2.016
 3794SOL     OW12280   4.045   6.029   1.757
 3794SOL    HW112281   4.137   6.011   1.792
 3794SOL    HW212282   3.979   5.970   1.803
 3795SOL     OW12283   5.241   0.441   0.051
 3795SOL    HW112284   5.235   0.451   6.981
 3795SOL    HW212285   5.305   0.368   0.073
 3796SOL     OW12286   1.673   2.112   1.545
 3796SOL    HW112287   1.735   2.070   1.611
 3796SOL    HW212288   1.579   2.088   1.567
 3797SOL     OW12289   1.110   5.159   1.996
 3797SOL    HW112290   1.183   5.221   1.967
 3797SOL    HW212291   1.050   5.140   1.918
 3798SOL     OW12292   2.377   4.755   2.972
 3798SOL    HW112293   2.410   4.789   3.060
 3798SOL    HW212294   2.396   4.823   2.901
 3799SOL     OW12295   1.532   1.348   5.111
 3799SOL    HW112296   1.541   1.287   5.032
 3799SOL    HW212297   1.618   1.349   5.163
 3800SOL     OW12298   5.256   2.334   4.802
 3800SOL    HW112299   5.181   2.302   4.743
 3800SOL    HW212300   5.223   2.342   4.896
 3801SOL     OW12301   6.890   6.554   5.614
 3801SOL    HW112302   6.872   6.528   5.519
 3801SOL    HW212303   6.804   6.585   5.656
 3802SOL     OW12304   0.788   1.917   4.844
 3802SOL    HW112305   0.728   1.957   4.774
 3802SOL    HW212306   0.849   1.987   4.880
 3803SOL     OW12307   4.255   0.168   1.337
 3803SOL    HW112308   4.315   0.247   1.339
 3803SOL    HW212309   4.207   0.159   1.424
 3804SOL     OW12310   4.218   2.081   4.611
 3804SOL    HW112311   4.224   2.169   4.563
 3804SOL    HW212312   4.164   2.092   4.694
 3805SOL     OW12313   2.981   4.253   1.740
 3805SOL    HW112314   2.931   4.321   1.795
 3805SOL    HW212315   2.923   4.219   1.667
 3806SOL     OW12316   2.793   2.855   0.491
 3806SOL    HW112317   2.839   2.912   0.423
 3806SOL    HW212318   2.699   2.886   0.503
 3807SOL     OW12319   0.861   6.787   4.073
 3807SOL    HW112320   0.763   6.803   4.088
 3807SOL    HW212321   0.873   6.726   3.995
 3808SOL     OW12322   3.137   0.338   2.140
 3808SOL    HW112323   3.230   0.302   2.144
 3808SOL    HW212324   3.083   0.285   2.075
 3809SOL     OW12325   6.369   2.038   6.656
 3809SOL    HW112326   6.424   2.010   6.734
 3809SOL    HW212327   6.362   1.962   6.591
 3810SOL     OW12328   3.277   3.216   5.229
 3810SOL    HW112329   3.230   3.156   5.164
 3810SOL    HW212330   3.224   3.223   5.313
 3811SOL     OW12331   0.755   4.803   4.443
 3811SOL    HW112332   0.760   4.726   4.506
 3811SOL    HW212333   0.659   4.824   4.422
 3812SOL     OW12334   6.282   1.925   5.721
 3812SOL    HW112335   6.246   1.939   5.629
 3812SOL    HW212336   6.273   2.010   5.774
 3813SOL     OW12337   3.404   5.680   0.418
 3813SOL    HW112338   3.309   5.651   0.416
 3813SOL    HW212339   3.432   5.711   0.327
 3814SOL     OW12340   6.716   6.139   1.894
 3814SOL    HW112341   6.719   6.151   1.993
 3814SOL    HW212342   6.628   6.171   1.859
 3815SOL     OW12343   5.336   2.020   1.236
 3815SOL    HW112344   5.252   2.068   1.212
 3815SOL    HW212345   5.333   1.927   1.201
 3816SOL     OW12346   0.267   6.516   1.849
 3816SOL    HW112347   0.347   6.467   1.884
 3816SOL    HW212348   0.248   6.486   1.755
 3817SOL     OW12349   4.471   2.266   4.552
 3817SOL    HW112350   4.538   2.193   4.568
 3817SOL    HW212351   4.485   2.304   4.461
 3818SOL     OW12352   4.301   5.870   2.737
 3818SOL    HW112353   4.249   5.789   2.710
 3818SOL    HW212354   4.335   5.857   2.830
 3819SOL     OW12355   5.596   5.415   0.814
 3819SOL    HW112356   5.518   5.466   0.776
 3819SOL    HW212357   5.586   5.409   0.913
 3820SOL     OW12358   4.506   6.002   4.272
 3820SOL    HW112359   4.597   6.012   4.233
 3820SOL    HW212360   4.495   5.909   4.307
 3821SOL     OW12361   1.583   3.654   2.270
 3821SOL    HW112362   1.594   3.559   2.300
 3821SOL    HW212363   1.642   3.671   2.190
 3822SOL     OW12364   2.422   5.107   1.616
 3822SOL    HW112365   2.436   5.071   1.708
 3822SOL    HW212366   2.501   5.162   1.590
 3823SOL     OW12367   3.576   2.525   5.705
 3823SOL    HW112368   3.558   2.577   5.622
 3823SOL    HW212369   3.624   2.584   5.771
 3824SOL     OW12370   6.010   2.010   6.065
 3824SOL    HW112371   6.010   2.108   6.086
 3824SOL    HW212372   6.077   1.964   6.124
 3825SOL     OW12373   0.581   0.052   6.439
 3825SOL    HW112374   0.506   7.019   6.460
 3825SOL    HW212375   0.629   0.076   6.524
 3826SOL     OW12376   6.986   3.624   1.038
 3826SOL    HW112377   6.897   3.591   1.071
 3826SOL    HW212378   7.020   3.694   1.100
 3827SOL     OW12379   3.481   3.800   0.501
 3827SOL    HW112380   3.516   3.715   0.540
 3827SOL    HW212381   3.554   3.868   0.496
 3828SOL     OW12382   4.445   2.583   1.766
 3828SOL    HW112383   4.356   2.602   1.725
 3828SOL    HW212384   4.508   2.658   1.746
 3829SOL     OW12385   2.030   5.171   3.784
 3829SOL    HW112386   2.124   5.191   3.813
 3829SOL    HW212387   2.014   5.072   3.789
 3830SOL     OW12388   2.692   7.029   5.222
 3830SOL    HW112389   2.777   6.977   5.214
 3830SOL    HW212390   2.670   0.014   5.318
 3831SOL     OW12391   4.322   2.012   2.507
 3831SOL    HW112392   4.245   2.075   2.518
 3831SOL    HW212393   4.394   2.056   2.452
 3832SOL     OW12394   6.522   0.876   1.492
 3832SOL    HW112395   6.465   0.891   1.412
 3832SOL    HW212396   6.618   0.884   1.467
 3833SOL     OW12397   0.557   4.935   1.044
 3833SOL    HW112398   0.481   4.998   1.028
 3833SOL    HW212399   0.569   4.922   1.142
 3834SOL     OW12400   2.886   1.878   0.529
 3834SOL    HW112401   2.926   1.889   0.620
 3834SOL    HW212402   2.797   1.922   0.526
 3835SOL     OW12403   3.760   5.926   5.981
 3835SOL    HW112404   3.796   5.986   6.052
 3835SOL    HW212405   3.661   5.935   5.977
 3836SOL     OW12406   1.485   4.121   6.074
 3836SOL    HW112407   1.468   4.132   6.172
 3836SOL    HW212408   1.555   4.051   6.060
 3837SOL     OW12409   4.960   3.811   6.850
 3837SOL    HW112410   4.975   3.900   6.893
 3837SOL    HW212411   4.864   3.785   6.861
 3838SOL     OW12412   5.877   2.313   4.051
 3838SOL    HW112413   5.955   2.372   4.072
 3838SOL    HW212414   5.801   2.336   4.112
 3839SOL     OW12415   5.590   6.673   5.592
 3839SOL    HW112416   5.495   6.675   5.622
 3839SOL    HW212417   5.618   6.764   5.563
 3840SOL     OW12418   1.891   1.073   3.932
 3840SOL    HW112419   1.825   1.108   3.865
 3840SOL    HW212420   1.862   0.983   3.963
 3841SOL     OW12421   0.984   3.878   5.014
 3841SOL    HW112422   0.961   3.961   5.064
 3841SOL    HW212423   1.004   3.900   4.919
 3842SOL     OW12424   0.805   5.264   0.181
 3842SOL    HW112425   0.771   5.199   0.249
 3842SOL    HW212426   0.742   5.341   0.174
 3843SOL     OW12427   6.275   3.270   0.523
 3843SOL    HW112428   6.330   3.254   0.604
 3843SOL    HW212429   6.328   3.320   0.455
 3844SOL     OW12430   1.926   4.852   5.789
 3844SOL    HW112431   1.986   4.800   5.727
 3844SOL    HW212432   1.960   4.946   5.797
 3845SOL     OW12433   3.662   3.921   2.988
 3845SOL    HW112434   3.641   3.828   3.018
 3845SOL    HW212435   3.753   3.923   2.947
 3846SOL     OW12436   0.295   4.386   4.323
 3846SOL    HW112437   0.319   4.456   4.256
 3846SOL    HW212438   0.196   4.385   4.337
 3847SOL     OW12439   6.945   0.271   6.087
 3847SOL    HW112440   7.003   0.232   6.158
 3847SOL    HW212441   6.892   0.347   6.125
 3848SOL     OW12442   2.948   4.679   1.521
 3848SOL    HW112443   2.894   4.763   1.515
 3848SOL    HW212444   2.898   4.610   1.573
 3849SOL     OW12445   0.892   1.888   5.749
 3849SOL    HW112446   0.964   1.946   5.788
 3849SOL    HW212447   0.802   1.923   5.777
 3850SOL     OW12448   3.236   3.967   1.790
 3850SOL    HW112449   3.190   4.028   1.725
 3850SOL    HW212450   3.169   3.905   1.831
 3851SOL     OW12451   2.026   3.044   3.231
 3851SOL    HW112452   2.076   3.027   3.315
 3851SOL    HW212453   2.087   3.086   3.164
 3852SOL     OW12454   4.299   0.409   4.598
 3852SOL    HW112455   4.355   0.462   4.535
 3852SOL    HW212456   4.304   0.449   4.689
 3853SOL     OW12457   0.861   3.577   2.522
 3853SOL    HW112458   0.819   3.569   2.613
 3853SOL    HW212459   0.950   3.620   2.530
 3854SOL     OW12460   0.656   3.657   4.416
 3854SOL    HW112461   0.647   3.687   4.321
 3854SOL    HW212462   0.642   3.735   4.477
 3855SOL     OW12463   6.282   3.685   5.416
 3855SOL    HW112464   6.227   3.767   5.402
 3855SOL    HW212465   6.273   3.654   5.510
 3856SOL     OW12466   6.836   6.670   5.919
 3856SOL    HW112467   6.885   6.591   5.957
 3856SOL    HW212468   6.742   6.671   5.954
 3857SOL     OW12469   0.869   6.514   4.823
 3857SOL    HW112470   0.842   6.501   4.918
 3857SOL    HW212471   0.932   6.442   4.796
 3858SOL     OW12472   1.836   5.981   6.457
 3858SOL    HW112473   1.790   6.067   6.434
 3858SOL    HW212474   1.891   5.951   6.380
 3859SOL     OW12475   0.315   2.969   2.766
 3859SOL    HW112476   0.302   3.065   2.739
 3859SOL    HW212477   0.368   2.922   2.696
 3860SOL     OW12478   2.396   6.918   5.437
 3860SOL    HW112479   2.373   6.866   5.519
 3860SOL    HW212480   2.449   6.999   5.463
 3861SOL     OW12481   4.578   4.516   1.474
 3861SOL    HW112482   4.560   4.568   1.558
 3861SOL    HW212483   4.637   4.570   1.414
 3862SOL     OW12484   0.932   5.857   5.655
 3862SOL    HW112485   1.020   5.826   5.690
 3862SOL    HW212486   0.913   5.812   5.568
 3863SOL     OW12487   3.025   3.923   1.599
 3863SOL    HW112488   2.975   4.008   1.590
 3863SOL    HW212489   3.003   3.879   1.686
 3864SOL     OW12490   3.191   2.129   0.257
 3864SOL    HW112491   3.171   2.180   0.341
 3864SOL    HW212492   3.186   2.191   0.179
 3865SOL     OW12493   4.840   7.014   2.603
 3865SOL    HW112494   4.925   0.026   2.636
 3865SOL    HW212495   4.798   0.045   2.535
 3866SOL     OW12496   3.786   0.006   0.396
 3866SOL    HW112497   3.788   0.002   0.296
 3866SOL    HW212498   3.733   6.959   0.431
 3867SOL     OW12499   2.133   3.668   3.359
 3867SOL    HW112500   2.141   3.613   3.442
 3867SOL    HW212501   2.124   3.607   3.280
 3868SOL     OW12502   2.025   6.613   2.805
 3868SOL    HW112503   2.001   6.658   2.892
 3868SOL    HW212504   2.028   6.681   2.732
 3869SOL     OW12505   0.710   3.145   3.228
 3869SOL    HW112506   0.690   3.239   3.258
 3869SOL    HW212507   0.807   3.126   3.241
 3870SOL     OW12508   2.890   5.141   0.433
 3870SOL    HW112509   2.988   5.146   0.414
 3870SOL    HW212510   2.860   5.226   0.476
 3871SOL     OW12511   2.573   0.082   3.418
 3871SOL    HW112512   2.575   0.116   3.512
 3871SOL    HW212513   2.663   0.047   3.393
 3872SOL     OW12514   4.268   3.583   0.846
 3872SOL    HW112515   4.333   3.645   0.891
 3872SOL    HW212516   4.228   3.522   0.915
 3873SOL     OW12517   5.641   4.707   2.082
 3873SOL    HW112518   5.731   4.670   2.059
 3873SOL    HW212519   5.634   4.716   2.181
 3874SOL     OW12520   4.465   0.365   0.209
 3874SOL    HW112521   4.378   0.316   0.210
 3874SOL    HW212522   4.490   0.389   0.115
 3875SOL     OW12523   1.290   4.881   1.016
 3875SOL    HW112524   1.287   4.781   1.020
 3875SOL    HW212525   1.308   4.910   0.922
 3876SOL     OW12526   5.036   3.855   3.830
 3876SOL    HW112527   4.971   3.877   3.757
 3876SOL    HW212528   5.037   3.930   3.897
 3877SOL     OW12529   5.994   1.218   2.331
 3877SOL    HW112530   5.906   1.219   2.284
 3877SOL    HW212531   6.014   1.126   2.364
 3878SOL     OW12532   3.807   6.291   5.960
 3878SOL    HW112533   3.792   6.292   5.861
 3878SOL    HW212534   3.736   6.236   6.004
 3879SOL     OW12535   4.003   5.723   1.830
 3879SOL    HW112536   4.031   5.637   1.873
 3879SOL    HW212537   4.083   5.767   1.788
 3880SOL     OW12538   5.363   3.493   3.406
 3880SOL    HW112539   5.325   3.417   3.354
 3880SOL    HW212540   5.441   3.460   3.460
 3881SOL     OW12541   1.459   3.566   0.857
 3881SOL    HW112542   1.504   3.544   0.771
 3881SOL    HW212543   1.512   3.527   0.933
 3882SOL     OW12544   0.115   0.632   5.689
 3882SOL    HW112545   0.154   0.619   5.781
 3882SOL    HW212546   0.038   0.696   5.695
 3883SOL     OW12547   4.042   0.572   5.662
 3883SOL    HW112548   4.097   0.531   5.589
 3883SOL    HW212549   3.946   0.578   5.632
 3884SOL     OW12550   1.796   5.386   5.918
 3884SOL    HW112551   1.892   5.364   5.936
 3884SOL    HW212552   1.741   5.304   5.931
 3885SOL     OW12553   6.884   1.356   4.522
 3885SOL    HW112554   6.831   1.441   4.530
 3885SOL    HW212555   6.843   1.298   4.452
 3886SOL     OW12556   6.219   6.652   5.569
 3886SOL    HW112557   6.262   6.570   5.605
 3886SOL    HW212558   6.164   6.629   5.488
 3887SOL     OW12559   3.951   2.265   5.749
 3887SOL    HW112560   3.964   2.356   5.708
 3887SOL    HW212561   3.989   2.196   5.688
 3888SOL     OW12562   6.736   2.268   0.763
 3888SOL    HW112563   6.699   2.360   0.776
 3888SOL    HW212564   6.671   2.200   0.798
 3889SOL     OW12565   1.228   6.175   6.117
 3889SOL    HW112566   1.289   6.166   6.038
 3889SOL    HW212567   1.278   6.217   6.193
 3890SOL     OW12568   5.702   4.183   3.157
 3890SOL    HW112569   5.635   4.111   3.140
 3890SOL    HW212570   5.666   4.247   3.226
 3891SOL     OW12571   5.399   4.760   4.877
 3891SOL    HW112572   5.491   4.732   4.902
 3891SOL    HW212573   5.403   4.831   4.806
 3892SOL     OW12574   5.257   6.961   2.856
 3892SOL    HW112575   5.259   6.864   2.831
 3892SOL    HW212576   5.349   6.999   2.849
 3893SOL     OW12577   2.931   5.937   3.893
 3893SOL    HW112578   2.838   5.911   3.920
 3893SOL    HW212579   2.995   5.866   3.922
 3894SOL     OW12580   5.401   3.819   6.698
 3894SOL    HW112581   5.474   3.884   6.719
 3894SOL    HW212582   5.438   3.742   6.645
 3895SOL     OW12583   3.175   2.269   5.659
 3895SOL    HW112584   3.155   2.187   5.714
 3895SOL    HW212585   3.170   2.245   5.562
 3896SOL     OW12586   6.164   2.856   5.568
 3896SOL    HW112587   6.100   2.828   5.496
 3896SOL    HW212588   6.114   2.909   5.638
 3897SOL     OW12589   3.951   6.698   2.218
 3897SOL    HW112590   3.994   6.742   2.297
 3897SOL    HW212591   3.964   6.599   2.223
 3898SOL     OW12592   3.836   4.101   4.739
 3898SOL    HW112593   3.891   4.181   4.715
 3898SOL    HW212594   3.740   4.127   4.744
 3899SOL     OW12595   4.374   1.746   4.960
 3899SOL    HW112596   4.389   1.807   5.038
 3899SOL    HW212597   4.375   1.651   4.991
 3900SOL     OW12598   6.574   2.553   3.736
 3900SOL    HW112599   6.490   2.577   3.785
 3900SOL    HW212600   6.633   2.633   3.731
 3901SOL     OW12601   1.656   6.251   5.450
 3901SOL    HW112602   1.623   6.289   5.364
 3901SOL    HW212603   1.691   6.158   5.435
 3902SOL     OW12604   4.465   5.078   1.495
 3902SOL    HW112605   4.462   5.113   1.402
 3902SOL    HW212606   4.392   5.012   1.508
 3903SOL     OW12607   4.137   2.840   6.396
 3903SOL    HW112608   4.173   2.771   6.458
 3903SOL    HW212609   4.165   2.931   6.427
 3904SOL     OW12610   1.160   6.353   1.142
 3904SOL    HW112611   1.194   6.315   1.228
 3904SOL    HW212612   1.091   6.423   1.161
 3905SOL     OW12613   6.586   0.454   5.247
 3905SOL    HW112614   6.670   0.506   5.233
 3905SOL    HW212615   6.603   0.357   5.226
 3906SOL     OW12616   0.832   5.472   4.035
 3906SOL    HW112617   0.821   5.474   4.134
 3906SOL    HW212618   0.797   5.385   3.999
 3907SOL     OW12619   0.307   1.203   4.660
 3907SOL    HW112620   0.325   1.255   4.576
 3907SOL    HW212621   0.326   1.107   4.643
 3908SOL     OW12622   1.569   0.669   4.326
 3908SOL    HW112623   1.530   0.711   4.408
 3908SOL    HW212624   1.500   0.610   4.283
 3909SOL     OW12625   5.983   2.374   6.431
 3909SOL    HW112626   6.060   2.343   6.485
 3909SOL    HW212627   5.960   2.469   6.455
 3910SOL     OW12628   3.415   2.227   0.564
 3910SOL    HW112629   3.441   2.133   0.589
 3910SOL    HW212630   3.320   2.227   0.533
 3911SOL     OW12631   0.140   1.304   0.965
 3911SOL    HW112632   0.066   1.306   0.897
 3911SOL    HW212633   0.104   1.323   1.055
 3912SOL     OW12634   4.030   2.000   0.525
 3912SOL    HW112635   3.973   2.001   0.608
 3912SOL    HW212636   4.071   1.909   0.514
 3913SOL     OW12637   5.183   5.189   1.236
 3913SOL    HW112638   5.217   5.140   1.317
 3913SOL    HW212639   5.092   5.155   1.212
 3914SOL     OW12640   6.658   1.420   0.339
 3914SOL    HW112641   6.582   1.455   0.284
 3914SOL    HW212642   6.632   1.423   0.436
 3915SOL     OW12643   4.943   5.544   6.864
 3915SOL    HW112644   4.933   5.461   6.917
 3915SOL    HW212645   5.005   5.528   6.787
 3916SOL     OW12646   2.802   1.739   2.465
 3916SOL    HW112647   2.721   1.682   2.452
 3916SOL    HW212648   2.859   1.700   2.537
 3917SOL     OW12649   3.479   4.907   1.486
 3917SOL    HW112650   3.430   4.828   1.525
 3917SOL    HW212651   3.576   4.900   1.507
 3918SOL     OW12652   5.067   0.951   0.794
 3918SOL    HW112653   4.975   0.984   0.814
 3918SOL    HW212654   5.105   1.001   0.716
 3919SOL     OW12655   3.616   7.008   2.422
 3919SOL    HW112656   3.558   6.945   2.371
 3919SOL    HW212657   3.578   7.023   2.513
 3920SOL     OW12658   3.037   1.743   5.781
 3920SOL    HW112659   3.061   1.839   5.791
 3920SOL    HW212660   3.055   1.695   5.867
 3921SOL     OW12661   6.659   2.716   6.089
 3921SOL    HW112662   6.625   2.762   6.007
 3921SOL    HW212663   6.746   2.671   6.068
 3922SOL     OW12664   4.977   4.377   2.696
 3922SOL    HW112665   4.958   4.470   2.728
 3922SOL    HW212666   5.075   4.358   2.703
 3923SOL     OW12667   5.173   0.815   1.464
 3923SOL    HW112668   5.117   0.790   1.542
 3923SOL    HW212669   5.148   0.758   1.385
 3924SOL     OW12670   5.383   5.257   4.157
 3924SOL    HW112671   5.320   5.283   4.230
 3924SOL    HW212672   5.427   5.339   4.119
 3925SOL     OW12673   5.096   3.972   0.458
 3925SOL    HW112674   5.018   4.032   0.473
 3925SOL    HW212675   5.161   3.981   0.533
 3926SOL     OW12676   0.562   6.545   6.278
 3926SOL    HW112677   0.639   6.524   6.338
 3926SOL    HW212678   0.581   6.510   6.186
 3927SOL     OW12679   5.680   2.330   5.805
 3927SOL    HW112680   5.592   2.338   5.758
 3927SOL    HW212681   5.715   2.237   5.795
 3928SOL     OW12682   2.985   5.851   2.044
 3928SOL    HW112683   2.889   5.844   2.073
 3928SOL    HW212684   3.045   5.834   2.122
 3929SOL     OW12685   0.287   2.315   4.917
 3929SOL    HW112686   0.339   2.348   4.996
 3929SOL    HW212687   0.242   2.229   4.940
 3930SOL     OW12688   1.516   4.899   4.107
 3930SOL    HW112689   1.611   4.908   4.077
 3930SOL    HW212690   1.511   4.839   4.187
 3931SOL     OW12691   2.201   2.269   1.655
 3931SOL    HW112692   2.161   2.256   1.564
 3931SOL    HW212693   2.180   2.361   1.688
 3932SOL     OW12694   2.505   5.165   3.741
 3932SOL    HW112695   2.592   5.122   3.761
 3932SOL    HW212696   2.500   5.253   3.789
 3933SOL     OW12697   2.077   5.810   1.375
 3933SOL    HW112698   2.025   5.725   1.387
 3933SOL    HW212699   2.163   5.802   1.425
 3934SOL     OW12700   0.257   1.205   1.784
 3934SOL    HW112701   0.188   1.276   1.797
 3934SOL    HW212702   0.255   1.173   1.690
 3935SOL     OW12703   6.645   3.146   6.385
 3935SOL    HW112704   6.726   3.178   6.434
 3935SOL    HW212705   6.577   3.219   6.380
 3936SOL     OW12706   0.181   5.122   5.599
 3936SOL    HW112707   0.117   5.154   5.529
 3936SOL    HW212708   0.137   5.050   5.654
 3937SOL     OW12709   0.393   6.445   1.607
 3937SOL    HW112710   0.362   6.496   1.527
 3937SOL    HW212711   0.453   6.502   1.662
 3938SOL     OW12712   0.901   3.282   2.735
 3938SOL    HW112713   0.941   3.191   2.726
 3938SOL    HW212714   0.972   3.351   2.720
 3939SOL     OW12715   1.890   1.116   2.502
 3939SOL    HW112716   1.807   1.169   2.482
 3939SOL    HW212717   1.940   1.159   2.577
 3940SOL     OW12718   3.442   5.521   1.041
 3940SOL    HW112719   3.467   5.615   1.021
 3940SOL    HW212720   3.509   5.482   1.105
 3941SOL     OW12721   5.156   5.867   3.232
 3941SOL    HW112722   5.128   5.771   3.228
 3941SOL    HW212723   5.151   5.907   3.140
 3942SOL     OW12724   6.545   5.866   5.773
 3942SOL    HW112725   6.610   5.839   5.844
 3942SOL    HW212726   6.579   5.947   5.726
 3943SOL     OW12727   1.538   2.660   0.246
 3943SOL    HW112728   1.587   2.719   0.310
 3943SOL    HW212729   1.593   2.649   0.163
 3944SOL     OW12730   5.379   2.416   6.710
 3944SOL    HW112731   5.290   2.463   6.712
 3944SOL    HW212732   5.365   2.318   6.719
 3945SOL     OW12733   6.267   0.684   3.206
 3945SOL    HW112734   6.366   0.668   3.208
 3945SOL    HW212735   6.249   0.782   3.200
 3946SOL     OW12736   1.451   3.032   0.242
 3946SOL    HW112737   1.526   3.091   0.270
 3946SOL    HW212738   1.486   2.940   0.223
 3947SOL     OW12739   6.074   4.861   2.247
 3947SOL    HW112740   6.027   4.813   2.321
 3947SOL    HW212741   6.103   4.951   2.280
 3948SOL     OW12742   1.230   2.874   6.127
 3948SOL    HW112743   1.192   2.790   6.090
 3948SOL    HW212744   1.163   2.919   6.186
 3949SOL     OW12745   6.093   6.894   1.660
 3949SOL    HW112746   6.135   6.974   1.704
 3949SOL    HW212747   6.078   6.913   1.563
 3950SOL     OW12748   3.090   4.629   1.773
 3950SOL    HW112749   3.016   4.568   1.801
 3950SOL    HW212750   3.089   4.639   1.673
 3951SOL     OW12751   1.016   2.069   4.884
 3951SOL    HW112752   1.095   2.052   4.826
 3951SOL    HW212753   0.985   2.163   4.873
 3952SOL     OW12754   5.860   3.660   6.668
 3952SOL    HW112755   5.856   3.684   6.571
 3952SOL    HW212756   5.891   3.565   6.677
 3953SOL     OW12757   2.971   4.306   6.341
 3953SOL    HW112758   3.036   4.232   6.360
 3953SOL    HW212759   3.014   4.394   6.359
 3954SOL     OW12760   0.459   3.158   5.122
 3954SOL    HW112761   0.501   3.118   5.204
 3954SOL    HW212762   0.377   3.107   5.098
 3955SOL     OW12763   6.844   3.858   0.207
 3955SOL    HW112764   6.752   3.875   0.243
 3955SOL    HW212765   6.882   3.942   0.169
 3956SOL     OW12766   0.786   3.199   5.540
 3956SOL    HW112767   0.861   3.135   5.554
 3956SOL    HW212768   0.821   3.284   5.500
 3957SOL     OW12769   0.818   1.467   3.373
 3957SOL    HW112770   0.859   1.458   3.282
 3957SOL    HW212771   0.853   1.395   3.433
 3958SOL     OW12772   5.924   6.075   6.299
 3958SOL    HW112773   5.906   5.978   6.314
 3958SOL    HW212774   6.018   6.088   6.268
 3959SOL     OW12775   2.492   5.135   0.675
 3959SOL    HW112776   2.542   5.112   0.591
 3959SOL    HW212777   2.539   5.097   0.754
 3960SOL     OW12778   4.530   3.621   0.636
 3960SOL    HW112779   4.460   3.687   0.611
 3960SOL    HW212780   4.488   3.532   0.651
 3961SOL     OW12781   5.448   0.619   2.508
 3961SOL    HW112782   5.382   0.637   2.581
 3961SOL    HW212783   5.460   0.520   2.498
 3962SOL     OW12784   0.461   6.932   5.809
 3962SOL    HW112785   0.459   7.018   5.860
 3962SOL    HW212786   0.541   6.930   5.749
 3963SOL     OW12787   4.734   5.429   2.956
 3963SOL    HW112788   4.651   5.407   2.906
 3963SOL    HW212789   4.774   5.345   2.993
 3964SOL     OW12790   5.469   6.447   5.809
 3964SOL    HW112791   5.513   6.373   5.859
 3964SOL    HW212792   5.518   6.533   5.824
 3965SOL     OW12793   3.987   3.537   0.403
 3965SOL    HW112794   3.900   3.521   0.450
 3965SOL    HW212795   4.062   3.513   0.465
 3966SOL     OW12796   5.736   4.368   5.235
 3966SOL    HW112797   5.769   4.459   5.263
 3966SOL    HW212798   5.808   4.322   5.184
 3967SOL     OW12799   1.084   5.631   6.776
 3967SOL    HW112800   1.008   5.692   6.754
 3967SOL    HW212801   1.158   5.684   6.817
 3968SOL     OW12802   5.677   0.430   1.737
 3968SOL    HW112803   5.731   0.486   1.801
 3968SOL    HW212804   5.652   0.485   1.657
 3969SOL     OW12805   0.204   5.547   1.857
 3969SOL    HW112806   0.124   5.494   1.828
 3969SOL    HW212807   0.254   5.496   1.927
 3970SOL     OW12808   4.363   4.614   3.492
 3970SOL    HW112809   4.351   4.565   3.578
 3970SOL    HW212810   4.372   4.712   3.511
 3971SOL     OW12811   1.966   5.765   3.897
 3971SOL    HW112812   2.015   5.726   3.819
 3971SOL    HW212813   2.031   5.784   3.971
 3972SOL     OW12814   1.750   0.074   0.576
 3972SOL    HW112815   1.750   0.133   0.656
 3972SOL    HW212816   1.807   0.114   0.504
 3973SOL     OW12817   3.474   3.193   3.188
 3973SOL    HW112818   3.408   3.259   3.154
 3973SOL    HW212819   3.472   3.111   3.131
 3974SOL     OW12820   6.346   1.753   6.522
 3974SOL    HW112821   6.348   1.701   6.608
 3974SOL    HW212822   6.321   1.692   6.447
 3975SOL     OW12823   6.480   0.670   5.749
 3975SOL    HW112824   6.386   0.686   5.777
 3975SOL    HW212825   6.499   0.572   5.751
 3976SOL     OW12826   1.216   3.460   6.767
 3976SOL    HW112827   1.306   3.482   6.729
 3976SOL    HW212828   1.174   3.544   6.802
 3977SOL     OW12829   4.396   6.653   6.478
 3977SOL    HW112830   4.420   6.749   6.465
 3977SOL    HW212831   4.386   6.609   6.389
 3978SOL     OW12832   5.507   3.366   6.203
 3978SOL    HW112833   5.445   3.289   6.216
 3978SOL    HW212834   5.582   3.361   6.269
 3979SOL     OW12835   1.361   0.324   3.010
 3979SOL    HW112836   1.381   0.303   3.106
 3979SOL    HW212837   1.270   0.364   3.003
 3980SOL     OW12838   5.047   3.229   4.952
 3980SOL    HW112839   5.006   3.274   4.873
 3980SOL    HW212840   5.017   3.275   5.036
 3981SOL     OW12841   6.270   1.618   5.477
 3981SOL    HW112842   6.190   1.676   5.461
 3981SOL    HW212843   6.298   1.625   5.573
 3982SOL     OW12844   3.651   1.705   4.002
 3982SOL    HW112845   3.713   1.783   4.008
 3982SOL    HW212846   3.626   1.690   3.906
 3983SOL     OW12847   3.612   6.396   3.771
 3983SOL    HW112848   3.526   6.391   3.721
 3983SOL    HW212849   3.603   6.459   3.848
 3984SOL     OW12850   1.220   6.585   1.555
 3984SOL    HW112851   1.313   6.571   1.520
 3984SOL    HW212852   1.199   6.682   1.554
 3985SOL     OW12853   1.482   3.629   1.982
 3985SOL    HW112854   1.490   3.542   1.934
 3985SOL    HW212855   1.566   3.647   2.033
 3986SOL     OW12856   0.908   3.130   2.462
 3986SOL    HW112857   0.937   3.099   2.552
 3986SOL    HW212858   0.893   3.229   2.464
 3987SOL     OW12859   2.655   4.857   6.754
 3987SOL    HW112860   2.720   4.929   6.779
 3987SOL    HW212861   2.697   4.767   6.767
 3988SOL     OW12862   4.364   2.309   0.564
 3988SOL    HW112863   4.373   2.210   0.559
 3988SOL    HW212864   4.271   2.333   0.590
 3989SOL     OW12865   4.428   0.742   6.713
 3989SOL    HW112866   4.374   0.811   6.761
 3989SOL    HW212867   4.459   0.779   6.625
 3990SOL     OW12868   1.351   2.993   3.723
 3990SOL    HW112869   1.416   2.946   3.783
 3990SOL    HW212870   1.258   2.962   3.744
 3991SOL     OW12871   6.973   1.793   4.483
 3991SOL    HW112872   6.927   1.871   4.525
 3991SOL    HW212873   6.925   1.768   4.399
 3992SOL     OW12874   4.785   4.133   5.997
 3992SOL    HW112875   4.711   4.112   6.061
 3992SOL    HW212876   4.872   4.106   6.037
 3993SOL     OW12877   2.058   1.843   3.171
 3993SOL    HW112878   2.149   1.883   3.180
 3993SOL    HW212879   1.995   1.911   3.133
 3994SOL     OW12880   2.423   2.028   3.818
 3994SOL    HW112881   2.424   2.057   3.914
 3994SOL    HW212882   2.502   1.968   3.801
 3995SOL     OW12883   1.330   3.680   2.483
 3995SOL    HW112884   1.373   3.630   2.559
 3995SOL    HW212885   1.378   3.766   2.468
 3996SOL     OW12886   5.559   0.133   3.391
 3996SOL    HW112887   5.463   0.159   3.401
 3996SOL    HW212888   5.596   0.111   3.481
 3997SOL     OW12889   5.495   3.547   2.581
 3997SOL    HW112890   5.429   3.511   2.647
 3997SOL    HW212891   5.473   3.643   2.560
 3998SOL     OW12892   6.164   2.086   3.510
 3998SOL    HW112893   6.252   2.113   3.473
 3998SOL    HW212894   6.174   2.056   3.605
 3999SOL     OW12895   5.375   2.528   1.439
 3999SOL    HW112896   5.433   2.502   1.516
 3999SOL    HW212897   5.291   2.474   1.440
 4000SOL     OW12898   3.447   5.555   2.356
 4000SOL    HW112899   3.529   5.606   2.383
 4000SOL    HW212900   3.473   5.465   2.323
 4001SOL     OW12901   1.989   4.250   5.055
 4001SOL    HW112902   2.021   4.161   5.089
 4001SOL    HW212903   2.053   4.285   4.987
 4002SOL     OW12904   3.618   3.399   3.767
 4002SOL    HW112905   3.632   3.478   3.708
 4002SOL    HW212906   3.536   3.350   3.738
 4003SOL     OW12907   2.403   0.681   4.932
 4003SOL    HW112908   2.370   0.620   5.004
 4003SOL    HW212909   2.455   0.628   4.865
 4004SOL     OW12910   0.464   3.925   3.354
 4004SOL    HW112911   0.437   3.903   3.448
 4004SOL    HW212912   0.409   3.871   3.290
 4005SOL     OW12913   5.388   2.856   0.933
 4005SOL    HW112914   5.354   2.907   1.012
 4005SOL    HW212915   5.323   2.784   0.909
 4006SOL     OW12916   5.092   4.860   3.488
 4006SOL    HW112917   5.171   4.827   3.540
 4006SOL    HW212918   5.019   4.792   3.494
 4007SOL     OW12919   6.434   1.623   2.994
 4007SOL    HW112920   6.360   1.639   2.928
 4007SOL    HW212921   6.521   1.615   2.946
 4008SOL     OW12922   3.016   0.272   1.223
 4008SOL    HW112923   2.928   0.272   1.175
 4008SOL    HW212924   3.003   0.306   1.316
 4009SOL     OW12925   4.385   2.038   0.896
 4009SOL    HW112926   4.295   2.022   0.937
 4009SOL    HW212927   4.411   2.133   0.908
 4010SOL     OW12928   2.139   5.143   1.637
 4010SOL    HW112929   2.143   5.169   1.541
 4010SOL    HW212930   2.229   5.109   1.667
 4011SOL     OW12931   6.158   6.155   6.794
 4011SOL    HW112932   6.207   6.213   6.728
 4011SOL    HW212933   6.218   6.134   6.871
 4012SOL     OW12934   4.035   0.035   2.232
 4012SOL    HW112935   4.114   7.005   2.222
 4012SOL    HW212936   4.048   0.118   2.177
 4013SOL     OW12937   0.517   1.378   6.431
 4013SOL    HW112938   0.551   1.285   6.424
 4013SOL    HW212939   0.545   1.418   6.519
 4014SOL     OW12940   2.640   5.122   2.596
 4014SOL    HW112941   2.726   5.172   2.586
 4014SOL    HW212942   2.624   5.103   2.693
 4015SOL     OW12943   4.109   5.258   5.925
 4015SOL    HW112944   4.046   5.185   5.952
 4015SOL    HW212945   4.199   5.219   5.906
 4016SOL     OW12946   4.165   5.841   6.088
 4016SOL    HW112947   4.209   5.855   6.177
 4016SOL    HW212948   4.225   5.876   6.016
 4017SOL     OW12949   0.776   4.825   5.968
 4017SOL    HW112950   0.750   4.922   5.970
 4017SOL    HW212951   0.854   4.812   5.907
 4018SOL     OW12952   4.380   6.089   1.882
 4018SOL    HW112953   4.426   6.161   1.829
 4018SOL    HW212954   4.435   6.067   1.962
 4019SOL     OW12955   5.260   3.292   2.929
 4019SOL    HW112956   5.360   3.286   2.929
 4019SOL    HW212957   5.221   3.200   2.915
 4020SOL     OW12958   6.660   4.663   4.199
 4020SOL    HW112959   6.597   4.656   4.122
 4020SOL    HW212960   6.736   4.600   4.186
 4021SOL     OW12961   3.261   3.529   5.550
 4021SOL    HW112962   3.242   3.582   5.467
 4021SOL    HW212963   3.358   3.507   5.554
 4022SOL     OW12964   2.712   0.107   0.593
 4022SOL    HW112965   2.660   0.156   0.523
 4022SOL    HW212966   2.808   0.102   0.565
 4023SOL     OW12967   0.296   2.520   5.508
 4023SOL    HW112968   0.235   2.442   5.490
 4023SOL    HW212969   0.317   2.566   5.422
 4024SOL     OW12970   0.600   4.610   4.129
 4024SOL    HW112971   0.604   4.516   4.161
 4024SOL    HW212972   0.693   4.642   4.108
 4025SOL     OW12973   0.536   6.078   3.936
 4025SOL    HW112974   0.543   6.103   3.839
 4025SOL    HW212975   0.513   6.159   3.990
 4026SOL     OW12976   6.464   6.426   3.308
 4026SOL    HW112977   6.396   6.353   3.315
 4026SOL    HW212978   6.535   6.400   3.243
 4027SOL     OW12979   2.352   3.803   5.632
 4027SOL    HW112980   2.337   3.707   5.610
 4027SOL    HW212981   2.432   3.836   5.581
 4028SOL     OW12982   4.678   1.974   2.456
 4028SOL    HW112983   4.643   2.053   2.508
 4028SOL    HW212984   4.643   1.890   2.497
 4029SOL     OW12985   2.434   5.078   6.356
 4029SOL    HW112986   2.402   5.173   6.349
 4029SOL    HW212987   2.371   5.026   6.413
 4030SOL     OW12988   0.691   1.065   2.772
 4030SOL    HW112989   0.652   0.981   2.810
 4030SOL    HW212990   0.621   1.115   2.723
 4031SOL     OW12991   5.275   0.017   1.448
 4031SOL    HW112992   5.185   0.035   1.408
 4031SOL    HW212993   5.316   6.968   1.402
 4032SOL     OW12994   6.337   0.539   1.718
 4032SOL    HW112995   6.273   0.583   1.654
 4032SOL    HW212996   6.361   0.449   1.683
 4033SOL     OW12997   2.838   2.323   2.886
 4033SOL    HW112998   2.813   2.310   2.790
 4033SOL    HW212999   2.936   2.308   2.898
 4034SOL     OW13000   0.115   3.472   4.908
 4034SOL    HW113001   0.026   3.436   4.937
 4034SOL    HW213002   0.167   3.398   4.864
 4035SOL     OW13003   6.436   1.844   1.293
 4035SOL    HW113004   6.465   1.809   1.382
 4035SOL    HW213005   6.365   1.912   1.307
 4036SOL     OW13006   2.260   5.272   3.928
 4036SOL    HW113007   2.241   5.360   3.970
 4036SOL    HW213008   2.323   5.220   3.986
 4037SOL     OW13009   1.872   0.854   5.795
 4037SOL    HW113010   1.805   0.906   5.741
 4037SOL    HW213011   1.964   0.887   5.774
 4038SOL     OW13012   3.345   4.491   5.939
 4038SOL    HW113013   3.253   4.471   5.974
 4038SOL    HW213014   3.355   4.590   5.925
 4039SOL     OW13015   5.958   4.420   1.863
 4039SOL    HW113016   5.997   4.474   1.789
 4039SOL    HW213017   5.930   4.481   1.937
 4040SOL     OW13018   3.929   5.169   5.242
 4040SOL    HW113019   3.876   5.177   5.327
 4040SOL    HW213020   4.017   5.214   5.254
 4041SOL     OW13021   1.784   6.679   1.515
 4041SOL    HW113022   1.850   6.616   1.555
 4041SOL    HW213023   1.818   6.711   1.426
 4042SOL     OW13024   6.329   0.490   3.443
 4042SOL    HW113025   6.272   0.572   3.437
 4042SOL    HW213026   6.390   0.498   3.522
 4043SOL     OW13027   5.434   3.361   6.545
 4043SOL    HW113028   5.391   3.397   6.627
 4043SOL    HW213029   5.373   3.375   6.466
 4044SOL     OW13030   4.326   5.006   3.269
 4044SOL    HW113031   4.315   4.908   3.283
 4044SOL    HW213032   4.308   5.029   3.173
 4045SOL     OW13033   4.966   0.300   5.935
 4045SOL    HW113034   4.986   0.224   5.997
 4045SOL    HW213035   4.985   0.272   5.841
 4046SOL     OW13036   0.077   1.751   3.165
 4046SOL    HW113037   0.007   1.689   3.129
 4046SOL    HW213038   0.111   1.810   3.091
 4047SOL     OW13039   2.820   3.136   6.752
 4047SOL    HW113040   2.810   3.202   6.827
 4047SOL    HW213041   2.746   3.149   6.686
 4048SOL     OW13042   4.924   1.214   2.058
 4048SOL    HW113043   4.925   1.114   2.052
 4048SOL    HW213044   5.016   1.249   2.048
 4049SOL     OW13045   3.972   5.578   6.584
 4049SOL    HW113046   3.983   5.542   6.491
 4049SOL    HW213047   4.026   5.661   6.594
 4050SOL     OW13048   0.634   5.640   2.600
 4050SOL    HW113049   0.707   5.700   2.568
 4050SOL    HW213050   0.588   5.682   2.678
 4051SOL     OW13051   4.779   1.330   6.495
 4051SOL    HW113052   4.849   1.401   6.487
 4051SOL    HW213053   4.702   1.352   6.434
 4052SOL     OW13054   6.085   1.729   3.129
 4052SOL    HW113055   6.153   1.737   3.202
 4052SOL    HW213056   5.994   1.751   3.164
 4053SOL     OW13057   1.256   5.615   4.740
 4053SOL    HW113058   1.204   5.651   4.663
 4053SOL    HW213059   1.330   5.556   4.707
 4054SOL     OW13060   4.757   4.003   1.175
 4054SOL    HW113061   4.799   4.054   1.099
 4054SOL    HW213062   4.823   3.993   1.249
 4055SOL     OW13063   1.321   3.707   1.771
 4055SOL    HW113064   1.351   3.710   1.866
 4055SOL    HW213065   1.400   3.694   1.711
 4056SOL     OW13066   4.986   3.525   0.778
 4056SOL    HW113067   4.946   3.438   0.806
 4056SOL    HW213068   5.043   3.512   0.698
 4057SOL     OW13069   6.488   3.369   6.348
 4057SOL    HW113070   6.471   3.359   6.250
 4057SOL    HW213071   6.459   3.459   6.379
 4058SOL     OW13072   2.750   5.676   5.193
 4058SOL    HW113073   2.731   5.579   5.205
 4058SOL    HW213074   2.796   5.712   5.274
 4059SOL     OW13075   0.736   2.064   4.308
 4059SOL    HW113076   0.698   1.971   4.311
 4059SOL    HW213077   0.811   2.067   4.242
 4060SOL     OW13078   6.367   5.690   5.273
 4060SOL    HW113079   6.323   5.779   5.259
 4060SOL    HW213080   6.466   5.699   5.262
 4061SOL     OW13081   2.583   5.460   1.801
 4061SOL    HW113082   2.671   5.508   1.800
 4061SOL    HW213083   2.591   5.378   1.858
 4062SOL     OW13084   2.371   1.661   1.554
 4062SOL    HW113085   2.417   1.749   1.547
 4062SOL    HW213086   2.273   1.676   1.567
 4063SOL     OW13087   5.257   0.350   1.379
 4063SOL    HW113088   5.332   0.292   1.349
 4063SOL    HW213089   5.261   0.437   1.330
 4064SOL     OW13090   2.116   2.020   4.501
 4064SOL    HW113091   2.035   2.027   4.442
 4064SOL    HW213092   2.087   1.988   4.591
 4065SOL     OW13093   2.048   6.865   0.378
 4065SOL    HW113094   2.065   6.962   0.400
 4065SOL    HW213095   1.950   6.850   0.372
 4066SOL     OW13096   6.942   4.432   3.207
 4066SOL    HW113097   6.871   4.362   3.193
 4066SOL    HW213098   6.995   4.409   3.289
 4067SOL     OW13099   6.103   4.208   2.528
 4067SOL    HW113100   6.011   4.233   2.559
 4067SOL    HW213101   6.167   4.280   2.557
 4068SOL     OW13102   1.627   2.415   5.146
 4068SOL    HW113103   1.650   2.329   5.100
 4068SOL    HW213104   1.608   2.397   5.243
 4069SOL     OW13105   4.085   6.698   6.631
 4069SOL    HW113106   4.128   6.670   6.717
 4069SOL    HW213107   4.042   6.619   6.588
 4070SOL     OW13108   1.607   3.010   3.410
 4070SOL    HW113109   1.671   3.016   3.487
 4070SOL    HW213110   1.652   3.040   3.326
 4071SOL     OW13111   0.834   0.174   3.899
 4071SOL    HW113112   0.790   0.187   3.988
 4071SOL    HW213113   0.802   0.244   3.835
 4072SOL     OW13114   1.401   5.655   4.445
 4072SOL    HW113115   1.385   5.574   4.500
 4072SOL    HW213116   1.320   5.714   4.448
 4073SOL     OW13117   2.395   5.427   0.515
 4073SOL    HW113118   2.329   5.473   0.456
 4073SOL    HW213119   2.413   5.485   0.595
 4074SOL     OW13120   1.386   5.093   2.147
 4074SOL    HW113121   1.342   5.008   2.119
 4074SOL    HW213122   1.468   5.072   2.200
 4075SOL     OW13123   5.398   0.521   0.524
 4075SOL    HW113124   5.359   0.432   0.547
 4075SOL    HW213125   5.466   0.546   0.593
 4076SOL     OW13126   3.075   3.182   5.435
 4076SOL    HW113127   3.039   3.101   5.481
 4076SOL    HW213128   3.064   3.261   5.496
 4077SOL     OW13129   4.249   2.057   1.838
 4077SOL    HW113130   4.252   2.150   1.800
 4077SOL    HW213131   4.154   2.025   1.840
 4078SOL     OW13132   2.967   4.982   2.729
 4078SOL    HW113133   2.980   4.986   2.630
 4078SOL    HW213134   2.883   4.930   2.750
 4079SOL     OW13135   1.396   2.214   4.031
 4079SOL    HW113136   1.470   2.251   3.974
 4079SOL    HW213137   1.414   2.117   4.050
 4080SOL     OW13138   5.137   2.137   5.130
 4080SOL    HW113139   5.184   2.088   5.203
 4080SOL    HW213140   5.053   2.178   5.165
 4081SOL     OW13141   1.898   3.298   4.102
 4081SOL    HW113142   1.976   3.345   4.143
 4081SOL    HW213143   1.927   3.211   4.064
 4082SOL     OW13144   1.828   3.032   0.906
 4082SOL    HW113145   1.740   3.068   0.937
 4082SOL    HW213146   1.815   2.985   0.818
 4083SOL     OW13147   5.537   2.641   3.714
 4083SOL    HW113148   5.553   2.571   3.784
 4083SOL    HW213149   5.537   2.731   3.757
 4084SOL     OW13150   6.094   1.880   4.147
 4084SOL    HW113151   6.046   1.909   4.065
 4084SOL    HW213152   6.059   1.930   4.226
 4085SOL     OW13153   4.207   6.316   0.503
 4085SOL    HW113154   4.198   6.303   0.601
 4085SOL    HW213155   4.266   6.394   0.485
 4086SOL     OW13156   1.695   5.333   1.268
 4086SOL    HW113157   1.652   5.406   1.215
 4086SOL    HW213158   1.647   5.323   1.355
 4087SOL     OW13159   2.227   2.286   3.437
 4087SOL    HW113160   2.315   2.272   3.482
 4087SOL    HW213161   2.209   2.384   3.428
 4088SOL     OW13162   6.408   1.982   1.581
 4088SOL    HW113163   6.494   1.935   1.566
 4088SOL    HW213164   6.337   1.916   1.606
 4089SOL     OW13165   0.528   0.364   3.442
 4089SOL    HW113166   0.463   0.366   3.518
 4089SOL    HW213167   0.507   0.438   3.379
 4090SOL     OW13168   2.707   4.098   6.756
 4090SOL    HW113169   2.798   4.103   6.716
 4090SOL    HW213170   2.638   4.105   6.684
 4091SOL     OW13171   5.309   6.887   0.232
 4091SOL    HW113172   5.250   6.844   0.163
 4091SOL    HW213173   5.402   6.852   0.222
 4092SOL     OW13174   0.221   3.070   5.047
 4092SOL    HW113175   0.179   2.989   5.006
 4092SOL    HW213176   0.167   3.100   5.126
 4093SOL     OW13177   5.520   0.557   3.727
 4093SOL    HW113178   5.540   0.590   3.820
 4093SOL    HW213179   5.586   0.486   3.702
 4094SOL     OW13180   2.003   4.479   5.207
 4094SOL    HW113181   1.974   4.399   5.155
 4094SOL    HW213182   1.925   4.518   5.255
 4095SOL     OW13183   1.327   3.482   6.045
 4095SOL    HW113184   1.397   3.482   5.974
 4095SOL    HW213185   1.292   3.389   6.058
 4096SOL     OW13186   4.858   5.247   0.828
 4096SOL    HW113187   4.918   5.273   0.752
 4096SOL    HW213188   4.903   5.269   0.915
 4097SOL     OW13189   3.272   4.271   6.089
 4097SOL    HW113190   3.339   4.307   6.024
 4097SOL    HW213191   3.180   4.300   6.062
 4098SOL     OW13192   0.552   2.721   2.715
 4098SOL    HW113193   0.498   2.642   2.745
 4098SOL    HW213194   0.573   2.779   2.794
 4099SOL     OW13195   2.794   5.547   1.529
 4099SOL    HW113196   2.710   5.493   1.533
 4099SOL    HW213197   2.859   5.504   1.466
 4100SOL     OW13198   4.483   5.696   3.919
 4100SOL    HW113199   4.487   5.676   3.822
 4100SOL    HW213200   4.396   5.740   3.941
 4101SOL     OW13201   5.435   1.475   0.413
 4101SOL    HW113202   5.510   1.411   0.429
 4101SOL    HW213203   5.384   1.488   0.498
 4102SOL     OW13204   6.496   0.547   1.162
 4102SOL    HW113205   6.588   0.586   1.170
 4102SOL    HW213206   6.503   0.452   1.133
 4103SOL     OW13207   0.686   0.952   2.074
 4103SOL    HW113208   0.625   1.030   2.085
 4103SOL    HW213209   0.742   0.942   2.156
 4104SOL     OW13210   1.615   4.176   2.298
 4104SOL    HW113211   1.686   4.236   2.335
 4104SOL    HW213212   1.537   4.231   2.269
 4105SOL     OW13213   4.482   5.881   0.685
 4105SOL    HW113214   4.397   5.934   0.687
 4105SOL    HW213215   4.506   5.860   0.590
 4106SOL     OW13216   7.014   3.633   4.517
 4106SOL    HW113217   0.023   3.673   4.600
 4106SOL    HW213218   6.915   3.643   4.518
 4107SOL     OW13219   0.154   5.998   1.172
 4107SOL    HW113220   0.113   6.040   1.090
 4107SOL    HW213221   0.128   5.901   1.176
 4108SOL     OW13222   0.254   4.814   6.425
 4108SOL    HW113223   0.312   4.734   6.438
 4108SOL    HW213224   0.251   4.838   6.328
 4109SOL     OW13225   3.952   6.254   3.929
 4109SOL    HW113226   3.913   6.308   3.855
 4109SOL    HW213227   3.998   6.174   3.891
 4110SOL     OW13228   3.902   4.019   6.442
 4110SOL    HW113229   3.826   4.054   6.387
 4110SOL    HW213230   3.962   4.095   6.468
 4111SOL     OW13231   3.713   3.011   0.026
 4111SOL    HW113232   3.673   3.102   0.034
 4111SOL    HW213233   3.759   3.002   6.968
 4112SOL     OW13234   4.654   1.311   5.134
 4112SOL    HW113235   4.582   1.266   5.081
 4112SOL    HW213236   4.690   1.388   5.083
 4113SOL     OW13237   3.544   5.561   5.159
 4113SOL    HW113238   3.449   5.584   5.138
 4113SOL    HW213239   3.549   5.517   5.249
 4114SOL     OW13240   3.291   1.039   4.017
 4114SOL    HW113241   3.327   0.963   4.072
 4114SOL    HW213242   3.195   1.056   4.043
 4115SOL     OW13243   4.582   6.151   2.089
 4115SOL    HW113244   4.565   6.091   2.167
 4115SOL    HW213245   4.678   6.143   2.061
 4116SOL     OW13246   3.973   2.000   1.482
 4116SOL    HW113247   4.025   2.080   1.513
 4116SOL    HW213248   3.903   1.978   1.550
 4117SOL     OW13249   0.660   5.390   1.203
 4117SOL    HW113250   0.719   5.469   1.219
 4117SOL    HW213251   0.680   5.319   1.270
 4118SOL     OW13252   0.970   6.751   0.995
 4118SOL    HW113253   0.900   6.685   1.023
 4118SOL    HW213254   0.928   6.840   0.979
 4119SOL     OW13255   3.487   1.362   4.232
 4119SOL    HW113256   3.564   1.411   4.191
 4119SOL    HW213257   3.419   1.427   4.266
 4120SOL     OW13258   3.975   6.830   1.965
 4120SOL    HW113259   3.922   6.763   1.913
 4120SOL    HW213260   3.965   6.812   2.063
 4121SOL     OW13261   6.226   2.202   4.334
 4121SOL    HW113262   6.278   2.135   4.387
 4121SOL    HW213263   6.290   2.258   4.281
 4122SOL     OW13264   0.188   6.242   5.318
 4122SOL    HW113265   0.126   6.217   5.392
 4122SOL    HW213266   0.236   6.160   5.286
 4123SOL     OW13267   5.731   4.216   6.058
 4123SOL    HW113268   5.793   4.293   6.046
 4123SOL    HW213269   5.781   4.139   6.097
 4124SOL     OW13270   5.658   6.369   4.297
 4124SOL    HW113271   5.721   6.414   4.360
 4124SOL    HW213272   5.708   6.340   4.216
 4125SOL     OW13273   4.827   0.477   2.095
 4125SOL    HW113274   4.790   0.540   2.028
 4125SOL    HW213275   4.875   0.403   2.049
 4126SOL     OW13276   1.272   4.245   4.391
 4126SOL    HW113277   1.359   4.223   4.436
 4126SOL    HW213278   1.278   4.221   4.294
 4127SOL     OW13279   5.160   3.657   4.575
 4127SOL    HW113280   5.188   3.562   4.558
 4127SOL    HW213281   5.162   3.675   4.673
 4128SOL     OW13282   1.944   3.951   2.446
 4128SOL    HW113283   1.920   3.972   2.541
 4128SOL    HW213284   2.034   3.908   2.443
 4129SOL     OW13285   5.308   2.010   6.467
 4129SOL    HW113286   5.297   2.089   6.407
 4129SOL    HW213287   5.363   1.941   6.420
 4130SOL     OW13288   6.750   3.513   5.810
 4130SOL    HW113289   6.743   3.520   5.909
 4130SOL    HW213290   6.781   3.600   5.772
 4131SOL     OW13291   0.462   5.696   3.903
 4131SOL    HW113292   0.402   5.681   3.981
 4131SOL    HW213293   0.426   5.771   3.846
 4132SOL     OW13294   5.620   3.518   3.254
 4132SOL    HW113295   5.599   3.606   3.210
 4132SOL    HW213296   5.559   3.448   3.219
 4133SOL     OW13297   3.355   0.523   0.911
 4133SOL    HW113298   3.323   0.472   0.832
 4133SOL    HW213299   3.344   0.468   0.993
 4134SOL     OW13300   2.192   2.128   0.763
 4134SOL    HW113301   2.164   2.115   0.668
 4134SOL    HW213302   2.275   2.183   0.767
 4135SOL     OW13303   2.116   0.329   1.976
 4135SOL    HW113304   2.085   0.368   2.063
 4135SOL    HW213305   2.209   0.294   1.986
 4136SOL     OW13306   0.325   2.216   3.652
 4136SOL    HW113307   0.305   2.158   3.573
 4136SOL    HW213308   0.413   2.262   3.638
 4137SOL     OW13309   3.032   4.377   0.278
 4137SOL    HW113310   3.060   4.281   0.278
 4137SOL    HW213311   3.103   4.432   0.233
 4138SOL     OW13312   4.424   4.627   4.516
 4138SOL    HW113313   4.465   4.595   4.431
 4138SOL    HW213314   4.452   4.567   4.591
 4139SOL     OW13315   1.788   2.239   6.087
 4139SOL    HW113316   1.704   2.275   6.127
 4139SOL    HW213317   1.783   2.139   6.085
 4140SOL     OW13318   3.593   1.189   5.267
 4140SOL    HW113319   3.609   1.162   5.362
 4140SOL    HW213320   3.667   1.155   5.210
 4141SOL     OW13321   5.079   5.195   1.619
 4141SOL    HW113322   5.142   5.138   1.567
 4141SOL    HW213323   5.113   5.289   1.623
 4142SOL     OW13324   6.695   5.281   0.974
 4142SOL    HW113325   6.731   5.281   1.067
 4142SOL    HW213326   6.595   5.286   0.977
 4143SOL     OW13327   6.968   2.815   0.229
 4143SOL    HW113328   6.888   2.874   0.223
 4143SOL    HW213329   7.004   2.798   0.137
 4144SOL     OW13330   5.812   1.688   1.309
 4144SOL    HW113331   5.732   1.725   1.262
 4144SOL    HW213332   5.894   1.734   1.276
 4145SOL     OW13333   0.040   6.357   1.650
 4145SOL    HW113334   0.017   6.432   1.588
 4145SOL    HW213335   0.117   6.305   1.611
 4146SOL     OW13336   5.642   0.426   6.142
 4146SOL    HW113337   5.725   0.386   6.182
 4146SOL    HW213338   5.635   0.522   6.169
 4147SOL     OW13339   3.078   1.954   6.393
 4147SOL    HW113340   3.120   2.045   6.398
 4147SOL    HW213341   3.020   1.949   6.311
 4148SOL     OW13342   0.728   0.736   4.243
 4148SOL    HW113343   0.733   0.769   4.149
 4148SOL    HW213344   0.719   0.636   4.243
 4149SOL     OW13345   6.484   3.207   0.127
 4149SOL    HW113346   6.390   3.213   0.162
 4149SOL    HW213347   6.491   3.130   0.064
 4150SOL     OW13348   6.043   0.611   6.365
 4150SOL    HW113349   6.021   0.663   6.283
 4150SOL    HW213350   6.141   0.613   6.381
 4151SOL     OW13351   5.764   6.438   0.081
 4151SOL    HW113352   5.838   6.484   0.032
 4151SOL    HW213353   5.801   6.358   0.128
 4152SOL     OW13354   3.557   4.944   2.159
 4152SOL    HW113355   3.604   4.900   2.235
 4152SOL    HW213356   3.582   4.899   2.074
 4153SOL     OW13357   5.549   5.337   6.399
 4153SOL    HW113358   5.572   5.339   6.302
 4153SOL    HW213359   5.579   5.422   6.443
 4154SOL     OW13360   6.559   3.905   4.870
 4154SOL    HW113361   6.624   3.940   4.938
 4154SOL    HW213362   6.553   3.806   4.878
 4155SOL     OW13363   0.646   3.356   2.674
 4155SOL    HW113364   0.634   3.361   2.575
 4155SOL    HW213365   0.737   3.322   2.695
 4156SOL     OW13366   5.939   0.129   5.076
 4156SOL    HW113367   6.010   0.178   5.127
 4156SOL    HW213368   5.945   0.152   4.979
 4157SOL     OW13369   3.785   0.308   4.128
 4157SOL    HW113370   3.870   0.288   4.177
 4157SOL    HW213371   3.803   0.306   4.029
 4158SOL     OW13372   0.814   5.177   3.401
 4158SOL    HW113373   0.885   5.145   3.464
 4158SOL    HW213374   0.733   5.204   3.453
 4159SOL     OW13375   2.058   3.135   3.937
 4159SOL    HW113376   2.015   3.044   3.941
 4159SOL    HW213377   2.004   3.194   3.877
 4160SOL     OW13378   6.429   0.534   1.422
 4160SOL    HW113379   6.455   0.541   1.326
 4160SOL    HW213380   6.372   0.613   1.446
 4161SOL     OW13381   1.614   1.072   6.663
 4161SOL    HW113382   1.616   1.155   6.718
 4161SOL    HW213383   1.689   1.074   6.597
 4162SOL     OW13384   6.063   0.549   4.910
 4162SOL    HW113385   6.123   0.497   4.850
 4162SOL    HW213386   5.974   0.563   4.865
 4163SOL     OW13387   5.706   1.059   3.425
 4163SOL    HW113388   5.628   1.000   3.443
 4163SOL    HW213389   5.675   1.154   3.416
 4164SOL     OW13390   1.599   0.682   6.538
 4164SOL    HW113391   1.639   0.671   6.629
 4164SOL    HW213392   1.520   0.743   6.544
 4165SOL     OW13393   4.031   6.691   0.924
 4165SOL    HW113394   3.988   6.713   0.837
 4165SOL    HW213395   4.021   6.593   0.943
 4166SOL     OW13396   4.286   3.019   0.702
 4166SOL    HW113397   4.301   2.949   0.633
 4166SOL    HW213398   4.187   3.032   0.716
 4167SOL     OW13399   2.291   2.550   1.337
 4167SOL    HW113400   2.284   2.567   1.239
 4167SOL    HW213401   2.376   2.589   1.372
 4168SOL     OW13402   0.281   5.281   1.629
 4168SOL    HW113403   0.201   5.327   1.669
 4168SOL    HW213404   0.287   5.304   1.532
 4169SOL     OW13405   4.902   3.955   4.067
 4169SOL    HW113406   4.855   3.917   4.147
 4169SOL    HW213407   4.835   3.970   3.994
 4170SOL     OW13408   4.078   2.507   5.618
 4170SOL    HW113409   4.001   2.571   5.627
 4170SOL    HW213410   4.160   2.548   5.657
 4171SOL     OW13411   5.538   3.502   1.302
 4171SOL    HW113412   5.504   3.503   1.208
 4171SOL    HW213413   5.465   3.474   1.364
 4172SOL     OW13414   0.184   2.182   0.224
 4172SOL    HW113415   0.178   2.263   0.281
 4172SOL    HW213416   0.215   2.104   0.278
 4173SOL     OW13417   5.839   2.946   5.255
 4173SOL    HW113418   5.876   3.011   5.189
 4173SOL    HW213419   5.789   2.995   5.326
 4174SOL     OW13420   4.947   0.231   3.900
 4174SOL    HW113421   4.883   0.188   3.964
 4174SOL    HW213422   4.898   0.296   3.842
 4175SOL     OW13423   3.572   0.077   3.816
 4175SOL    HW113424   3.520   7.028   3.847
 4175SOL    HW213425   3.669   0.055   3.813
 4176SOL     OW13426   4.309   0.117   2.433
 4176SOL    HW113427   4.374   0.193   2.441
 4176SOL    HW213428   4.264   0.103   2.521
 4177SOL     OW13429   0.232   5.826   4.305
 4177SOL    HW113430   0.246   5.872   4.393
 4177SOL    HW213431   0.289   5.869   4.235
 4178SOL     OW13432   3.330   1.139   6.093
 4178SOL    HW113433   3.242   1.180   6.070
 4178SOL    HW213434   3.397   1.211   6.110
 4179SOL     OW13435   5.576   3.524   4.597
 4179SOL    HW113436   5.557   3.478   4.510
 4179SOL    HW213437   5.596   3.456   4.667
 4180SOL     OW13438   5.525   4.227   1.866
 4180SOL    HW113439   5.450   4.273   1.914
 4180SOL    HW213440   5.512   4.128   1.870
 4181SOL     OW13441   1.097   1.991   6.337
 4181SOL    HW113442   1.072   1.964   6.244
 4181SOL    HW213443   1.165   2.064   6.334
 4182SOL     OW13444   0.270   0.086   2.726
 4182SOL    HW113445   0.294   0.183   2.729
 4182SOL    HW213446   0.179   0.073   2.766
 4183SOL     OW13447   2.950   1.716   1.849
 4183SOL    HW113448   2.853   1.737   1.845
 4183SOL    HW213449   2.964   1.625   1.889
 4184SOL     OW13450   3.944   5.224   0.902
 4184SOL    HW113451   4.002   5.305   0.899
 4184SOL    HW213452   3.848   5.251   0.910
 4185SOL     OW13453   0.311   6.017   3.028
 4185SOL    HW113454   0.215   6.012   3.053
 4185SOL    HW213455   0.362   6.059   3.104
 4186SOL     OW13456   2.224   3.933   0.176
 4186SOL    HW113457   2.285   4.006   0.208
 4186SOL    HW213458   2.270   3.845   0.186
 4187SOL     OW13459   3.510   3.467   6.473
 4187SOL    HW113460   3.506   3.465   6.374
 4187SOL    HW213461   3.428   3.511   6.510
 4188SOL     OW13462   5.039   0.297   4.749
 4188SOL    HW113463   5.006   0.390   4.731
 4188SOL    HW213464   5.116   0.277   4.688
 4189SOL     OW13465   2.882   1.275   4.277
 4189SOL    HW113466   2.916   1.309   4.365
 4189SOL    HW213467   2.942   1.201   4.245
 4190SOL     OW13468   2.574   0.362   6.432
 4190SOL    HW113469   2.605   0.305   6.508
 4190SOL    HW213470   2.477   0.344   6.413
 4191SOL     OW13471   6.345   2.934   3.006
 4191SOL    HW113472   6.370   2.843   2.972
 4191SOL    HW213473   6.393   2.953   3.092
 4192SOL     OW13474   5.800   1.147   3.071
 4192SOL    HW113475   5.877   1.167   3.131
 4192SOL    HW213476   5.726   1.211   3.090
 4193SOL     OW13477   2.330   6.852   2.170
 4193SOL    HW113478   2.402   6.884   2.232
 4193SOL    HW213479   2.281   6.776   2.212
 4194SOL     OW13480   6.879   2.083   4.757
 4194SOL    HW113481   6.829   2.060   4.674
 4194SOL    HW213482   6.892   2.001   4.812
 4195SOL     OW13483   4.279   0.612   1.415
 4195SOL    HW113484   4.187   0.650   1.407
 4195SOL    HW213485   4.346   0.678   1.381
 4196SOL     OW13486   5.311   2.742   4.018
 4196SOL    HW113487   5.249   2.775   4.089
 4196SOL    HW213488   5.265   2.672   3.963
 4197SOL     OW13489   5.247   4.407   4.552
 4197SOL    HW113490   5.268   4.504   4.542
 4197SOL    HW213491   5.330   4.358   4.580
 4198SOL     OW13492   5.916   3.511   0.043
 4198SOL    HW113493   5.850   3.468   0.105
 4198SOL    HW213494   5.866   3.556   6.998
 4199SOL     OW13495   3.202   3.656   5.351
 4199SOL    HW113496   3.221   3.747   5.315
 4199SOL    HW213497   3.151   3.603   5.283
 4200SOL     OW13498   2.305   6.650   5.947
 4200SOL    HW113499   2.216   6.679   5.983
 4200SOL    HW213500   2.293   6.566   5.895
 4201SOL     OW13501   6.266   6.709   3.186
 4201SOL    HW113502   6.324   6.662   3.119
 4201SOL    HW213503   6.264   6.656   3.271
 4202SOL     OW13504   5.246   4.542   5.697
 4202SOL    HW113505   5.316   4.494   5.750
 4202SOL    HW213506   5.247   4.639   5.721
 4203SOL     OW13507   4.985   5.515   3.383
 4203SOL    HW113508   5.013   5.522   3.479
 4203SOL    HW213509   4.958   5.605   3.349
 4204SOL     OW13510   3.392   3.208   1.328
 4204SOL    HW113511   3.411   3.299   1.363
 4204SOL    HW213512   3.349   3.153   1.399
 4205SOL     OW13513   3.232   5.221   4.872
 4205SOL    HW113514   3.164   5.156   4.906
 4205SOL    HW213515   3.270   5.273   4.949
 4206SOL     OW13516   4.648   7.023   5.229
 4206SOL    HW113517   4.660   6.989   5.322
 4206SOL    HW213518   4.557   0.035   5.220
 4207SOL     OW13519   1.471   1.186   1.751
 4207SOL    HW113520   1.511   1.142   1.832
 4207SOL    HW213521   1.386   1.140   1.727
 4208SOL     OW13522   1.345   2.818   0.924
 4208SOL    HW113523   1.245   2.815   0.931
 4208SOL    HW213524   1.383   2.734   0.963
 4209SOL     OW13525   1.902   6.951   4.625
 4209SOL    HW113526   1.912   6.890   4.547
 4209SOL    HW213527   1.964   7.029   4.615
 4210SOL     OW13528   3.553   3.606   1.155
 4210SOL    HW113529   3.517   3.697   1.177
 4210SOL    HW213530   3.533   3.543   1.230
 4211SOL     OW13531   5.073   4.619   4.928
 4211SOL    HW113532   5.019   4.558   4.986
 4211SOL    HW213533   5.163   4.578   4.912
 4212SOL     OW13534   6.257   0.966   2.500
 4212SOL    HW113535   6.338   0.967   2.559
 4212SOL    HW213536   6.175   0.982   2.555
 4213SOL     OW13537   1.919   0.620   2.202
 4213SOL    HW113538   1.953   0.614   2.108
 4213SOL    HW213539   1.823   0.648   2.201
 4214SOL     OW13540   0.874   3.392   5.382
 4214SOL    HW113541   0.914   3.325   5.319
 4214SOL    HW213542   0.848   3.474   5.331
 4215SOL     OW13543   0.847   5.537   4.793
 4215SOL    HW113544   0.877   5.622   4.750
 4215SOL    HW213545   0.812   5.556   4.885
 4216SOL     OW13546   1.182   2.347   4.501
 4216SOL    HW113547   1.220   2.407   4.572
 4216SOL    HW213548   1.222   2.371   4.413
 4217SOL     OW13549   0.468   0.253   2.419
 4217SOL    HW113550   0.455   0.158   2.388
 4217SOL    HW213551   0.421   0.266   2.506
 4218SOL     OW13552   4.671   0.157   2.085
 4218SOL    HW113553   4.654   0.067   2.045
 4218SOL    HW213554   4.751   0.199   2.042
 4219SOL     OW13555   4.023   4.875   5.188
 4219SOL    HW113556   3.978   4.961   5.211
 4219SOL    HW213557   3.959   4.799   5.202
 4220SOL     OW13558   6.711   3.241   3.542
 4220SOL    HW113559   6.705   3.326   3.593
 4220SOL    HW213560   6.764   3.174   3.595
 4221SOL     OW13561   5.222   5.489   6.742
 4221SOL    HW113562   5.268   5.441   6.817
 4221SOL    HW213563   5.288   5.544   6.692
 4222SOL     OW13564   5.550   2.256   1.659
 4222SOL    HW113565   5.456   2.235   1.686
 4222SOL    HW213566   5.569   2.352   1.675
 4223SOL     OW13567   3.323   4.108   2.554
 4223SOL    HW113568   3.361   4.148   2.470
 4223SOL    HW213569   3.273   4.024   2.531
 4224SOL     OW13570   4.465   2.570   4.828
 4224SOL    HW113571   4.500   2.662   4.844
 4224SOL    HW213572   4.384   2.555   4.886
 4225SOL     OW13573   6.216   0.577   4.396
 4225SOL    HW113574   6.282   0.625   4.340
 4225SOL    HW213575   6.128   0.573   4.348
 4226SOL     OW13576   0.883   1.357   3.699
 4226SOL    HW113577   0.790   1.322   3.712
 4226SOL    HW213578   0.879   1.452   3.669
 4227SOL     OW13579   3.835   4.910   0.265
 4227SOL    HW113580   3.863   4.865   0.181
 4227SOL    HW213581   3.850   4.849   0.343
 4228SOL     OW13582   6.109   5.573   3.490
 4228SOL    HW113583   6.155   5.658   3.516
 4228SOL    HW213584   6.017   5.572   3.529
 4229SOL     OW13585   4.686   4.939   6.247
 4229SOL    HW113586   4.676   4.880   6.166
 4229SOL    HW213587   4.631   4.902   6.322
 4230SOL     OW13588   3.179   0.636   5.285
 4230SOL    HW113589   3.234   0.627   5.368
 4230SOL    HW213590   3.233   0.607   5.206
 4231SOL     OW13591   4.665   6.692   5.378
 4231SOL    HW113592   4.683   6.694   5.280
 4231SOL    HW213593   4.661   6.785   5.413
 4232SOL     OW13594   1.763   5.076   3.057
 4232SOL    HW113595   1.735   4.980   3.053
 4232SOL    HW213596   1.710   5.124   3.128
 4233SOL     OW13597   6.332   0.147   6.185
 4233SOL    HW113598   6.314   0.193   6.272
 4233SOL    HW213599   6.423   0.171   6.153
 4234SOL     OW13600   3.062   5.486   6.375
 4234SOL    HW113601   3.137   5.423   6.355
 4234SOL    HW213602   3.098   5.578   6.389
 4235SOL     OW13603   5.977   4.264   5.634
 4235SOL    HW113604   6.018   4.303   5.717
 4235SOL    HW213605   5.887   4.306   5.619
 4236SOL     OW13606   0.366   2.600   3.910
 4236SOL    HW113607   0.423   2.641   3.981
 4236SOL    HW213608   0.344   2.506   3.935
 4237SOL     OW13609   5.163   3.978   5.155
 4237SOL    HW113610   5.239   3.955   5.215
 4237SOL    HW213611   5.078   3.940   5.193
 4238SOL     OW13612   3.945   4.990   4.018
 4238SOL    HW113613   3.966   5.083   4.047
 4238SOL    HW213614   4.000   4.926   4.072
 4239SOL     OW13615   4.324   6.780   5.837
 4239SOL    HW113616   4.225   6.793   5.839
 4239SOL    HW213617   4.345   6.685   5.815
 4240SOL     OW13618   2.741   4.759   0.021
 4240SOL    HW113619   2.751   4.846   7.002
 4240SOL    HW213620   2.697   4.775   0.109
 4241SOL     OW13621   5.077   0.438   1.147
 4241SOL    HW113622   4.993   0.416   1.197
 4241SOL    HW213623   5.056   0.450   1.050
 4242SOL     OW13624   2.014   0.181   2.415
 4242SOL    HW113625   2.095   0.136   2.377
 4242SOL    HW213626   2.029   0.202   2.511
 4243SOL     OW13627   0.570   3.729   2.367
 4243SOL    HW113628   0.659   3.733   2.323
 4243SOL    HW213629   0.548   3.634   2.389
 4244SOL     OW13630   4.813   6.615   0.937
 4244SOL    HW113631   4.764   6.678   0.997
 4244SOL    HW213632   4.801   6.643   0.842
 4245SOL     OW13633   6.778   2.830   0.678
 4245SOL    HW113634   6.707   2.761   0.697
 4245SOL    HW213635   6.752   2.881   0.596
 4246SOL     OW13636   5.096   2.333   3.437
 4246SOL    HW113637   5.194   2.355   3.431
 4246SOL    HW213638   5.084   2.251   3.494
 4247SOL     OW13639   1.986   5.001   5.071
 4247SOL    HW113640   2.060   4.947   5.109
 4247SOL    HW213641   1.898   4.963   5.099
 4248SOL     OW13642   2.051   0.980   2.774
 4248SOL    HW113643   1.998   0.905   2.812
 4248SOL    HW213644   1.998   1.065   2.780
 4249SOL     OW13645   0.135   0.677   4.949
 4249SOL    HW113646   0.157   0.752   5.012
 4249SOL    HW213647   0.200   0.602   4.962
 4250SOL     OW13648   6.799   6.254   4.098
 4250SOL    HW113649   6.763   6.166   4.066
 4250SOL    HW213650   6.785   6.261   4.197
 4251SOL     OW13651   5.993   2.279   6.178
 4251SOL    HW113652   5.913   2.320   6.134
 4251SOL    HW213653   5.992   2.301   6.276
 4252SOL     OW13654   6.360   6.198   6.226
 4252SOL    HW113655   6.311   6.251   6.295
 4252SOL    HW213656   6.440   6.154   6.268
 4253SOL     OW13657   4.377   5.573   2.355
 4253SOL    HW113658   4.399   5.476   2.350
 4253SOL    HW213659   4.448   5.621   2.407
 4254SOL     OW13660   2.233   3.409   6.563
 4254SOL    HW113661   2.176   3.473   6.613
 4254SOL    HW213662   2.313   3.385   6.618
 4255SOL     OW13663   0.320   3.790   2.462
 4255SOL    HW113664   0.410   3.768   2.423
 4255SOL    HW213665   0.324   3.877   2.510
 4256SOL     OW13666   0.730   5.056   2.263
 4256SOL    HW113667   0.632   5.071   2.249
 4256SOL    HW213668   0.782   5.120   2.207
 4257SOL     OW13669   6.029   0.927   4.970
 4257SOL    HW113670   6.082   0.890   5.047
 4257SOL    HW213671   6.050   1.025   4.960
 4258SOL     OW13672   3.864   6.168   0.423
 4258SOL    HW113673   3.926   6.092   0.404
 4258SOL    HW213674   3.914   6.241   0.470
 4259SOL     OW13675   1.045   6.784   2.177
 4259SOL    HW113676   0.977   6.721   2.137
 4259SOL    HW213677   1.024   6.798   2.274
 4260SOL     OW13678   5.200   6.795   5.064
 4260SOL    HW113679   5.167   6.839   5.148
 4260SOL    HW213680   5.284   6.840   5.033
 4261SOL     OW13681   2.028   0.090   3.460
 4261SOL    HW113682   1.999   0.161   3.523
 4261SOL    HW213683   2.001   0.000   3.496
 4262SOL     OW13684   1.659   4.392   6.638
 4262SOL    HW113685   1.574   4.345   6.617
 4262SOL    HW213686   1.722   4.329   6.683
 4263SOL     OW13687   2.697   1.935   3.818
 4263SOL    HW113688   2.702   1.958   3.915
 4263SOL    HW213689   2.761   1.994   3.767
 4264SOL     OW13690   5.429   1.486   4.057
 4264SOL    HW113691   5.334   1.461   4.079
 4264SOL    HW213692   5.443   1.477   3.958
 4265SOL     OW13693   3.274   0.375   1.137
 4265SOL    HW113694   3.335   0.406   1.209
 4265SOL    HW213695   3.182   0.362   1.174
 4266SOL     OW13696   1.444   6.762   0.594
 4266SOL    HW113697   1.352   6.766   0.553
 4266SOL    HW213698   1.489   6.677   0.564
 4267SOL     OW13699   1.910   4.095   4.745
 4267SOL    HW113700   1.929   4.030   4.819
 4267SOL    HW213701   1.813   4.092   4.722
 4268SOL     OW13702   1.437   4.896   6.465
 4268SOL    HW113703   1.501   4.930   6.533
 4268SOL    HW213704   1.481   4.825   6.410
 4269SOL     OW13705   2.927   1.968   4.461
 4269SOL    HW113706   2.884   1.997   4.547
 4269SOL    HW213707   3.025   1.955   4.476
 4270SOL     OW13708   3.569   2.315   0.961
 4270SOL    HW113709   3.470   2.312   0.977
 4270SOL    HW213710   3.587   2.303   0.863
 4271SOL     OW13711   6.783   0.235   1.051
 4271SOL    HW113712   6.858   0.298   1.030
 4271SOL    HW213713   6.800   0.192   1.140
 4272SOL     OW13714   6.062   2.532   5.906
 4272SOL    HW113715   6.154   2.559   5.936
 4272SOL    HW213716   5.994   2.590   5.950
 4273SOL     OW13717   4.262   5.559   5.001
 4273SOL    HW113718   4.332   5.628   4.979
 4273SOL    HW213719   4.267   5.484   4.935
 4274SOL     OW13720   6.705   0.413   1.873
 4274SOL    HW113721   6.693   0.318   1.844
 4274SOL    HW213722   6.675   0.422   1.968
 4275SOL     OW13723   0.851   2.670   3.336
 4275SOL    HW113724   0.754   2.686   3.318
 4275SOL    HW213725   0.889   2.613   3.264
 4276SOL     OW13726   2.685   5.915   3.609
 4276SOL    HW113727   2.599   5.941   3.653
 4276SOL    HW213728   2.744   5.868   3.674
 4277SOL     OW13729   6.134   5.588   3.822
 4277SOL    HW113730   6.210   5.596   3.757
 4277SOL    HW213731   6.160   5.528   3.897
 4278SOL     OW13732   1.225   6.990   2.130
 4278SOL    HW113733   1.207   0.017   2.211
 4278SOL    HW213734   1.168   6.908   2.134
 4279SOL     OW13735   2.172   2.558   3.400
 4279SOL    HW113736   2.147   2.607   3.484
 4279SOL    HW213737   2.243   2.609   3.351
 4280SOL     OW13738   6.749   0.067   6.128
 4280SOL    HW113739   6.787   0.077   6.221
 4280SOL    HW213740   6.803   0.123   6.065
 4281SOL     OW13741   4.208   5.424   3.756
 4281SOL    HW113742   4.240   5.329   3.760
 4281SOL    HW213743   4.251   5.471   3.679
 4282SOL     OW13744   3.735   4.078   1.091
 4282SOL    HW113745   3.786   3.992   1.095
 4282SOL    HW213746   3.771   4.134   1.016
 4283SOL     OW13747   5.026   1.184   3.983
 4283SOL    HW113748   4.954   1.231   3.932
 4283SOL    HW213749   5.086   1.136   3.920
 4284SOL     OW13750   4.778   5.687   6.681
 4284SOL    HW113751   4.831   5.757   6.633
 4284SOL    HW213752   4.830   5.655   6.761
 4285SOL     OW13753   2.904   0.643   5.930
 4285SOL    HW113754   2.906   0.659   5.832
 4285SOL    HW213755   2.938   0.551   5.950
 4286SOL     OW13756   6.240   1.178   6.888
 4286SOL    HW113757   6.193   1.111   6.946
 4286SOL    HW213758   6.296   1.238   6.946
 4287SOL     OW13759   4.957   0.629   6.999
 4287SOL    HW113760   5.003   0.627   0.059
 4287SOL    HW213761   4.909   0.543   6.985
 4288SOL     OW13762   6.812   6.437   2.146
 4288SOL    HW113763   6.899   6.408   2.105
 4288SOL    HW213764   6.747   6.361   2.142
 4289SOL     OW13765   0.302   3.228   4.619
 4289SOL    HW113766   0.271   3.319   4.589
 4289SOL    HW213767   0.269   3.159   4.554
 4290SOL     OW13768   0.276   0.960   3.244
 4290SOL    HW113769   0.359   0.924   3.201
 4290SOL    HW213770   0.222   1.009   3.176
 4291SOL     OW13771   4.991   2.912   5.694
 4291SOL    HW113772   5.027   2.924   5.601
 4291SOL    HW213773   4.916   2.846   5.692
 4292SOL     OW13774   5.608   1.877   1.125
 4292SOL    HW113775   5.675   1.927   1.179
 4292SOL    HW213776   5.528   1.855   1.182
 4293SOL     OW13777   4.606   3.987   6.868
 4293SOL    HW113778   4.619   4.018   6.963
 4293SOL    HW213779   4.610   3.887   6.865
 4294SOL     OW13780   3.027   1.778   6.600
 4294SOL    HW113781   2.935   1.808   6.624
 4294SOL    HW213782   3.069   1.847   6.540
 4295SOL     OW13783   4.365   6.311   3.251
 4295SOL    HW113784   4.354   6.332   3.348
 4295SOL    HW213785   4.401   6.391   3.203
 4296SOL     OW13786   2.784   6.408   1.424
 4296SOL    HW113787   2.729   6.393   1.342
 4296SOL    HW213788   2.765   6.336   1.491
 4297SOL     OW13789   5.602   5.136   1.085
 4297SOL    HW113790   5.622   5.138   0.987
 4297SOL    HW213791   5.532   5.204   1.106
 4298SOL     OW13792   3.257   6.524   1.334
 4298SOL    HW113793   3.181   6.561   1.388
 4298SOL    HW213794   3.311   6.599   1.297
 4299SOL     OW13795   1.372   2.512   0.386
 4299SOL    HW113796   1.353   2.426   0.338
 4299SOL    HW213797   1.456   2.552   0.351
 4300SOL     OW13798   3.694   0.563   1.195
 4300SOL    HW113799   3.670   0.542   1.100
 4300SOL    HW213800   3.658   0.654   1.219
 4301SOL     OW13801   3.102   6.920   1.999
 4301SOL    HW113802   3.037   6.845   2.010
 4301SOL    HW213803   3.186   6.899   2.050
 4302SOL     OW13804   1.763   5.538   6.173
 4302SOL    HW113805   1.778   5.511   6.078
 4302SOL    HW213806   1.751   5.638   6.177
 4303SOL     OW13807   6.165   4.326   3.823
 4303SOL    HW113808   6.143   4.317   3.920
 4303SOL    HW213809   6.106   4.266   3.769
 4304SOL     OW13810   3.211   3.732   1.510
 4304SOL    HW113811   3.308   3.730   1.533
 4304SOL    HW213812   3.169   3.814   1.548
 4305SOL     OW13813   1.279   0.687   5.324
 4305SOL    HW113814   1.281   0.650   5.417
 4305SOL    HW213815   1.315   0.619   5.261
 4306SOL     OW13816   5.459   3.711   4.808
 4306SOL    HW113817   5.520   3.687   4.733
 4306SOL    HW213818   5.493   3.794   4.853
 4307SOL     OW13819   6.204   1.856   5.201
 4307SOL    HW113820   6.194   1.789   5.128
 4307SOL    HW213821   6.249   1.938   5.165
 4308SOL     OW13822   5.091   5.047   0.828
 4308SOL    HW113823   5.096   5.069   0.731
 4308SOL    HW213824   5.173   5.080   0.874
 4309SOL     OW13825   1.549   3.739   0.482
 4309SOL    HW113826   1.569   3.675   0.557
 4309SOL    HW213827   1.453   3.731   0.457
 4310SOL     OW13828   0.677   1.735   2.365
 4310SOL    HW113829   0.740   1.809   2.389
 4310SOL    HW213830   0.606   1.727   2.434
 4311SOL     OW13831   0.659   6.276   2.317
 4311SOL    HW113832   0.710   6.245   2.237
 4311SOL    HW213833   0.703   6.357   2.356
 4312SOL     OW13834   0.438   4.780   2.247
 4312SOL    HW113835   0.412   4.787   2.151
 4312SOL    HW213836   0.537   4.768   2.254
 4313SOL     OW13837   6.337   1.732   6.913
 4313SOL    HW113838   6.254   1.712   6.861
 4313SOL    HW213839   6.312   1.773   7.001
 4314SOL     OW13840   6.410   2.591   4.888
 4314SOL    HW113841   6.461   2.631   4.812
 4314SOL    HW213842   6.313   2.585   4.865
 4315SOL     OW13843   2.734   1.410   3.995
 4315SOL    HW113844   2.698   1.378   4.082
 4315SOL    HW213845   2.659   1.449   3.940
 4316SOL     OW13846   5.370   6.639   2.115
 4316SOL    HW113847   5.308   6.658   2.191
 4316SOL    HW213848   5.463   6.665   2.140
 4317SOL     OW13849   4.913   0.631   6.165
 4317SOL    HW113850   4.929   0.583   6.251
 4317SOL    HW213851   4.814   0.643   6.152
 4318SOL     OW13852   0.859   1.769   4.194
 4318SOL    HW113853   0.913   1.689   4.219
 4318SOL    HW213854   0.895   1.809   4.110
 4319SOL     OW13855   1.138   4.503   2.081
 4319SOL    HW113856   1.039   4.498   2.067
 4319SOL    HW213857   1.185   4.486   1.995
 4320SOL     OW13858   3.682   5.868   0.282
 4320SOL    HW113859   3.750   5.841   0.214
 4320SOL    HW213860   3.690   5.808   0.362
 4321SOL     OW13861   6.308   6.772   2.373
 4321SOL    HW113862   6.372   6.710   2.328
 4321SOL    HW213863   6.359   6.837   2.430
 4322SOL     OW13864   0.937   3.185   5.153
 4322SOL    HW113865   0.895   3.156   5.067
 4322SOL    HW213866   1.023   3.136   5.165
 4323SOL     OW13867   3.676   5.636   0.088
 4323SOL    HW113868   3.681   5.588   0.001
 4323SOL    HW213869   3.748   5.603   0.149
 4324SOL     OW13870   0.077   3.721   5.957
 4324SOL    HW113871   0.077   3.785   5.879
 4324SOL    HW213872   0.112   3.632   5.926
 4325SOL     OW13873   3.113   0.483   2.812
 4325SOL    HW113874   3.046   0.555   2.828
 4325SOL    HW213875   3.067   0.402   2.776
 4326SOL     OW13876   4.862   2.452   2.885
 4326SOL    HW113877   4.914   2.485   2.963
 4326SOL    HW213878   4.857   2.524   2.815
 4327SOL     OW13879   3.558   5.530   4.144
 4327SOL    HW113880   3.500   5.576   4.211
 4327SOL    HW213881   3.517   5.443   4.119
 4328SOL     OW13882   5.628   5.887   5.185
 4328SOL    HW113883   5.545   5.942   5.177
 4328SOL    HW213884   5.664   5.868   5.093
 4329SOL     OW13885   5.847   2.642   6.054
 4329SOL    HW113886   5.876   2.682   6.142
 4329SOL    HW213887   5.806   2.713   5.997
 4330SOL     OW13888   2.951   5.035   5.398
 4330SOL    HW113889   3.032   5.092   5.383
 4330SOL    HW213890   2.975   4.958   5.457
 4331SOL     OW13891   6.529   0.740   1.743
 4331SOL    HW113892   6.537   0.763   1.646
 4331SOL    HW213893   6.447   0.685   1.757
 4332SOL     OW13894   0.087   4.736   2.394
 4332SOL    HW113895   0.014   4.692   2.341
 4332SOL    HW213896   0.175   4.697   2.368
 4333SOL     OW13897   3.932   1.908   5.270
 4333SOL    HW113898   3.941   1.819   5.225
 4333SOL    HW213899   3.897   1.896   5.362
 4334SOL     OW13900   1.103   2.337   3.769
 4334SOL    HW113901   1.092   2.250   3.723
 4334SOL    HW213902   1.084   2.326   3.867
 4335SOL     OW13903   3.187   3.471   0.921
 4335SOL    HW113904   3.157   3.469   1.016
 4335SOL    HW213905   3.239   3.554   0.903
 4336SOL     OW13906   2.667   5.800   5.871
 4336SOL    HW113907   2.721   5.773   5.791
 4336SOL    HW213908   2.571   5.772   5.857
 4337SOL     OW13909   1.431   5.404   3.280
 4337SOL    HW113910   1.353   5.426   3.221
 4337SOL    HW213911   1.462   5.487   3.326
 4338SOL     OW13912   4.835   0.713   5.885
 4338SOL    HW113913   4.912   0.697   5.947
 4338SOL    HW213914   4.753   0.736   5.939
 4339SOL     OW13915   4.316   2.964   5.836
 4339SOL    HW113916   4.231   2.927   5.799
 4339SOL    HW213917   4.297   3.052   5.881
 4340SOL     OW13918   6.751   3.199   1.005
 4340SOL    HW113919   6.810   3.143   0.947
 4340SOL    HW213920   6.795   3.212   1.094
 4341SOL     OW13921   0.754   5.891   2.602
 4341SOL    HW113922   0.794   5.943   2.677
 4341SOL    HW213923   0.682   5.944   2.558
 4342SOL     OW13924   5.262   3.947   2.860
 4342SOL    HW113925   5.268   3.991   2.770
 4342SOL    HW213926   5.354   3.936   2.898
 4343SOL     OW13927   4.104   0.586   6.664
 4343SOL    HW113928   4.006   0.607   6.667
 4343SOL    HW213929   4.139   0.604   6.573
 4344SOL     OW13930   0.034   2.290   3.877
 4344SOL    HW113931   6.997   2.363   3.892
 4344SOL    HW213932   0.024   2.253   3.785
 4345SOL     OW13933   2.857   3.584   2.303
 4345SOL    HW113934   2.872   3.505   2.362
 4345SOL    HW213935   2.785   3.563   2.237
 4346SOL     OW13936   1.758   3.695   2.056
 4346SOL    HW113937   1.789   3.782   2.094
 4346SOL    HW213938   1.776   3.694   1.957
 4347SOL     OW13939   6.016   4.828   1.966
 4347SOL    HW113940   6.063   4.892   1.905
 4347SOL    HW213941   6.006   4.870   2.057
 4348SOL     OW13942   5.912   6.151   4.290
 4348SOL    HW113943   5.994   6.099   4.267
 4348SOL    HW213944   5.907   6.164   4.389
 4349SOL     OW13945   0.206   3.528   4.173
 4349SOL    HW113946   0.135   3.502   4.107
 4349SOL    HW213947   0.261   3.448   4.196
 4350SOL     OW13948   4.655   0.883   5.071
 4350SOL    HW113949   4.692   0.929   4.990
 4350SOL    HW213950   4.726   0.830   5.115
 4351SOL     OW13951   1.199   6.758   0.886
 4351SOL    HW113952   1.194   6.682   0.821
 4351SOL    HW213953   1.121   6.753   0.949
 4352SOL     OW13954   4.257   3.871   1.117
 4352SOL    HW113955   4.286   3.851   1.211
 4352SOL    HW213956   4.182   3.810   1.092
 4353SOL     OW13957   3.033   2.719   0.989
 4353SOL    HW113958   2.975   2.762   0.920
 4353SOL    HW213959   2.992   2.730   1.079
 4354SOL     OW13960   5.954   6.981   4.580
 4354SOL    HW113961   6.052   6.970   4.559
 4354SOL    HW213962   5.903   6.988   4.495
 4355SOL     OW13963   1.564   6.524   3.337
 4355SOL    HW113964   1.614   6.451   3.292
 4355SOL    HW213965   1.628   6.588   3.379
 4356SOL     OW13966   4.874   2.212   6.771
 4356SOL    HW113967   4.795   2.245   6.824
 4356SOL    HW213968   4.944   2.178   6.834
 4357SOL     OW13969   6.761   0.828   2.162
 4357SOL    HW113970   6.850   0.813   2.119
 4357SOL    HW213971   6.691   0.842   2.092
 4358SOL     OW13972   0.987   0.744   0.226
 4358SOL    HW113973   0.979   0.691   0.141
 4358SOL    HW213974   0.957   0.689   0.303
 4359SOL     OW13975   2.217   1.341   6.787
 4359SOL    HW113976   2.304   1.387   6.768
 4359SOL    HW213977   2.205   1.333   6.886
 4360SOL     OW13978   1.534   2.746   3.402
 4360SOL    HW113979   1.442   2.761   3.366
 4360SOL    HW213980   1.589   2.828   3.385
 4361SOL     OW13981   0.291   1.535   1.062
 4361SOL    HW113982   0.342   1.589   1.128
 4361SOL    HW213983   0.352   1.468   1.019
 4362SOL     OW13984   1.205   5.784   4.059
 4362SOL    HW113985   1.115   5.819   4.087
 4362SOL    HW213986   1.201   5.755   3.963
 4363SOL     OW13987   5.009   0.677   2.579
 4363SOL    HW113988   4.920   0.631   2.583
 4363SOL    HW213989   5.014   0.733   2.496
 4364SOL     OW13990   3.506   4.163   2.951
 4364SOL    HW113991   3.558   4.078   2.951
 4364SOL    HW213992   3.479   4.186   3.044
 4365SOL     OW13993   3.241   2.090   2.042
 4365SOL    HW113994   3.183   2.143   2.104
 4365SOL    HW213995   3.203   1.999   2.030
 4366SOL     OW13996   4.554   6.252   4.732
 4366SOL    HW113997   4.562   6.270   4.634
 4366SOL    HW213998   4.486   6.313   4.772
 4367SOL     OW13999   3.057   5.376   3.994
 4367SOL    HW114000   2.957   5.368   3.990
 4367SOL    HW214001   3.089   5.338   4.081
 4368SOL     OW14002   4.610   4.379   2.420
 4368SOL    HW114003   4.709   4.386   2.410
 4368SOL    HW214004   4.570   4.340   2.337
 4369SOL     OW14005   3.967   5.092   2.865
 4369SOL    HW114006   3.988   5.136   2.778
 4369SOL    HW214007   3.911   5.010   2.848
 4370SOL     OW14008   3.727   4.720   1.449
 4370SOL    HW114009   3.731   4.622   1.470
 4370SOL    HW214010   3.723   4.733   1.350
 4371SOL     OW14011   2.834   0.666   1.610
 4371SOL    HW114012   2.826   0.678   1.709
 4371SOL    HW214013   2.746   0.684   1.566
 4372SOL     OW14014   2.161   3.144   4.837
 4372SOL    HW114015   2.220   3.193   4.772
 4372SOL    HW214016   2.218   3.101   4.907
 4373SOL     OW14017   4.439   0.939   5.883
 4373SOL    HW114018   4.499   0.985   5.817
 4373SOL    HW214019   4.495   0.892   5.951
 4374SOL     OW14020   2.541   1.109   1.046
 4374SOL    HW114021   2.530   1.039   1.117
 4374SOL    HW214022   2.550   1.065   0.957
 4375SOL     OW14023   4.031   0.627   3.329
 4375SOL    HW114024   4.059   0.722   3.322
 4375SOL    HW214025   3.932   0.623   3.344
 4376SOL     OW14026   6.335   6.809   1.285
 4376SOL    HW114027   6.379   6.875   1.346
 4376SOL    HW214028   6.330   6.847   1.193
 4377SOL     OW14029   5.885   6.472   6.528
 4377SOL    HW114030   5.801   6.492   6.578
 4377SOL    HW214031   5.956   6.441   6.592
 4378SOL     OW14032   1.845   5.533   2.357
 4378SOL    HW114033   1.752   5.569   2.360
 4378SOL    HW214034   1.882   5.526   2.450
 4379SOL     OW14035   1.356   1.437   1.713
 4379SOL    HW114036   1.397   1.346   1.712
 4379SOL    HW214037   1.428   1.506   1.720
 4380SOL     OW14038   1.588   6.248   5.181
 4380SOL    HW114039   1.513   6.312   5.169
 4380SOL    HW214040   1.577   6.170   5.119
 4381SOL     OW14041   3.464   6.754   4.971
 4381SOL    HW114042   3.548   6.809   4.976
 4381SOL    HW214043   3.487   6.657   4.984
 4382SOL     OW14044   5.148   4.162   4.708
 4382SOL    HW114045   5.224   4.219   4.678
 4382SOL    HW214046   5.139   4.168   4.808
 4383SOL     OW14047   0.986   2.404   5.886
 4383SOL    HW114048   1.049   2.385   5.811
 4383SOL    HW214049   0.900   2.438   5.849
 4384SOL     OW14050   3.722   6.616   1.446
 4384SOL    HW114051   3.692   6.691   1.386
 4384SOL    HW214052   3.642   6.567   1.479
 4385SOL     OW14053   0.444   1.964   2.686
 4385SOL    HW114054   0.444   1.877   2.638
 4385SOL    HW214055   0.368   2.020   2.654
 4386SOL     OW14056   0.982   3.428   6.587
 4386SOL    HW114057   0.967   3.524   6.561
 4386SOL    HW214058   1.066   3.421   6.641
 4387SOL     OW14059   0.076   3.378   1.451
 4387SOL    HW114060   7.007   3.378   1.432
 4387SOL    HW214061   0.104   3.467   1.485
 4388SOL     OW14062   3.308   0.801   6.096
 4388SOL    HW114063   3.338   0.741   6.022
 4388SOL    HW214064   3.221   0.843   6.071
 4389SOL     OW14065   5.834   2.344   2.235
 4389SOL    HW114066   5.913   2.314   2.183
 4389SOL    HW214067   5.857   2.346   2.332
 4390SOL     OW14068   4.748   2.873   2.287
 4390SOL    HW114069   4.791   2.929   2.357
 4390SOL    HW214070   4.735   2.928   2.204
 4391SOL     OW14071   0.699   5.545   0.198
 4391SOL    HW114072   0.790   5.565   0.234
 4391SOL    HW214073   0.651   5.631   0.180
 4392SOL     OW14074   4.967   3.401   4.543
 4392SOL    HW114075   5.066   3.397   4.555
 4392SOL    HW214076   4.924   3.425   4.630
 4393SOL     OW14077   5.000   0.006   3.231
 4393SOL    HW114078   4.972   7.019   3.137
 4393SOL    HW214079   5.079   6.980   3.254
 4394SOL     OW14080   5.148   6.857   2.189
 4394SOL    HW114081   5.119   6.935   2.244
 4394SOL    HW214082   5.154   6.884   2.093
 4395SOL     OW14083   5.007   1.443   1.854
 4395SOL    HW114084   4.910   1.425   1.872
 4395SOL    HW214085   5.020   1.541   1.837
 4396SOL     OW14086   0.840   1.438   4.532
 4396SOL    HW114087   0.754   1.444   4.481
 4396SOL    HW214088   0.821   1.406   4.625
 4397SOL     OW14089   0.029   0.275   5.052
 4397SOL    HW114090   0.047   0.294   5.148
 4397SOL    HW214091   0.037   0.176   5.035
 4398SOL     OW14092   0.127   5.007   4.138
 4398SOL    HW114093   0.119   5.049   4.047
 4398SOL    HW214094   0.040   5.018   4.187
 4399SOL     OW14095   2.092   1.575   0.865
 4399SOL    HW114096   2.150   1.557   0.786
 4399SOL    HW214097   2.032   1.652   0.845
 4400SOL     OW14098   3.198   6.612   4.268
 4400SOL    HW114099   3.164   6.705   4.251
 4400SOL    HW214100   3.173   6.585   4.361
 4401SOL     OW14101   5.673   5.823   4.221
 4401SOL    HW114102   5.675   5.919   4.247
 4401SOL    HW214103   5.603   5.775   4.274
 4402SOL     OW14104   0.925   6.082   2.768
 4402SOL    HW114105   0.894   6.169   2.807
 4402SOL    HW214106   1.016   6.094   2.728
 4403SOL     OW14107   0.192   0.071   3.369
 4403SOL    HW114108   0.236   0.079   3.458
 4403SOL    HW214109   0.158   7.007   3.356
 4404SOL     OW14110   0.407   4.043   2.907
 4404SOL    HW114111   0.344   4.040   2.829
 4404SOL    HW214112   0.355   4.055   2.992
 4405SOL     OW14113   3.300   4.756   5.653
 4405SOL    HW114114   3.302   4.779   5.750
 4405SOL    HW214115   3.206   4.735   5.626
 4406SOL     OW14116   5.746   4.078   0.904
 4406SOL    HW114117   5.792   3.991   0.922
 4406SOL    HW214118   5.814   4.152   0.901
 4407SOL     OW14119   6.686   6.978   0.016
 4407SOL    HW114120   6.637   6.941   0.096
 4407SOL    HW214121   6.670   0.047   0.011
 4408SOL     OW14122   4.891   0.343   0.033
 4408SOL    HW114123   4.983   0.319   0.063
 4408SOL    HW214124   4.830   0.344   0.113
 4409SOL     OW14125   3.393   0.311   2.256
 4409SOL    HW114126   3.386   0.400   2.302
 4409SOL    HW214127   3.489   0.292   2.235
 4410SOL     OW14128   1.992   5.567   1.047
 4410SOL    HW114129   1.973   5.485   1.100
 4410SOL    HW214130   2.078   5.555   0.996
 4411SOL     OW14131   3.236   3.318   2.601
 4411SOL    HW114132   3.297   3.347   2.527
 4411SOL    HW214133   3.174   3.247   2.567
 4412SOL     OW14134   4.182   1.042   6.436
 4412SOL    HW114135   4.088   1.009   6.445
 4412SOL    HW214136   4.230   0.988   6.367
 4413SOL     OW14137   4.242   5.618   4.366
 4413SOL    HW114138   4.151   5.648   4.338
 4413SOL    HW214139   4.310   5.687   4.342
 4414SOL     OW14140   4.199   4.859   1.717
 4414SOL    HW114141   4.272   4.793   1.700
 4414SOL    HW214142   4.128   4.848   1.648
 4415SOL     OW14143   4.722   3.355   6.509
 4415SOL    HW114144   4.803   3.311   6.469
 4415SOL    HW214145   4.750   3.433   6.564
 4416SOL     OW14146   3.324   0.822   4.672
 4416SOL    HW114147   3.401   0.879   4.700
 4416SOL    HW214148   3.356   0.733   4.641
 4417SOL     OW14149   0.009   5.421   2.066
 4417SOL    HW114150   7.008   5.411   2.161
 4417SOL    HW214151   0.107   5.405   2.060
 4418SOL     OW14152   4.356   6.401   3.784
 4418SOL    HW114153   4.298   6.470   3.829
 4418SOL    HW214154   4.432   6.378   3.844
 4419SOL     OW14155   6.864   4.940   0.256
 4419SOL    HW114156   6.902   4.925   0.348
 4419SOL    HW214157   6.904   5.023   0.216
 4420SOL     OW14158   5.054   1.273   0.311
 4420SOL    HW114159   5.010   1.225   0.234
 4420SOL    HW214160   5.152   1.252   0.312
 4421SOL     OW14161   1.427   2.013   2.885
 4421SOL    HW114162   1.358   1.974   2.945
 4421SOL    HW214163   1.383   2.060   2.808
 4422SOL     OW14164   2.713   4.270   6.236
 4422SOL    HW114165   2.807   4.260   6.267
 4422SOL    HW214166   2.704   4.236   6.142
 4423SOL     OW14167   1.295   2.293   6.415
 4423SOL    HW114168   1.278   2.366   6.349
 4423SOL    HW214169   1.232   2.303   6.492
 4424SOL     OW14170   6.015   6.454   3.165
 4424SOL    HW114171   6.003   6.413   3.256
 4424SOL    HW214172   5.935   6.509   3.143
 4425SOL     OW14173   3.879   4.994   6.441
 4425SOL    HW114174   3.852   5.084   6.474
 4425SOL    HW214175   3.971   4.997   6.403
 4426SOL     OW14176   0.161   0.378   5.611
 4426SOL    HW114177   0.149   0.468   5.653
 4426SOL    HW214178   0.244   0.379   5.555
 4427SOL     OW14179   0.815   0.461   3.254
 4427SOL    HW114180   0.794   0.554   3.283
 4427SOL    HW214181   0.795   0.451   3.156
 4428SOL     OW14182   2.175   5.542   4.484
 4428SOL    HW114183   2.230   5.518   4.404
 4428SOL    HW214184   2.208   5.491   4.564
 4429SOL     OW14185   3.850   6.834   3.640
 4429SOL    HW114186   3.841   6.905   3.710
 4429SOL    HW214187   3.761   6.821   3.595
 4430SOL     OW14188   2.704   0.949   2.700
 4430SOL    HW114189   2.684   0.948   2.798
 4430SOL    HW214190   2.622   0.921   2.650
 4431SOL     OW14191   3.235   1.534   3.449
 4431SOL    HW114192   3.209   1.447   3.407
 4431SOL    HW214193   3.168   1.604   3.426
 4432SOL     OW14194   2.978   3.377   2.706
 4432SOL    HW114195   3.072   3.393   2.678
 4432SOL    HW214196   2.976   3.314   2.784
 4433SOL     OW14197   6.205   6.629   2.610
 4433SOL    HW114198   6.237   6.668   2.524
 4433SOL    HW214199   6.113   6.662   2.630
 4434SOL     OW14200   5.688   1.559   3.603
 4434SOL    HW114201   5.717   1.646   3.564
 4434SOL    HW214202   5.758   1.526   3.666
 4435SOL     OW14203   3.717   2.990   1.770
 4435SOL    HW114204   3.791   3.047   1.807
 4435SOL    HW214205   3.662   2.954   1.846
 4436SOL     OW14206   4.197   1.976   6.909
 4436SOL    HW114207   4.234   1.999   6.819
 4436SOL    HW214208   4.228   1.884   6.934
 4437SOL     OW14209   3.881   0.445   4.444
 4437SOL    HW114210   3.845   0.489   4.362
 4437SOL    HW214211   3.940   0.509   4.493
 4438SOL     OW14212   4.161   2.604   6.568
 4438SOL    HW114213   4.154   2.530   6.501
 4438SOL    HW214214   4.157   2.565   6.660
 4439SOL     OW14215   1.459   5.415   2.532
 4439SOL    HW114216   1.410   5.501   2.544
 4439SOL    HW214217   1.469   5.396   2.434
 4440SOL     OW14218   1.381   6.282   6.722
 4440SOL    HW114219   1.427   6.371   6.713
 4440SOL    HW214220   1.355   6.268   6.818
 4441SOL     OW14221   4.991   2.568   2.470
 4441SOL    HW114222   4.983   2.591   2.373
 4441SOL    HW214223   5.085   2.585   2.500
 4442SOL     OW14224   3.752   5.414   3.929
 4442SOL    HW114225   3.727   5.448   4.019
 4442SOL    HW214226   3.717   5.321   3.917
 4443SOL     OW14227   2.501   1.953   5.917
 4443SOL    HW114228   2.508   2.052   5.906
 4443SOL    HW214229   2.405   1.926   5.907
 4444SOL     OW14230   4.714   6.922   0.735
 4444SOL    HW114231   4.714   6.972   0.821
 4444SOL    HW214232   4.796   6.945   0.682
 4445SOL     OW14233   1.181   0.973   6.345
 4445SOL    HW114234   1.242   1.040   6.388
 4445SOL    HW214235   1.109   1.021   6.295
 4446SOL     OW14236   6.103   0.304   2.963
 4446SOL    HW114237   6.153   0.343   2.885
 4446SOL    HW214238   6.097   0.372   3.035
 4447SOL     OW14239   5.405   2.216   5.817
 4447SOL    HW114240   5.375   2.173   5.733
 4447SOL    HW214241   5.331   2.271   5.855
 4448SOL     OW14242   2.339   3.577   6.790
 4448SOL    HW114243   2.291   3.574   6.878
 4448SOL    HW214244   2.350   3.672   6.761
 4449SOL     OW14245   2.545   0.891   5.115
 4449SOL    HW114246   2.533   0.844   5.028
 4449SOL    HW214247   2.504   0.837   5.188
 4450SOL     OW14248   3.508   2.868   3.164
 4450SOL    HW114249   3.508   2.917   3.077
 4450SOL    HW214250   3.465   2.778   3.153
 4451SOL     OW14251   6.641   4.760   2.091
 4451SOL    HW114252   6.606   4.683   2.144
 4451SOL    HW214253   6.598   4.844   2.123
 4452SOL     OW14254   6.148   6.118   6.077
 4452SOL    HW114255   6.143   6.204   6.025
 4452SOL    HW214256   6.225   6.121   6.139
 4453SOL     OW14257   5.153   2.333   1.424
 4453SOL    HW114258   5.131   2.308   1.519
 4453SOL    HW214259   5.070   2.364   1.378
 4454SOL     OW14260   5.219   2.651   0.971
 4454SOL    HW114261   5.245   2.645   1.068
 4454SOL    HW214262   5.123   2.627   0.961
 4455SOL     OW14263   3.748   0.935   2.724
 4455SOL    HW114264   3.804   0.884   2.789
 4455SOL    HW214265   3.697   1.006   2.773
 4456SOL     OW14266   1.625   5.225   3.251
 4456SOL    HW114267   1.576   5.309   3.227
 4456SOL    HW214268   1.612   5.205   3.348
 4457SOL     OW14269   4.907   1.730   6.715
 4457SOL    HW114270   4.843   1.807   6.714
 4457SOL    HW214271   5.000   1.765   6.728
 4458SOL     OW14272   2.740   1.986   6.313
 4458SOL    HW114273   2.829   1.987   6.267
 4458SOL    HW214274   2.713   2.080   6.334
 4459SOL     OW14275   4.476   6.462   4.909
 4459SOL    HW114276   4.416   6.539   4.885
 4459SOL    HW214277   4.504   6.471   5.005
 4460SOL     OW14278   2.593   2.935   6.601
 4460SOL    HW114279   2.524   2.868   6.629
 4460SOL    HW214280   2.639   2.903   6.518
 4461SOL     OW14281   1.836   7.027   2.294
 4461SOL    HW114282   1.909   0.050   2.337
 4461SOL    HW214283   1.748   0.038   2.317
 4462SOL     OW14284   6.433   5.500   0.673
 4462SOL    HW114285   6.337   5.485   0.700
 4462SOL    HW214286   6.440   5.496   0.573
 4463SOL     OW14287   1.812   3.415   6.245
 4463SOL    HW114288   1.863   3.432   6.161
 4463SOL    HW214289   1.872   3.371   6.312
 4464SOL     OW14290   5.735   3.629   6.098
 4464SOL    HW114291   5.740   3.538   6.057
 4464SOL    HW214292   5.655   3.634   6.158
 4465SOL     OW14293   1.649   6.170   1.931
 4465SOL    HW114294   1.674   6.090   1.876
 4465SOL    HW214295   1.694   6.251   1.895
 4466SOL     OW14296   1.359   1.504   2.634
 4466SOL    HW114297   1.389   1.561   2.711
 4466SOL    HW214298   1.266   1.473   2.649
 4467SOL     OW14299   1.374   0.079   2.893
 4467SOL    HW114300   1.364   0.171   2.932
 4467SOL    HW214301   1.472   0.055   2.892
 4468SOL     OW14302   1.232   2.745   0.451
 4468SOL    HW114303   1.276   2.675   0.394
 4468SOL    HW214304   1.232   2.833   0.402
 4469SOL     OW14305   3.517   0.116   1.311
 4469SOL    HW114306   3.606   0.100   1.267
 4469SOL    HW214307   3.489   0.034   1.360
 4470SOL     OW14308   4.727   3.835   1.740
 4470SOL    HW114309   4.712   3.746   1.698
 4470SOL    HW214310   4.641   3.886   1.743
 4471SOL     OW14311   0.085   2.719   1.220
 4471SOL    HW114312   0.080   2.819   1.226
 4471SOL    HW214313   0.180   2.691   1.206
 4472SOL     OW14314   1.842   3.938   2.181
 4472SOL    HW114315   1.782   4.013   2.153
 4472SOL    HW214316   1.859   3.944   2.279
 4473SOL     OW14317   6.920   6.801   4.410
 4473SOL    HW114318   6.845   6.757   4.460
 4473SOL    HW214319   6.929   6.895   4.441
 4474SOL     OW14320   3.993   0.234   2.797
 4474SOL    HW114321   4.048   0.163   2.752
 4474SOL    HW214322   3.975   0.308   2.733
 4475SOL     OW14323   1.751   4.573   0.844
 4475SOL    HW114324   1.833   4.590   0.789
 4475SOL    HW214325   1.769   4.500   0.910
 4476SOL     OW14326   4.443   6.371   2.152
 4476SOL    HW114327   4.469   6.281   2.116
 4476SOL    HW214328   4.365   6.406   2.100
 4477SOL     OW14329   2.140   1.566   0.156
 4477SOL    HW114330   2.080   1.615   0.219
 4477SOL    HW214331   2.105   1.572   0.063
 4478SOL     OW14332   2.313   6.768   2.492
 4478SOL    HW114333   2.263   6.723   2.418
 4478SOL    HW214334   2.410   6.745   2.485
 4479SOL     OW14335   1.407   0.003   5.645
 4479SOL    HW114336   1.393   0.093   5.686
 4479SOL    HW214337   1.319   6.985   5.637
 4480SOL     OW14338   1.144   5.156   4.940
 4480SOL    HW114339   1.091   5.130   5.020
 4480SOL    HW214340   1.133   5.254   4.923
 4481SOL     OW14341   1.164   6.290   3.933
 4481SOL    HW114342   1.242   6.334   3.889
 4481SOL    HW214343   1.108   6.245   3.863
 4482SOL     OW14344   0.281   4.420   3.701
 4482SOL    HW114345   0.356   4.390   3.642
 4482SOL    HW214346   0.253   4.513   3.675
 4483SOL     OW14347   5.428   3.130   1.624
 4483SOL    HW114348   5.354   3.156   1.687
 4483SOL    HW214349   5.429   3.030   1.614
 4484SOL     OW14350   3.525   2.656   5.462
 4484SOL    HW114351   3.460   2.583   5.439
 4484SOL    HW214352   3.533   2.718   5.384
 4485SOL     OW14353   4.860   1.501   6.847
 4485SOL    HW114354   4.884   1.510   6.944
 4485SOL    HW214355   4.888   1.583   6.798
 4486SOL     OW14356   6.519   3.651   4.930
 4486SOL    HW114357   6.548   3.556   4.913
 4486SOL    HW214358   6.420   3.658   4.920
 4487SOL     OW14359   2.936   3.462   6.198
 4487SOL    HW114360   2.969   3.371   6.172
 4487SOL    HW214361   2.837   3.457   6.214
 4488SOL     OW14362   5.954   1.763   5.271
 4488SOL    HW114363   6.033   1.815   5.241
 4488SOL    HW214364   5.947   1.678   5.219
 4489SOL     OW14365   6.061   5.755   4.581
 4489SOL    HW114366   6.123   5.799   4.516
 4489SOL    HW214367   5.972   5.739   4.537
 4490SOL     OW14368   6.215   2.006   2.514
 4490SOL    HW114369   6.242   1.912   2.535
 4490SOL    HW214370   6.185   2.012   2.418
 4491SOL     OW14371   0.906   3.645   2.793
 4491SOL    HW114372   0.982   3.589   2.758
 4491SOL    HW214373   0.912   3.649   2.893
 4492SOL     OW14374   4.850   2.403   0.377
 4492SOL    HW114375   4.881   2.437   0.289
 4492SOL    HW214376   4.928   2.375   0.432
 4493SOL     OW14377   5.491   5.110   5.047
 4493SOL    HW114378   5.526   5.179   5.111
 4493SOL    HW214379   5.410   5.067   5.086
 4494SOL     OW14380   0.099   4.354   5.092
 4494SOL    HW114381   0.197   4.371   5.092
 4494SOL    HW214382   0.077   4.286   5.022
 4495SOL     OW14383   5.172   6.621   1.928
 4495SOL    HW114384   5.221   6.621   2.015
 4495SOL    HW214385   5.074   6.618   1.944
 4496SOL     OW14386   5.393   3.881   5.721
 4496SOL    HW114387   5.385   3.781   5.727
 4496SOL    HW214388   5.386   3.909   5.625
 4497SOL     OW14389   5.879   5.093   0.049
 4497SOL    HW114390   5.938   5.013   0.039
 4497SOL    HW214391   5.836   5.092   0.139
 4498SOL     OW14392   0.307   3.316   6.666
 4498SOL    HW114393   0.292   3.370   6.583
 4498SOL    HW214394   0.237   3.244   6.672
 4499SOL     OW14395   6.701   3.515   5.388
 4499SOL    HW114396   6.696   3.598   5.333
 4499SOL    HW214397   6.795   3.482   5.391
 4500SOL     OW14398   3.096   3.841   4.526
 4500SOL    HW114399   3.057   3.818   4.436
 4500SOL    HW214400   3.194   3.821   4.525
 4501SOL     OW14401   0.135   4.802   5.292
 4501SOL    HW114402   0.044   4.841   5.277
 4501SOL    HW214403   0.179   4.851   5.368
 4502SOL     OW14404   1.314   2.417   0.004
 4502SOL    HW114405   1.296   2.482   6.960
 4502SOL    HW214406   1.397   2.366   7.013
 4503SOL     OW14407   1.892   1.432   3.691
 4503SOL    HW114408   1.798   1.454   3.666
 4503SOL    HW214409   1.911   1.337   3.671
 4504SOL     OW14410   5.628   2.720   5.279
 4504SOL    HW114411   5.635   2.814   5.244
 4504SOL    HW214412   5.563   2.669   5.223
 4505SOL     OW14413   1.872   6.293   5.170
 4505SOL    HW114414   1.773   6.298   5.188
 4505SOL    HW214415   1.920   6.287   5.257
 4506SOL     OW14416   4.116   1.031   5.133
 4506SOL    HW114417   4.094   0.963   5.202
 4506SOL    HW214418   4.213   1.024   5.109
 4507SOL     OW14419   4.865   4.182   0.984
 4507SOL    HW114420   4.960   4.208   0.967
 4507SOL    HW214421   4.804   4.246   0.937
 4508SOL     OW14422   1.227   3.821   0.038
 4508SOL    HW114423   1.159   3.768   7.017
 4508SOL    HW214424   1.315   3.817   7.019
 4509SOL     OW14425   3.185   1.888   4.492
 4509SOL    HW114426   3.262   1.868   4.431
 4509SOL    HW214427   3.192   1.830   4.573
 4510SOL     OW14428   5.387   6.957   5.393
 4510SOL    HW114429   5.483   6.933   5.405
 4510SOL    HW214430   5.337   6.879   5.356
 4511SOL     OW14431   6.535   2.478   0.311
 4511SOL    HW114432   6.544   2.578   0.307
 4511SOL    HW214433   6.534   2.448   0.406
 4512SOL     OW14434   2.058   6.147   6.605
 4512SOL    HW114435   2.154   6.120   6.598
 4512SOL    HW214436   2.004   6.095   6.538
 4513SOL     OW14437   4.913   6.646   2.059
 4513SOL    HW114438   4.894   6.738   2.025
 4513SOL    HW214439   4.960   6.652   2.147
 4514SOL     OW14440   3.333   1.187   4.998
 4514SOL    HW114441   3.398   1.260   5.022
 4514SOL    HW214442   3.248   1.228   4.966
 4515SOL     OW14443   7.010   4.910   0.501
 4515SOL    HW114444   6.969   4.836   0.553
 4515SOL    HW214445   0.065   4.877   0.458
 4516SOL     OW14446   1.101   1.256   5.040
 4516SOL    HW114447   1.082   1.354   5.051
 4516SOL    HW214448   1.129   1.218   5.128
 4517SOL     OW14449   3.702   6.773   6.409
 4517SOL    HW114450   3.664   6.714   6.337
 4517SOL    HW214451   3.793   6.806   6.381
 4518SOL     OW14452   1.057   2.098   3.657
 4518SOL    HW114453   1.097   2.034   3.723
 4518SOL    HW214454   1.080   2.067   3.565
 4519SOL     OW14455   6.940   2.891   3.865
 4519SOL    HW114456   6.975   2.809   3.821
 4519SOL    HW214457   7.011   2.930   3.924
 4520SOL     OW14458   6.891   4.271   2.762
 4520SOL    HW114459   6.849   4.352   2.802
 4520SOL    HW214460   6.975   4.297   2.714
 4521SOL     OW14461   4.947   2.731   0.022
 4521SOL    HW114462   5.028   2.766   7.005
 4521SOL    HW214463   4.967   2.642   0.062
 4522SOL     OW14464   6.249   6.588   3.426
 4522SOL    HW114465   6.335   6.537   3.430
 4522SOL    HW214466   6.257   6.670   3.483
 4523SOL     OW14467   3.166   4.663   0.394
 4523SOL    HW114468   3.186   4.643   0.298
 4523SOL    HW214469   3.077   4.624   0.418
 4524SOL     OW14470   5.091   1.044   5.379
 4524SOL    HW114471   5.029   1.093   5.317
 4524SOL    HW214472   5.108   1.099   5.460
 4525SOL     OW14473   6.160   1.355   4.642
 4525SOL    HW114474   6.125   1.382   4.732
 4525SOL    HW214475   6.203   1.265   4.648
 4526SOL     OW14476   4.622   6.645   0.441
 4526SOL    HW114477   4.546   6.669   0.380
 4526SOL    HW214478   4.592   6.652   0.536
 4527SOL     OW14479   4.802   1.277   3.086
 4527SOL    HW114480   4.804   1.212   3.162
 4527SOL    HW214481   4.853   1.239   3.009
 4528SOL     OW14482   5.686   7.019   0.409
 4528SOL    HW114483   5.783   7.007   0.391
 4528SOL    HW214484   5.654   0.075   0.369
 4529SOL     OW14485   3.050   0.183   3.086
 4529SOL    HW114486   2.981   0.159   3.154
 4529SOL    HW214487   3.114   0.250   3.124
 4530SOL     OW14488   0.468   3.444   5.078
 4530SOL    HW114489   0.469   3.345   5.068
 4530SOL    HW214490   0.442   3.486   4.991
 4531SOL     OW14491   0.815   3.214   3.712
 4531SOL    HW114492   0.870   3.290   3.748
 4531SOL    HW214493   0.865   3.170   3.638
 4532SOL     OW14494   6.230   1.117   1.047
 4532SOL    HW114495   6.301   1.113   0.977
 4532SOL    HW214496   6.142   1.090   1.009
 4533SOL     OW14497   1.543   6.658   2.965
 4533SOL    HW114498   1.601   6.590   3.010
 4533SOL    HW214499   1.524   6.629   2.871
 4534SOL     OW14500   6.635   4.094   5.128
 4534SOL    HW114501   6.574   4.018   5.150
 4534SOL    HW214502   6.591   4.181   5.154
 4535SOL     OW14503   5.142   3.330   2.013
 4535SOL    HW114504   5.064   3.284   2.055
 4535SOL    HW214505   5.167   3.283   1.929
 4536SOL     OW14506   5.568   1.243   4.669
 4536SOL    HW114507   5.593   1.334   4.703
 4536SOL    HW214508   5.645   1.181   4.680
 4537SOL     OW14509   4.050   3.144   0.027
 4537SOL    HW114510   4.011   3.211   0.090
 4537SOL    HW214511   4.076   3.189   6.971
 4538SOL     OW14512   3.305   1.841   2.954
 4538SOL    HW114513   3.254   1.816   3.037
 4538SOL    HW214514   3.393   1.793   2.954
 4539SOL     OW14515   2.150   2.031   3.508
 4539SOL    HW114516   2.193   2.109   3.462
 4539SOL    HW214517   2.195   1.946   3.481
 4540SOL     OW14518   3.220   3.171   4.559
 4540SOL    HW114519   3.278   3.131   4.630
 4540SOL    HW214520   3.215   3.270   4.572
 4541SOL     OW14521   4.899   1.837   0.640
 4541SOL    HW114522   4.919   1.918   0.586
 4541SOL    HW214523   4.968   1.767   0.621
 4542SOL     OW14524   6.167   6.195   2.221
 4542SOL    HW114525   6.190   6.101   2.197
 4542SOL    HW214526   6.228   6.226   2.294
 4543SOL     OW14527   5.133   1.732   0.903
 4543SOL    HW114528   5.045   1.771   0.928
 4543SOL    HW214529   5.180   1.794   0.840
 4544SOL     OW14530   2.979   5.794   0.009
 4544SOL    HW114531   2.994   5.812   6.941
 4544SOL    HW214532   2.984   5.880   0.060
 4545SOL     OW14533   4.042   2.174   5.494
 4545SOL    HW114534   4.101   2.113   5.547
 4545SOL    HW214535   4.099   2.244   5.450
 4546SOL     OW14536   0.796   6.923   6.936
 4546SOL    HW114537   0.760   6.831   6.953
 4546SOL    HW214538   0.874   6.939   6.997
 4547SOL     OW14539   5.716   2.569   1.330
 4547SOL    HW114540   5.697   2.507   1.406
 4547SOL    HW214541   5.717   2.663   1.363
 4548SOL     OW14542   0.497   4.298   3.601
 4548SOL    HW114543   0.521   4.201   3.601
 4548SOL    HW214544   0.529   4.340   3.516
 4549SOL     OW14545   6.751   3.499   3.023
 4549SOL    HW114546   6.654   3.497   3.047
 4549SOL    HW214547   6.806   3.478   3.104
 4550SOL     OW14548   0.982   5.888   3.181
 4550SOL    HW114549   0.894   5.847   3.159
 4550SOL    HW214550   1.006   5.866   3.275
 4551SOL     OW14551   0.778   2.911   5.239
 4551SOL    HW114552   0.783   3.009   5.256
 4551SOL    HW214553   0.700   2.872   5.288
 4552SOL     OW14554   0.616   3.168   4.820
 4552SOL    HW114555   0.543   3.107   4.788
 4552SOL    HW214556   0.602   3.189   4.916
 4553SOL     OW14557   4.531   4.976   0.548
 4553SOL    HW114558   4.569   4.911   0.614
 4553SOL    HW214559   4.551   4.944   0.455
 4554SOL     OW14560   3.935   6.854   3.138
 4554SOL    HW114561   3.904   6.820   3.049
 4554SOL    HW214562   3.940   6.778   3.203
 4555SOL     OW14563   4.559   2.017   6.899
 4555SOL    HW114564   4.500   2.011   6.979
 4555SOL    HW214565   4.613   2.101   6.904
 4556SOL     OW14566   4.409   0.200   3.698
 4556SOL    HW114567   4.313   0.207   3.670
 4556SOL    HW214568   4.465   0.259   3.640
 4557SOL     OW14569   5.590   0.041   5.715
 4557SOL    HW114570   5.608   0.035   5.814
 4557SOL    HW214571   5.661   0.097   5.672
 4558SOL     OW14572   6.344   3.606   6.403
 4558SOL    HW114573   6.246   3.593   6.389
 4558SOL    HW214574   6.362   3.633   6.497
 4559SOL     OW14575   1.491   6.606   1.438
 4559SOL    HW114576   1.480   6.681   1.503
 4559SOL    HW214577   1.511   6.644   1.347
 4560SOL     OW14578   5.482   3.113   2.608
 4560SOL    HW114579   5.432   3.160   2.536
 4560SOL    HW214580   5.580   3.127   2.595
 4561SOL     OW14581   2.924   1.127   6.831
 4561SOL    HW114582   2.997   1.185   6.795
 4561SOL    HW214583   2.875   1.084   6.755
 4562SOL     OW14584   2.983   5.954   6.527
 4562SOL    HW114585   2.924   5.893   6.473
 4562SOL    HW214586   3.004   6.035   6.473
 4563SOL     OW14587   5.332   1.461   0.666
 4563SOL    HW114588   5.346   1.363   0.676
 4563SOL    HW214589   5.355   1.508   0.751
 4564SOL     OW14590   1.124   5.885   0.237
 4564SOL    HW114591   1.034   5.891   0.281
 4564SOL    HW214592   1.123   5.938   0.152
 4565SOL     OW14593   0.374   1.053   5.186
 4565SOL    HW114594   0.422   1.074   5.101
 4565SOL    HW214595   0.321   0.969   5.175
 4566SOL     OW14596   0.460   0.584   6.507
 4566SOL    HW114597   0.551   0.560   6.541
 4566SOL    HW214598   0.467   0.616   6.413
 4567SOL     OW14599   6.555   1.513   0.672
 4567SOL    HW114600   6.520   1.542   0.761
 4567SOL    HW214601   6.650   1.485   0.681
 4568SOL     OW14602   3.215   4.388   5.508
 4568SOL    HW114603   3.245   4.306   5.555
 4568SOL    HW214604   3.154   4.440   5.568
 4569SOL     OW14605   1.493   1.631   4.424
 4569SOL    HW114606   1.444   1.717   4.438
 4569SOL    HW214607   1.451   1.582   4.348
 4570SOL     OW14608   0.152   5.946   3.350
 4570SOL    HW114609   0.143   5.859   3.302
 4570SOL    HW214610   0.114   6.020   3.294
 4571SOL     OW14611   2.863   3.571   4.355
 4571SOL    HW114612   2.903   3.489   4.396
 4571SOL    HW214613   2.766   3.556   4.339
 4572SOL     OW14614   1.086   6.897   1.263
 4572SOL    HW114615   1.145   6.959   1.315
 4572SOL    HW214616   1.136   6.815   1.238
 4573SOL     OW14617   5.948   5.762   1.192
 4573SOL    HW114618   5.881   5.829   1.158
 4573SOL    HW214619   6.038   5.782   1.153
 4574SOL     OW14620   7.004   4.367   1.480
 4574SOL    HW114621   0.004   4.274   1.459
 4574SOL    HW214622   6.928   4.393   1.420
 4575SOL     OW14623   6.510   1.506   1.338
 4575SOL    HW114624   6.471   1.414   1.337
 4575SOL    HW214625   6.463   1.561   1.407
 4576SOL     OW14626   3.039   5.803   6.751
 4576SOL    HW114627   3.053   5.831   6.656
 4576SOL    HW214628   3.123   5.817   6.803
 4577SOL     OW14629   1.033   3.480   3.288
 4577SOL    HW114630   1.121   3.528   3.281
 4577SOL    HW214631   1.028   3.433   3.376
 4578SOL     OW14632   0.286   3.147   3.405
 4578SOL    HW114633   0.301   3.207   3.326
 4578SOL    HW214634   0.198   3.100   3.394
 4579SOL     OW14635   5.263   1.741   3.077
 4579SOL    HW114636   5.244   1.802   3.153
 4579SOL    HW214637   5.328   1.784   3.015
 4580SOL     OW14638   5.763   5.897   0.664
 4580SOL    HW114639   5.728   5.928   0.576
 4580SOL    HW214640   5.769   5.797   0.665
 4581SOL     OW14641   3.321   5.493   3.497
 4581SOL    HW114642   3.397   5.475   3.435
 4581SOL    HW214643   3.270   5.573   3.466
 4582SOL     OW14644   5.123   6.454   3.166
 4582SOL    HW114645   5.183   6.528   3.196
 4582SOL    HW214646   5.052   6.438   3.236
 4583SOL     OW14647   2.605   1.925   5.632
 4583SOL    HW114648   2.540   1.898   5.703
 4583SOL    HW214649   2.560   1.989   5.569
 4584SOL     OW14650   0.262   5.546   6.018
 4584SOL    HW114651   0.323   5.471   5.991
 4584SOL    HW214652   0.225   5.527   6.109
 4585SOL     OW14653   3.362   6.010   3.241
 4585SOL    HW114654   3.458   6.036   3.246
 4585SOL    HW214655   3.316   6.038   3.326
 4586SOL     OW14656   3.588   5.818   1.906
 4586SOL    HW114657   3.491   5.811   1.881
 4586SOL    HW214658   3.619   5.731   1.945
 4587SOL     OW14659   3.099   3.082   1.229
 4587SOL    HW114660   3.003   3.084   1.256
 4587SOL    HW214661   3.156   3.062   1.309
 4588SOL     OW14662   4.146   3.520   5.093
 4588SOL    HW114663   4.227   3.503   5.149
 4588SOL    HW214664   4.127   3.618   5.091
 4589SOL     OW14665   6.022   2.439   3.179
 4589SOL    HW114666   5.943   2.422   3.121
 4589SOL    HW214667   6.033   2.364   3.244
 4590SOL     OW14668   4.617   5.108   2.382
 4590SOL    HW114669   4.542   5.093   2.447
 4590SOL    HW214670   4.667   5.023   2.369
 4591SOL     OW14671   6.268   5.545   5.634
 4591SOL    HW114672   6.345   5.495   5.674
 4591SOL    HW214673   6.243   5.503   5.546
 4592SOL     OW14674   3.944   2.550   0.402
 4592SOL    HW114675   4.012   2.617   0.369
 4592SOL    HW214676   3.882   2.527   0.327
 4593SOL     OW14677   3.926   6.217   2.855
 4593SOL    HW114678   3.893   6.253   2.767
 4593SOL    HW214679   3.887   6.127   2.871
 4594SOL     OW14680   2.832   1.386   1.748
 4594SOL    HW114681   2.883   1.403   1.832
 4594SOL    HW214682   2.893   1.389   1.669
 4595SOL     OW14683   3.757   3.195   6.513
 4595SOL    HW114684   3.751   3.097   6.533
 4595SOL    HW214685   3.771   3.208   6.415
 4596SOL     OW14686   5.933   6.553   2.306
 4596SOL    HW114687   6.001   6.561   2.233
 4596SOL    HW214688   5.907   6.645   2.336
 4597SOL     OW14689   5.451   4.155   6.082
 4597SOL    HW114690   5.413   4.233   6.131
 4597SOL    HW214691   5.550   4.164   6.074
 4598SOL     OW14692   2.078   5.091   6.779
 4598SOL    HW114693   2.091   5.174   6.833
 4598SOL    HW214694   2.044   5.115   6.688
 4599SOL     OW14695   1.648   4.729   1.244
 4599SOL    HW114696   1.676   4.636   1.219
 4599SOL    HW214697   1.634   4.783   1.161
 4600SOL     OW14698   3.042   5.787   0.649
 4600SOL    HW114699   3.036   5.702   0.598
 4600SOL    HW214700   3.094   5.854   0.596
 4601SOL     OW14701   2.220   1.254   4.969
 4601SOL    HW114702   2.265   1.204   5.042
 4601SOL    HW214703   2.209   1.194   4.889
 4602SOL     OW14704   1.926   0.038   1.673
 4602SOL    HW114705   1.862   0.041   1.596
 4602SOL    HW214706   1.878   0.061   1.757
 4603SOL     OW14707   3.023   6.686   1.909
 4603SOL    HW114708   2.958   6.626   1.955
 4603SOL    HW214709   3.063   6.637   1.831
 4604SOL     OW14710   3.619   0.175   2.221
 4604SOL    HW114711   3.597   0.120   2.301
 4604SOL    HW214712   3.634   0.115   2.142
 4605SOL     OW14713   4.953   0.804   4.840
 4605SOL    HW114714   4.949   0.750   4.924
 4605SOL    HW214715   5.025   0.874   4.849
 4606SOL     OW14716   6.554   6.530   4.753
 4606SOL    HW114717   6.644   6.513   4.713
 4606SOL    HW214718   6.534   6.459   4.820
 4607SOL     OW14719   3.027   1.363   1.578
 4607SOL    HW114720   3.105   1.308   1.607
 4607SOL    HW214721   3.059   1.455   1.554
 4608SOL     OW14722   1.651   5.253   5.163
 4608SOL    HW114723   1.558   5.239   5.129
 4608SOL    HW214724   1.696   5.165   5.175
 4609SOL     OW14725   5.185   6.410   6.866
 4609SOL    HW114726   5.127   6.343   6.819
 4609SOL    HW214727   5.242   6.456   6.799
 4610SOL     OW14728   0.415   2.332   6.839
 4610SOL    HW114729   0.357   2.352   6.918
 4610SOL    HW214730   0.383   2.385   6.760
 4611SOL     OW14731   0.545   3.635   6.788
 4611SOL    HW114732   0.445   3.628   6.786
 4611SOL    HW214733   0.575   3.655   6.881
 4612SOL     OW14734   1.697   6.175   6.282
 4612SOL    HW114735   1.672   6.216   6.370
 4612SOL    HW214736   1.616   6.141   6.236
 4613SOL     OW14737   3.339   5.615   2.894
 4613SOL    HW114738   3.250   5.610   2.938
 4613SOL    HW214739   3.368   5.711   2.888
 4614SOL     OW14740   1.859   5.563   0.035
 4614SOL    HW114741   1.769   5.605   0.019
 4614SOL    HW214742   1.931   5.632   0.024
 4615SOL     OW14743   1.599   1.880   0.144
 4615SOL    HW114744   1.553   1.849   0.227
 4615SOL    HW214745   1.565   1.829   0.066
 4616SOL     OW14746   5.990   0.256   6.528
 4616SOL    HW114747   6.015   0.170   6.482
 4616SOL    HW214748   5.951   0.319   6.461
 4617SOL     OW14749   0.751   2.875   2.097
 4617SOL    HW114750   0.704   2.820   2.028
 4617SOL    HW214751   0.847   2.884   2.073
 4618SOL     OW14752   0.751   2.645   5.963
 4618SOL    HW114753   0.710   2.698   6.037
 4618SOL    HW214754   0.703   2.665   5.878
 4619SOL     OW14755   4.791   0.905   4.132
 4619SOL    HW114756   4.856   0.947   4.196
 4619SOL    HW214757   4.773   0.811   4.162
 4620SOL     OW14758   2.989   4.487   6.896
 4620SOL    HW114759   2.928   4.407   6.899
 4620SOL    HW214760   3.069   4.470   6.954
 4621SOL     OW14761   0.195   1.057   4.915
 4621SOL    HW114762   0.221   1.011   4.830
 4621SOL    HW214763   0.164   1.150   4.893
 4622SOL     OW14764   2.009   3.560   0.425
 4622SOL    HW114765   2.030   3.653   0.458
 4622SOL    HW214766   1.976   3.505   0.502
 4623SOL     OW14767   6.919   4.870   1.154
 4623SOL    HW114768   6.996   4.871   1.219
 4623SOL    HW214769   6.833   4.875   1.204
 4624SOL     OW14770   4.491   0.663   4.324
 4624SOL    HW114771   4.591   0.663   4.327
 4624SOL    HW214772   4.455   0.676   4.417
 4625SOL     OW14773   1.075   4.138   6.904
 4625SOL    HW114774   1.001   4.095   6.955
 4625SOL    HW214775   1.049   4.148   6.808
 4626SOL     OW14776   6.539   4.681   1.856
 4626SOL    HW114777   6.577   4.715   1.943
 4626SOL    HW214778   6.444   4.712   1.847
 4627SOL     OW14779   3.510   5.848   5.346
 4627SOL    HW114780   3.543   5.769   5.295
 4627SOL    HW214781   3.588   5.894   5.391
 4628SOL     OW14782   6.273   4.770   2.026
 4628SOL    HW114783   6.229   4.726   2.104
 4628SOL    HW214784   6.205   4.790   1.955
 4629SOL     OW14785   2.086   5.111   5.468
 4629SOL    HW114786   2.158   5.045   5.487
 4629SOL    HW214787   2.126   5.193   5.426
 4630SOL     OW14788   2.127   5.599   3.216
 4630SOL    HW114789   2.179   5.594   3.301
 4630SOL    HW214790   2.138   5.514   3.165
 4631SOL     OW14791   3.125   6.443   3.514
 4631SOL    HW114792   3.176   6.509   3.459
 4631SOL    HW214793   3.072   6.383   3.453
 4632SOL     OW14794   4.658   5.500   4.356
 4632SOL    HW114795   4.651   5.495   4.456
 4632SOL    HW214796   4.751   5.526   4.330
 4633SOL     OW14797   6.452   1.720   5.018
 4633SOL    HW114798   6.501   1.637   5.046
 4633SOL    HW214799   6.516   1.795   5.006
 4634SOL     OW14800   2.699   4.742   0.543
 4634SOL    HW114801   2.611   4.789   0.553
 4634SOL    HW214802   2.752   4.753   0.627
 4635SOL     OW14803   5.129   3.113   2.523
 4635SOL    HW114804   5.078   3.068   2.450
 4635SOL    HW214805   5.068   3.174   2.574
 4636SOL     OW14806   2.612   5.764   0.908
 4636SOL    HW114807   2.682   5.789   0.841
 4636SOL    HW214808   2.636   5.802   0.997
 4637SOL     OW14809   1.051   0.407   5.922
 4637SOL    HW114810   0.983   0.460   5.872
 4637SOL    HW214811   1.139   0.454   5.919
 4638SOL     OW14812   4.194   3.218   5.970
 4638SOL    HW114813   4.234   3.300   6.010
 4638SOL    HW214814   4.118   3.242   5.910
 4639SOL     OW14815   0.831   4.212   5.912
 4639SOL    HW114816   0.903   4.221   5.843
 4639SOL    HW214817   0.749   4.259   5.881
 4640SOL     OW14818   5.254   4.354   2.726
 4640SOL    HW114819   5.249   4.345   2.825
 4640SOL    HW214820   5.322   4.290   2.690
 4641SOL     OW14821   2.794   4.762   4.458
 4641SOL    HW114822   2.714   4.718   4.416
 4641SOL    HW214823   2.776   4.860   4.468
 4642SOL     OW14824   6.267   5.854   4.421
 4642SOL    HW114825   6.334   5.781   4.435
 4642SOL    HW214826   6.307   5.942   4.446
 4643SOL     OW14827   3.917   2.458   1.710
 4643SOL    HW114828   3.966   2.407   1.782
 4643SOL    HW214829   3.820   2.464   1.734
 4644SOL     OW14830   1.340   6.546   4.589
 4644SOL    HW114831   1.247   6.567   4.559
 4644SOL    HW214832   1.388   6.495   4.517
 4645SOL     OW14833   2.194   6.457   4.321
 4645SOL    HW114834   2.195   6.363   4.288
 4645SOL    HW214835   2.250   6.464   4.404
 4646SOL     OW14836   2.972   0.351   2.351
 4646SOL    HW114837   3.008   0.356   2.258
 4646SOL    HW214838   2.872   0.348   2.348
 4647SOL     OW14839   0.002   0.406   4.001
 4647SOL    HW114840   0.080   0.375   3.947
 4647SOL    HW214841   6.976   0.327   4.028
 4648SOL     OW14842   2.511   5.795   2.569
 4648SOL    HW114843   2.470   5.808   2.659
 4648SOL    HW214844   2.610   5.805   2.575
 4649SOL     OW14845   5.453   1.152   5.698
 4649SOL    HW114846   5.479   1.249   5.698
 4649SOL    HW214847   5.485   1.108   5.782
 4650SOL     OW14848   4.923   6.204   2.686
 4650SOL    HW114849   4.838   6.154   2.707
 4650SOL    HW214850   4.908   6.302   2.702
 4651SOL     OW14851   6.979   1.795   1.530
 4651SOL    HW114852   7.014   1.877   1.576
 4651SOL    HW214853   6.991   1.805   1.431
 4652SOL     OW14854   6.869   0.571   4.569
 4652SOL    HW114855   6.774   0.573   4.599
 4652SOL    HW214856   6.925   0.529   4.641
 4653SOL     OW14857   6.676   6.345   0.080
 4653SOL    HW114858   6.622   6.384   0.155
 4653SOL    HW214859   6.744   6.412   0.050
 4654SOL     OW14860   0.671   0.197   0.837
 4654SOL    HW114861   0.580   0.159   0.820
 4654SOL    HW214862   0.697   0.257   0.761
 4655SOL     OW14863   0.176   4.183   2.772
 4655SOL    HW114864   0.171   4.277   2.739
 4655SOL    HW214865   0.172   4.183   2.872
 4656SOL     OW14866   0.900   0.844   3.117
 4656SOL    HW114867   0.845   0.802   3.189
 4656SOL    HW214868   0.847   0.916   3.072
 4657SOL     OW14869   5.134   6.598   1.658
 4657SOL    HW114870   5.150   6.607   1.756
 4657SOL    HW214871   5.094   6.682   1.623
 4658SOL     OW14872   4.409   0.167   2.799
 4658SOL    HW114873   4.420   0.104   2.876
 4658SOL    HW214874   4.365   0.251   2.830
 4659SOL     OW14875   1.945   2.720   4.893
 4659SOL    HW114876   1.947   2.774   4.809
 4659SOL    HW214877   1.973   2.626   4.873
 4660SOL     OW14878   0.091   1.654   5.789
 4660SOL    HW114879   0.107   1.562   5.823
 4660SOL    HW214880   0.089   1.718   5.866
 4661SOL     OW14881   3.567   4.173   4.809
 4661SOL    HW114882   3.592   4.184   4.905
 4661SOL    HW214883   3.472   4.142   4.803
 4662SOL     OW14884   5.461   0.853   5.690
 4662SOL    HW114885   5.371   0.893   5.706
 4662SOL    HW214886   5.452   0.772   5.632
 4663SOL     OW14887   0.163   2.191   2.111
 4663SOL    HW114888   0.234   2.204   2.179
 4663SOL    HW214889   0.108   2.274   2.103
 4664SOL     OW14890   3.070   2.675   6.844
 4664SOL    HW114891   3.089   2.773   6.835
 4664SOL    HW214892   3.060   2.652   6.941
 4665SOL     OW14893   5.068   0.162   6.789
 4665SOL    HW114894   5.058   0.109   6.873
 4665SOL    HW214895   5.011   0.122   6.717
 4666SOL     OW14896   2.260   1.984   0.166
 4666SOL    HW114897   2.339   2.017   0.219
 4666SOL    HW214898   2.195   1.940   0.228
 4667SOL     OW14899   0.062   5.070   6.961
 4667SOL    HW114900   0.030   5.111   6.875
 4667SOL    HW214901   0.056   4.970   6.955
 4668SOL     OW14902   6.639   1.429   4.934
 4668SOL    HW114903   6.571   1.383   4.991
 4668SOL    HW214904   6.729   1.419   4.975
 4669SOL     OW14905   1.778   6.838   0.348
 4669SOL    HW114906   1.742   6.851   0.440
 4669SOL    HW214907   1.703   6.822   0.284
 4670SOL     OW14908   2.112   1.784   5.212
 4670SOL    HW114909   2.169   1.845   5.267
 4670SOL    HW214910   2.044   1.838   5.162
 4671SOL     OW14911   5.890   2.789   1.614
 4671SOL    HW114912   5.976   2.834   1.588
 4671SOL    HW214913   5.910   2.702   1.659
 4672SOL     OW14914   1.975   4.160   6.383
 4672SOL    HW114915   2.061   4.118   6.353
 4672SOL    HW214916   1.919   4.183   6.303
 4673SOL     OW14917   2.897   0.749   2.492
 4673SOL    HW114918   2.905   0.811   2.413
 4673SOL    HW214919   2.895   0.803   2.576
 4674SOL     OW14920   4.695   5.960   5.095
 4674SOL    HW114921   4.640   5.928   5.172
 4674SOL    HW214922   4.746   6.042   5.121
 4675SOL     OW14923   1.090   4.143   0.466
 4675SOL    HW114924   1.078   4.055   0.512
 4675SOL    HW214925   1.112   4.128   0.370
 4676SOL     OW14926   1.708   5.825   3.444
 4676SOL    HW114927   1.781   5.756   3.450
 4676SOL    HW214928   1.748   5.916   3.452
 4677SOL     OW14929   1.874   2.240   0.234
 4677SOL    HW114930   1.843   2.282   0.319
 4677SOL    HW214931   1.966   2.272   0.212
 4678SOL     OW14932   1.741   4.281   2.915
 4678SOL    HW114933   1.686   4.332   2.980
 4678SOL    HW214934   1.815   4.234   2.962
 4679SOL     OW14935   5.489   6.435   1.490
 4679SOL    HW114936   5.465   6.340   1.510
 4679SOL    HW214937   5.412   6.480   1.447
 4680SOL     OW14938   2.726   1.514   1.314
 4680SOL    HW114939   2.712   1.521   1.412
 4680SOL    HW214940   2.674   1.437   1.278
 4681SOL     OW14941   5.596   4.211   0.714
 4681SOL    HW114942   5.616   4.153   0.635
 4681SOL    HW214943   5.610   4.158   0.798
 4682SOL     OW14944   4.777   3.574   6.162
 4682SOL    HW114945   4.830   3.642   6.111
 4682SOL    HW214946   4.833   3.492   6.176
 4683SOL     OW14947   5.822   4.544   3.900
 4683SOL    HW114948   5.838   4.491   3.818
 4683SOL    HW214949   5.723   4.554   3.915
 4684SOL     OW14950   4.537   6.484   0.209
 4684SOL    HW114951   4.617   6.540   0.186
 4684SOL    HW214952   4.471   6.539   0.260
 4685SOL     OW14953   2.417   3.614   6.012
 4685SOL    HW114954   2.387   3.543   5.948
 4685SOL    HW214955   2.394   3.704   5.974
 4686SOL     OW14956   3.630   6.150   0.830
 4686SOL    HW114957   3.723   6.135   0.864
 4686SOL    HW214958   3.564   6.126   0.901
 4687SOL     OW14959   3.041   1.281   2.802
 4687SOL    HW114960   2.958   1.336   2.792
 4687SOL    HW214961   3.121   1.338   2.784
 4688SOL     OW14962   5.187   2.391   5.911
 4688SOL    HW114963   5.134   2.475   5.926
 4688SOL    HW214964   5.125   2.315   5.892
 4689SOL     OW14965   5.572   0.595   0.706
 4689SOL    HW114966   5.554   0.619   0.802
 4689SOL    HW214967   5.656   0.541   0.701
 4690SOL     OW14968   2.180   1.323   0.944
 4690SOL    HW114969   2.120   1.403   0.949
 4690SOL    HW214970   2.276   1.353   0.941
 4691SOL     OW14971   5.294   4.297   0.491
 4691SOL    HW114972   5.323   4.213   0.444
 4691SOL    HW214973   5.372   4.340   0.535
 4692SOL     OW14974   6.607   4.758   3.026
 4692SOL    HW114975   6.635   4.780   3.119
 4692SOL    HW214976   6.569   4.665   3.023
 4693SOL     OW14977   1.577   0.934   3.446
 4693SOL    HW114978   1.500   0.989   3.480
 4693SOL    HW214979   1.632   0.989   3.384
 4694SOL     OW14980   2.675   1.079   0.497
 4694SOL    HW114981   2.677   1.150   0.567
 4694SOL    HW214982   2.767   1.040   0.486
 4695SOL     OW14983   1.428   5.686   0.574
 4695SOL    HW114984   1.469   5.606   0.618
 4695SOL    HW214985   1.477   5.768   0.602
 4696SOL     OW14986   1.469   5.311   6.033
 4696SOL    HW114987   1.388   5.252   6.026
 4696SOL    HW214988   1.491   5.326   6.129
 4697SOL     OW14989   1.920   4.163   0.894
 4697SOL    HW114990   1.959   4.122   0.812
 4697SOL    HW214991   1.955   4.257   0.904
 4698SOL     OW14992   4.820   0.492   3.243
 4698SOL    HW114993   4.858   0.401   3.262
 4698SOL    HW214994   4.740   0.483   3.183
 4699SOL     OW14995   0.441   0.814   2.282
 4699SOL    HW114996   0.344   0.798   2.260
 4699SOL    HW214997   0.496   0.801   2.199
 4700SOL     OW14998   6.346   2.291   3.101
 4700SOL    HW114999   6.276   2.222   3.118
 4700SOL    HW215000   6.319   2.347   3.022
 4701SOL     OW15001   3.284   2.103   1.768
 4701SOL    HW115002   3.377   2.090   1.735
 4701SOL    HW215003   3.282   2.095   1.868
 4702SOL     OW15004   5.159   5.070   6.753
 4702SOL    HW115005   5.250   5.108   6.768
 4702SOL    HW215006   5.129   5.092   6.660
 4703SOL     OW15007   1.127   4.619   2.589
 4703SOL    HW115008   1.198   4.567   2.637
 4703SOL    HW215009   1.092   4.566   2.512
 4704SOL     OW15010   6.900   6.003   5.900
 4704SOL    HW115011   6.840   5.923   5.911
 4704SOL    HW215012   6.860   6.081   5.948
 4705SOL     OW15013   3.075   2.612   1.387
 4705SOL    HW115014   3.098   2.589   1.481
 4705SOL    HW215015   3.154   2.653   1.342
 4706SOL     OW15016   1.108   0.207   0.982
 4706SOL    HW115017   1.116   0.129   0.921
 4706SOL    HW215018   1.051   0.183   1.060
 4707SOL     OW15019   1.414   6.200   1.137
 4707SOL    HW115020   1.470   6.212   1.219
 4707SOL    HW215021   1.357   6.281   1.125
 4708SOL     OW15022   1.345   2.381   4.257
 4708SOL    HW115023   1.360   2.319   4.179
 4708SOL    HW215024   1.287   2.457   4.228
 4709SOL     OW15025   5.162   4.187   4.995
 4709SOL    HW115026   5.150   4.101   5.044
 4709SOL    HW215027   5.095   4.254   5.028
 4710SOL     OW15028   5.406   6.453   4.810
 4710SOL    HW115029   5.428   6.551   4.813
 4710SOL    HW215030   5.428   6.411   4.899
 4711SOL     OW15031   5.942   3.199   3.146
 4711SOL    HW115032   5.903   3.108   3.164
 4711SOL    HW215033   6.041   3.194   3.153
 4712SOL     OW15034   4.518   4.577   5.469
 4712SOL    HW115035   4.598   4.551   5.523
 4712SOL    HW215036   4.439   4.521   5.495
 4713SOL     OW15037   5.734   4.448   0.613
 4713SOL    HW115038   5.707   4.391   0.691
 4713SOL    HW215039   5.679   4.424   0.533
 4714SOL     OW15040   6.545   1.864   6.250
 4714SOL    HW115041   6.583   1.838   6.339
 4714SOL    HW215042   6.576   1.956   6.226
 4715SOL     OW15043   6.463   1.694   2.353
 4715SOL    HW115044   6.435   1.604   2.386
 4715SOL    HW215045   6.382   1.749   2.331
 4716SOL     OW15046   3.912   5.511   5.545
 4716SOL    HW115047   3.950   5.418   5.548
 4716SOL    HW215048   3.986   5.576   5.563
 4717SOL     OW15049   2.977   5.351   5.651
 4717SOL    HW115050   2.924   5.364   5.568
 4717SOL    HW215051   3.021   5.262   5.649
 4718SOL     OW15052   5.377   3.226   0.773
 4718SOL    HW115053   5.449   3.266   0.831
 4718SOL    HW215054   5.379   3.270   0.683
 4719SOL     OW15055   6.236   3.260   3.220
 4719SOL    HW115056   6.274   3.324   3.153
 4719SOL    HW215057   6.198   3.311   3.297
 4720SOL     OW15058   3.047   5.228   0.028
 4720SOL    HW115059   3.106   5.150   0.006
 4720SOL    HW215060   3.088   5.311   7.019
 4721SOL     OW15061   6.699   3.517   1.625
 4721SOL    HW115062   6.769   3.589   1.624
 4721SOL    HW215063   6.734   3.436   1.672
 4722SOL     OW15064   1.008   4.479   6.616
 4722SOL    HW115065   1.092   4.458   6.565
 4722SOL    HW215066   0.945   4.402   6.610
 4723SOL     OW15067   3.936   4.505   5.739
 4723SOL    HW115068   3.965   4.592   5.698
 4723SOL    HW215069   3.945   4.432   5.671
 4724SOL     OW15070   0.281   6.380   4.034
 4724SOL    HW115071   0.286   6.429   3.947
 4724SOL    HW215072   0.198   6.324   4.035
 4725SOL     OW15073   5.472   4.741   0.729
 4725SOL    HW115074   5.406   4.814   0.747
 4725SOL    HW215075   5.435   4.653   0.760
 4726SOL     OW15076   2.048   3.063   5.963
 4726SOL    HW115077   2.079   2.981   5.915
 4726SOL    HW215078   2.067   3.053   6.061
 4727SOL     OW15079   0.584   5.693   0.994
 4727SOL    HW115080   0.615   5.777   0.948
 4727SOL    HW215081   0.646   5.618   0.972
 4728SOL     OW15082   6.001   1.080   2.607
 4728SOL    HW115083   5.924   1.136   2.576
 4728SOL    HW215084   5.978   1.038   2.695
 4729SOL     OW15085   5.780   0.521   0.299
 4729SOL    HW115086   5.813   0.562   0.214
 4729SOL    HW215087   5.680   0.518   0.298
 4730SOL     OW15088   3.304   6.761   4.611
 4730SOL    HW115089   3.240   6.716   4.673
 4730SOL    HW215090   3.344   6.693   4.550
 4731SOL     OW15091   2.937   0.029   0.824
 4731SOL    HW115092   3.033   0.019   0.849
 4731SOL    HW215093   2.928   0.093   0.748
 4732SOL     OW15094   0.312   4.203   4.512
 4732SOL    HW115095   0.356   4.224   4.599
 4732SOL    HW215096   0.315   4.284   4.453
 4733SOL     OW15097   2.175   3.915   3.234
 4733SOL    HW115098   2.090   3.894   3.284
 4733SOL    HW215099   2.251   3.865   3.275
 4734SOL     OW15100   5.638   3.819   5.900
 4734SOL    HW115101   5.564   3.786   5.841
 4734SOL    HW215102   5.673   3.744   5.956
 4735SOL     OW15103   6.804   6.608   4.998
 4735SOL    HW115104   6.863   6.531   5.025
 4735SOL    HW215105   6.711   6.591   5.029
 4736SOL     OW15106   6.692   1.674   3.583
 4736SOL    HW115107   6.689   1.772   3.566
 4736SOL    HW215108   6.615   1.630   3.538
 4737SOL     OW15109   1.529   5.464   1.057
 4737SOL    HW115110   1.505   5.367   1.052
 4737SOL    HW215111   1.615   5.480   1.009
 4738SOL     OW15112   1.942   0.537   4.033
 4738SOL    HW115113   1.891   0.591   4.099
 4738SOL    HW215114   2.015   0.593   3.992
 4739SOL     OW15115   5.863   3.273   4.761
 4739SOL    HW115116   5.957   3.261   4.791
 4739SOL    HW215117   5.830   3.364   4.787
 4740SOL     OW15118   0.718   1.390   1.762
 4740SOL    HW115119   0.801   1.446   1.756
 4740SOL    HW215120   0.720   1.337   1.846
 4741SOL     OW15121   4.011   4.780   1.096
 4741SOL    HW115122   4.094   4.790   1.151
 4741SOL    HW215123   3.969   4.870   1.082
 4742SOL     OW15124   2.766   5.870   1.273
 4742SOL    HW115125   2.776   5.860   1.372
 4742SOL    HW215126   2.730   5.961   1.252
 4743SOL     OW15127   2.622   1.616   6.137
 4743SOL    HW115128   2.640   1.621   6.235
 4743SOL    HW215129   2.523   1.611   6.121
 4744SOL     OW15130   1.984   3.784   5.667
 4744SOL    HW115131   1.899   3.819   5.625
 4744SOL    HW215132   2.028   3.721   5.603
 4745SOL     OW15133   3.211   5.164   5.341
 4745SOL    HW115134   3.204   5.258   5.374
 4745SOL    HW215135   3.285   5.117   5.390
 4746SOL     OW15136   6.258   5.953   0.338
 4746SOL    HW115137   6.263   5.970   0.436
 4746SOL    HW215138   6.317   5.876   0.314
 4747SOL     OW15139   0.200   2.327   7.015
 4747SOL    HW115140   0.161   2.416   0.010
 4747SOL    HW215141   0.202   2.268   0.066
 4748SOL     OW15142   0.880   0.668   1.303
 4748SOL    HW115143   0.877   0.767   1.312
 4748SOL    HW215144   0.799   0.628   1.345
 4749SOL     OW15145   1.970   6.604   0.035
 4749SOL    HW115146   2.031   6.619   0.113
 4749SOL    HW215147   2.024   6.595   6.981
 4750SOL     OW15148   0.002   1.522   4.329
 4750SOL    HW115149   6.995   1.486   4.414
 4750SOL    HW215150   6.987   1.609   4.307
 4751SOL     OW15151   1.300   4.838   6.773
 4751SOL    HW115152   1.278   4.831   6.676
 4751SOL    HW215153   1.227   4.797   6.827
 4752SOL     OW15154   2.525   6.348   1.684
 4752SOL    HW115155   2.473   6.277   1.637
 4752SOL    HW215156   2.622   6.325   1.684
 4753SOL     OW15157   5.475   6.546   5.204
 4753SOL    HW115158   5.528   6.609   5.147
 4753SOL    HW215159   5.505   6.555   5.299
 4754SOL     OW15160   0.148   0.031   6.485
 4754SOL    HW115161   0.110   0.008   6.395
 4754SOL    HW215162   0.235   7.014   6.497
 4755SOL     OW15163   2.604   1.553   5.781
 4755SOL    HW115164   2.594   1.459   5.813
 4755SOL    HW215165   2.528   1.608   5.816
 4756SOL     OW15166   4.518   2.952   1.539
 4756SOL    HW115167   4.576   3.025   1.575
 4756SOL    HW215168   4.537   2.867   1.589
 4757SOL     OW15169   2.554   2.490   1.893
 4757SOL    HW115170   2.627   2.536   1.842
 4757SOL    HW215171   2.594   2.436   1.967
 4758SOL     OW15172   4.892   5.282   5.788
 4758SOL    HW115173   4.976   5.280   5.735
 4758SOL    HW215174   4.846   5.370   5.775
 4759SOL     OW15175   5.593   5.951   5.582
 4759SOL    HW115176   5.672   5.932   5.523
 4759SOL    HW215177   5.532   5.872   5.582
 4760SOL     OW15178   1.665   1.019   1.523
 4760SOL    HW115179   1.592   1.000   1.457
 4760SOL    HW215180   1.730   1.083   1.483
 4761SOL     OW15181   6.980   0.289   6.486
 4761SOL    HW115182   6.921   0.345   6.428
 4761SOL    HW215183   6.963   0.192   6.468
 4762SOL     OW15184   2.299   5.056   2.249
 4762SOL    HW115185   2.215   5.105   2.229
 4762SOL    HW215186   2.363   5.118   2.296
 4763SOL     OW15187   5.816   6.082   3.202
 4763SOL    HW115188   5.744   6.050   3.263
 4763SOL    HW215189   5.854   6.005   3.151
 4764SOL     OW15190   4.431   3.857   5.350
 4764SOL    HW115191   4.442   3.780   5.286
 4764SOL    HW215192   4.502   3.853   5.420
 4765SOL     OW15193   5.035   5.864   5.232
 4765SOL    HW115194   4.997   5.925   5.301
 4765SOL    HW215195   4.976   5.784   5.222
 4766SOL     OW15196   3.002   0.690   3.226
 4766SOL    HW115197   3.099   0.674   3.242
 4766SOL    HW215198   2.988   0.787   3.203
 4767SOL     OW15199   3.966   6.934   0.620
 4767SOL    HW115200   3.935   6.964   0.530
 4767SOL    HW215201   3.954   7.009   0.686
 4768SOL     OW15202   5.146   0.994   4.856
 4768SOL    HW115203   5.090   1.056   4.912
 4768SOL    HW215204   5.241   1.023   4.859
 4769SOL     OW15205   3.739   5.868   1.650
 4769SOL    HW115206   3.698   5.864   1.742
 4769SOL    HW215207   3.668   5.852   1.582
 4770SOL     OW15208   2.224   0.483   3.080
 4770SOL    HW115209   2.289   0.556   3.059
 4770SOL    HW215210   2.273   0.402   3.111
 4771SOL     OW15211   3.578   4.583   6.331
 4771SOL    HW115212   3.650   4.623   6.274
 4771SOL    HW215213   3.510   4.653   6.353
 4772SOL     OW15214   2.638   0.371   1.603
 4772SOL    HW115215   2.642   0.470   1.616
 4772SOL    HW215216   2.542   0.342   1.605
 4773SOL     OW15217   0.288   5.889   3.781
 4773SOL    HW115218   0.232   5.808   3.765
 4773SOL    HW215219   0.238   5.953   3.840
 4774SOL     OW15220   0.894   3.401   2.323
 4774SOL    HW115221   0.885   3.460   2.404
 4774SOL    HW215222   0.904   3.459   2.242
 4775SOL     OW15223   4.839   0.351   2.902
 4775SOL    HW115224   4.918   0.320   2.955
 4775SOL    HW215225   4.808   0.439   2.937
 4776SOL     OW15226   2.892   6.090   2.338
 4776SOL    HW115227   2.848   6.167   2.292
 4776SOL    HW215228   2.860   6.004   2.298
 4777SOL     OW15229   2.033   4.405   0.924
 4777SOL    HW115230   2.055   4.368   1.014
 4777SOL    HW215231   2.087   4.487   0.907
 4778SOL     OW15232   4.655   3.588   1.620
 4778SOL    HW115233   4.714   3.524   1.670
 4778SOL    HW215234   4.590   3.536   1.564
 4779SOL     OW15235   6.747   0.405   3.097
 4779SOL    HW115236   6.741   0.359   3.186
 4779SOL    HW215237   6.670   0.468   3.087
 4780SOL     OW15238   0.831   0.155   6.067
 4780SOL    HW115239   0.893   0.191   5.997
 4780SOL    HW215240   0.885   0.121   6.144
 4781SOL     OW15241   2.421   5.577   1.088
 4781SOL    HW115242   2.511   5.533   1.091
 4781SOL    HW215243   2.352   5.511   1.117
 4782SOL     OW15244   5.576   0.893   6.437
 4782SOL    HW115245   5.546   0.963   6.502
 4782SOL    HW215246   5.499   0.834   6.413
 4783SOL     OW15247   5.010   3.966   0.835
 4783SOL    HW115248   4.936   3.933   0.776
 4783SOL    HW215249   4.980   4.049   0.882
 4784SOL     OW15250   5.943   5.173   5.047
 4784SOL    HW115251   6.006   5.097   5.065
 4784SOL    HW215252   5.853   5.137   5.022
 4785SOL     OW15253   6.670   6.661   0.958
 4785SOL    HW115254   6.678   6.732   1.029
 4785SOL    HW215255   6.669   6.571   1.001
 4786SOL     OW15256   1.797   2.867   2.160
 4786SOL    HW115257   1.835   2.796   2.101
 4786SOL    HW215258   1.851   2.951   2.151
 4787SOL     OW15259   3.141   2.133   3.930
 4787SOL    HW115260   3.081   2.053   3.934
 4787SOL    HW215261   3.086   2.216   3.925
 4788SOL     OW15262   1.720   5.486   5.641
 4788SOL    HW115263   1.658   5.455   5.714
 4788SOL    HW215264   1.739   5.410   5.580
 4789SOL     OW15265   5.576   0.217   0.267
 4789SOL    HW115266   5.523   0.174   0.194
 4789SOL    HW215267   5.548   0.312   0.276
 4790SOL     OW15268   5.356   2.107   6.721
 4790SOL    HW115269   5.336   2.077   6.627
 4790SOL    HW215270   5.271   2.108   6.774
 4791SOL     OW15271   5.563   6.816   2.207
 4791SOL    HW115272   5.487   6.881   2.205
 4791SOL    HW215273   5.625   6.840   2.282
 4792SOL     OW15274   2.317   2.657   2.856
 4792SOL    HW115275   2.325   2.558   2.851
 4792SOL    HW215276   2.283   2.692   2.769
 4793SOL     OW15277   1.685   6.793   5.849
 4793SOL    HW115278   1.747   6.782   5.772
 4793SOL    HW215279   1.701   6.882   5.892
 4794SOL     OW15280   2.811   6.282   3.004
 4794SOL    HW115281   2.734   6.228   3.040
 4794SOL    HW215282   2.791   6.310   2.910
 4795SOL     OW15283   6.341   3.206   4.629
 4795SOL    HW115284   6.275   3.190   4.556
 4795SOL    HW215285   6.319   3.147   4.707
 4796SOL     OW15286   5.339   3.324   0.359
 4796SOL    HW115287   5.267   3.357   0.421
 4796SOL    HW215288   5.326   3.365   0.269
 4797SOL     OW15289   1.030   5.091   5.940
 4797SOL    HW115290   1.073   5.068   5.853
 4797SOL    HW215291   1.098   5.130   6.002
 4798SOL     OW15292   0.270   4.575   4.098
 4798SOL    HW115293   0.335   4.594   4.024
 4798SOL    HW215294   0.177   4.596   4.067
 4799SOL     OW15295   4.980   1.458   5.371
 4799SOL    HW115296   5.070   1.486   5.403
 4799SOL    HW215297   4.915   1.461   5.447
 4800SOL     OW15298   2.611   2.803   5.780
 4800SOL    HW115299   2.709   2.800   5.799
 4800SOL    HW215300   2.597   2.829   5.685
 4801SOL     OW15301   1.703   1.610   0.519
 4801SOL    HW115302   1.680   1.707   0.525
 4801SOL    HW215303   1.625   1.555   0.552
 4802SOL     OW15304   2.804   6.382   1.762
 4802SOL    HW115305   2.824   6.394   1.860
 4802SOL    HW215306   2.861   6.309   1.725
 4803SOL     OW15307   0.875   0.002   0.919
 4803SOL    HW115308   0.806   0.062   0.879
 4803SOL    HW215309   0.955   7.028   0.859
 4804SOL     OW15310   4.451   5.387   6.523
 4804SOL    HW115311   4.535   5.333   6.517
 4804SOL    HW215312   4.473   5.478   6.559
 4805SOL     OW15313   6.693   0.935   0.220
 4805SOL    HW115314   6.715   0.983   0.305
 4805SOL    HW215315   6.597   0.950   0.197
 4806SOL     OW15316   0.110   4.229   3.033
 4806SOL    HW115317   0.031   4.195   3.083
 4806SOL    HW215318   0.186   4.243   3.097
 4807SOL     OW15319   0.706   5.730   1.877
 4807SOL    HW115320   0.674   5.737   1.782
 4807SOL    HW215321   0.774   5.658   1.884
 4808SOL     OW15322   5.589   3.221   1.377
 4808SOL    HW115323   5.589   3.169   1.292
 4808SOL    HW215324   5.512   3.191   1.434
 4809SOL     OW15325   3.167   4.987   6.919
 4809SOL    HW115326   3.095   4.939   6.970
 4809SOL    HW215327   3.256   4.950   6.945
 4810SOL     OW15328   0.544   5.370   1.658
 4810SOL    HW115329   0.558   5.468   1.647
 4810SOL    HW215330   0.447   5.349   1.645
 4811SOL     OW15331   3.308   4.939   2.044
 4811SOL    HW115332   3.392   4.951   2.098
 4811SOL    HW215333   3.323   4.974   1.952
 4812SOL     OW15334   6.941   5.512   4.223
 4812SOL    HW115335   6.982   5.592   4.180
 4812SOL    HW215336   6.853   5.537   4.263
 4813SOL     OW15337   5.142   1.658   2.207
 4813SOL    HW115338   5.113   1.742   2.162
 4813SOL    HW215339   5.067   1.623   2.263
 4814SOL     OW15340   6.768   3.684   0.798
 4814SOL    HW115341   6.697   3.671   0.868
 4814SOL    HW215342   6.847   3.729   0.840
 4815SOL     OW15343   4.796   5.298   1.604
 4815SOL    HW115344   4.884   5.250   1.593
 4815SOL    HW215345   4.814   5.394   1.623
 4816SOL     OW15346   5.364   5.605   2.339
 4816SOL    HW115347   5.298   5.651   2.398
 4816SOL    HW215348   5.438   5.566   2.394
 4817SOL     OW15349   1.078   2.273   5.613
 4817SOL    HW115350   0.994   2.314   5.579
 4817SOL    HW215351   1.154   2.299   5.553
 4818SOL     OW15352   6.963   0.281   3.750
 4818SOL    HW115353   6.887   0.303   3.811
 4818SOL    HW215354   6.952   0.187   3.717
 4819SOL     OW15355   1.548   3.284   6.959
 4819SOL    HW115356   1.536   3.185   6.946
 4819SOL    HW215357   1.643   3.302   6.986
 4820SOL     OW15358   0.149   3.631   1.502
 4820SOL    HW115359   0.194   3.621   1.590
 4820SOL    HW215360   0.157   3.726   1.470
 4821SOL     OW15361   0.108   6.038   2.087
 4821SOL    HW115362   0.103   6.137   2.075
 4821SOL    HW215363   0.201   6.012   2.114
 4822SOL     OW15364   0.840   3.828   4.215
 4822SOL    HW115365   0.740   3.838   4.207
 4822SOL    HW215366   0.878   3.800   4.127
 4823SOL     OW15367   1.248   3.228   2.177
 4823SOL    HW115368   1.279   3.196   2.087
 4823SOL    HW215369   1.192   3.158   2.220
 4824SOL     OW15370   5.559   0.379   5.151
 4824SOL    HW115371   5.587   0.377   5.247
 4824SOL    HW215372   5.506   0.462   5.132
 4825SOL     OW15373   1.458   0.428   4.648
 4825SOL    HW115374   1.552   0.428   4.682
 4825SOL    HW215375   1.458   0.412   4.549
 4826SOL     OW15376   4.589   0.180   1.702
 4826SOL    HW115377   4.617   0.274   1.718
 4826SOL    HW215378   4.493   0.169   1.726
 4827SOL     OW15379   6.999   2.130   0.781
 4827SOL    HW115380   6.904   2.159   0.770
 4827SOL    HW215381   0.029   2.187   0.724
 4828SOL     OW15382   4.663   6.826   2.733
 4828SOL    HW115383   4.713   6.814   2.819
 4828SOL    HW215384   4.719   6.878   2.669
 4829SOL     OW15385   4.182   0.205   5.934
 4829SOL    HW115386   4.178   0.199   6.034
 4829SOL    HW215387   4.277   0.223   5.906
 4830SOL     OW15388   3.373   5.359   3.703
 4830SOL    HW115389   3.452   5.313   3.662
 4830SOL    HW215390   3.334   5.423   3.637
 4831SOL     OW15391   3.563   5.399   6.037
 4831SOL    HW115392   3.657   5.366   6.046
 4831SOL    HW215393   3.557   5.494   6.065
 4832SOL     OW15394   2.911   3.568   4.804
 4832SOL    HW115395   2.861   3.595   4.886
 4832SOL    HW215396   2.942   3.649   4.755
 4833SOL     OW15397   5.915   2.973   4.629
 4833SOL    HW115398   5.976   2.919   4.687
 4833SOL    HW215399   5.932   3.070   4.646
 4834SOL     OW15400   1.909   5.437   2.109
 4834SOL    HW115401   1.880   5.475   2.197
 4834SOL    HW215402   1.988   5.489   2.075
 4835SOL     OW15403   6.612   3.240   5.346
 4835SOL    HW115404   6.602   3.339   5.350
 4835SOL    HW215405   6.586   3.200   5.435
 4836SOL     OW15406   4.894   0.790   5.406
 4836SOL    HW115407   4.899   0.725   5.481
 4836SOL    HW215408   4.965   0.769   5.339
 4837SOL     OW15409   6.942   3.198   4.186
 4837SOL    HW115410   6.948   3.203   4.286
 4837SOL    HW215411   6.976   3.283   4.146
 4838SOL     OW15412   1.139   4.613   6.150
 4838SOL    HW115413   1.192   4.662   6.080
 4838SOL    HW215414   1.051   4.585   6.110
 4839SOL     OW15415   2.072   2.438   1.067
 4839SOL    HW115416   2.030   2.352   1.038
 4839SOL    HW215417   2.171   2.430   1.063
 4840SOL     OW15418   4.964   3.793   5.230
 4840SOL    HW115419   4.897   3.746   5.288
 4840SOL    HW215420   4.965   3.750   5.140
 4841SOL     OW15421   2.726   4.985   3.358
 4841SOL    HW115422   2.648   5.019   3.304
 4841SOL    HW215423   2.756   5.056   3.421
 4842SOL     OW15424   2.693   5.047   2.879
 4842SOL    HW115425   2.680   4.948   2.882
 4842SOL    HW215426   2.757   5.075   2.951
 4843SOL     OW15427   0.210   2.390   2.409
 4843SOL    HW115428   0.192   2.466   2.347
 4843SOL    HW215429   0.123   2.346   2.434
 4844SOL     OW15430   1.302   5.406   5.132
 4844SOL    HW115431   1.322   5.396   5.034
 4844SOL    HW215432   1.325   5.500   5.160
 4845SOL     OW15433   4.731   4.405   5.358
 4845SOL    HW115434   4.673   4.405   5.277
 4845SOL    HW215435   4.804   4.472   5.347
 4846SOL     OW15436   6.968   3.305   4.636
 4846SOL    HW115437   6.903   3.379   4.650
 4846SOL    HW215438   0.027   3.342   4.610
 4847SOL     OW15439   2.696   6.428   6.038
 4847SOL    HW115440   2.673   6.459   5.945
 4847SOL    HW215441   2.613   6.393   6.082
 4848SOL     OW15442   2.542   0.605   4.299
 4848SOL    HW115443   2.577   0.659   4.376
 4848SOL    HW215444   2.482   0.533   4.333
 4849SOL     OW15445   2.194   0.002   0.946
 4849SOL    HW115446   2.243   0.051   1.019
 4849SOL    HW215447   2.259   7.004   0.875
 4850SOL     OW15448   4.774   0.660   0.622
 4850SOL    HW115449   4.730   0.592   0.562
 4850SOL    HW215450   4.862   0.624   0.653
 4851SOL     OW15451   3.260   5.871   6.933
 4851SOL    HW115452   3.312   5.789   6.955
 4851SOL    HW215453   3.262   5.933   7.012
 4852SOL     OW15454   4.657   5.329   5.101
 4852SOL    HW115455   4.568   5.289   5.123
 4852SOL    HW215456   4.722   5.256   5.078
 4853SOL     OW15457   3.821   0.932   3.136
 4853SOL    HW115458   3.849   0.906   3.044
 4853SOL    HW215459   3.809   1.031   3.141
 4854SOL     OW15460   6.141   6.256   1.633
 4854SOL    HW115461   6.103   6.304   1.554
 4854SOL    HW215462   6.176   6.167   1.605
 4855SOL     OW15463   6.724   4.776   4.541
 4855SOL    HW115464   6.753   4.799   4.634
 4855SOL    HW215465   6.805   4.751   4.487
 4856SOL     OW15466   0.285   3.725   2.872
 4856SOL    HW115467   0.222   3.759   2.802
 4856SOL    HW215468   0.321   3.636   2.845
 4857SOL     OW15469   2.904   2.255   4.003
 4857SOL    HW115470   2.961   2.244   4.085
 4857SOL    HW215471   2.825   2.311   4.025
 4858SOL     OW15472   0.236   6.219   4.556
 4858SOL    HW115473   0.302   6.144   4.552
 4858SOL    HW215474   0.269   6.288   4.620
 4859SOL     OW15475   0.678   5.605   2.120
 4859SOL    HW115476   0.659   5.512   2.089
 4859SOL    HW215477   0.677   5.668   2.042
 4860SOL     OW15478   5.377   5.931   0.774
 4860SOL    HW115479   5.319   5.909   0.696
 4860SOL    HW215480   5.323   5.928   0.858
 4861SOL     OW15481   0.227   4.727   6.752
 4861SOL    HW115482   0.276   4.653   6.798
 4861SOL    HW215483   0.194   4.695   6.663
 4862SOL     OW15484   2.792   4.819   5.244
 4862SOL    HW115485   2.785   4.724   5.213
 4862SOL    HW215486   2.885   4.835   5.279
 4863SOL     OW15487   4.432   2.466   3.376
 4863SOL    HW115488   4.374   2.449   3.296
 4863SOL    HW215489   4.472   2.379   3.407
 4864SOL     OW15490   3.114   0.854   2.006
 4864SOL    HW115491   3.138   0.760   2.029
 4864SOL    HW215492   3.193   0.899   1.964
 4865SOL     OW15493   3.963   5.764   5.367
 4865SOL    HW115494   3.889   5.696   5.367
 4865SOL    HW215495   4.044   5.727   5.322
 4866SOL     OW15496   5.892   4.601   2.051
 4866SOL    HW115497   5.943   4.572   2.132
 4866SOL    HW215498   5.938   4.678   2.008
 4867SOL     OW15499   5.132   5.746   2.432
 4867SOL    HW115500   5.101   5.839   2.450
 4867SOL    HW215501   5.063   5.697   2.378
 4868SOL     OW15502   0.345   5.728   1.147
 4868SOL    HW115503   0.265   5.669   1.141
 4868SOL    HW215504   0.417   5.694   1.085
 4869SOL     OW15505   0.093   1.625   0.114
 4869SOL    HW115506   0.031   1.588   0.046
 4869SOL    HW215507   0.173   1.566   0.122
 4870SOL     OW15508   4.880   6.402   1.933
 4870SOL    HW115509   4.849   6.494   1.958
 4870SOL    HW215510   4.832   6.335   1.989
 4871SOL     OW15511   1.324   2.575   3.764
 4871SOL    HW115512   1.399   2.636   3.738
 4871SOL    HW215513   1.358   2.482   3.774
 4872SOL     OW15514   1.258   0.186   2.543
 4872SOL    HW115515   1.217   0.239   2.617
 4872SOL    HW215516   1.186   0.151   2.483
 4873SOL     OW15517   6.980   5.581   5.045
 4873SOL    HW115518   0.048   5.564   5.061
 4873SOL    HW215519   6.948   5.650   5.110
 4874SOL     OW15520   5.573   3.662   2.971
 4874SOL    HW115521   5.616   3.581   2.931
 4874SOL    HW215522   5.475   3.645   2.982
 4875SOL     OW15523   5.372   1.755   1.223
 4875SOL    HW115524   5.356   1.668   1.177
 4875SOL    HW215525   5.348   1.747   1.320
 4876SOL     OW15526   0.369   1.763   0.175
 4876SOL    HW115527   0.421   1.677   0.170
 4876SOL    HW215528   0.329   1.783   0.086
 4877SOL     OW15529   6.079   1.114   1.354
 4877SOL    HW115530   6.041   1.182   1.416
 4877SOL    HW215531   6.031   1.120   1.266
 4878SOL     OW15532   6.757   1.499   1.674
 4878SOL    HW115533   6.776   1.531   1.581
 4878SOL    HW215534   6.808   1.554   1.740
 4879SOL     OW15535   4.586   5.096   3.344
 4879SOL    HW115536   4.493   5.059   3.333
 4879SOL    HW215537   4.649   5.045   3.284
 4880SOL     OW15538   5.744   1.573   6.796
 4880SOL    HW115539   5.664   1.545   6.742
 4880SOL    HW215540   5.730   1.547   6.892
 4881SOL     OW15541   3.297   6.470   6.460
 4881SOL    HW115542   3.305   6.569   6.469
 4881SOL    HW215543   3.286   6.429   6.551
 4882SOL     OW15544   5.644   0.965   5.203
 4882SOL    HW115545   5.646   0.957   5.303
 4882SOL    HW215546   5.657   0.875   5.162
 4883SOL     OW15547   6.589   4.290   2.049
 4883SOL    HW115548   6.680   4.248   2.046
 4883SOL    HW215549   6.597   4.385   2.078
 4884SOL     OW15550   3.420   6.209   2.071
 4884SOL    HW115551   3.358   6.284   2.049
 4884SOL    HW215552   3.514   6.241   2.065
 4885SOL     OW15553   1.955   0.203   1.203
 4885SOL    HW115554   1.945   0.302   1.191
 4885SOL    HW215555   2.020   0.185   1.276
 4886SOL     OW15556   6.639   0.532   0.138
 4886SOL    HW115557   6.714   0.521   0.204
 4886SOL    HW215558   6.637   0.626   0.105
 4887SOL     OW15559   0.153   2.028   3.816
 4887SOL    HW115560   0.178   1.974   3.736
 4887SOL    HW215561   0.193   2.119   3.810
 4888SOL     OW15562   2.333   5.831   2.780
 4888SOL    HW115563   2.242   5.862   2.752
 4888SOL    HW215564   2.325   5.776   2.863
 4889SOL     OW15565   1.198   1.841   0.241
 4889SOL    HW115566   1.239   1.893   0.316
 4889SOL    HW215567   1.169   1.903   0.169
 4890SOL     OW15568   0.933   0.709   4.442
 4890SOL    HW115569   0.858   0.716   4.377
 4890SOL    HW215570   0.916   0.770   4.520
 4891SOL     OW15571   0.864   5.090   0.397
 4891SOL    HW115572   0.805   5.010   0.402
 4891SOL    HW215573   0.953   5.068   0.438
 4892SOL     OW15574   0.634   5.643   1.602
 4892SOL    HW115575   0.594   5.657   1.512
 4892SOL    HW215576   0.731   5.621   1.593
 4893SOL     OW15577   0.449   3.594   6.386
 4893SOL    HW115578   0.525   3.531   6.377
 4893SOL    HW215579   0.469   3.661   6.458
 4894SOL     OW15580   2.502   0.875   3.575
 4894SOL    HW115581   2.506   0.914   3.483
 4894SOL    HW215582   2.468   0.945   3.639
 4895SOL     OW15583   1.223   2.990   0.344
 4895SOL    HW115584   1.198   3.059   0.412
 4895SOL    HW215585   1.312   3.011   0.306
 4896SOL     OW15586   3.595   4.992   5.120
 4896SOL    HW115587   3.665   5.000   5.048
 4896SOL    HW215588   3.511   4.955   5.081
 4897SOL     OW15589   3.406   5.659   0.122
 4897SOL    HW115590   3.385   5.561   0.129
 4897SOL    HW215591   3.502   5.670   0.094
 4898SOL     OW15592   5.094   1.481   5.818
 4898SOL    HW115593   5.133   1.482   5.726
 4898SOL    HW215594   5.159   1.521   5.882
 4899SOL     OW15595   5.999   4.639   3.594
 4899SOL    HW115596   6.077   4.610   3.539
 4899SOL    HW215597   5.937   4.562   3.607
 4900SOL     OW15598   0.709   6.946   5.669
 4900SOL    HW115599   0.752   6.901   5.591
 4900SOL    HW215600   0.761   7.028   5.693
 4901SOL     OW15601   0.637   6.498   3.871
 4901SOL    HW115602   0.644   6.467   3.966
 4901SOL    HW215603   0.544   6.527   3.853
 4902SOL     OW15604   2.627   4.731   1.561
 4902SOL    HW115605   2.637   4.632   1.559
 4902SOL    HW215606   2.654   4.765   1.652
 4903SOL     OW15607   4.684   0.376   6.697
 4903SOL    HW115608   4.598   0.343   6.735
 4903SOL    HW215609   4.733   0.300   6.655
 4904SOL     OW15610   2.708   6.154   4.359
 4904SOL    HW115611   2.637   6.213   4.321
 4904SOL    HW215612   2.775   6.210   4.408
 4905SOL     OW15613   4.833   3.125   1.723
 4905SOL    HW115614   4.764   3.095   1.789
 4905SOL    HW215615   4.788   3.162   1.642
 4906SOL     OW15616   5.089   0.202   0.247
 4906SOL    HW115617   5.064   0.264   0.320
 4906SOL    HW215618   5.181   0.165   0.265
 4907SOL     OW15619   3.855   0.544   3.573
 4907SOL    HW115620   3.939   0.595   3.560
 4907SOL    HW215621   3.870   0.448   3.550
 4908SOL     OW15622   3.372   6.179   6.815
 4908SOL    HW115623   3.335   6.272   6.806
 4908SOL    HW215624   3.298   6.113   6.810
 4909SOL     OW15625   6.791   6.492   5.366
 4909SOL    HW115626   6.824   6.453   5.280
 4909SOL    HW215627   6.691   6.483   5.371
 4910SOL     OW15628   5.245   0.292   4.981
 4910SOL    HW115629   5.267   0.389   4.975
 4910SOL    HW215630   5.217   0.258   4.891
 4911SOL     OW15631   6.607   2.609   5.745
 4911SOL    HW115632   6.601   2.516   5.783
 4911SOL    HW215633   6.699   2.646   5.762
 4912SOL     OW15634   3.717   1.875   2.254
 4912SOL    HW115635   3.783   1.934   2.208
 4912SOL    HW215636   3.680   1.923   2.334
 4913SOL     OW15637   3.620   3.833   3.285
 4913SOL    HW115638   3.570   3.762   3.237
 4913SOL    HW215639   3.571   3.858   3.368
 4914SOL     OW15640   2.485   6.752   3.564
 4914SOL    HW115641   2.496   6.693   3.483
 4914SOL    HW215642   2.530   6.840   3.548
 4915SOL     OW15643   3.944   6.071   3.712
 4915SOL    HW115644   4.014   6.001   3.721
 4915SOL    HW215645   3.980   6.147   3.658
 4916SOL     OW15646   2.339   1.918   3.239
 4916SOL    HW115647   2.369   2.012   3.219
 4916SOL    HW215648   2.400   1.878   3.307
 4917SOL     OW15649   2.007   4.745   0.657
 4917SOL    HW115650   1.939   4.817   0.644
 4917SOL    HW215651   2.052   4.757   0.746
 4918SOL     OW15652   2.242   0.074   2.239
 4918SOL    HW115653   2.284   0.002   2.184
 4918SOL    HW215654   2.268   0.163   2.203
 4919SOL     OW15655   2.172   2.937   1.932
 4919SOL    HW115656   2.160   3.036   1.923
 4919SOL    HW215657   2.162   2.911   2.028
 4920SOL     OW15658   4.275   0.582   0.737
 4920SOL    HW115659   4.295   0.565   0.834
 4920SOL    HW215660   4.192   0.532   0.712
 4921SOL     OW15661   1.777   4.186   1.675
 4921SOL    HW115662   1.828   4.271   1.672
 4921SOL    HW215663   1.682   4.202   1.647
 4922SOL     OW15664   1.801   3.056   5.215
 4922SOL    HW115665   1.864   3.107   5.156
 4922SOL    HW215666   1.828   2.959   5.217
 4923SOL     OW15667   4.911   0.305   1.694
 4923SOL    HW115668   4.981   0.369   1.664
 4923SOL    HW215669   4.822   0.333   1.658
 4924SOL     OW15670   0.742   4.225   5.065
 4924SOL    HW115671   0.750   4.229   4.965
 4924SOL    HW215672   0.708   4.136   5.093
 4925SOL     OW15673   5.250   6.389   0.346
 4925SOL    HW115674   5.299   6.398   0.259
 4925SOL    HW215675   5.290   6.314   0.399
 4926SOL     OW15676   4.835   2.647   1.899
 4926SOL    HW115677   4.906   2.608   1.840
 4926SOL    HW215678   4.877   2.714   1.960
 4927SOL     OW15679   2.990   3.121   3.198
 4927SOL    HW115680   2.905   3.111   3.250
 4927SOL    HW215681   3.057   3.172   3.253
 4928SOL     OW15682   0.642   6.413   0.005
 4928SOL    HW115683   0.551   6.424   0.044
 4928SOL    HW215684   0.672   6.318   0.015
 4929SOL     OW15685   1.029   5.209   4.297
 4929SOL    HW115686   1.112   5.198   4.352
 4929SOL    HW215687   1.054   5.227   4.202
 4930SOL     OW15688   0.564   1.992   0.815
 4930SOL    HW115689   0.548   2.030   0.724
 4930SOL    HW215690   0.481   1.947   0.847
 4931SOL     OW15691   0.117   0.716   0.076
 4931SOL    HW115692   0.144   0.771   7.027
 4931SOL    HW215693   0.149   0.760   0.160
 4932SOL     OW15694   2.664   2.132   0.957
 4932SOL    HW115695   2.679   2.214   1.012
 4932SOL    HW215696   2.606   2.068   1.008
 4933SOL     OW15697   2.766   0.995   3.838
 4933SOL    HW115698   2.806   1.085   3.824
 4933SOL    HW215699   2.759   0.948   3.749
 4934SOL     OW15700   0.856   6.201   4.334
 4934SOL    HW115701   0.856   6.177   4.237
 4934SOL    HW215702   0.937   6.257   4.354
 4935SOL     OW15703   1.504   1.249   0.116
 4935SOL    HW115704   1.577   1.265   0.184
 4935SOL    HW215705   1.530   1.172   0.058
 4936SOL     OW15706   4.055   5.564   1.246
 4936SOL    HW115707   4.123   5.632   1.274
 4936SOL    HW215708   3.987   5.608   1.187
 4937SOL     OW15709   0.500   2.531   5.722
 4937SOL    HW115710   0.412   2.503   5.684
 4937SOL    HW215711   0.503   2.631   5.729
 4938SOL     OW15712   3.351   4.427   1.484
 4938SOL    HW115713   3.438   4.443   1.532
 4938SOL    HW215714   3.318   4.513   1.447
 4939SOL     OW15715   1.778   1.990   1.322
 4939SOL    HW115716   1.865   2.033   1.298
 4939SOL    HW215717   1.712   2.061   1.346
 4940SOL     OW15718   0.120   2.972   4.032
 4940SOL    HW115719   0.147   3.028   4.111
 4940SOL    HW215720   0.197   2.965   3.969
 4941SOL     OW15721   3.927   2.380   5.296
 4941SOL    HW115722   3.881   2.454   5.343
 4941SOL    HW215723   4.004   2.417   5.243
 4942SOL     OW15724   5.593   2.392   3.299
 4942SOL    HW115725   5.666   2.449   3.337
 4942SOL    HW215726   5.626   2.298   3.290
 4943SOL     OW15727   5.386   2.892   6.489
 4943SOL    HW115728   5.427   2.823   6.549
 4943SOL    HW215729   5.338   2.960   6.545
 4944SOL     OW15730   1.353   5.599   1.236
 4944SOL    HW115731   1.434   5.576   1.182
 4944SOL    HW215732   1.334   5.697   1.226
 4945SOL     OW15733   2.029   1.241   5.220
 4945SOL    HW115734   2.106   1.181   5.242
 4945SOL    HW215735   2.051   1.335   5.247
 4946SOL     OW15736   1.913   5.326   0.192
 4946SOL    HW115737   1.972   5.259   0.147
 4946SOL    HW215738   1.919   5.413   0.142
 4947SOL     OW15739   1.776   0.851   1.885
 4947SOL    HW115740   1.860   0.881   1.840
 4947SOL    HW215741   1.772   0.751   1.886
 4948SOL     OW15742   1.651   2.608   1.741
 4948SOL    HW115743   1.724   2.651   1.688
 4948SOL    HW215744   1.650   2.509   1.723
 4949SOL     OW15745   6.900   3.204   6.537
 4949SOL    HW115746   6.966   3.279   6.535
 4949SOL    HW215747   6.847   3.209   6.621
 4950SOL     OW15748   2.139   4.492   5.448
 4950SOL    HW115749   2.100   4.469   5.358
 4950SOL    HW215750   2.234   4.460   5.451
 4951SOL     OW15751   5.240   5.527   3.864
 4951SOL    HW115752   5.169   5.472   3.908
 4951SOL    HW215753   5.206   5.560   3.776
 4952SOL     OW15754   0.693   6.938   6.017
 4952SOL    HW115755   0.725   0.002   6.035
 4952SOL    HW215756   0.600   6.927   6.051
 4953SOL     OW15757   1.282   2.313   4.936
 4953SOL    HW115758   1.201   2.338   4.884
 4953SOL    HW215759   1.364   2.343   4.888
 4954SOL     OW15760   3.100   4.148   5.110
 4954SOL    HW115761   3.018   4.091   5.106
 4954SOL    HW215762   3.081   4.230   5.163
 4955SOL     OW15763   3.073   6.230   0.245
 4955SOL    HW115764   3.034   6.178   0.321
 4955SOL    HW215765   3.160   6.270   0.274
 4956SOL     OW15766   2.113   0.131   4.923
 4956SOL    HW115767   2.118   0.157   5.020
 4956SOL    HW215768   2.196   0.163   4.876
 4957SOL     OW15769   6.457   3.950   6.731
 4957SOL    HW115770   6.464   3.964   6.830
 4957SOL    HW215771   6.410   4.028   6.689
 4958SOL     OW15772   2.705   0.112   6.988
 4958SOL    HW115773   2.681   0.069   6.901
 4958SOL    HW215774   2.624   0.158   7.026
 4959SOL     OW15775   0.206   3.077   1.934
 4959SOL    HW115776   0.144   3.104   2.007
 4959SOL    HW215777   0.165   3.098   1.845
 4960SOL     OW15778   3.984   5.263   4.416
 4960SOL    HW115779   4.005   5.187   4.478
 4960SOL    HW215780   4.023   5.348   4.452
 4961SOL     OW15781   3.343   0.944   0.140
 4961SOL    HW115782   3.254   0.989   0.149
 4961SOL    HW215783   3.410   0.992   0.196
 4962SOL     OW15784   0.797   4.047   1.240
 4962SOL    HW115785   0.745   3.966   1.214
 4962SOL    HW215786   0.888   4.043   1.198
 4963SOL     OW15787   1.025   4.187   6.643
 4963SOL    HW115788   1.084   4.220   6.570
 4963SOL    HW215789   0.930   4.184   6.611
 4964SOL     OW15790   2.547   6.560   4.657
 4964SOL    HW115791   2.608   6.629   4.619
 4964SOL    HW215792   2.498   6.598   4.736
 4965SOL     OW15793   1.227   6.698   2.599
 4965SOL    HW115794   1.232   6.766   2.672
 4965SOL    HW215795   1.229   6.606   2.638
 4966SOL     OW15796   3.326   6.047   4.070
 4966SOL    HW115797   3.416   6.088   4.087
 4966SOL    HW215798   3.298   5.996   4.151
 4967SOL     OW15799   3.927   4.750   5.617
 4967SOL    HW115800   3.998   4.803   5.571
 4967SOL    HW215801   3.842   4.754   5.564
 4968SOL     OW15802   0.519   1.677   3.852
 4968SOL    HW115803   0.486   1.770   3.837
 4968SOL    HW215804   0.472   1.637   3.931
 4969SOL     OW15805   0.612   6.007   2.979
 4969SOL    HW115806   0.545   5.973   2.914
 4969SOL    HW215807   0.626   6.105   2.965
 4970SOL     OW15808   1.711   1.292   1.649
 4970SOL    HW115809   1.670   1.370   1.698
 4970SOL    HW215810   1.645   1.218   1.644
 4971SOL     OW15811   6.338   6.038   2.902
 4971SOL    HW115812   6.399   6.109   2.938
 4971SOL    HW215813   6.382   5.996   2.822
 4972SOL     OW15814   1.363   4.107   1.216
 4972SOL    HW115815   1.338   4.054   1.297
 4972SOL    HW215816   1.428   4.054   1.161
 4973SOL     OW15817   0.006   0.960   0.764
 4973SOL    HW115818   0.079   0.994   0.822
 4973SOL    HW215819   0.021   0.862   0.746
 4974SOL     OW15820   3.363   4.809   5.970
 4974SOL    HW115821   3.326   4.899   5.992
 4974SOL    HW215822   3.462   4.809   5.984
 4975SOL     OW15823   5.973   3.342   0.519
 4975SOL    HW115824   6.069   3.322   0.540
 4975SOL    HW215825   5.929   3.261   0.482
 4976SOL     OW15826   1.383   6.410   3.824
 4976SOL    HW115827   1.343   6.487   3.874
 4976SOL    HW215828   1.473   6.436   3.790
 4977SOL     OW15829   2.601   5.315   6.602
 4977SOL    HW115830   2.660   5.395   6.613
 4977SOL    HW215831   2.649   5.246   6.548
 4978SOL     OW15832   5.288   4.368   5.212
 4978SOL    HW115833   5.242   4.310   5.278
 4978SOL    HW215834   5.249   4.354   5.121
 4979SOL     OW15835   1.915   6.855   6.454
 4979SOL    HW115836   1.856   6.895   6.383
 4979SOL    HW215837   1.880   6.882   6.544
 4980SOL     OW15838   6.361   3.984   3.026
 4980SOL    HW115839   6.278   4.039   3.014
 4980SOL    HW215840   6.346   3.894   2.985
 4981SOL     OW15841   3.767   4.806   1.726
 4981SOL    HW115842   3.724   4.759   1.649
 4981SOL    HW215843   3.724   4.775   1.811
 4982SOL     OW15844   4.602   1.198   6.672
 4982SOL    HW115845   4.689   1.209   6.624
 4982SOL    HW215846   4.606   1.117   6.730
 4983SOL     OW15847   6.929   5.476   3.152
 4983SOL    HW115848   6.831   5.486   3.171
 4983SOL    HW215849   6.942   5.464   3.054
 4984SOL     OW15850   4.956   4.662   2.738
 4984SOL    HW115851   5.045   4.658   2.692
 4984SOL    HW215852   4.895   4.724   2.689
 4985SOL     OW15853   5.854   5.292   3.061
 4985SOL    HW115854   5.942   5.327   3.094
 4985SOL    HW215855   5.780   5.345   3.102
 4986SOL     OW15856   0.903   4.858   1.948
 4986SOL    HW115857   0.976   4.834   2.012
 4986SOL    HW215858   0.830   4.790   1.954
 4987SOL     OW15859   0.834   0.213   2.316
 4987SOL    HW115860   0.791   0.190   2.228
 4987SOL    HW215861   0.859   0.310   2.316
 4988SOL     OW15862   5.914   6.931   3.266
 4988SOL    HW115863   5.830   6.917   3.319
 4988SOL    HW215864   5.990   6.951   3.328
 4989SOL     OW15865   4.712   1.119   2.578
 4989SOL    HW115866   4.618   1.153   2.577
 4989SOL    HW215867   4.712   1.021   2.561
 4990SOL     OW15868   4.549   1.505   5.697
 4990SOL    HW115869   4.574   1.409   5.688
 4990SOL    HW215870   4.449   1.514   5.693
 4991SOL     OW15871   0.685   5.821   4.925
 4991SOL    HW115872   0.723   5.893   4.983
 4991SOL    HW215873   0.667   5.739   4.980
 4992SOL     OW15874   7.026   1.169   3.576
 4992SOL    HW115875   0.084   1.134   3.609
 4992SOL    HW215876   6.984   1.226   3.646
 4993SOL     OW15877   4.653   6.366   5.141
 4993SOL    HW115878   4.591   6.424   5.194
 4993SOL    HW215879   4.705   6.423   5.077
 4994SOL     OW15880   2.946   4.962   5.817
 4994SOL    HW115881   2.898   5.050   5.826
 4994SOL    HW215882   2.890   4.890   5.857
 4995SOL     OW15883   0.294   0.405   4.743
 4995SOL    HW115884   0.381   0.453   4.728
 4995SOL    HW215885   0.275   0.401   4.841
 4996SOL     OW15886   0.188   1.689   4.560
 4996SOL    HW115887   0.091   1.710   4.560
 4996SOL    HW215888   0.240   1.773   4.544
 4997SOL     OW15889   3.423   1.858   1.321
 4997SOL    HW115890   3.474   1.942   1.339
 4997SOL    HW215891   3.439   1.792   1.395
 4998SOL     OW15892   1.103   3.233   3.783
 4998SOL    HW115893   1.169   3.258   3.854
 4998SOL    HW215894   1.091   3.133   3.783
 4999SOL     OW15895   0.723   4.121   4.800
 4999SOL    HW115896   0.800   4.143   4.740
 4999SOL    HW215897   0.672   4.044   4.763
 5000SOL     OW15898   2.945   5.805   3.500
 5000SOL    HW115899   2.942   5.904   3.512
 5000SOL    HW215900   2.966   5.761   3.587
 5001SOL     OW15901   1.047   5.580   2.915
 5001SOL    HW115902   1.063   5.580   3.014
 5001SOL    HW215903   1.054   5.673   2.880
 5002SOL     OW15904   0.569   3.889   2.721
 5002SOL    HW115905   0.537   3.963   2.779
 5002SOL    HW215906   0.523   3.804   2.747
 5003SOL     OW15907   4.223   5.996   3.071
 5003SOL    HW115908   4.173   5.994   3.157
 5003SOL    HW215909   4.246   6.090   3.048
 5004SOL     OW15910   3.283   6.138   6.160
 5004SOL    HW115911   3.232   6.087   6.090
 5004SOL    HW215912   3.351   6.078   6.201
 5005SOL     OW15913   2.880   3.246   6.488
 5005SOL    HW115914   2.785   3.228   6.514
 5005SOL    HW215915   2.896   3.344   6.485
 5006SOL     OW15916   5.350   1.732   1.834
 5006SOL    HW115917   5.410   1.714   1.756
 5006SOL    HW215918   5.255   1.733   1.803
 5007SOL     OW15919   6.210   0.707   1.455
 5007SOL    HW115920   6.167   0.789   1.493
 5007SOL    HW215921   6.204   0.710   1.355
 5008SOL     OW15922   6.204   0.069   1.793
 5008SOL    HW115923   6.245   0.003   1.857
 5008SOL    HW215924   6.263   0.148   1.784
 5009SOL     OW15925   1.001   2.678   0.581
 5009SOL    HW115926   0.960   2.628   0.505
 5009SOL    HW215927   1.081   2.728   0.547
 5010SOL     OW15928   3.395   2.542   0.218
 5010SOL    HW115929   3.430   2.510   0.306
 5010SOL    HW215930   3.470   2.548   0.152
 5011SOL     OW15931   2.026   3.680   6.922
 5011SOL    HW115932   2.088   3.758   6.915
 5011SOL    HW215933   2.033   3.639   7.013
 5012SOL     OW15934   5.389   2.048   5.583
 5012SOL    HW115935   5.396   2.065   5.485
 5012SOL    HW215936   5.473   2.006   5.616
 5013SOL     OW15937   6.266   0.137   5.093
 5013SOL    HW115938   6.248   0.059   5.033
 5013SOL    HW215939   6.259   0.108   5.188
 5014SOL     OW15940   6.681   3.499   1.158
 5014SOL    HW115941   6.685   3.400   1.172
 5014SOL    HW215942   6.694   3.546   1.246
 5015SOL     OW15943   5.649   0.430   4.480
 5015SOL    HW115944   5.637   0.452   4.577
 5015SOL    HW215945   5.648   0.514   4.426
 5016SOL     OW15946   0.919   3.533   4.479
 5016SOL    HW115947   0.833   3.576   4.454
 5016SOL    HW215948   0.969   3.507   4.396
 5017SOL     OW15949   0.706   2.267   1.088
 5017SOL    HW115950   0.658   2.200   1.145
 5017SOL    HW215951   0.651   2.287   1.007
 5018SOL     OW15952   0.446   5.149   2.013
 5018SOL    HW115953   0.392   5.088   1.956
 5018SOL    HW215954   0.436   5.123   2.109
 5019SOL     OW15955   1.878   5.848   5.223
 5019SOL    HW115956   1.873   5.816   5.128
 5019SOL    HW215957   1.966   5.823   5.263
 5020SOL     OW15958   0.441   6.677   4.746
 5020SOL    HW115959   0.467   6.652   4.652
 5020SOL    HW215960   0.512   6.649   4.809
 5021SOL     OW15961   2.100   0.793   1.084
 5021SOL    HW115962   2.069   0.841   1.002
 5021SOL    HW215963   2.200   0.786   1.084
 5022SOL     OW15964   0.508   2.612   1.465
 5022SOL    HW115965   0.562   2.675   1.408
 5022SOL    HW215966   0.461   2.664   1.536
 5023SOL     OW15967   0.498   4.151   1.885
 5023SOL    HW115968   0.572   4.086   1.867
 5023SOL    HW215969   0.494   4.218   1.811
 5024SOL     OW15970   5.373   3.760   0.759
 5024SOL    HW115971   5.310   3.738   0.833
 5024SOL    HW215972   5.351   3.851   0.722
 5025SOL     OW15973   4.402   1.986   4.185
 5025SOL    HW115974   4.429   1.981   4.281
 5025SOL    HW215975   4.311   1.947   4.173
 5026SOL     OW15976   5.814   5.763   5.038
 5026SOL    HW115977   5.849   5.738   4.948
 5026SOL    HW215978   5.838   5.693   5.104
 5027SOL     OW15979   4.808   0.291   0.718
 5027SOL    HW115980   4.838   0.197   0.733
 5027SOL    HW215981   4.735   0.314   0.782
 5028SOL     OW15982   0.123   2.232   2.711
 5028SOL    HW115983   0.076   2.239   2.623
 5028SOL    HW215984   0.091   2.303   2.772
 5029SOL     OW15985   6.799   2.728   2.006
 5029SOL    HW115986   6.739   2.694   2.079
 5029SOL    HW215987   6.866   2.791   2.045
 5030SOL     OW15988   0.077   5.912   6.389
 5030SOL    HW115989   0.163   5.932   6.434
 5030SOL    HW215990   0.081   5.944   6.294
 5031SOL     OW15991   0.001   1.198   5.241
 5031SOL    HW115992   6.996   1.107   5.217
 5031SOL    HW215993   0.090   1.211   5.198
 5032SOL     OW15994   3.376   2.439   6.058
 5032SOL    HW115995   3.304   2.449   5.990
 5032SOL    HW215996   3.390   2.526   6.105
 5033SOL     OW15997   2.234   1.534   0.647
 5033SOL    HW115998   2.318   1.532   0.701
 5033SOL    HW215999   2.237   1.610   0.583
 5034SOL     OW16000   4.119   6.448   3.993
 5034SOL    HW116001   4.172   6.429   4.075
 5034SOL    HW216002   4.049   6.378   3.981
 5035SOL     OW16003   6.871   4.556   4.862
 5035SOL    HW116004   6.885   4.512   4.951
 5035SOL    HW216005   6.895   4.492   4.789
 5036SOL     OW16006   6.957   3.861   5.472
 5036SOL    HW116007   6.902   3.905   5.401
 5036SOL    HW216008   0.006   3.816   5.430
 5037SOL     OW16009   4.007   4.554   1.241
 5037SOL    HW116010   4.007   4.627   1.172
 5037SOL    HW216011   4.025   4.467   1.196
 5038SOL     OW16012   3.382   3.363   4.272
 5038SOL    HW116013   3.423   3.346   4.362
 5038SOL    HW216014   3.301   3.421   4.282
 5039SOL     OW16015   1.978   3.554   5.999
 5039SOL    HW116016   2.058   3.506   6.034
 5039SOL    HW216017   1.941   3.504   5.920
 5040SOL     OW16018   1.335   5.218   5.348
 5040SOL    HW116019   1.314   5.240   5.444
 5040SOL    HW216020   1.325   5.301   5.292
 5041SOL     OW16021   0.906   3.098   1.668
 5041SOL    HW116022   0.921   3.192   1.637
 5041SOL    HW216023   0.818   3.091   1.714
 5042SOL     OW16024   0.126   3.950   6.118
 5042SOL    HW116025   0.201   4.001   6.076
 5042SOL    HW216026   0.107   3.868   6.064
 5043SOL     OW16027   4.087   0.555   0.479
 5043SOL    HW116028   4.114   0.641   0.524
 5043SOL    HW216029   4.159   0.529   0.414
 5044SOL     OW16030   6.658   5.892   1.045
 5044SOL    HW116031   6.740   5.851   1.005
 5044SOL    HW216032   6.673   5.908   1.143
 5045SOL     OW16033   6.387   4.521   6.202
 5045SOL    HW116034   6.345   4.610   6.183
 5045SOL    HW216035   6.358   4.490   6.293
 5046SOL     OW16036   3.622   3.651   4.265
 5046SOL    HW116037   3.621   3.750   4.280
 5046SOL    HW216038   3.628   3.631   4.167
 5047SOL     OW16039   2.148   3.222   3.065
 5047SOL    HW116040   2.116   3.178   2.981
 5047SOL    HW216041   2.248   3.216   3.069
 5048SOL     OW16042   1.903   1.086   5.039
 5048SOL    HW116043   1.931   1.146   5.114
 5048SOL    HW216044   1.969   1.013   5.028
 5049SOL     OW16045   5.967   1.001   5.997
 5049SOL    HW116046   6.010   1.072   6.054
 5049SOL    HW216047   5.910   1.045   5.927
 5050SOL     OW16048   1.618   1.303   6.803
 5050SOL    HW116049   1.553   1.373   6.831
 5050SOL    HW216050   1.711   1.330   6.831
 5051SOL     OW16051   3.453   4.600   1.147
 5051SOL    HW116052   3.544   4.624   1.180
 5051SOL    HW216053   3.384   4.630   1.213
 5052SOL     OW16054   3.350   2.190   6.134
 5052SOL    HW116055   3.402   2.124   6.081
 5052SOL    HW216056   3.371   2.283   6.103
 5053SOL     OW16057   0.763   4.777   2.891
 5053SOL    HW116058   0.804   4.704   2.945
 5053SOL    HW216059   0.805   4.779   2.800
 5054SOL     OW16060   3.360   5.013   5.483
 5054SOL    HW116061   3.312   4.937   5.526
 5054SOL    HW216062   3.457   4.991   5.473
 5055SOL     OW16063   0.415   3.054   5.873
 5055SOL    HW116064   0.449   3.111   5.947
 5055SOL    HW216065   0.491   3.024   5.815
 5056SOL     OW16066   4.848   4.054   5.085
 5056SOL    HW116067   4.798   4.104   5.015
 5056SOL    HW216068   4.887   3.971   5.046
 5057SOL     OW16069   1.056   0.067   2.391
 5057SOL    HW116070   1.041   6.998   2.388
 5057SOL    HW216071   0.972   0.115   2.366
 5058SOL     OW16072   3.309   4.757   6.699
 5058SOL    HW116073   3.214   4.728   6.692
 5058SOL    HW216074   3.335   4.766   6.795
 5059SOL     OW16075   6.753   6.780   3.034
 5059SOL    HW116076   6.852   6.782   3.020
 5059SOL    HW216077   6.717   6.873   3.028
 5060SOL     OW16078   6.531   2.162   5.793
 5060SOL    HW116079   6.514   2.178   5.890
 5060SOL    HW216080   6.550   2.066   5.778
 5061SOL     OW16081   4.969   2.871   0.284
 5061SOL    HW116082   4.966   2.832   0.192
 5061SOL    HW216083   5.015   2.808   0.346
 5062SOL     OW16084   0.425   0.078   1.968
 5062SOL    HW116085   0.439   7.009   1.971
 5062SOL    HW216086   0.474   0.116   1.889
 5063SOL     OW16087   0.583   6.595   1.715
 5063SOL    HW116088   0.573   6.646   1.801
 5063SOL    HW216089   0.619   6.656   1.644
 5064SOL     OW16090   4.829   3.212   0.508
 5064SOL    HW116091   4.733   3.240   0.502
 5064SOL    HW216092   4.856   3.169   0.422
 5065SOL     OW16093   3.345   0.093   5.258
 5065SOL    HW116094   3.403   0.174   5.244
 5065SOL    HW216095   3.310   0.061   5.170
 5066SOL     OW16096   5.504   4.426   1.629
 5066SOL    HW116097   5.518   4.389   1.537
 5066SOL    HW216098   5.481   4.352   1.691
 5067SOL     OW16099   5.358   1.364   6.987
 5067SOL    HW116100   5.427   1.340   0.026
 5067SOL    HW216101   5.268   1.334   7.018
 5068SOL     OW16102   3.217   4.385   0.823
 5068SOL    HW116103   3.289   4.451   0.845
 5068SOL    HW216104   3.148   4.429   0.765
 5069SOL     OW16105   1.143   4.310   2.842
 5069SOL    HW116106   1.116   4.282   2.934
 5069SOL    HW216107   1.074   4.281   2.776
 5070SOL     OW16108   4.879   3.855   4.316
 5070SOL    HW116109   4.898   3.761   4.287
 5070SOL    HW216110   4.878   3.859   4.416
 5071SOL     OW16111   4.120   2.167   5.115
 5071SOL    HW116112   4.152   2.085   5.067
 5071SOL    HW216113   4.197   2.229   5.129
 5072SOL     OW16114   6.915   4.826   0.887
 5072SOL    HW116115   6.886   4.841   0.981
 5072SOL    HW216116   6.842   4.851   0.824
 5073SOL     OW16117   6.868   0.217   2.085
 5073SOL    HW116118   6.946   0.173   2.039
 5073SOL    HW216119   6.901   0.268   2.165
 5074SOL     OW16120   3.097   3.887   6.793
 5074SOL    HW116121   3.099   3.912   6.696
 5074SOL    HW216122   3.177   3.832   6.815
 5075SOL     OW16123   6.932   0.297   5.528
 5075SOL    HW116124   6.925   0.346   5.441
 5075SOL    HW216125   7.028   0.293   5.557
 5076SOL     OW16126   3.222   0.396   0.708
 5076SOL    HW116127   3.137   0.343   0.700
 5076SOL    HW216128   3.256   0.418   0.617
 5077SOL     OW16129   1.383   2.009   3.728
 5077SOL    HW116130   1.482   1.998   3.739
 5077SOL    HW216131   1.363   2.104   3.705
 5078SOL     OW16132   1.543   2.238   3.273
 5078SOL    HW116133   1.548   2.299   3.352
 5078SOL    HW216134   1.617   2.259   3.210
 5079SOL     OW16135   3.009   5.250   5.988
 5079SOL    HW116136   2.975   5.281   5.899
 5079SOL    HW216137   3.099   5.290   6.006
 5080SOL     OW16138   5.879   6.729   5.289
 5080SOL    HW116139   5.806   6.784   5.331
 5080SOL    HW216140   5.939   6.694   5.360
 5081SOL     OW16141   2.994   3.768   3.546
 5081SOL    HW116142   2.926   3.790   3.477
 5081SOL    HW216143   3.086   3.773   3.505
 5082SOL     OW16144   5.428   6.351   5.535
 5082SOL    HW116145   5.498   6.287   5.567
 5082SOL    HW216146   5.425   6.430   5.596
 5083SOL     OW16147   1.505   6.971   2.157
 5083SOL    HW116148   1.428   0.002   2.137
 5083SOL    HW216149   1.479   6.877   2.136
 5084SOL     OW16150   1.052   5.382   3.660
 5084SOL    HW116151   1.041   5.394   3.758
 5084SOL    HW216152   1.080   5.288   3.641
 5085SOL     OW16153   5.813   1.233   6.938
 5085SOL    HW116154   5.770   1.161   6.992
 5085SOL    HW216155   5.793   1.219   6.841
 5086SOL     OW16156   6.844   4.848   3.411
 5086SOL    HW116157   6.788   4.930   3.400
 5086SOL    HW216158   6.834   4.791   3.329
 5087SOL     OW16159   6.251   6.124   4.453
 5087SOL    HW116160   6.161   6.090   4.480
 5087SOL    HW216161   6.297   6.165   4.532
 5088SOL     OW16162   6.386   1.012   6.124
 5088SOL    HW116163   6.467   0.962   6.154
 5088SOL    HW216164   6.346   0.966   6.045
 5089SOL     OW16165   6.545   2.982   2.148
 5089SOL    HW116166   6.574   2.888   2.131
 5089SOL    HW216167   6.548   3.000   2.247
 5090SOL     OW16168   2.151   4.742   0.938
 5090SOL    HW116169   2.097   4.768   1.018
 5090SOL    HW216170   2.248   4.756   0.957
 5091SOL     OW16171   1.355   6.096   2.968
 5091SOL    HW116172   1.398   6.084   2.879
 5091SOL    HW216173   1.343   6.193   2.987
 5092SOL     OW16174   3.484   1.990   0.889
 5092SOL    HW116175   3.432   2.072   0.912
 5092SOL    HW216176   3.447   1.912   0.940
 5093SOL     OW16177   1.140   1.957   2.244
 5093SOL    HW116178   1.080   2.033   2.220
 5093SOL    HW216179   1.165   1.907   2.162
 5094SOL     OW16180   1.147   6.617   5.394
 5094SOL    HW116181   1.159   6.518   5.394
 5094SOL    HW216182   1.173   6.653   5.484
 5095SOL     OW16183   1.934   0.648   4.590
 5095SOL    HW116184   1.850   0.694   4.560
 5095SOL    HW216185   1.927   0.551   4.570
 5096SOL     OW16186   4.818   3.554   0.534
 5096SOL    HW116187   4.826   3.458   0.563
 5096SOL    HW216188   4.722   3.582   0.541
 5097SOL     OW16189   1.439   0.633   5.631
 5097SOL    HW116190   1.395   0.721   5.611
 5097SOL    HW216191   1.485   0.639   5.720
 5098SOL     OW16192   0.796   1.096   2.388
 5098SOL    HW116193   0.803   1.157   2.309
 5098SOL    HW216194   0.705   1.104   2.428
 5099SOL     OW16195   0.986   0.570   5.230
 5099SOL    HW116196   0.995   0.528   5.321
 5099SOL    HW216197   1.073   0.611   5.203
 5100SOL     OW16198   5.811   6.947   6.672
 5100SOL    HW116199   5.857   6.978   6.589
 5100SOL    HW216200   5.727   6.998   6.685
 5101SOL     OW16201   4.245   6.740   0.110
 5101SOL    HW116202   4.171   6.717   0.173
 5101SOL    HW216203   4.333   6.720   0.154
 5102SOL     OW16204   5.180   0.835   5.584
 5102SOL    HW116205   5.116   0.886   5.525
 5102SOL    HW216206   5.250   0.793   5.527
 5103SOL     OW16207   0.564   0.806   4.023
 5103SOL    HW116208   0.467   0.781   4.023
 5103SOL    HW216209   0.573   0.906   4.024
 5104SOL     OW16210   2.119   1.012   1.442
 5104SOL    HW116211   2.103   0.916   1.416
 5104SOL    HW216212   2.083   1.072   1.371
 5105SOL     OW16213   4.250   4.075   6.512
 5105SOL    HW116214   4.259   4.159   6.459
 5105SOL    HW216215   4.167   4.079   6.567
 5106SOL     OW16216   3.285   0.181   2.605
 5106SOL    HW116217   3.350   0.123   2.557
 5106SOL    HW216218   3.213   0.125   2.647
 5107SOL     OW16219   3.028   0.097   6.583
 5107SOL    HW116220   2.970   0.156   6.639
 5107SOL    HW216221   2.974   0.020   6.548
 5108SOL     OW16222   3.086   3.885   3.980
 5108SOL    HW116223   3.063   3.922   3.890
 5108SOL    HW216224   3.155   3.813   3.970
 5109SOL     OW16225   0.218   1.050   0.911
 5109SOL    HW116226   0.208   1.148   0.926
 5109SOL    HW216227   0.313   1.028   0.888
 5110SOL     OW16228   2.028   6.514   5.424
 5110SOL    HW116229   2.050   6.506   5.522
 5110SOL    HW216230   2.074   6.440   5.375
 5111SOL     OW16231   1.544   1.454   6.558
 5111SOL    HW116232   1.621   1.398   6.587
 5111SOL    HW216233   1.460   1.421   6.603
 5112SOL     OW16234   0.626   6.181   3.694
 5112SOL    HW116235   0.688   6.258   3.686
 5112SOL    HW216236   0.553   6.190   3.626
 5113SOL     OW16237   1.246   0.782   0.137
 5113SOL    HW116238   1.168   0.730   0.171
 5113SOL    HW216239   1.255   0.866   0.189
 5114SOL     OW16240   3.348   4.985   0.174
 5114SOL    HW116241   3.357   5.075   0.216
 5114SOL    HW216242   3.251   4.960   0.167
 5115SOL     OW16243   1.503   3.791   6.216
 5115SOL    HW116244   1.432   3.808   6.284
 5115SOL    HW216245   1.460   3.770   6.128
 5116SOL     OW16246   5.307   4.621   0.151
 5116SOL    HW116247   5.236   4.683   0.182
 5116SOL    HW216248   5.388   4.631   0.208
 5117SOL     OW16249   2.566   4.590   4.392
 5117SOL    HW116250   2.521   4.678   4.374
 5117SOL    HW216251   2.497   4.519   4.407
 5118SOL     OW16252   4.649   5.745   0.447
 5118SOL    HW116253   4.661   5.822   0.386
 5118SOL    HW216254   4.644   5.660   0.394
 5119SOL     OW16255   5.546   0.932   2.519
 5119SOL    HW116256   5.473   0.987   2.480
 5119SOL    HW216257   5.526   0.835   2.505
 5120SOL     OW16258   5.266   1.078   2.825
 5120SOL    HW116259   5.277   1.106   2.730
 5120SOL    HW216260   5.302   1.149   2.885
 5121SOL     OW16261   0.260   3.382   5.301
 5121SOL    HW116262   0.308   3.304   5.262
 5121SOL    HW216263   0.265   3.459   5.238
 5122SOL     OW16264   2.380   0.265   3.116
 5122SOL    HW116265   2.446   0.202   3.076
 5122SOL    HW216266   2.369   0.246   3.214
 5123SOL     OW16267   4.757   4.089   2.785
 5123SOL    HW116268   4.698   4.009   2.798
 5123SOL    HW216269   4.782   4.097   2.689
 5124SOL     OW16270   3.168   6.455   0.045
 5124SOL    HW116271   3.263   6.484   0.058
 5124SOL    HW216272   3.150   6.375   0.104
 5125SOL     OW16273   0.145   3.674   3.887
 5125SOL    HW116274   0.202   3.629   3.818
 5125SOL    HW216275   0.142   3.773   3.868
 5126SOL     OW16276   5.977   5.021   5.951
 5126SOL    HW116277   5.947   4.970   5.871
 5126SOL    HW216278   5.956   4.969   6.034
 5127SOL     OW16279   5.192   3.417   6.724
 5127SOL    HW116280   5.247   3.342   6.761
 5127SOL    HW216281   5.197   3.495   6.786
 5128SOL     OW16282   0.840   0.890   6.874
 5128SOL    HW116283   0.866   0.948   6.951
 5128SOL    HW216284   0.852   0.939   6.788
 5129SOL     OW16285   5.038   0.871   2.399
 5129SOL    HW116286   4.946   0.909   2.407
 5129SOL    HW216287   5.076   0.892   2.309
 5130SOL     OW16288   1.275   5.196   4.408
 5130SOL    HW116289   1.352   5.170   4.351
 5130SOL    HW216290   1.288   5.159   4.500
 5131SOL     OW16291   2.993   4.962   3.267
 5131SOL    HW116292   2.898   4.955   3.298
 5131SOL    HW216293   3.007   4.900   3.191
 5132SOL     OW16294   3.490   1.763   6.711
 5132SOL    HW116295   3.433   1.795   6.786
 5132SOL    HW216296   3.571   1.820   6.703
 5133SOL     OW16297   4.170   5.395   6.663
 5133SOL    HW116298   4.247   5.382   6.601
 5133SOL    HW216299   4.106   5.461   6.624
 5134SOL     OW16300   6.697   6.983   1.549
 5134SOL    HW116301   6.604   6.998   1.515
 5134SOL    HW216302   6.741   0.042   1.563
 5135SOL     OW16303   6.448   2.977   1.881
 5135SOL    HW116304   6.465   2.986   1.979
 5135SOL    HW216305   6.497   2.897   1.846
 5136SOL     OW16306   0.846   0.897   6.091
 5136SOL    HW116307   0.765   0.940   6.051
 5136SOL    HW216308   0.820   0.810   6.132
 5137SOL     OW16309   5.230   1.912   5.312
 5137SOL    HW116310   5.253   1.931   5.407
 5137SOL    HW216311   5.148   1.856   5.308
 5138SOL     OW16312   3.536   3.307   4.067
 5138SOL    HW116313   3.485   3.323   4.151
 5138SOL    HW216314   3.577   3.216   4.069
 5139SOL     OW16315   1.781   0.503   4.944
 5139SOL    HW116316   1.735   0.494   5.032
 5139SOL    HW216317   1.743   0.437   4.879
 5140SOL     OW16318   3.974   2.283   6.030
 5140SOL    HW116319   3.954   2.262   5.934
 5140SOL    HW216320   4.046   2.353   6.035
 5141SOL     OW16321   6.999   2.901   2.109
 5141SOL    HW116322   0.046   2.965   2.114
 5141SOL    HW216323   6.948   2.904   2.195
 5142SOL     OW16324   6.663   0.045   2.920
 5142SOL    HW116325   6.588   0.102   2.886
 5142SOL    HW216326   6.742   0.102   2.943
 5143SOL     OW16327   0.864   4.968   4.266
 5143SOL    HW116328   0.817   4.913   4.334
 5143SOL    HW216329   0.897   5.053   4.307
 5144SOL     OW16330   1.695   3.637   6.350
 5144SOL    HW116331   1.739   3.561   6.303
 5144SOL    HW216332   1.609   3.660   6.304
 5145SOL     OW16333   2.546   6.356   6.808
 5145SOL    HW116334   2.523   6.415   6.730
 5145SOL    HW216335   2.549   6.412   6.892
 5146SOL     OW16336   5.422   4.909   6.129
 5146SOL    HW116337   5.435   5.002   6.163
 5146SOL    HW216338   5.332   4.875   6.157
 5147SOL     OW16339   4.794   2.916   3.308
 5147SOL    HW116340   4.893   2.904   3.313
 5147SOL    HW216341   4.749   2.852   3.370
 5148SOL     OW16342   0.529   0.178   1.732
 5148SOL    HW116343   0.452   0.243   1.734
 5148SOL    HW216344   0.615   0.228   1.733
 5149SOL     OW16345   6.000   4.311   3.242
 5149SOL    HW116346   5.957   4.401   3.241
 5149SOL    HW216347   6.075   4.310   3.308
 5150SOL     OW16348   0.513   5.066   3.888
 5150SOL    HW116349   0.569   5.055   3.970
 5150SOL    HW216350   0.441   5.133   3.905
 5151SOL     OW16351   5.985   4.505   2.349
 5151SOL    HW116352   6.079   4.482   2.323
 5151SOL    HW216353   5.979   4.602   2.373
 5152SOL     OW16354   1.326   0.838   6.170
 5152SOL    HW116355   1.273   0.912   6.211
 5152SOL    HW216356   1.375   0.874   6.090
 5153SOL     OW16357   1.318   1.983   0.793
 5153SOL    HW116358   1.358   2.058   0.740
 5153SOL    HW216359   1.247   2.018   0.853
 5154SOL     OW16360   0.553   2.808   6.757
 5154SOL    HW116361   0.624   2.740   6.741
 5154SOL    HW216362   0.513   2.795   6.848
 5155SOL     OW16363   1.946   1.266   0.569
 5155SOL    HW116364   1.919   1.322   0.648
 5155SOL    HW216365   2.015   1.315   0.516
 5156SOL     OW16366   5.529   5.067   5.697
 5156SOL    HW116367   5.465   5.031   5.630
 5156SOL    HW216368   5.540   5.166   5.684
 5157SOL     OW16369   3.961   0.782   2.068
 5157SOL    HW116370   3.939   0.872   2.105
 5157SOL    HW216371   3.949   0.783   1.969
 5158SOL     OW16372   3.885   1.504   2.678
 5158SOL    HW116373   3.878   1.591   2.630
 5158SOL    HW216374   3.957   1.509   2.747
 5159SOL     OW16375   5.949   3.198   5.587
 5159SOL    HW116376   5.868   3.161   5.541
 5159SOL    HW216377   6.027   3.195   5.526
 5160SOL     OW16378   6.828   6.201   3.374
 5160SOL    HW116379   6.874   6.264   3.437
 5160SOL    HW216380   6.791   6.124   3.426
 5161SOL     OW16381   0.980   3.206   0.222
 5161SOL    HW116382   1.010   3.188   0.315
 5161SOL    HW216383   0.887   3.169   0.210
 5162SOL     OW16384   6.822   6.421   2.724
 5162SOL    HW116385   6.746   6.368   2.762
 5162SOL    HW216386   6.811   6.517   2.751
 5163SOL     OW16387   2.953   6.411   2.541
 5163SOL    HW116388   3.019   6.364   2.482
 5163SOL    HW216389   2.891   6.466   2.485
 5164SOL     OW16390   3.340   3.698   0.869
 5164SOL    HW116391   3.287   3.764   0.816
 5164SOL    HW216392   3.424   3.741   0.901
 5165SOL     OW16393   1.153   4.758   6.997
 5165SOL    HW116394   1.114   4.830   0.025
 5165SOL    HW216395   1.079   4.708   6.952
 5166SOL     OW16396   1.628   5.526   1.610
 5166SOL    HW116397   1.602   5.430   1.609
 5166SOL    HW216398   1.547   5.582   1.593
 5167SOL     OW16399   5.021   2.641   5.187
 5167SOL    HW116400   4.952   2.686   5.131
 5167SOL    HW216401   4.980   2.610   5.273
 5168SOL     OW16402   4.227   2.316   2.305
 5168SOL    HW116403   4.218   2.412   2.280
 5168SOL    HW216404   4.321   2.286   2.289
 5169SOL     OW16405   4.096   6.710   3.562
 5169SOL    HW116406   4.116   6.661   3.647
 5169SOL    HW216407   3.999   6.731   3.557
 5170SOL     OW16408   1.153   3.057   6.337
 5170SOL    HW116409   1.152   3.154   6.358
 5170SOL    HW216410   1.122   3.005   6.416
 5171SOL     OW16411   2.215   6.009   4.975
 5171SOL    HW116412   2.244   5.989   5.069
 5171SOL    HW216413   2.280   5.969   4.911
 5172SOL     OW16414   6.990   5.487   3.426
 5172SOL    HW116415   6.976   5.579   3.464
 5172SOL    HW216416   6.985   5.492   3.327
 5173SOL     OW16417   5.022   3.881   5.735
 5173SOL    HW116418   5.048   3.896   5.639
 5173SOL    HW216419   5.049   3.960   5.789
 5174SOL     OW16420   2.681   6.470   3.461
 5174SOL    HW116421   2.611   6.501   3.397
 5174SOL    HW216422   2.671   6.518   3.548
 5175SOL     OW16423   2.666   4.494   6.926
 5175SOL    HW116424   2.718   4.578   6.915
 5175SOL    HW216425   2.632   4.488   7.020
 5176SOL     OW16426   5.487   5.632   0.287
 5176SOL    HW116427   5.557   5.584   0.340
 5176SOL    HW216428   5.475   5.587   0.199
 5177SOL     OW16429   5.148   0.576   0.463
 5177SOL    HW116430   5.239   0.539   0.480
 5177SOL    HW216431   5.107   0.604   0.550
 5178SOL     OW16432   1.058   3.730   1.950
 5178SOL    HW116433   1.152   3.749   1.921
 5178SOL    HW216434   1.058   3.707   2.047
 5179SOL     OW16435   6.571   4.314   3.371
 5179SOL    HW116436   6.573   4.215   3.379
 5179SOL    HW216437   6.520   4.340   3.289
 5180SOL     OW16438   2.681   7.000   1.691
 5180SOL    HW116439   2.653   6.904   1.686
 5180SOL    HW216440   2.725   7.027   1.605
 5181SOL     OW16441   0.626   0.377   6.132
 5181SOL    HW116442   0.646   0.415   6.042
 5181SOL    HW216443   0.667   0.286   6.139
 5182SOL     OW16444   3.907   5.319   3.034
 5182SOL    HW116445   3.915   5.240   2.973
 5182SOL    HW216446   3.928   5.291   3.127
 5183SOL     OW16447   4.096   1.780   3.567
 5183SOL    HW116448   4.118   1.827   3.481
 5183SOL    HW216449   4.169   1.798   3.633
 5184SOL     OW16450   2.214   1.041   4.134
 5184SOL    HW116451   2.313   1.035   4.124
 5184SOL    HW216452   2.190   1.130   4.173
 5185SOL     OW16453   5.837   1.026   1.806
 5185SOL    HW116454   5.879   0.937   1.791
 5185SOL    HW216455   5.906   1.091   1.839
 5186SOL     OW16456   6.747   3.193   6.113
 5186SOL    HW116457   6.837   3.165   6.147
 5186SOL    HW216458   6.681   3.190   6.188
 5187SOL     OW16459   1.921   4.918   5.382
 5187SOL    HW116460   1.992   4.988   5.390
 5187SOL    HW216461   1.844   4.955   5.328
 5188SOL     OW16462   7.002   6.611   2.287
 5188SOL    HW116463   6.912   6.602   2.244
 5188SOL    HW216464   0.029   6.532   2.264
 5189SOL     OW16465   5.344   0.600   6.057
 5189SOL    HW116466   5.386   0.538   5.991
 5189SOL    HW216467   5.247   0.577   6.067
 5190SOL     OW16468   1.619   3.388   1.451
 5190SOL    HW116469   1.690   3.419   1.388
 5190SOL    HW216470   1.538   3.361   1.399
 5191SOL     OW16471   3.216   5.212   2.556
 5191SOL    HW116472   3.234   5.306   2.586
 5191SOL    HW216473   3.240   5.148   2.629
 5192SOL     OW16474   2.181   5.439   2.036
 5192SOL    HW116475   2.239   5.366   2.072
 5192SOL    HW216476   2.217   5.470   1.949
 5193SOL     OW16477   6.225   0.830   6.747
 5193SOL    HW116478   6.262   0.834   6.840
 5193SOL    HW216479   6.192   0.737   6.728
 5194SOL     OW16480   4.560   2.425   0.114
 5194SOL    HW116481   4.463   2.426   0.088
 5194SOL    HW216482   4.569   2.394   0.208
 5195SOL     OW16483   6.872   0.765   4.369
 5195SOL    HW116484   6.880   0.701   4.445
 5195SOL    HW216485   6.943   0.744   4.301
 5196SOL     OW16486   4.999   6.186   3.325
 5196SOL    HW116487   4.951   6.271   3.348
 5196SOL    HW216488   5.095   6.206   3.309
 5197SOL     OW16489   1.404   4.476   5.867
 5197SOL    HW116490   1.414   4.522   5.779
 5197SOL    HW216491   1.373   4.382   5.852
 5198SOL     OW16492   5.247   5.763   2.814
 5198SOL    HW116493   5.168   5.710   2.781
 5198SOL    HW216494   5.302   5.792   2.736
 5199SOL     OW16495   6.523   5.186   1.374
 5199SOL    HW116496   6.545   5.153   1.466
 5199SOL    HW216497   6.448   5.132   1.336
 5200SOL     OW16498   0.540   3.742   5.533
 5200SOL    HW116499   0.504   3.694   5.454
 5200SOL    HW216500   0.547   3.840   5.513
 5201SOL     OW16501   1.729   5.389   4.174
 5201SOL    HW116502   1.669   5.329   4.121
 5201SOL    HW216503   1.734   5.478   4.129
 5202SOL     OW16504   6.623   3.651   0.237
 5202SOL    HW116505   6.722   3.656   0.252
 5202SOL    HW216506   6.588   3.742   0.215
 5203SOL     OW16507   0.795   2.363   6.668
 5203SOL    HW116508   0.841   2.332   6.585
 5203SOL    HW216509   0.748   2.286   6.711
 5204SOL     OW16510   4.275   5.254   6.935
 5204SOL    HW116511   4.216   5.335   6.945
 5204SOL    HW216512   4.250   5.205   6.852
 5205SOL     OW16513   1.904   0.419   1.520
 5205SOL    HW116514   1.819   0.421   1.573
 5205SOL    HW216515   1.918   0.507   1.475
 5206SOL     OW16516   0.587   4.154   6.923
 5206SOL    HW116517   0.616   4.059   6.917
 5206SOL    HW216518   0.667   4.214   6.921
 5207SOL     OW16519   1.563   5.242   4.414
 5207SOL    HW116520   1.625   5.168   4.438
 5207SOL    HW216521   1.565   5.257   4.315
 5208SOL     OW16522   3.577   0.572   6.843
 5208SOL    HW116523   3.676   0.565   6.836
 5208SOL    HW216524   3.539   0.484   6.872
 5209SOL     OW16525   6.231   5.830   3.534
 5209SOL    HW116526   6.294   5.871   3.468
 5209SOL    HW216527   6.257   5.858   3.626
 5210SOL     OW16528   5.250   4.263   3.705
 5210SOL    HW116529   5.151   4.262   3.689
 5210SOL    HW216530   5.268   4.241   3.801
 5211SOL     OW16531   2.941   3.395   3.422
 5211SOL    HW116532   3.014   3.327   3.424
 5211SOL    HW216533   2.943   3.445   3.336
 5212SOL     OW16534   0.851   2.047   0.839
 5212SOL    HW116535   0.756   2.034   0.868
 5212SOL    HW216536   0.861   2.134   0.792
 5213SOL     OW16537   4.970   2.497   5.694
 5213SOL    HW116538   4.909   2.494   5.614
 5213SOL    HW216539   4.917   2.478   5.777
 5214SOL     OW16540   5.444   1.699   5.480
 5214SOL    HW116541   5.433   1.645   5.397
 5214SOL    HW216542   5.355   1.720   5.519
 5215SOL     OW16543   5.205   4.429   3.021
 5215SOL    HW116544   5.116   4.474   3.025
 5215SOL    HW216545   5.276   4.491   3.052
 5216SOL     OW16546   4.971   5.067   1.100
 5216SOL    HW116547   5.006   5.019   1.019
 5216SOL    HW216548   4.942   5.159   1.073
 5217SOL     OW16549   3.214   5.121   3.831
 5217SOL    HW116550   3.229   5.071   3.917
 5217SOL    HW216551   3.269   5.205   3.832
 5218SOL     OW16552   1.727   6.639   3.533
 5218SOL    HW116553   1.813   6.683   3.508
 5218SOL    HW216554   1.664   6.707   3.570
 5219SOL     OW16555   3.297   6.868   6.751
 5219SOL    HW116556   3.260   6.935   6.815
 5219SOL    HW216557   3.364   6.912   6.691
 5220SOL     OW16558   0.764   5.898   2.134
 5220SOL    HW116559   0.683   5.956   2.119
 5220SOL    HW216560   0.735   5.808   2.166
 5221SOL     OW16561   5.104   0.954   4.582
 5221SOL    HW116562   5.193   0.967   4.537
 5221SOL    HW216563   5.113   0.972   4.680
 5222SOL     OW16564   1.953   0.420   3.390
 5222SOL    HW116565   1.972   0.511   3.427
 5222SOL    HW216566   1.880   0.376   3.444
 5223SOL     OW16567   4.686   0.455   1.581
 5223SOL    HW116568   4.667   0.386   1.511
 5223SOL    HW216569   4.717   0.540   1.537
 5224SOL     OW16570   6.703   2.140   2.702
 5224SOL    HW116571   6.731   2.055   2.747
 5224SOL    HW216572   6.639   2.119   2.628
 5225SOL     OW16573   6.565   6.935   4.305
 5225SOL    HW116574   6.467   6.920   4.317
 5225SOL    HW216575   6.602   6.865   4.244
 5226SOL     OW16576   0.985   6.413   4.104
 5226SOL    HW116577   1.048   6.355   4.051
 5226SOL    HW216578   0.937   6.475   4.042
 5227SOL     OW16579   6.825   5.146   3.624
 5227SOL    HW116580   6.836   5.064   3.680
 5227SOL    HW216581   6.848   5.227   3.678
 5228SOL     OW16582   5.323   1.551   0.951
 5228SOL    HW116583   5.286   1.462   0.923
 5228SOL    HW216584   5.248   1.617   0.958
 5229SOL     OW16585   1.089   4.011   6.376
 5229SOL    HW116586   1.019   4.043   6.312
 5229SOL    HW216587   1.134   4.090   6.418
 5230SOL     OW16588   6.888   0.604   0.920
 5230SOL    HW116589   6.984   0.630   0.917
 5230SOL    HW216590   6.880   0.505   0.909
 5231SOL     OW16591   3.903   3.014   4.023
 5231SOL    HW116592   3.997   3.029   3.995
 5231SOL    HW216593   3.842   3.070   3.967
 5232SOL     OW16594   4.873   2.460   0.098
 5232SOL    HW116595   4.786   2.489   0.059
 5232SOL    HW216596   4.921   2.401   0.033
 5233SOL     OW16597   6.858   5.981   1.732
 5233SOL    HW116598   6.934   5.943   1.784
 5233SOL    HW216599   6.801   6.037   1.792
 5234SOL     OW16600   3.167   6.826   0.362
 5234SOL    HW116601   3.140   6.810   0.267
 5234SOL    HW216602   3.093   6.799   0.423
 5235SOL     OW16603   1.999   3.616   0.840
 5235SOL    HW116604   2.067   3.592   0.910
 5235SOL    HW216605   1.970   3.711   0.853
 5236SOL     OW16606   5.070   3.840   1.205
 5236SOL    HW116607   5.146   3.905   1.197
 5236SOL    HW216608   5.062   3.789   1.119
 5237SOL     OW16609   2.369   1.938   5.398
 5237SOL    HW116610   2.280   1.960   5.437
 5237SOL    HW216611   2.435   2.008   5.426
 5238SOL     OW16612   1.257   5.170   0.360
 5238SOL    HW116613   1.344   5.177   0.312
 5238SOL    HW216614   1.244   5.251   0.417
 5239SOL     OW16615   3.096   3.220   4.141
 5239SOL    HW116616   3.035   3.296   4.122
 5239SOL    HW216617   3.187   3.241   4.106
 5240SOL     OW16618   3.166   2.217   5.395
 5240SOL    HW116619   3.109   2.150   5.348
 5240SOL    HW216620   3.188   2.292   5.332
 5241SOL     OW16621   0.992   6.282   6.241
 5241SOL    HW116622   1.044   6.227   6.175
 5241SOL    HW216623   1.006   6.246   6.333
 5242SOL     OW16624   5.929   1.375   5.936
 5242SOL    HW116625   5.976   1.296   5.976
 5242SOL    HW216626   5.944   1.455   5.994
 5243SOL     OW16627   0.969   5.948   0.929
 5243SOL    HW116628   0.990   6.039   0.894
 5243SOL    HW216629   1.053   5.893   0.932
 5244SOL     OW16630   3.963   4.021   5.959
 5244SOL    HW116631   4.015   4.010   5.874
 5244SOL    HW216632   3.914   3.936   5.980
 5245SOL     OW16633   4.114   4.374   5.908
 5245SOL    HW116634   4.059   4.452   5.878
 5245SOL    HW216635   4.076   4.290   5.869
 5246SOL     OW16636   0.525   2.918   2.525
 5246SOL    HW116637   0.531   2.832   2.575
 5246SOL    HW216638   0.604   2.928   2.464
 5247SOL     OW16639   0.032   5.162   0.751
 5247SOL    HW116640   0.012   5.087   0.687
 5247SOL    HW216641   0.105   5.134   0.813
 5248SOL     OW16642   5.157   0.833   6.349
 5248SOL    HW116643   5.194   0.871   6.264
 5248SOL    HW216644   5.062   0.862   6.360
 5249SOL     OW16645   0.640   5.032   5.067
 5249SOL    HW116646   0.625   5.104   5.000
 5249SOL    HW216647   0.686   4.955   5.023
 5250SOL     OW16648   0.305   1.987   6.078
 5250SOL    HW116649   0.359   2.043   6.141
 5250SOL    HW216650   0.323   2.015   5.984
 5251SOL     OW16651   5.958   3.535   0.997
 5251SOL    HW116652   5.971   3.511   1.093
 5251SOL    HW216653   5.893   3.471   0.955
 5252SOL     OW16654   2.852   5.972   1.003
 5252SOL    HW116655   2.811   6.030   1.073
 5252SOL    HW216656   2.929   5.922   1.043
 5253SOL     OW16657   6.177   3.804   4.595
 5253SOL    HW116658   6.139   3.711   4.592
 5253SOL    HW216659   6.145   3.855   4.516
 5254SOL     OW16660   4.546   1.129   4.352
 5254SOL    HW116661   4.598   1.156   4.433
 5254SOL    HW216662   4.454   1.103   4.379
 5255SOL     OW16663   3.376   0.134   4.950
 5255SOL    HW116664   3.352   0.228   4.925
 5255SOL    HW216665   3.475   0.123   4.950
 5256SOL     OW16666   5.140   0.842   3.847
 5256SOL    HW116667   5.140   0.935   3.810
 5256SOL    HW216668   5.045   0.810   3.854
 5257SOL     OW16669   3.705   6.786   0.472
 5257SOL    HW116670   3.736   6.766   0.565
 5257SOL    HW216671   3.720   6.706   0.414
 5258SOL     OW16672   4.881   4.361   2.437
 5258SOL    HW116673   4.861   4.265   2.418
 5258SOL    HW216674   4.925   4.369   2.527
 5259SOL     OW16675   4.417   6.411   2.658
 5259SOL    HW116676   4.475   6.491   2.675
 5259SOL    HW216677   4.443   6.368   2.572
 5260SOL     OW16678   5.813   3.337   0.848
 5260SOL    HW116679   5.897   3.282   0.842
 5260SOL    HW216680   5.817   3.410   0.780
 5261SOL     OW16681   0.032   2.772   4.832
 5261SOL    HW116682   7.009   2.853   4.856
 5261SOL    HW216683   7.008   2.715   4.770
 5262SOL     OW16684   2.711   6.854   2.596
 5262SOL    HW116685   2.741   6.948   2.578
 5262SOL    HW216686   2.679   6.846   2.690
 5263SOL     OW16687   1.603   0.463   6.118
 5263SOL    HW116688   1.694   0.497   6.143
 5263SOL    HW216689   1.533   0.517   6.166
 5264SOL     OW16690   6.074   1.340   1.496
 5264SOL    HW116691   5.998   1.406   1.497
 5264SOL    HW216692   6.147   1.374   1.437
 5265SOL     OW16693   5.385   4.667   1.989
 5265SOL    HW116694   5.352   4.722   2.066
 5265SOL    HW216695   5.484   4.656   1.996
 5266SOL     OW16696   1.278   6.064   1.518
 5266SOL    HW116697   1.319   6.029   1.602
 5266SOL    HW216698   1.346   6.063   1.444
 5267SOL     OW16699   4.889   5.271   5.378
 5267SOL    HW116700   4.929   5.362   5.371
 5267SOL    HW216701   4.806   5.276   5.433
 5268SOL     OW16702   6.714   5.263   4.865
 5268SOL    HW116703   6.614   5.257   4.873
 5268SOL    HW216704   6.756   5.204   4.935
 5269SOL     OW16705   1.750   5.642   4.064
 5269SOL    HW116706   1.822   5.653   3.996
 5269SOL    HW216707   1.700   5.727   4.073
 5270SOL     OW16708   5.832   2.297   1.476
 5270SOL    HW116709   5.867   2.375   1.527
 5270SOL    HW216710   5.739   2.277   1.505
 5271SOL     OW16711   4.846   4.862   5.432
 5271SOL    HW116712   4.802   4.897   5.514
 5271SOL    HW216713   4.849   4.934   5.362
 5272SOL     OW16714   0.076   5.915   5.048
 5272SOL    HW116715   0.135   5.859   4.990
 5272SOL    HW216716   7.017   5.868   5.059
 5273SOL     OW16717   0.612   2.232   3.932
 5273SOL    HW116718   0.578   2.237   4.025
 5273SOL    HW216719   0.595   2.319   3.885
 5274SOL     OW16720   0.238   4.830   3.249
 5274SOL    HW116721   0.189   4.882   3.320
 5274SOL    HW216722   0.241   4.733   3.275
 5275SOL     OW16723   2.712   0.045   6.170
 5275SOL    HW116724   2.800   7.030   6.161
 5275SOL    HW216725   2.642   7.020   6.125
 5276SOL     OW16726   0.069   6.856   1.651
 5276SOL    HW116727   0.062   6.956   1.639
 5276SOL    HW216728   7.008   6.815   1.639
 5277SOL     OW16729   1.122   1.528   3.824
 5277SOL    HW116730   1.135   1.482   3.912
 5277SOL    HW216731   1.170   1.616   3.826
 5278SOL     OW16732   6.929   6.927   5.839
 5278SOL    HW116733   6.890   6.839   5.865
 5278SOL    HW216734   6.982   6.964   5.915
 5279SOL     OW16735   0.978   5.641   6.207
 5279SOL    HW116736   0.978   5.541   6.198
 5279SOL    HW216737   0.884   5.674   6.205
 5280SOL     OW16738   3.629   6.454   4.709
 5280SOL    HW116739   3.603   6.544   4.675
 5280SOL    HW216740   3.589   6.383   4.652
 5281SOL     OW16741   1.194   0.408   4.439
 5281SOL    HW116742   1.245   0.338   4.487
 5281SOL    HW216743   1.161   0.476   4.504
 5282SOL     OW16744   1.667   0.098   2.860
 5282SOL    HW116745   1.755   0.054   2.841
 5282SOL    HW216746   1.666   0.130   2.955
 5283SOL     OW16747   0.401   0.593   3.806
 5283SOL    HW116748   0.495   0.620   3.827
 5283SOL    HW216749   0.362   0.543   3.884
 5284SOL     OW16750   5.146   2.309   2.266
 5284SOL    HW116751   5.164   2.231   2.326
 5284SOL    HW216752   5.219   2.376   2.275
 5285SOL     OW16753   0.950   2.971   3.255
 5285SOL    HW116754   0.999   2.887   3.230
 5285SOL    HW216755   1.006   3.050   3.230
 5286SOL     OW16756   6.695   3.314   0.566
 5286SOL    HW116757   6.695   3.288   0.469
 5286SOL    HW216758   6.790   3.327   0.596
 5287SOL     OW16759   3.231   5.366   2.068
 5287SOL    HW116760   3.264   5.459   2.083
 5287SOL    HW216761   3.224   5.318   2.156
 5288SOL     OW16762   5.190   0.122   2.078
 5288SOL    HW116763   5.267   0.139   2.141
 5288SOL    HW216764   5.217   0.053   2.011
 5289SOL     OW16765   1.909   5.384   6.330
 5289SOL    HW116766   1.907   5.294   6.286
 5289SOL    HW216767   1.847   5.446   6.282
 5290SOL     OW16768   2.077   4.357   6.121
 5290SOL    HW116769   2.032   4.400   6.043
 5290SOL    HW216770   2.009   4.313   6.179
 5291SOL     OW16771   2.815   4.646   5.492
 5291SOL    HW116772   2.853   4.685   5.408
 5291SOL    HW216773   2.790   4.550   5.476
 5292SOL     OW16774   6.852   4.245   6.415
 5292SOL    HW116775   6.794   4.281   6.487
 5292SOL    HW216776   6.898   4.162   6.447
 5293SOL     OW16777   2.524   5.424   4.550
 5293SOL    HW116778   2.622   5.443   4.542
 5293SOL    HW216779   2.511   5.328   4.575
 5294SOL     OW16780   4.537   0.511   5.386
 5294SOL    HW116781   4.538   0.582   5.316
 5294SOL    HW216782   4.464   0.445   5.366
 5295SOL     OW16783   3.607   0.931   3.458
 5295SOL    HW116784   3.554   0.854   3.493
 5295SOL    HW216785   3.700   0.928   3.494
 5296SOL     OW16786   4.051   4.384   0.879
 5296SOL    HW116787   4.080   4.418   0.968
 5296SOL    HW216788   4.108   4.424   0.808
 5297SOL     OW16789   2.439   3.603   0.468
 5297SOL    HW116790   2.368   3.558   0.522
 5297SOL    HW216791   2.523   3.550   0.472
 5298SOL     OW16792   2.309   6.207   6.858
 5298SOL    HW116793   2.380   6.260   6.812
 5298SOL    HW216794   2.314   6.222   6.956
 5299SOL     OW16795   2.948   2.271   0.878
 5299SOL    HW116796   3.045   2.282   0.897
 5299SOL    HW216797   2.902   2.232   0.959
 5300SOL     OW16798   1.108   4.858   0.784
 5300SOL    HW116799   1.049   4.921   0.835
 5300SOL    HW216800   1.075   4.764   0.798
 5301SOL     OW16801   4.039   0.412   7.019
 5301SOL    HW116802   4.123   0.467   7.020
 5301SOL    HW216803   3.990   0.425   0.075
 5302SOL     OW16804   4.633   5.652   3.665
 5302SOL    HW116805   4.626   5.633   3.567
 5302SOL    HW216806   4.629   5.751   3.679
 5303SOL     OW16807   6.861   4.966   6.276
 5303SOL    HW116808   6.855   5.060   6.309
 5303SOL    HW216809   6.875   4.966   6.177
 5304SOL     OW16810   5.927   1.083   0.923
 5304SOL    HW116811   5.904   1.043   1.012
 5304SOL    HW216812   5.868   1.043   0.852
 5305SOL     OW16813   1.354   5.475   2.889
 5305SOL    HW116814   1.325   5.563   2.850
 5305SOL    HW216815   1.433   5.441   2.840
 5306SOL     OW16816   0.079   4.428   5.823
 5306SOL    HW116817   7.017   4.401   5.852
 5306SOL    HW216818   0.075   4.465   5.730
 5307SOL     OW16819   4.680   2.098   0.528
 5307SOL    HW116820   4.736   2.114   0.610
 5307SOL    HW216821   4.585   2.085   0.555
 5308SOL     OW16822   1.368   4.416   2.698
 5308SOL    HW116823   1.283   4.375   2.731
 5308SOL    HW216824   1.412   4.354   2.634
 5309SOL     OW16825   4.052   5.963   2.554
 5309SOL    HW116826   4.129   6.024   2.573
 5309SOL    HW216827   4.000   5.948   2.639
 5310SOL     OW16828   6.586   3.062   2.447
 5310SOL    HW116829   6.584   2.999   2.525
 5310SOL    HW216830   6.545   3.149   2.474
 5311SOL     OW16831   5.941   0.669   0.098
 5311SOL    HW116832   6.014   0.607   0.070
 5311SOL    HW216833   5.967   0.716   0.182
 5312SOL     OW16834   0.325   5.905   1.575
 5312SOL    HW116835   0.399   5.973   1.569
 5312SOL    HW216836   0.249   5.933   1.517
 5313SOL     OW16837   0.318   4.950   5.436
 5313SOL    HW116838   0.290   5.028   5.492
 5313SOL    HW216839   0.407   4.918   5.467
 5314SOL     OW16840   5.056   6.800   0.345
 5314SOL    HW116841   5.145   6.846   0.346
 5314SOL    HW216842   4.984   6.868   0.359
 5315SOL     OW16843   4.818   2.596   3.361
 5315SOL    HW116844   4.829   2.498   3.372
 5315SOL    HW216845   4.864   2.626   3.276
 5316SOL     OW16846   0.988   4.015   5.623
 5316SOL    HW116847   0.949   3.937   5.671
 5316SOL    HW216848   1.011   4.087   5.690
 5317SOL     OW16849   6.473   1.274   5.094
 5317SOL    HW116850   6.487   1.194   5.036
 5317SOL    HW216851   6.536   1.271   5.172
 5318SOL     OW16852   0.503   2.859   0.681
 5318SOL    HW116853   0.413   2.816   0.670
 5318SOL    HW216854   0.572   2.805   0.633
 5319SOL     OW16855   4.735   6.448   1.141
 5319SOL    HW116856   4.638   6.455   1.117
 5319SOL    HW216857   4.789   6.506   1.081
 5320SOL     OW16858   4.303   5.912   1.135
 5320SOL    HW116859   4.285   5.864   1.220
 5320SOL    HW216860   4.399   5.942   1.133
 5321SOL     OW16861   2.368   4.679   5.202
 5321SOL    HW116862   2.283   4.732   5.207
 5321SOL    HW216863   2.346   4.582   5.192
 5322SOL     OW16864   5.468   6.996   0.615
 5322SOL    HW116865   5.540   6.998   0.546
 5322SOL    HW216866   5.499   0.014   0.697
 5323SOL     OW16867   4.158   0.910   5.948
 5323SOL    HW116868   4.252   0.915   5.913
 5323SOL    HW216869   4.100   0.866   5.879
 5324SOL     OW16870   2.819   1.967   7.029
 5324SOL    HW116871   2.722   1.987   0.009
 5324SOL    HW216872   2.871   2.013   0.071
 5325SOL     OW16873   2.843   1.459   4.708
 5325SOL    HW116874   2.856   1.551   4.744
 5325SOL    HW216875   2.919   1.436   4.647
 5326SOL     OW16876   6.381   5.997   3.353
 5326SOL    HW116877   6.438   5.969   3.276
 5326SOL    HW216878   6.335   6.083   3.332
 5327SOL     OW16879   5.707   2.469   4.807
 5327SOL    HW116880   5.790   2.456   4.861
 5327SOL    HW216881   5.720   2.546   4.744
 5328SOL     OW16882   3.741   3.584   5.741
 5328SOL    HW116883   3.840   3.599   5.735
 5328SOL    HW216884   3.724   3.490   5.773
 5329SOL     OW16885   0.845   5.323   6.361
 5329SOL    HW116886   0.931   5.280   6.387
 5329SOL    HW216887   0.791   5.343   6.442
 5330SOL     OW16888   3.903   4.451   0.043
 5330SOL    HW116889   3.881   4.548   0.051
 5330SOL    HW216890   3.916   4.427   6.977
 5331SOL     OW16891   6.034   2.028   6.440
 5331SOL    HW116892   6.060   2.099   6.505
 5331SOL    HW216893   5.941   2.045   6.408
 5332SOL     OW16894   1.700   4.025   1.369
 5332SOL    HW116895   1.785   4.027   1.421
 5332SOL    HW216896   1.719   3.993   1.276
 5333SOL     OW16897   1.049   1.133   3.251
 5333SOL    HW116898   1.129   1.188   3.226
 5333SOL    HW216899   1.004   1.101   3.168
 5334SOL     OW16900   2.929   0.743   5.213
 5334SOL    HW116901   3.016   0.695   5.226
 5334SOL    HW216902   2.927   0.825   5.270
 5335SOL     OW16903   6.319   6.301   0.950
 5335SOL    HW116904   6.260   6.237   0.999
 5335SOL    HW216905   6.414   6.271   0.958
 5336SOL     OW16906   1.685   3.636   2.554
 5336SOL    HW116907   1.695   3.636   2.455
 5336SOL    HW216908   1.772   3.661   2.596
 5337SOL     OW16909   4.676   3.814   1.429
 5337SOL    HW116910   4.766   3.854   1.415
 5337SOL    HW216911   4.680   3.747   1.503
 5338SOL     OW16912   5.694   1.834   6.633
 5338SOL    HW116913   5.745   1.760   6.676
 5338SOL    HW216914   5.628   1.871   6.699
 5339SOL     OW16915   6.312   1.350   3.710
 5339SOL    HW116916   6.401   1.350   3.663
 5339SOL    HW216917   6.242   1.381   3.646
 5340SOL     OW16918   6.107   3.070   0.433
 5340SOL    HW116919   6.085   3.005   0.506
 5340SOL    HW216920   6.164   3.143   0.471
 5341SOL     OW16921   3.701   2.449   6.026
 5341SOL    HW116922   3.755   2.373   5.990
 5341SOL    HW216923   3.605   2.437   6.000
 5342SOL     OW16924   3.997   0.568   4.995
 5342SOL    HW116925   3.913   0.540   4.949
 5342SOL    HW216926   3.993   0.666   5.014
 5343SOL     OW16927   3.333   3.440   3.404
 5343SOL    HW116928   3.310   3.445   3.307
 5343SOL    HW216929   3.431   3.455   3.416
 5344SOL     OW16930   1.785   2.601   2.670
 5344SOL    HW116931   1.707   2.629   2.615
 5344SOL    HW216932   1.851   2.676   2.677
 5345SOL     OW16933   4.562   6.009   0.939
 5345SOL    HW116934   4.552   5.954   0.856
 5345SOL    HW216935   4.489   6.077   0.942
 5346SOL     OW16936   3.212   6.053   3.490
 5346SOL    HW116937   3.204   6.120   3.565
 5346SOL    HW216938   3.158   5.972   3.511
 5347SOL     OW16939   6.996   2.286   2.460
 5347SOL    HW116940   6.910   2.317   2.500
 5347SOL    HW216941   6.978   2.238   2.374
 5348SOL     OW16942   0.844   1.629   0.614
 5348SOL    HW116943   0.882   1.662   0.700
 5348SOL    HW216944   0.911   1.573   0.566
 5349SOL     OW16945   1.147   2.427   0.536
 5349SOL    HW116946   1.146   2.341   0.486
 5349SOL    HW216947   1.165   2.503   0.473
 5350SOL     OW16948   2.421   0.557   6.065
 5350SOL    HW116949   2.461   0.467   6.080
 5350SOL    HW216950   2.484   0.613   6.011
 5351SOL     OW16951   5.218   5.724   1.506
 5351SOL    HW116952   5.160   5.769   1.439
 5351SOL    HW216953   5.240   5.788   1.580
 5352SOL     OW16954   2.147   5.984   3.757
 5352SOL    HW116955   2.131   6.022   3.848
 5352SOL    HW216956   2.069   6.004   3.698
 5353SOL     OW16957   4.023   5.978   4.488
 5353SOL    HW116958   3.992   6.051   4.427
 5353SOL    HW216959   4.095   6.013   4.548
 5354SOL     OW16960   2.177   4.617   2.368
 5354SOL    HW116961   2.232   4.564   2.303
 5354SOL    HW216962   2.092   4.646   2.324
 5355SOL     OW16963   4.931   2.488   3.672
 5355SOL    HW116964   4.965   2.394   3.668
 5355SOL    HW216965   4.934   2.529   3.581
 5356SOL     OW16966   5.777   4.354   1.631
 5356SOL    HW116967   5.691   4.396   1.658
 5356SOL    HW216968   5.849   4.382   1.694
 5357SOL     OW16969   3.547   0.643   1.592
 5357SOL    HW116970   3.453   0.645   1.625
 5357SOL    HW216971   3.581   0.548   1.593
 5358SOL     OW16972   4.404   2.308   0.949
 5358SOL    HW116973   4.313   2.340   0.976
 5358SOL    HW216974   4.452   2.381   0.901
 5359SOL     OW16975   2.351   1.706   0.356
 5359SOL    HW116976   2.326   1.671   0.266
 5359SOL    HW216977   2.289   1.781   0.381
 5360SOL     OW16978   3.856   6.705   4.660
 5360SOL    HW116979   3.780   6.728   4.599
 5360SOL    HW216980   3.932   6.767   4.643
 5361SOL     OW16981   2.729   0.073   4.852
 5361SOL    HW116982   2.801   0.122   4.902
 5361SOL    HW216983   2.650   0.060   4.912
 5362SOL     OW16984   5.022   4.408   3.476
 5362SOL    HW116985   5.003   4.349   3.554
 5362SOL    HW216986   4.994   4.362   3.392
 5363SOL     OW16987   1.015   6.257   5.749
 5363SOL    HW116988   0.925   6.227   5.717
 5363SOL    HW216989   1.068   6.177   5.777
 5364SOL     OW16990   6.453   5.389   0.992
 5364SOL    HW116991   6.358   5.401   1.021
 5364SOL    HW216992   6.505   5.471   1.014
 5365SOL     OW16993   4.459   2.832   6.417
 5365SOL    HW116994   4.437   2.864   6.325
 5365SOL    HW216995   4.557   2.845   6.434
 5366SOL     OW16996   5.191   4.825   1.010
 5366SOL    HW116997   5.288   4.829   1.035
 5366SOL    HW216998   5.172   4.891   0.937
 5367SOL     OW16999   0.242   5.193   0.406
 5367SOL    HW117000   0.250   5.105   0.453
 5367SOL    HW217001   0.216   5.264   0.471
 5368SOL     OW17002   5.117   1.530   2.718
 5368SOL    HW117003   5.039   1.482   2.757
 5368SOL    HW217004   5.123   1.510   2.620
 5369SOL     OW17005   2.602   6.075   3.346
 5369SOL    HW117006   2.631   5.996   3.400
 5369SOL    HW217007   2.539   6.131   3.400
 5370SOL     OW17008   3.945   3.016   1.941
 5370SOL    HW117009   3.881   2.984   2.011
 5370SOL    HW217010   4.003   3.088   1.980
 5371SOL     OW17011   1.842   4.089   4.398
 5371SOL    HW117012   1.871   4.038   4.318
 5371SOL    HW217013   1.821   4.025   4.473
 5372SOL     OW17014   2.560   5.479   2.140
 5372SOL    HW117015   2.574   5.410   2.069
 5372SOL    HW217016   2.494   5.445   2.207
 5373SOL     OW17017   2.897   4.832   4.200
 5373SOL    HW117018   2.877   4.929   4.183
 5373SOL    HW217019   2.850   4.803   4.284
 5374SOL     OW17020   1.361   3.427   0.103
 5374SOL    HW117021   1.437   3.398   0.044
 5374SOL    HW217022   1.278   3.436   0.048
 5375SOL     OW17023   0.971   5.055   5.106
 5375SOL    HW117024   0.922   5.025   5.189
 5375SOL    HW217025   0.916   5.032   5.026
 5376SOL     OW17026   1.439   3.309   1.272
 5376SOL    HW117027   1.344   3.338   1.267
 5376SOL    HW217028   1.444   3.217   1.311
 5377SOL     OW17029   0.093   0.201   1.866
 5377SOL    HW117030   0.143   0.196   1.952
 5377SOL    HW217031   0.087   0.111   1.824
 5378SOL     OW17032   6.840   0.489   1.359
 5378SOL    HW117033   6.812   0.550   1.284
 5378SOL    HW217034   6.760   0.438   1.392
 5379SOL     OW17035   0.266   5.364   4.339
 5379SOL    HW117036   0.228   5.421   4.412
 5379SOL    HW217037   0.199   5.293   4.315
 5380SOL     OW17038   2.202   0.930   3.533
 5380SOL    HW117039   2.281   0.878   3.564
 5380SOL    HW217040   2.233   1.012   3.485
 5381SOL     OW17041   6.444   3.576   0.571
 5381SOL    HW117042   6.449   3.559   0.472
 5381SOL    HW217043   6.501   3.509   0.619
 5382SOL     OW17044   3.039   0.155   1.948
 5382SOL    HW117045   2.942   0.165   1.924
 5382SOL    HW217046   3.062   0.057   1.953
 5383SOL     OW17047   2.920   2.268   5.210
 5383SOL    HW117048   2.924   2.341   5.279
 5383SOL    HW217049   3.000   2.273   5.151
 5384SOL     OW17050   6.033   0.865   4.011
 5384SOL    HW117051   5.944   0.871   3.967
 5384SOL    HW217052   6.098   0.822   3.949
 5385SOL     OW17053   3.192   4.046   3.131
 5385SOL    HW117054   3.201   3.950   3.102
 5385SOL    HW217055   3.196   4.106   3.051
 5386SOL     OW17056   4.798   6.257   4.050
 5386SOL    HW117057   4.775   6.187   4.119
 5386SOL    HW217058   4.888   6.296   4.070
 5387SOL     OW17059   2.170   5.916   3.124
 5387SOL    HW117060   2.136   5.967   3.046
 5387SOL    HW217061   2.109   5.839   3.144
 5388SOL     OW17062   5.598   6.257   2.914
 5388SOL    HW117063   5.548   6.246   3.000
 5388SOL    HW217064   5.643   6.171   2.891
 5389SOL     OW17065   5.031   0.707   1.697
 5389SOL    HW117066   5.080   0.621   1.683
 5389SOL    HW217067   5.060   0.749   1.783
 5390SOL     OW17068   3.992   5.249   4.125
 5390SOL    HW117069   4.052   5.317   4.082
 5390SOL    HW217070   4.001   5.255   4.225
 5391SOL     OW17071   2.442   2.412   0.635
 5391SOL    HW117072   2.437   2.366   0.723
 5391SOL    HW217073   2.536   2.410   0.601
 5392SOL     OW17074   6.208   3.612   0.833
 5392SOL    HW117075   6.245   3.585   0.744
 5392SOL    HW217076   6.118   3.572   0.845
 5393SOL     OW17077   6.338   0.033   6.677
 5393SOL    HW117078   6.411   0.025   6.745
 5393SOL    HW217079   6.251   0.049   6.723
 5394SOL     OW17080   0.425   3.687   6.100
 5394SOL    HW117081   0.433   3.637   6.186
 5394SOL    HW217082   0.329   3.700   6.077
 5395SOL     OW17083   4.399   0.801   1.812
 5395SOL    HW117084   4.349   0.828   1.894
 5395SOL    HW217085   4.498   0.811   1.828
 5396SOL     OW17086   4.976   3.308   2.633
 5396SOL    HW117087   4.985   3.406   2.652
 5396SOL    HW217088   4.944   3.261   2.716
 5397SOL     OW17089   6.957   2.984   1.540
 5397SOL    HW117090   0.003   2.926   1.512
 5397SOL    HW217091   6.989   3.051   1.607
 5398SOL     OW17092   3.580   2.073   1.416
 5398SOL    HW117093   3.531   2.129   1.483
 5398SOL    HW217094   3.661   2.122   1.385
 5399SOL     OW17095   1.930   6.336   0.815
 5399SOL    HW117096   1.971   6.423   0.789
 5399SOL    HW217097   1.988   6.261   0.781
 5400SOL     OW17098   3.090   4.146   0.883
 5400SOL    HW117099   3.071   4.078   0.812
 5400SOL    HW217100   3.148   4.218   0.846
 5401SOL     OW17101   5.688   3.357   1.633
 5401SOL    HW117102   5.756   3.290   1.662
 5401SOL    HW217103   5.649   3.329   1.545
 5402SOL     OW17104   2.640   5.832   1.900
 5402SOL    HW117105   2.585   5.787   1.971
 5402SOL    HW217106   2.697   5.764   1.853
 5403SOL     OW17107   6.588   2.929   6.516
 5403SOL    HW117108   6.573   2.867   6.440
 5403SOL    HW217109   6.613   3.019   6.481
 5404SOL     OW17110   1.065   2.038   3.386
 5404SOL    HW117111   0.997   2.075   3.323
 5404SOL    HW217112   1.157   2.053   3.349
 5405SOL     OW17113   6.681   5.665   0.497
 5405SOL    HW117114   6.661   5.599   0.570
 5405SOL    HW217115   6.754   5.630   0.439
 5406SOL     OW17116   2.549   1.378   6.297
 5406SOL    HW117117   2.533   1.297   6.354
 5406SOL    HW217118   2.468   1.397   6.242
 5407SOL     OW17119   4.544   3.275   0.447
 5407SOL    HW117120   4.514   3.285   0.542
 5407SOL    HW217121   4.482   3.214   0.398
 5408SOL     OW17122   2.341   1.273   5.536
 5408SOL    HW117123   2.391   1.191   5.508
 5408SOL    HW217124   2.369   1.350   5.478
 5409SOL     OW17125   5.287   7.026   3.233
 5409SOL    HW117126   5.300   0.085   3.278
 5409SOL    HW217127   5.374   6.993   3.196
 5410SOL     OW17128   2.700   2.311   1.700
 5410SOL    HW117129   2.708   2.217   1.668
 5410SOL    HW217130   2.734   2.317   1.794
 5411SOL     OW17131   6.458   4.945   5.921
 5411SOL    HW117132   6.536   5.004   5.896
 5411SOL    HW217133   6.428   4.893   5.842
 5412SOL     OW17134   4.851   2.157   0.744
 5412SOL    HW117135   4.948   2.181   0.742
 5412SOL    HW217136   4.832   2.100   0.824
 5413SOL     OW17137   3.112   1.004   1.281
 5413SOL    HW117138   3.211   0.994   1.272
 5413SOL    HW217139   3.075   0.923   1.326
 5414SOL     OW17140   5.258   2.021   4.770
 5414SOL    HW117141   5.216   2.106   4.801
 5414SOL    HW217142   5.343   2.005   4.821
 5415SOL     OW17143   0.443   5.696   1.393
 5415SOL    HW117144   0.407   5.772   1.447
 5415SOL    HW217145   0.416   5.707   1.297
 5416SOL     OW17146   4.680   5.395   5.552
 5416SOL    HW117147   4.708   5.466   5.617
 5416SOL    HW217148   4.594   5.422   5.508
 5417SOL     OW17149   3.643   6.587   5.914
 5417SOL    HW117150   3.716   6.519   5.918
 5417SOL    HW217151   3.624   6.610   5.818
 5418SOL     OW17152   3.582   0.354   3.404
 5418SOL    HW117153   3.539   0.269   3.436
 5418SOL    HW217154   3.626   0.337   3.316
 5419SOL     OW17155   3.870   5.171   0.071
 5419SOL    HW117156   3.882   5.266   0.044
 5419SOL    HW217157   3.781   5.159   0.115
 5420SOL     OW17158   1.996   3.456   3.159
 5420SOL    HW117159   2.016   3.526   3.090
 5420SOL    HW217160   2.055   3.377   3.144
 5421SOL     OW17161   1.313   3.393   1.582
 5421SOL    HW117162   1.261   3.394   1.496
 5421SOL    HW217163   1.411   3.397   1.562
 5422SOL     OW17164   0.336   4.999   0.596
 5422SOL    HW117165   0.281   4.932   0.546
 5422SOL    HW217166   0.432   4.970   0.597
 5423SOL     OW17167   6.910   3.019   6.888
 5423SOL    HW117168   6.890   3.110   6.852
 5423SOL    HW217169   6.905   2.952   6.813
 5424SOL     OW17170   5.323   2.983   3.681
 5424SOL    HW117171   5.352   2.940   3.766
 5424SOL    HW217172   5.345   3.081   3.684
 5425SOL     OW17173   4.094   0.894   4.489
 5425SOL    HW117174   4.046   0.972   4.530
 5425SOL    HW217175   4.075   0.891   4.391
 5426SOL     OW17176   5.996   6.077   4.571
 5426SOL    HW117177   5.970   6.135   4.649
 5426SOL    HW217178   5.961   5.985   4.585
 5427SOL     OW17179   5.071   5.686   6.130
 5427SOL    HW117180   5.130   5.620   6.176
 5427SOL    HW217181   5.051   5.762   6.192
 5428SOL     OW17182   6.810   0.208   1.534
 5428SOL    HW117183   6.725   0.261   1.531
 5428SOL    HW217184   6.882   0.263   1.576
 5429SOL     OW17185   2.179   1.990   6.285
 5429SOL    HW117186   2.189   1.989   6.385
 5429SOL    HW217187   2.269   1.987   6.243
 5430SOL     OW17188   6.888   2.663   5.761
 5430SOL    HW117189   6.940   2.599   5.705
 5430SOL    HW217190   6.946   2.699   5.834
 5431SOL     OW17191   3.345   6.127   0.551
 5431SOL    HW117192   3.305   6.047   0.506
 5431SOL    HW217193   3.444   6.114   0.558
 5432SOL     OW17194   5.564   0.655   6.727
 5432SOL    HW117195   5.539   0.744   6.688
 5432SOL    HW217196   5.659   0.659   6.758
 5433SOL     OW17197   0.355   2.035   4.712
 5433SOL    HW117198   0.388   1.967   4.646
 5433SOL    HW217199   0.276   1.998   4.761
 5434SOL     OW17200   3.374   0.784   5.776
 5434SOL    HW117201   3.354   0.761   5.681
 5434SOL    HW217202   3.343   0.877   5.794
 5435SOL     OW17203   5.968   6.943   1.980
 5435SOL    HW117204   6.009   6.854   2.000
 5435SOL    HW217205   5.892   6.931   1.916
 5436SOL     OW17206   5.259   3.703   3.863
 5436SOL    HW117207   5.178   3.761   3.858
 5436SOL    HW217208   5.241   3.617   3.814
 5437SOL     OW17209   2.801   3.916   0.112
 5437SOL    HW117210   2.754   3.995   0.151
 5437SOL    HW217211   2.874   3.887   0.174
 5438SOL     OW17212   6.928   2.272   1.523
 5438SOL    HW117213   6.845   2.258   1.469
 5438SOL    HW217214   6.911   2.345   1.590
 5439SOL     OW17215   1.247   2.034   1.272
 5439SOL    HW117216   1.153   2.024   1.242
 5439SOL    HW217217   1.286   2.117   1.231
 5440SOL     OW17218   0.943   1.396   0.928
 5440SOL    HW117219   0.883   1.367   0.853
 5440SOL    HW217220   1.036   1.405   0.895
 5441SOL     OW17221   4.352   2.097   3.568
 5441SOL    HW117222   4.437   2.123   3.522
 5441SOL    HW217223   4.295   2.044   3.506
 5442SOL     OW17224   4.182   6.502   3.073
 5442SOL    HW117225   4.251   6.555   3.024
 5442SOL    HW217226   4.154   6.551   3.156
 5443SOL     OW17227   3.734   0.024   4.574
 5443SOL    HW117228   3.795   7.002   4.514
 5443SOL    HW217229   3.650   7.001   4.589
 5444SOL     OW17230   1.019   0.660   4.146
 5444SOL    HW117231   0.945   0.695   4.088
 5444SOL    HW217232   1.002   0.688   4.240
 5445SOL     OW17233   6.596   4.029   3.328
 5445SOL    HW117234   6.602   4.018   3.229
 5445SOL    HW217235   6.652   3.959   3.373
 5446SOL     OW17236   6.429   5.376   4.498
 5446SOL    HW117237   6.489   5.299   4.476
 5446SOL    HW217238   6.430   5.391   4.597
 5447SOL     OW17239   2.794   2.354   6.841
 5447SOL    HW117240   2.893   2.360   6.836
 5447SOL    HW217241   2.753   2.436   6.800
 5448SOL     OW17242   4.158   3.042   5.353
 5448SOL    HW117243   4.161   3.103   5.433
 5448SOL    HW217244   4.183   2.950   5.382
 5449SOL     OW17245   1.662   3.106   6.204
 5449SOL    HW117246   1.618   3.157   6.277
 5449SOL    HW217247   1.596   3.044   6.161
 5450SOL     OW17248   2.105   0.440   1.722
 5450SOL    HW117249   2.015   0.429   1.680
 5450SOL    HW217250   2.113   0.377   1.799
 5451SOL     OW17251   1.928   6.053   3.419
 5451SOL    HW117252   1.996   6.122   3.392
 5451SOL    HW217253   1.895   6.073   3.512
 5452SOL     OW17254   2.184   4.765   6.787
 5452SOL    HW117255   2.149   4.856   6.809
 5452SOL    HW217256   2.187   4.709   6.870
 5453SOL     OW17257   6.032   4.198   0.357
 5453SOL    HW117258   6.016   4.254   0.276
 5453SOL    HW217259   6.130   4.182   0.368
 5454SOL     OW17260   6.941   4.092   6.997
 5454SOL    HW117261   6.899   4.051   6.916
 5454SOL    HW217262   7.029   4.048   7.016
 5455SOL     OW17263   6.636   3.313   6.756
 5455SOL    HW117264   6.605   3.218   6.759
 5455SOL    HW217265   6.557   3.374   6.760
 5456SOL     OW17266   3.717   6.761   6.893
 5456SOL    HW117267   3.630   6.712   6.887
 5456SOL    HW217268   3.747   6.788   6.801
 5457SOL     OW17269   5.543   1.867   0.687
 5457SOL    HW117270   5.568   1.957   0.722
 5457SOL    HW217271   5.549   1.800   0.761
 5458SOL     OW17272   0.793   4.534   0.132
 5458SOL    HW117273   0.762   4.629   0.138
 5458SOL    HW217274   0.854   4.513   0.209
 5459SOL     OW17275   1.746   5.199   0.374
 5459SOL    HW117276   1.809   5.238   0.307
 5459SOL    HW217277   1.787   5.119   0.416
 5460SOL     OW17278   3.021   0.096   2.390
 5460SOL    HW117279   3.111   0.061   2.362
 5460SOL    HW217280   3.010   0.190   2.357
 5461SOL     OW17281   6.051   6.372   4.998
 5461SOL    HW117282   6.015   6.303   4.936
 5461SOL    HW217283   5.982   6.394   5.067
 5462SOL     OW17284   1.264   0.509   0.394
 5462SOL    HW117285   1.362   0.506   0.411
 5462SOL    HW217286   1.247   0.512   0.296
 5463SOL     OW17287   6.267   1.905   0.182
 5463SOL    HW117288   6.292   1.998   0.208
 5463SOL    HW217289   6.181   1.907   0.131
 5464SOL     OW17290   1.653   0.432   4.434
 5464SOL    HW117291   1.618   0.522   4.408
 5464SOL    HW217292   1.752   0.438   4.449
 5465SOL     OW17293   3.603   6.862   3.542
 5465SOL    HW117294   3.546   6.942   3.563
 5465SOL    HW217295   3.564   6.813   3.464
 5466SOL     OW17296   5.708   4.476   4.511
 5466SOL    HW117297   5.765   4.511   4.586
 5466SOL    HW217298   5.687   4.380   4.527
 5467SOL     OW17299   5.149   2.170   3.119
 5467SOL    HW117300   5.111   2.255   3.154
 5467SOL    HW217301   5.216   2.190   3.047
 5468SOL     OW17302   5.073   1.485   4.442
 5468SOL    HW117303   5.147   1.545   4.473
 5468SOL    HW217304   5.062   1.410   4.506
 5469SOL     OW17305   3.787   5.391   6.882
 5469SOL    HW117306   3.708   5.453   6.878
 5469SOL    HW217307   3.797   5.344   6.794
 5470SOL     OW17308   2.095   5.363   2.825
 5470SOL    HW117309   2.019   5.302   2.846
 5470SOL    HW217310   2.066   5.430   2.757
 5471SOL     OW17311   5.708   6.980   1.298
 5471SOL    HW117312   5.788   6.923   1.282
 5471SOL    HW217313   5.733   0.029   1.354
 5472SOL     OW17314   4.246   4.260   6.291
 5472SOL    HW117315   4.197   4.329   6.345
 5472SOL    HW217316   4.336   4.295   6.265
 5473SOL     OW17317   0.717   3.463   3.301
 5473SOL    HW117318   0.699   3.452   3.399
 5473SOL    HW217319   0.814   3.448   3.283
 5474SOL     OW17320   1.417   4.416   4.799
 5474SOL    HW117321   1.360   4.337   4.777
 5474SOL    HW217322   1.364   4.499   4.789
 5475SOL     OW17323   3.548   2.721   0.987
 5475SOL    HW117324   3.607   2.774   1.048
 5475SOL    HW217325   3.598   2.701   0.902
 5476SOL     OW17326   2.399   3.348   6.274
 5476SOL    HW117327   2.375   3.375   6.367
 5476SOL    HW217328   2.429   3.252   6.273
 5477SOL     OW17329   1.970   3.806   3.767
 5477SOL    HW117330   2.054   3.854   3.741
 5477SOL    HW217331   1.990   3.744   3.844
 5478SOL     OW17332   5.364   6.084   5.675
 5478SOL    HW117333   5.339   6.089   5.772
 5478SOL    HW217334   5.434   6.014   5.662
 5479SOL     OW17335   4.608   0.773   5.639
 5479SOL    HW117336   4.657   0.696   5.598
 5479SOL    HW217337   4.510   0.763   5.624
 5480SOL     OW17338   0.606   3.540   3.865
 5480SOL    HW117339   0.550   3.623   3.876
 5480SOL    HW217340   0.673   3.536   3.938
 5481SOL     OW17341   3.256   0.586   4.480
 5481SOL    HW117342   3.204   0.530   4.544
 5481SOL    HW217343   3.252   0.544   4.389
 5482SOL     OW17344   3.761   4.257   1.686
 5482SOL    HW117345   3.860   4.265   1.693
 5482SOL    HW217346   3.735   4.160   1.690
 5483SOL     OW17347   0.735   3.436   5.110
 5483SOL    HW117348   0.769   3.349   5.147
 5483SOL    HW217349   0.635   3.437   5.114
 5484SOL     OW17350   4.738   0.221   5.088
 5484SOL    HW117351   4.726   0.149   5.156
 5484SOL    HW217352   4.656   0.227   5.030
 5485SOL     OW17353   2.985   6.692   5.420
 5485SOL    HW117354   3.014   6.722   5.511
 5485SOL    HW217355   2.885   6.691   5.416
 5486SOL     OW17356   2.603   5.911   5.089
 5486SOL    HW117357   2.544   5.905   5.008
 5486SOL    HW217358   2.646   5.822   5.104
 5487SOL     OW17359   3.043   4.586   5.873
 5487SOL    HW117360   3.039   4.500   5.822
 5487SOL    HW217361   3.047   4.663   5.808
 5488SOL     OW17362   6.772   1.037   0.463
 5488SOL    HW117363   6.840   1.104   0.492
 5488SOL    HW217364   6.699   1.032   0.532
 5489SOL     OW17365   6.836   2.994   2.358
 5489SOL    HW117366   6.774   3.072   2.370
 5489SOL    HW217367   6.899   2.990   2.435
 5490SOL     OW17368   1.802   6.674   2.470
 5490SOL    HW117369   1.775   6.582   2.501
 5490SOL    HW217370   1.721   6.730   2.459
 5491SOL     OW17371   6.758   2.980   0.431
 5491SOL    HW117372   6.858   2.988   0.440
 5491SOL    HW217373   6.718   3.071   0.421
 5492SOL     OW17374   1.199   2.997   5.512
 5492SOL    HW117375   1.200   3.095   5.493
 5492SOL    HW217376   1.261   2.950   5.449
 5493SOL     OW17377   4.136   3.708   2.153
 5493SOL    HW117378   4.068   3.670   2.216
 5493SOL    HW217379   4.178   3.789   2.195
 5494SOL     OW17380   5.905   4.540   5.477
 5494SOL    HW117381   5.968   4.531   5.400
 5494SOL    HW217382   5.843   4.616   5.461
 5495SOL     OW17383   6.235   0.659   0.418
 5495SOL    HW117384   6.177   0.734   0.386
 5495SOL    HW217385   6.216   0.577   0.365
 5496SOL     OW17386   4.423   0.433   4.175
 5496SOL    HW117387   4.423   0.352   4.233
 5496SOL    HW217388   4.449   0.513   4.229
 5497SOL     OW17389   0.181   0.992   5.847
 5497SOL    HW117390   0.126   0.955   5.922
 5497SOL    HW217391   0.127   0.992   5.763
 5498SOL     OW17392   0.098   4.867   1.677
 5498SOL    HW117393   0.135   4.788   1.628
 5498SOL    HW217394   0.170   4.909   1.731
 5499SOL     OW17395   0.278   0.819   4.097
 5499SOL    HW117396   0.242   0.880   4.026
 5499SOL    HW217397   0.225   0.831   4.181
 5500SOL     OW17398   1.746   0.698   0.209
 5500SOL    HW117399   1.679   0.773   0.207
 5500SOL    HW217400   1.752   0.657   0.118
 5501SOL     OW17401   4.100   2.227   0.340
 5501SOL    HW117402   4.043   2.309   0.333
 5501SOL    HW217403   4.061   2.165   0.408
 5502SOL     OW17404   4.970   3.732   6.039
 5502SOL    HW117405   4.993   3.826   6.011
 5502SOL    HW217406   5.032   3.668   5.994
 5503SOL     OW17407   0.404   3.603   0.207
 5503SOL    HW117408   0.361   3.620   0.296
 5503SOL    HW217409   0.434   3.508   0.203
 5504SOL     OW17410   3.874   1.148   6.513
 5504SOL    HW117411   3.930   1.188   6.440
 5504SOL    HW217412   3.916   1.062   6.543
 5505SOL     OW17413   2.224   3.839   3.982
 5505SOL    HW117414   2.241   3.843   4.080
 5505SOL    HW217415   2.275   3.912   3.937
 5506SOL     OW17416   0.558   3.248   6.076
 5506SOL    HW117417   0.625   3.245   6.001
 5506SOL    HW217418   0.595   3.303   6.151
 5507SOL     OW17419   3.296   0.474   6.154
 5507SOL    HW117420   3.207   0.447   6.189
 5507SOL    HW217421   3.288   0.499   6.058
 5508SOL     OW17422   0.975   0.857   6.570
 5508SOL    HW117423   1.041   0.807   6.626
 5508SOL    HW217424   0.988   0.833   6.474
 5509SOL     OW17425   7.005   5.108   1.103
 5509SOL    HW117426   6.971   5.015   1.121
 5509SOL    HW217427   6.942   5.156   1.042
 5510SOL     OW17428   4.734   5.607   0.202
 5510SOL    HW117429   4.685   5.550   0.136
 5510SOL    HW217430   4.832   5.583   0.201
 5511SOL     OW17431   0.402   1.814   4.984
 5511SOL    HW117432   0.491   1.778   4.959
 5511SOL    HW217433   0.347   1.828   4.901
 5512SOL     OW17434   3.494   1.282   2.135
 5512SOL    HW117435   3.445   1.317   2.215
 5512SOL    HW217436   3.445   1.202   2.098
 5513SOL     OW17437   4.294   4.627   6.453
 5513SOL    HW117438   4.352   4.705   6.480
 5513SOL    HW217439   4.247   4.591   6.533
 5514SOL     OW17440   2.735   6.454   5.355
 5514SOL    HW117441   2.819   6.402   5.339
 5514SOL    HW217442   2.705   6.495   5.269
 5515SOL     OW17443   1.950   5.774   1.719
 5515SOL    HW117444   1.902   5.850   1.675
 5515SOL    HW217445   1.884   5.707   1.752
 5516SOL     OW17446   2.444   2.777   5.248
 5516SOL    HW117447   2.444   2.726   5.162
 5516SOL    HW217448   2.434   2.875   5.230
 5517SOL     OW17449   1.943   3.624   2.725
 5517SOL    HW117450   1.944   3.721   2.750
 5517SOL    HW217451   2.036   3.592   2.712
 5518SOL     OW17452   5.035   4.452   5.560
 5518SOL    HW117453   4.956   4.450   5.620
 5518SOL    HW217454   5.112   4.496   5.607
 5519SOL     OW17455   4.672   2.706   3.852
 5519SOL    HW117456   4.726   2.783   3.818
 5519SOL    HW217457   4.620   2.666   3.777
 5520SOL     OW17458   5.630   6.531   2.217
 5520SOL    HW117459   5.627   6.609   2.279
 5520SOL    HW217460   5.665   6.451   2.267
 5521SOL     OW17461   5.952   5.196   2.284
 5521SOL    HW117462   5.896   5.206   2.202
 5521SOL    HW217463   5.930   5.270   2.348
 5522SOL     OW17464   5.627   5.171   1.566
 5522SOL    HW117465   5.587   5.105   1.630
 5522SOL    HW217466   5.692   5.124   1.506
 5523SOL     OW17467   5.671   1.172   2.580
 5523SOL    HW117468   5.710   1.150   2.669
 5523SOL    HW217469   5.609   1.099   2.551
 5524SOL     OW17470   3.253   0.553   5.027
 5524SOL    HW117471   3.259   0.473   4.967
 5524SOL    HW217472   3.250   0.636   4.971
 5525SOL     OW17473   6.596   2.812   1.086
 5525SOL    HW117474   6.695   2.816   1.099
 5525SOL    HW217475   6.550   2.830   1.173
 5526SOL     OW17476   5.126   4.149   3.133
 5526SOL    HW117477   5.084   4.063   3.103
 5526SOL    HW217478   5.101   4.222   3.070
 5527SOL     OW17479   5.130   2.884   4.237
 5527SOL    HW117480   5.161   2.918   4.326
 5527SOL    HW217481   5.038   2.916   4.219
 5528SOL     OW17482   1.313   1.751   1.277
 5528SOL    HW117483   1.413   1.751   1.279
 5528SOL    HW217484   1.279   1.845   1.281
 5529SOL     OW17485   2.880   0.661   2.867
 5529SOL    HW117486   2.805   0.727   2.876
 5529SOL    HW217487   2.866   0.587   2.933
 5530SOL     OW17488   6.660   2.230   1.386
 5530SOL    HW117489   6.719   2.154   1.357
 5530SOL    HW217490   6.662   2.302   1.316
 5531SOL     OW17491   3.965   3.779   1.409
 5531SOL    HW117492   4.010   3.698   1.371
 5531SOL    HW217493   3.961   3.771   1.509
 5532SOL     OW17494   1.866   2.699   1.579
 5532SOL    HW117495   1.948   2.677   1.525
 5532SOL    HW217496   1.793   2.729   1.518
 5533SOL     OW17497   4.286   1.598   4.383
 5533SOL    HW117498   4.233   1.670   4.428
 5533SOL    HW217499   4.309   1.626   4.290
 5534SOL     OW17500   0.609   1.186   5.391
 5534SOL    HW117501   0.602   1.283   5.367
 5534SOL    HW217502   0.531   1.159   5.446
 5535SOL     OW17503   1.364   1.641   3.045
 5535SOL    HW117504   1.398   1.608   2.958
 5535SOL    HW217505   1.433   1.628   3.116
 5536SOL     OW17506   2.741   1.075   5.233
 5536SOL    HW117507   2.691   1.010   5.176
 5536SOL    HW217508   2.717   1.168   5.208
 5537SOL     OW17509   3.308   1.374   2.791
 5537SOL    HW117510   3.305   1.376   2.891
 5537SOL    HW217511   3.341   1.462   2.757
 5538SOL     OW17512   4.719   5.480   4.629
 5538SOL    HW117513   4.816   5.462   4.643
 5538SOL    HW217514   4.666   5.399   4.652
 5539SOL     OW17515   2.155   2.676   0.873
 5539SOL    HW117516   2.134   2.772   0.894
 5539SOL    HW217517   2.098   2.616   0.929
 5540SOL     OW17518   5.086   5.302   2.923
 5540SOL    HW117519   5.159   5.269   2.983
 5540SOL    HW217520   5.052   5.390   2.958
 5541SOL     OW17521   4.886   1.636   5.888
 5541SOL    HW117522   4.925   1.692   5.961
 5541SOL    HW217523   4.954   1.570   5.856
 5542SOL     OW17524   4.113   4.922   6.273
 5542SOL    HW117525   4.123   4.824   6.256
 5542SOL    HW217526   4.203   4.965   6.275
 5543SOL     OW17527   6.232   3.088   6.404
 5543SOL    HW117528   6.262   3.007   6.354
 5543SOL    HW217529   6.206   3.160   6.340
 5544SOL     OW17530   5.798   0.745   5.496
 5544SOL    HW117531   5.739   0.812   5.451
 5544SOL    HW217532   5.774   0.739   5.593
 5545SOL     OW17533   3.891   2.074   2.155
 5545SOL    HW117534   3.825   2.127   2.102
 5545SOL    HW217535   3.982   2.114   2.144
 5546SOL     OW17536   2.076   5.072   5.881
 5546SOL    HW117537   2.050   5.166   5.903
 5546SOL    HW217538   2.129   5.034   5.956
 5547SOL     OW17539   3.094   5.124   5.653
 5547SOL    HW117540   3.047   5.050   5.701
 5547SOL    HW217541   3.190   5.126   5.681
 5548SOL     OW17542   6.655   3.687   5.177
 5548SOL    HW117543   6.594   3.657   5.104
 5548SOL    HW217544   6.750   3.681   5.147
 5549SOL     OW17545   2.613   4.982   0.145
 5549SOL    HW117546   2.690   5.045   0.136
 5549SOL    HW217547   2.536   5.016   0.092
 5550SOL     OW17548   4.010   6.217   1.327
 5550SOL    HW117549   4.027   6.213   1.426
 5550SOL    HW217550   3.965   6.303   1.304
 5551SOL     OW17551   1.231   1.341   3.236
 5551SOL    HW117552   1.292   1.323   3.313
 5551SOL    HW217553   1.221   1.440   3.223
 5552SOL     OW17554   0.353   2.514   1.275
 5552SOL    HW117555   0.410   2.432   1.266
 5552SOL    HW217556   0.381   2.565   1.357
 5553SOL     OW17557   5.338   6.244   0.761
 5553SOL    HW117558   5.342   6.239   0.861
 5553SOL    HW217559   5.430   6.239   0.724
 5554SOL     OW17560   2.745   2.079   5.113
 5554SOL    HW117561   2.801   2.154   5.149
 5554SOL    HW217562   2.803   1.998   5.103
 5555SOL     OW17563   0.144   4.974   3.718
 5555SOL    HW117564   0.230   4.929   3.740
 5555SOL    HW217565   0.120   4.957   3.623
 5556SOL     OW17566   0.624   2.309   5.122
 5556SOL    HW117567   0.708   2.358   5.099
 5556SOL    HW217568   0.624   2.219   5.077
 5557SOL     OW17569   1.959   6.983   3.807
 5557SOL    HW117570   2.052   7.017   3.820
 5557SOL    HW217571   1.960   6.883   3.805
 5558SOL     OW17572   5.098   3.122   5.285
 5558SOL    HW117573   5.060   3.037   5.323
 5558SOL    HW217574   5.092   3.195   5.353
 5559SOL     OW17575   2.190   0.529   0.930
 5559SOL    HW117576   2.259   0.596   0.960
 5559SOL    HW217577   2.143   0.564   0.848
 5560SOL     OW17578   0.189   0.972   3.899
 5560SOL    HW117579   0.226   0.986   3.806
 5560SOL    HW217580   0.136   1.052   3.925
 5561SOL     OW17581   1.784   2.722   3.498
 5561SOL    HW117582   1.703   2.692   3.448
 5561SOL    HW217583   1.794   2.668   3.581
 5562SOL     OW17584   2.585   3.125   6.276
 5562SOL    HW117585   2.592   3.137   6.375
 5562SOL    HW217586   2.674   3.097   6.239
 5563SOL     OW17587   4.665   5.787   1.825
 5563SOL    HW117588   4.672   5.865   1.762
 5563SOL    HW217589   4.742   5.788   1.887
 5564SOL     OW17590   5.386   4.012   1.681
 5564SOL    HW117591   5.320   4.039   1.751
 5564SOL    HW217592   5.447   3.942   1.718
 5565SOL     OW17593   3.315   2.940   5.419
 5565SOL    HW117594   3.376   2.924   5.341
 5565SOL    HW217595   3.233   2.988   5.387
 5566SOL     OW17596   1.820   4.934   0.945
 5566SOL    HW117597   1.743   4.872   0.958
 5566SOL    HW217598   1.790   5.015   0.894
 5567SOL     OW17599   1.330   5.224   1.850
 5567SOL    HW117600   1.359   5.305   1.902
 5567SOL    HW217601   1.367   5.142   1.894
 5568SOL     OW17602   3.384   1.652   1.646
 5568SOL    HW117603   3.453   1.705   1.597
 5568SOL    HW217604   3.308   1.632   1.585
 5569SOL     OW17605   4.927   1.533   0.091
 5569SOL    HW117606   4.846   1.522   0.149
 5569SOL    HW217607   4.983   1.608   0.126
 5570SOL     OW17608   7.029   3.920   5.789
 5570SOL    HW117609   6.946   3.973   5.806
 5570SOL    HW217610   0.009   3.903   5.691
 5571SOL     OW17611   6.930   4.888   6.730
 5571SOL    HW117612   6.981   4.900   6.644
 5571SOL    HW217613   6.889   4.975   6.757
 5572SOL     OW17614   4.959   2.439   6.636
 5572SOL    HW117615   4.871   2.461   6.677
 5572SOL    HW217616   4.963   2.340   6.619
 5573SOL     OW17617   1.237   3.714   0.680
 5573SOL    HW117618   1.189   3.726   0.767
 5573SOL    HW217619   1.320   3.660   0.694
 5574SOL     OW17620   0.658   5.845   5.379
 5574SOL    HW117621   0.676   5.935   5.417
 5574SOL    HW217622   0.738   5.786   5.391
 5575SOL     OW17623   1.445   1.290   0.767
 5575SOL    HW117624   1.433   1.228   0.689
 5575SOL    HW217625   1.499   1.244   0.838
 5576SOL     OW17626   6.181   6.378   0.164
 5576SOL    HW117627   6.243   6.445   0.123
 5576SOL    HW217628   6.208   6.360   0.258
 5577SOL     OW17629   2.046   3.959   5.385
 5577SOL    HW117630   1.951   3.932   5.403
 5577SOL    HW217631   2.104   3.878   5.388
 5578SOL     OW17632   4.169   2.824   6.768
 5578SOL    HW117633   4.127   2.759   6.704
 5578SOL    HW217634   4.264   2.841   6.741
 5579SOL     OW17635   4.990   4.185   6.682
 5579SOL    HW117636   4.993   4.085   6.682
 5579SOL    HW217637   4.894   4.215   6.687
 5580SOL     OW17638   5.949   1.569   0.644
 5580SOL    HW117639   5.957   1.477   0.683
 5580SOL    HW217640   6.025   1.585   0.581
 5581SOL     OW17641   2.425   1.925   6.459
 5581SOL    HW117642   2.479   1.915   6.375
 5581SOL    HW217643   2.402   1.835   6.495
 5582SOL     OW17644   4.037   3.256   3.802
 5582SOL    HW117645   4.080   3.217   3.721
 5582SOL    HW217646   3.945   3.218   3.812
 5583SOL     OW17647   4.038   6.895   1.443
 5583SOL    HW117648   3.996   6.828   1.505
 5583SOL    HW217649   4.033   6.860   1.349
 5584SOL     OW17650   6.814   2.992   3.148
 5584SOL    HW117651   6.787   2.897   3.161
 5584SOL    HW217652   6.850   3.005   3.056
 5585SOL     OW17653   6.157   0.301   4.326
 5585SOL    HW117654   6.170   0.380   4.385
 5585SOL    HW217655   6.060   0.290   4.305
 5586SOL     OW17656   1.922   0.777   6.059
 5586SOL    HW117657   1.847   0.761   6.123
 5586SOL    HW217658   1.885   0.800   5.969
 5587SOL     OW17659   3.551   0.147   4.130
 5587SOL    HW117660   3.540   0.166   4.032
 5587SOL    HW217661   3.630   0.198   4.165
 5588SOL     OW17662   3.476   6.956   6.121
 5588SOL    HW117663   3.415   6.879   6.139
 5588SOL    HW217664   3.544   6.929   6.053
 5589SOL     OW17665   4.787   2.987   6.730
 5589SOL    HW117666   4.749   2.929   6.802
 5589SOL    HW217667   4.764   3.082   6.749
 5590SOL     OW17668   6.958   6.096   3.803
 5590SOL    HW117669   0.013   6.071   3.850
 5590SOL    HW217670   6.880   6.064   3.856
 5591SOL     OW17671   5.038   0.914   0.225
 5591SOL    HW117672   4.963   0.883   0.284
 5591SOL    HW217673   5.106   0.841   0.218
 5592SOL     OW17674   1.828   2.985   2.758
 5592SOL    HW117675   1.779   3.029   2.833
 5592SOL    HW217676   1.779   3.002   2.673
 5593SOL     OW17677   1.803   3.187   5.940
 5593SOL    HW117678   1.772   3.158   6.030
 5593SOL    HW217679   1.892   3.145   5.920
 5594SOL     OW17680   2.023   0.915   0.138
 5594SOL    HW117681   2.117   0.902   0.168
 5594SOL    HW217682   1.961   0.903   0.216
 5595SOL     OW17683   6.454   2.336   5.624
 5595SOL    HW117684   6.467   2.269   5.697
 5595SOL    HW217685   6.387   2.301   5.558
 5596SOL     OW17686   4.683   1.320   3.577
 5596SOL    HW117687   4.650   1.229   3.550
 5596SOL    HW217688   4.647   1.388   3.513
 5597SOL     OW17689   6.991   1.077   6.173
 5597SOL    HW117690   6.998   0.993   6.118
 5597SOL    HW217691   6.958   1.054   6.265
 5598SOL     OW17692   6.615   1.957   4.266
 5598SOL    HW117693   6.596   1.859   4.255
 5598SOL    HW217694   6.592   2.005   4.181
 5599SOL     OW17695   5.104   3.123   3.129
 5599SOL    HW117696   5.188   3.086   3.167
 5599SOL    HW217697   5.052   3.169   3.200
 5600SOL     OW17698   2.478   1.396   2.289
 5600SOL    HW117699   2.502   1.398   2.192
 5600SOL    HW217700   2.489   1.304   2.325
 5601SOL     OW17701   5.627   2.619   5.530
 5601SOL    HW117702   5.593   2.525   5.524
 5601SOL    HW217703   5.637   2.656   5.438
 5602SOL     OW17704   6.940   2.265   2.879
 5602SOL    HW117705   6.858   2.320   2.898
 5602SOL    HW217706   6.936   2.231   2.785
 5603SOL     OW17707   4.154   1.936   5.006
 5603SOL    HW117708   4.211   1.861   5.040
 5603SOL    HW217709   4.060   1.923   5.037
 5604SOL     OW17710   0.928   0.490   4.615
 5604SOL    HW117711   0.948   0.550   4.538
 5604SOL    HW217712   0.847   0.436   4.596
 5605SOL     OW17713   2.873   6.336   3.977
 5605SOL    HW117714   2.939   6.352   3.903
 5605SOL    HW217715   2.918   6.283   4.049
 5606SOL     OW17716   4.553   2.504   0.802
 5606SOL    HW117717   4.581   2.504   0.706
 5606SOL    HW217718   4.617   2.449   0.856
 5607SOL     OW17719   6.460   2.327   2.669
 5607SOL    HW117720   6.480   2.245   2.616
 5607SOL    HW217721   6.445   2.404   2.606
 5608SOL     OW17722   5.256   0.596   3.867
 5608SOL    HW117723   5.343   0.601   3.818
 5608SOL    HW217724   5.213   0.687   3.867
 5609SOL     OW17725   6.723   0.312   0.776
 5609SOL    HW117726   6.793   0.283   0.711
 5609SOL    HW217727   6.751   0.285   0.868
 5610SOL     OW17728   5.227   4.607   0.491
 5610SOL    HW117729   5.218   4.507   0.490
 5610SOL    HW217730   5.320   4.632   0.463
 5611SOL     OW17731   6.838   4.582   1.398
 5611SOL    HW117732   6.774   4.516   1.359
 5611SOL    HW217733   6.789   4.663   1.427
 5612SOL     OW17734   3.148   1.414   0.619
 5612SOL    HW117735   3.127   1.326   0.576
 5612SOL    HW217736   3.189   1.475   0.551
 5613SOL     OW17737   6.673   5.056   5.811
 5613SOL    HW117738   6.675   5.148   5.850
 5613SOL    HW217739   6.731   5.053   5.729
 5614SOL     OW17740   5.583   2.481   3.953
 5614SOL    HW117741   5.512   2.463   4.021
 5614SOL    HW217742   5.634   2.563   3.978
 5615SOL     OW17743   0.267   3.060   3.050
 5615SOL    HW117744   0.274   2.983   3.113
 5615SOL    HW217745   0.238   3.027   2.960
 5616SOL     OW17746   1.393   3.321   2.514
 5616SOL    HW117747   1.302   3.323   2.473
 5616SOL    HW217748   1.461   3.350   2.447
 5617SOL     OW17749   1.929   5.139   6.177
 5617SOL    HW117750   1.879   5.078   6.114
 5617SOL    HW217751   2.008   5.090   6.214
 5618SOL     OW17752   6.576   5.979   3.139
 5618SOL    HW117753   6.575   6.069   3.097
 5618SOL    HW217754   6.663   5.964   3.186
 5619SOL     OW17755   3.559   2.924   4.064
 5619SOL    HW117756   3.460   2.917   4.048
 5619SOL    HW217757   3.578   2.903   4.160
 5620SOL     OW17758   4.970   4.397   5.073
 5620SOL    HW117759   4.886   4.357   5.036
 5620SOL    HW217760   4.954   4.429   5.166
 5621SOL     OW17761   1.269   2.418   5.424
 5621SOL    HW117762   1.263   2.411   5.324
 5621SOL    HW217763   1.231   2.505   5.453
 5622SOL     OW17764   4.411   6.182   4.473
 5622SOL    HW117765   4.485   6.247   4.492
 5622SOL    HW217766   4.433   6.129   4.391
 5623SOL     OW17767   4.875   5.633   3.802
 5623SOL    HW117768   4.948   5.635   3.734
 5623SOL    HW217769   4.791   5.601   3.759
 5624SOL     OW17770   6.422   5.705   4.189
 5624SOL    HW117771   6.348   5.676   4.128
 5624SOL    HW217772   6.510   5.682   4.148
 5625SOL     OW17773   0.759   6.095   5.445
 5625SOL    HW117774   0.800   6.108   5.355
 5625SOL    HW217775   0.787   6.169   5.506
 5626SOL     OW17776   1.054   4.541   5.557
 5626SOL    HW117777   0.984   4.469   5.562
 5626SOL    HW217778   1.100   4.549   5.645
 5627SOL     OW17779   0.812   5.867   0.082
 5627SOL    HW117780   0.880   5.911   0.024
 5627SOL    HW217781   0.844   5.865   0.177
 5628SOL     OW17782   2.300   2.470   2.025
 5628SOL    HW117783   2.384   2.503   1.983
 5628SOL    HW217784   2.322   2.416   2.106
 5629SOL     OW17785   5.233   3.626   1.569
 5629SOL    HW117786   5.133   3.635   1.567
 5629SOL    HW217787   5.267   3.655   1.659
 5630SOL     OW17788   1.319   4.597   0.146
 5630SOL    HW117789   1.273   4.642   0.070
 5630SOL    HW217790   1.258   4.529   0.187
 5631SOL     OW17791   4.263   1.308   1.686
 5631SOL    HW117792   4.238   1.364   1.607
 5631SOL    HW217793   4.181   1.272   1.729
 5632SOL     OW17794   5.324   6.849   5.887
 5632SOL    HW117795   5.342   6.918   5.817
 5632SOL    HW217796   5.408   6.831   5.938
 5633SOL     OW17797   0.400   5.061   5.978
 5633SOL    HW117798   0.498   5.071   5.993
 5633SOL    HW217799   0.367   5.135   5.919
 5634SOL     OW17800   2.418   6.939   0.777
 5634SOL    HW117801   2.452   6.881   0.852
 5634SOL    HW217802   2.471   6.921   0.695
 5635SOL     OW17803   1.848   1.007   6.516
 5635SOL    HW117804   1.902   1.056   6.584
 5635SOL    HW217805   1.884   1.023   6.425
 5636SOL     OW17806   5.748   1.615   5.448
 5636SOL    HW117807   5.671   1.646   5.504
 5636SOL    HW217808   5.819   1.685   5.446
 5637SOL     OW17809   4.497   6.588   4.627
 5637SOL    HW117810   4.398   6.577   4.635
 5637SOL    HW217811   4.533   6.518   4.566
 5638SOL     OW17812   6.207   5.462   1.067
 5638SOL    HW117813   6.164   5.375   1.093
 5638SOL    HW217814   6.148   5.508   1.001
 5639SOL     OW17815   1.295   0.444   0.980
 5639SOL    HW117816   1.235   0.524   0.980
 5639SOL    HW217817   1.243   0.363   1.008
 5640SOL     OW17818   2.821   5.676   2.854
 5640SOL    HW117819   2.767   5.686   2.937
 5640SOL    HW217820   2.782   5.603   2.798
 5641SOL     OW17821   0.617   4.343   4.257
 5641SOL    HW117822   0.648   4.259   4.214
 5641SOL    HW217823   0.645   4.344   4.353
 5642SOL     OW17824   1.603   4.979   0.100
 5642SOL    HW117825   1.615   4.881   0.115
 5642SOL    HW217826   1.526   5.012   0.155
 5643SOL     OW17827   4.421   2.207   4.910
 5643SOL    HW117828   4.364   2.288   4.893
 5643SOL    HW217829   4.387   2.130   4.856
 5644SOL     OW17830   4.173   0.831   4.809
 5644SOL    HW117831   4.152   0.841   4.712
 5644SOL    HW217832   4.088   0.824   4.861
 5645SOL     OW17833   5.252   5.374   4.395
 5645SOL    HW117834   5.159   5.343   4.374
 5645SOL    HW217835   5.251   5.472   4.413
 5646SOL     OW17836   0.401   6.002   4.536
 5646SOL    HW117837   0.470   6.060   4.491
 5646SOL    HW217838   0.447   5.937   4.597
 5647SOL     OW17839   5.577   5.317   6.090
 5647SOL    HW117840   5.575   5.389   6.021
 5647SOL    HW217841   5.493   5.264   6.085
 5648SOL     OW17842   1.551   1.954   4.569
 5648SOL    HW117843   1.619   1.895   4.525
 5648SOL    HW217844   1.462   1.941   4.526
 5649SOL     OW17845   0.363   1.039   5.453
 5649SOL    HW117846   0.359   1.039   5.353
 5649SOL    HW217847   0.364   0.944   5.486
 5650SOL     OW17848   6.158   5.092   6.563
 5650SOL    HW117849   6.093   5.163   6.590
 5650SOL    HW217850   6.108   5.013   6.527
 5651SOL     OW17851   6.875   0.220   2.945
 5651SOL    HW117852   6.871   0.234   2.846
 5651SOL    HW217853   6.829   0.294   2.991
 5652SOL     OW17854   4.748   4.956   0.935
 5652SOL    HW117855   4.692   5.011   0.997
 5652SOL    HW217856   4.828   5.009   0.908
 5653SOL     OW17857   0.769   6.254   6.051
 5653SOL    HW117858   0.852   6.294   6.090
 5653SOL    HW217859   0.768   6.156   6.069
 5654SOL     OW17860   6.577   6.521   5.690
 5654SOL    HW117861   6.603   6.590   5.758
 5654SOL    HW217862   6.480   6.497   5.702
 5655SOL     OW17863   6.789   3.425   3.944
 5655SOL    HW117864   6.717   3.436   4.012
 5655SOL    HW217865   6.806   3.327   3.929
 5656SOL     OW17866   3.574   4.438   0.438
 5656SOL    HW117867   3.490   4.436   0.493
 5656SOL    HW217868   3.652   4.463   0.496
 5657SOL     OW17869   3.824   0.037   1.697
 5657SOL    HW117870   3.885   7.029   1.627
 5657SOL    HW217871   3.735   7.021   1.692
 5658SOL     OW17872   3.954   6.676   6.027
 5658SOL    HW117873   3.997   6.683   5.937
 5658SOL    HW217874   3.910   6.763   6.050
 5659SOL     OW17875   3.159   3.860   2.790
 5659SOL    HW117876   3.142   3.850   2.692
 5659SOL    HW217877   3.185   3.954   2.810
 5660SOL     OW17878   5.543   6.574   7.025
 5660SOL    HW117879   5.576   6.667   7.004
 5660SOL    HW217880   5.610   6.526   0.051
 5661SOL     OW17881   5.872   5.662   4.130
 5661SOL    HW117882   5.961   5.662   4.175
 5661SOL    HW217883   5.804   5.702   4.191
 5662SOL     OW17884   2.328   4.730   4.026
 5662SOL    HW117885   2.258   4.670   3.986
 5662SOL    HW217886   2.314   4.823   3.993
 5663SOL     OW17887   1.547   4.505   0.670
 5663SOL    HW117888   1.466   4.561   0.687
 5663SOL    HW217889   1.618   4.528   0.736
 5664SOL     OW17890   0.230   4.466   2.266
 5664SOL    HW117891   0.228   4.418   2.179
 5664SOL    HW217892   0.324   4.479   2.295
 5665SOL     OW17893   2.615   3.181   5.865
 5665SOL    HW117894   2.603   3.108   5.932
 5665SOL    HW217895   2.676   3.251   5.902
 5666SOL     OW17896   5.693   4.435   1.243
 5666SOL    HW117897   5.615   4.401   1.296
 5666SOL    HW217898   5.774   4.381   1.264
 5667SOL     OW17899   0.027   4.817   3.052
 5667SOL    HW117900   0.012   4.719   3.036
 5667SOL    HW217901   0.085   4.829   3.132
 5668SOL     OW17902   5.766   2.042   6.399
 5668SOL    HW117903   5.732   2.133   6.423
 5668SOL    HW217904   5.743   1.978   6.472
 5669SOL     OW17905   0.422   4.525   6.238
 5669SOL    HW117906   0.463   4.453   6.181
 5669SOL    HW217907   0.370   4.587   6.180
 5670SOL     OW17908   0.455   3.787   3.756
 5670SOL    HW117909   0.553   3.766   3.762
 5670SOL    HW217910   0.414   3.732   3.683
 5671SOL     OW17911   1.247   0.836   5.881
 5671SOL    HW117912   1.251   0.935   5.865
 5671SOL    HW217913   1.339   0.798   5.879
 5672SOL     OW17914   4.801   4.719   5.792
 5672SOL    HW117915   4.851   4.672   5.864
 5672SOL    HW217916   4.852   4.800   5.763
 5673SOL     OW17917   0.526   0.383   2.187
 5673SOL    HW117918   0.563   0.325   2.114
 5673SOL    HW217919   0.542   0.338   2.276
 5674SOL     OW17920   6.827   3.358   1.409
 5674SOL    HW117921   6.773   3.390   1.487
 5674SOL    HW217922   6.784   3.276   1.370
 5675SOL     OW17923   4.443   2.174   5.365
 5675SOL    HW117924   4.379   2.251   5.370
 5675SOL    HW217925   4.466   2.156   5.269
 5676SOL     OW17926   2.349   0.195   1.929
 5676SOL    HW117927   2.287   0.130   1.885
 5676SOL    HW217928   2.440   0.155   1.936
 5677SOL     OW17929   6.414   0.992   3.367
 5677SOL    HW117930   6.354   0.993   3.447
 5677SOL    HW217931   6.503   0.956   3.393
 5678SOL     OW17932   2.844   6.567   3.245
 5678SOL    HW117933   2.943   6.563   3.243
 5678SOL    HW217934   2.810   6.544   3.336
 5679SOL     OW17935   1.998   6.732   5.048
 5679SOL    HW117936   1.965   6.825   5.032
 5679SOL    HW217937   1.937   6.667   5.002
 5680SOL     OW17938   1.700   5.538   6.494
 5680SOL    HW117939   1.699   5.598   6.575
 5680SOL    HW217940   1.790   5.540   6.452
 5681SOL     OW17941   1.549   3.026   6.864
 5681SOL    HW117942   1.567   3.044   6.767
 5681SOL    HW217943   1.501   2.939   6.873
 5682SOL     OW17944   1.500   3.472   5.120
 5682SOL    HW117945   1.574   3.450   5.183
 5682SOL    HW217946   1.414   3.481   5.171
 5683SOL     OW17947   3.294   2.492   5.739
 5683SOL    HW117948   3.394   2.490   5.733
 5683SOL    HW217949   3.257   2.405   5.706
 5684SOL     OW17950   3.507   3.873   3.821
 5684SOL    HW117951   3.457   3.807   3.877
 5684SOL    HW217952   3.514   3.959   3.870
 5685SOL     OW17953   6.978   5.112   2.230
 5685SOL    HW117954   6.899   5.073   2.182
 5685SOL    HW217955   6.964   5.211   2.242
 5686SOL     OW17956   3.383   0.035   0.680
 5686SOL    HW117957   3.382   6.972   0.642
 5686SOL    HW217958   3.475   0.072   0.674
 5687SOL     OW17959   5.239   5.161   5.305
 5687SOL    HW117960   5.225   5.092   5.234
 5687SOL    HW217961   5.153   5.179   5.352
 5688SOL     OW17962   5.506   1.719   1.606
 5688SOL    HW117963   5.536   1.650   1.541
 5688SOL    HW217964   5.438   1.778   1.563
 5689SOL     OW17965   3.868   2.094   0.740
 5689SOL    HW117966   3.909   2.163   0.799
 5689SOL    HW217967   3.789   2.134   0.693
 5690SOL     OW17968   4.940   6.206   0.890
 5690SOL    HW117969   5.018   6.262   0.861
 5690SOL    HW217970   4.928   6.130   0.825
 5691SOL     OW17971   2.182   0.051   1.746
 5691SOL    HW117972   2.087   0.030   1.722
 5691SOL    HW217973   2.222   7.004   1.797
 5692SOL     OW17974   6.738   2.916   0.051
 5692SOL    HW117975   6.653   2.960   0.023
 5692SOL    HW217976   6.809   2.934   7.013
 5693SOL     OW17977   4.624   2.475   2.632
 5693SOL    HW117978   4.691   2.531   2.680
 5693SOL    HW217979   4.595   2.522   2.549
 5694SOL     OW17980   0.277   1.072   3.654
 5694SOL    HW117981   0.356   1.062   3.593
 5694SOL    HW217982   0.285   1.160   3.703
 5695SOL     OW17983   1.841   3.569   3.532
 5695SOL    HW117984   1.820   3.641   3.598
 5695SOL    HW217985   1.929   3.527   3.556
 5696SOL     OW17986   2.855   0.407   4.781
 5696SOL    HW117987   2.789   0.422   4.707
 5696SOL    HW217988   2.844   0.478   4.850
 5697SOL     OW17989   6.496   2.517   0.057
 5697SOL    HW117990   6.480   2.490   0.152
 5697SOL    HW217991   6.562   2.592   0.054
 5698SOL     OW17992   0.794   3.715   1.901
 5698SOL    HW117993   0.894   3.719   1.903
 5698SOL    HW217994   0.765   3.632   1.854
 5699SOL     OW17995   5.652   0.675   5.114
 5699SOL    HW117996   5.626   0.717   5.028
 5699SOL    HW217997   5.730   0.614   5.100
 5700SOL     OW17998   1.674   6.054   4.507
 5700SOL    HW117999   1.581   6.091   4.508
 5700SOL    HW218000   1.702   6.037   4.413
 5701SOL     OW18001   6.166   5.376   1.939
 5701SOL    HW118002   6.248   5.355   1.885
 5701SOL    HW218003   6.086   5.376   1.879
 5702SOL     OW18004   2.638   0.658   6.437
 5702SOL    HW118005   2.644   0.563   6.408
 5702SOL    HW218006   2.549   0.674   6.480
 5703SOL     OW18007   4.421   4.877   0.218
 5703SOL    HW118008   4.469   4.872   0.131
 5703SOL    HW218009   4.339   4.934   0.207
 5704SOL     OW18010   4.581   5.244   3.814
 5704SOL    HW118011   4.598   5.163   3.870
 5704SOL    HW218012   4.594   5.326   3.868
 5705SOL     OW18013   6.098   0.413   1.312
 5705SOL    HW118014   6.164   0.452   1.376
 5705SOL    HW218015   6.019   0.379   1.361
 5706SOL     OW18016   1.114   1.194   6.994
 5706SOL    HW118017   1.185   1.151   6.938
 5706SOL    HW218018   1.059   1.123   0.008
 5707SOL     OW18019   2.190   1.407   6.503
 5707SOL    HW118020   2.193   1.391   6.602
 5707SOL    HW218021   2.143   1.494   6.486
 5708SOL     OW18022   5.032   6.823   2.601
 5708SOL    HW118023   4.953   6.882   2.589
 5708SOL    HW218024   5.052   6.813   2.699
 5709SOL     OW18025   0.368   6.630   3.054
 5709SOL    HW118026   0.373   6.729   3.040
 5709SOL    HW218027   0.423   6.605   3.133
 5710SOL     OW18028   3.280   3.440   5.951
 5710SOL    HW118029   3.193   3.483   5.927
 5710SOL    HW218030   3.284   3.348   5.911
 5711SOL     OW18031   4.390   1.054   4.137
 5711SOL    HW118032   4.462   1.079   4.201
 5711SOL    HW218033   4.365   0.958   4.151
 5712SOL     OW18034   0.128   6.687   6.115
 5712SOL    HW118035   0.062   6.614   6.097
 5712SOL    HW218036   0.158   6.726   6.028
 5713SOL     OW18037   6.967   2.718   2.638
 5713SOL    HW118038   6.965   2.620   2.619
 5713SOL    HW218039   6.977   2.734   2.736
 5714SOL     OW18040   1.179   1.125   5.755
 5714SOL    HW118041   1.177   1.188   5.833
 5714SOL    HW218042   1.259   1.143   5.699
 5715SOL     OW18043   1.674   6.407   2.507
 5715SOL    HW118044   1.620   6.388   2.425
 5715SOL    HW218045   1.613   6.430   2.583
 5716SOL     OW18046   1.826   3.766   5.948
 5716SOL    HW118047   1.863   3.797   5.860
 5716SOL    HW218048   1.873   3.681   5.975
 5717SOL     OW18049   1.071   4.344   0.649
 5717SOL    HW118050   1.061   4.284   0.569
 5717SOL    HW218051   1.088   4.288   0.730
 5718SOL     OW18052   3.030   4.702   6.701
 5718SOL    HW118053   2.971   4.707   6.620
 5718SOL    HW218054   2.978   4.666   6.778
 5719SOL     OW18055   3.081   0.854   6.606
 5719SOL    HW118056   3.013   0.804   6.551
 5719SOL    HW218057   3.038   0.892   6.687
 5720SOL     OW18058   1.967   5.563   5.328
 5720SOL    HW118059   1.883   5.578   5.275
 5720SOL    HW218060   2.044   5.550   5.266
 5721SOL     OW18061   0.574   3.251   1.484
 5721SOL    HW118062   0.574   3.347   1.457
 5721SOL    HW218063   0.544   3.194   1.407
 5722SOL     OW18064   5.124   6.660   4.807
 5722SOL    HW118065   5.189   6.702   4.870
 5722SOL    HW218066   5.118   6.562   4.826
 5723SOL     OW18067   3.714   5.679   0.519
 5723SOL    HW118068   3.615   5.668   0.515
 5723SOL    HW218069   3.738   5.741   0.594
 5724SOL     OW18070   5.507   2.094   6.050
 5724SOL    HW118071   5.486   2.141   5.964
 5724SOL    HW218072   5.592   2.043   6.040
 5725SOL     OW18073   5.698   4.706   4.983
 5725SOL    HW118074   5.746   4.745   4.905
 5725SOL    HW218075   5.730   4.749   5.067
 5726SOL     OW18076   6.006   3.678   6.017
 5726SOL    HW118077   5.969   3.688   5.925
 5726SOL    HW218078   5.930   3.663   6.081
 5727SOL     OW18079   5.676   1.805   3.426
 5727SOL    HW118080   5.664   1.885   3.484
 5727SOL    HW218081   5.592   1.789   3.374
 5728SOL     OW18082   5.838   0.805   4.792
 5728SOL    HW118083   5.914   0.840   4.847
 5728SOL    HW218084   5.864   0.807   4.695
 5729SOL     OW18085   0.239   1.832   6.344
 5729SOL    HW118086   0.209   1.924   6.317
 5729SOL    HW218087   0.248   1.774   6.263
 5730SOL     OW18088   3.891   4.831   5.909
 5730SOL    HW118089   3.936   4.804   5.824
 5730SOL    HW218090   3.794   4.806   5.905
 5731SOL     OW18091   2.989   0.927   3.974
 5731SOL    HW118092   2.896   0.936   3.938
 5731SOL    HW218093   3.054   0.926   3.898
 5732SOL     OW18094   6.290   5.086   5.137
 5732SOL    HW118095   6.200   5.051   5.162
 5732SOL    HW218096   6.313   5.164   5.196
 5733SOL     OW18097   3.572   0.859   7.020
 5733SOL    HW118098   3.497   0.911   0.032
 5733SOL    HW218099   3.537   0.805   6.943
 5734SOL     OW18100   1.321   6.673   5.655
 5734SOL    HW118101   1.347   6.655   5.750
 5734SOL    HW218102   1.403   6.690   5.600
 5735SOL     OW18103   4.141   0.616   2.203
 5735SOL    HW118104   4.171   0.533   2.156
 5735SOL    HW218105   4.085   0.671   2.140
 5736SOL     OW18106   4.714   4.202   6.766
 5736SOL    HW118107   4.666   4.122   6.801
 5736SOL    HW218108   4.654   4.253   6.704
 5737SOL     OW18109   4.856   5.473   1.278
 5737SOL    HW118110   4.941   5.481   1.329
 5737SOL    HW218111   4.825   5.378   1.277
 5738SOL     OW18112   3.390   1.153   6.510
 5738SOL    HW118113   3.441   1.204   6.441
 5738SOL    HW218114   3.443   1.152   6.596
 5739SOL     OW18115   3.039   0.587   5.674
 5739SOL    HW118116   3.076   0.676   5.646
 5739SOL    HW218117   3.078   0.515   5.616
 5740SOL     OW18118   5.411   3.800   1.397
 5740SOL    HW118119   5.402   3.748   1.312
 5740SOL    HW218120   5.356   3.756   1.468
 5741SOL     OW18121   0.576   3.814   4.197
 5741SOL    HW118122   0.522   3.887   4.238
 5741SOL    HW218123   0.522   3.770   4.125
 5742SOL     OW18124   4.195   0.396   3.374
 5742SOL    HW118125   4.153   0.473   3.326
 5742SOL    HW218126   4.223   0.424   3.465
 5743SOL     OW18127   3.450   4.002   5.403
 5743SOL    HW118128   3.509   4.082   5.391
 5743SOL    HW218129   3.391   3.993   5.323
 5744SOL     OW18130   5.877   6.196   2.939
 5744SOL    HW118131   5.891   6.181   3.037
 5744SOL    HW218132   5.795   6.251   2.925
 5745SOL     OW18133   2.474   2.667   3.640
 5745SOL    HW118134   2.506   2.704   3.727
 5745SOL    HW218135   2.376   2.686   3.630
 5746SOL     OW18136   4.153   0.139   3.666
 5746SOL    HW118137   4.150   0.172   3.761
 5746SOL    HW218138   4.081   0.185   3.614
 5747SOL     OW18139   1.293   5.809   1.919
 5747SOL    HW118140   1.208   5.757   1.933
 5747SOL    HW218141   1.278   5.904   1.945
 5748SOL     OW18142   0.412   5.992   0.943
 5748SOL    HW118143   0.406   6.021   1.038
 5748SOL    HW218144   0.340   6.035   0.890
 5749SOL     OW18145   1.696   6.354   4.707
 5749SOL    HW118146   1.642   6.269   4.706
 5749SOL    HW218147   1.740   6.366   4.618
 5750SOL     OW18148   0.034   4.416   4.401
 5750SOL    HW118149   6.966   4.400   4.383
 5750SOL    HW218150   0.050   4.514   4.414
 5751SOL     OW18151   2.131   3.800   4.253
 5751SOL    HW118152   2.112   3.702   4.255
 5751SOL    HW218153   2.155   3.832   4.345
 5752SOL     OW18154   5.293   7.017   0.891
 5752SOL    HW118155   5.342   6.949   0.946
 5752SOL    HW218156   5.254   6.972   0.811
 5753SOL     OW18157   3.276   4.128   4.825
 5753SOL    HW118158   3.214   4.149   4.900
 5753SOL    HW218159   3.229   4.142   4.738
 5754SOL     OW18160   0.887   6.306   1.643
 5754SOL    HW118161   0.817   6.310   1.571
 5754SOL    HW218162   0.916   6.211   1.656
 5755SOL     OW18163   2.451   2.302   6.954
 5755SOL    HW118164   2.415   2.220   6.909
 5755SOL    HW218165   2.377   2.366   6.971
 5756SOL     OW18166   6.179   6.142   1.887
 5756SOL    HW118167   6.153   6.197   1.966
 5756SOL    HW218168   6.172   6.198   1.804
 5757SOL     OW18169   6.816   6.959   3.410
 5757SOL    HW118170   6.745   6.890   3.398
 5757SOL    HW218171   6.838   6.999   3.321
 5758SOL     OW18172   1.344   6.660   3.248
 5758SOL    HW118173   1.422   6.600   3.264
 5758SOL    HW218174   1.375   6.754   3.235
 5759SOL     OW18175   4.203   6.504   1.621
 5759SOL    HW118176   4.115   6.537   1.588
 5759SOL    HW218177   4.228   6.554   1.704
 5760SOL     OW18178   6.853   3.278   1.762
 5760SOL    HW118179   6.772   3.223   1.740
 5760SOL    HW218180   6.847   3.311   1.856
 5761SOL     OW18181   5.268   5.577   4.771
 5761SOL    HW118182   5.304   5.669   4.787
 5761SOL    HW218183   5.341   5.510   4.782
 5762SOL     OW18184   5.633   4.291   6.826
 5762SOL    HW118185   5.545   4.323   6.862
 5762SOL    HW218186   5.684   4.368   6.788
 5763SOL     OW18187   5.607   0.229   0.666
 5763SOL    HW118188   5.704   0.252   0.653
 5763SOL    HW218189   5.590   0.211   0.763
 5764SOL     OW18190   4.399   5.131   2.996
 5764SOL    HW118191   4.314   5.079   2.984
 5764SOL    HW218192   4.477   5.071   2.981
 5765SOL     OW18193   6.239   4.810   1.120
 5765SOL    HW118194   6.327   4.799   1.073
 5765SOL    HW218195   6.166   4.820   1.052
 5766SOL     OW18196   0.794   1.727   4.563
 5766SOL    HW118197   0.731   1.762   4.494
 5766SOL    HW218198   0.744   1.706   4.647
 5767SOL     OW18199   2.318   0.272   0.827
 5767SOL    HW118200   2.335   0.232   0.917
 5767SOL    HW218201   2.271   0.360   0.838
 5768SOL     OW18202   6.655   6.458   4.012
 5768SOL    HW118203   6.712   6.394   4.064
 5768SOL    HW218204   6.625   6.415   3.927
 5769SOL     OW18205   1.299   5.095   6.373
 5769SOL    HW118206   1.321   4.999   6.392
 5769SOL    HW218207   1.383   5.145   6.354
 5770SOL     OW18208   0.595   5.861   1.214
 5770SOL    HW118209   0.572   5.792   1.145
 5770SOL    HW218210   0.514   5.916   1.235
 5771SOL     OW18211   1.982   5.314   4.213
 5771SOL    HW118212   1.883   5.305   4.219
 5771SOL    HW218213   2.006   5.411   4.204
 5772SOL     OW18214   4.545   6.948   2.062
 5772SOL    HW118215   4.491   6.929   2.144
 5772SOL    HW218216   4.497   6.915   1.981
 5773SOL     OW18217   4.774   2.237   2.054
 5773SOL    HW118218   4.764   2.138   2.045
 5773SOL    HW218219   4.706   2.283   1.997
 5774SOL     OW18220   1.040   6.711   3.398
 5774SOL    HW118221   1.029   6.628   3.453
 5774SOL    HW218222   1.126   6.707   3.348
 5775SOL     OW18223   0.609   5.462   2.394
 5775SOL    HW118224   0.691   5.504   2.356
 5775SOL    HW218225   0.606   5.477   2.493
 5776SOL     OW18226   1.899   6.983   2.818
 5776SOL    HW118227   1.877   6.931   2.900
 5776SOL    HW218228   1.914   6.920   2.742
 5777SOL     OW18229   1.265   0.530   3.232
 5777SOL    HW118230   1.212   0.607   3.270
 5777SOL    HW218231   1.287   0.466   3.305
 5778SOL     OW18232   1.246   1.325   6.605
 5778SOL    HW118233   1.220   1.363   6.694
 5778SOL    HW218234   1.167   1.328   6.543
 5779SOL     OW18235   4.660   2.284   6.910
 5779SOL    HW118236   4.628   2.321   6.997
 5779SOL    HW218237   4.595   2.310   6.838
 5780SOL     OW18238   5.335   5.003   4.344
 5780SOL    HW118239   5.333   5.047   4.434
 5780SOL    HW218240   5.430   4.984   4.319
 5781SOL     OW18241   0.119   4.182   4.850
 5781SOL    HW118242   0.205   4.169   4.900
 5781SOL    HW218243   0.059   4.104   4.864
 5782SOL     OW18244   1.008   1.513   0.443
 5782SOL    HW118245   1.101   1.548   0.451
 5782SOL    HW218246   1.010   1.424   0.397
 5783SOL     OW18247   1.904   1.600   1.679
 5783SOL    HW118248   1.949   1.513   1.659
 5783SOL    HW218249   1.805   1.587   1.681
 5784SOL     OW18250   0.104   6.411   0.132
 5784SOL    HW118251   0.086   6.352   0.054
 5784SOL    HW218252   0.077   6.364   0.216
 5785SOL     OW18253   2.488   1.541   0.753
 5785SOL    HW118254   2.558   1.601   0.790
 5785SOL    HW218255   2.464   1.471   0.820
 5786SOL     OW18256   6.971   3.639   0.140
 5786SOL    HW118257   6.934   3.716   0.192
 5786SOL    HW218258   6.972   3.662   0.043
 5787SOL     OW18259   2.195   1.876   5.901
 5787SOL    HW118260   2.099   1.852   5.887
 5787SOL    HW218261   2.203   1.974   5.914
 5788SOL     OW18262   2.232   0.915   3.008
 5788SOL    HW118263   2.220   0.953   2.916
 5788SOL    HW218264   2.261   0.820   3.001
 5789SOL     OW18265   3.632   5.311   6.423
 5789SOL    HW118266   3.548   5.263   6.446
 5789SOL    HW218267   3.611   5.390   6.364
 5790SOL     OW18268   0.216   3.050   4.331
 5790SOL    HW118269   0.268   2.984   4.385
 5790SOL    HW218270   0.121   3.052   4.363
 5791SOL     OW18271   2.920   0.224   2.800
 5791SOL    HW118272   2.990   0.157   2.825
 5791SOL    HW218273   2.881   0.263   2.883
 5792SOL     OW18274   7.010   2.101   3.079
 5792SOL    HW118275   6.974   2.169   3.016
 5792SOL    HW218276   0.056   2.051   3.035
 5793SOL     OW18277   6.860   1.306   3.744
 5793SOL    HW118278   6.769   1.338   3.718
 5793SOL    HW218279   6.859   1.271   3.838
 5794SOL     OW18280   3.639   3.048   0.614
 5794SOL    HW118281   3.723   3.097   0.593
 5794SOL    HW218282   3.593   3.091   0.691
 5795SOL     OW18283   5.797   4.988   5.628
 5795SOL    HW118284   5.819   4.925   5.703
 5795SOL    HW218285   5.715   5.040   5.651
 5796SOL     OW18286   3.114   1.161   0.507
 5796SOL    HW118287   3.129   1.071   0.548
 5796SOL    HW218288   3.121   1.154   0.408
 5797SOL     OW18289   3.547   2.077   4.597
 5797SOL    HW118290   3.638   2.101   4.630
 5797SOL    HW218291   3.482   2.079   4.673
 5798SOL     OW18292   0.483   4.540   4.966
 5798SOL    HW118293   0.466   4.634   4.992
 5798SOL    HW218294   0.513   4.537   4.870
 5799SOL     OW18295   5.726   0.395   3.565
 5799SOL    HW118296   5.719   0.301   3.598
 5799SOL    HW218297   5.817   0.410   3.526
 5800SOL     OW18298   5.729   5.041   1.314
 5800SOL    HW118299   5.686   5.088   1.237
 5800SOL    HW218300   5.728   4.943   1.297
 5801SOL     OW18301   0.754   2.156   3.669
 5801SOL    HW118302   0.845   2.116   3.658
 5801SOL    HW218303   0.739   2.177   3.766
 5802SOL     OW18304   0.353   4.138   6.125
 5802SOL    HW118305   0.313   4.154   6.215
 5802SOL    HW218306   0.338   4.218   6.066
 5803SOL     OW18307   1.785   5.037   1.385
 5803SOL    HW118308   1.782   5.119   1.327
 5803SOL    HW218309   1.793   4.956   1.327
 5804SOL     OW18310   6.136   4.317   4.092
 5804SOL    HW118311   6.220   4.361   4.125
 5804SOL    HW218312   6.087   4.278   4.170
 5805SOL     OW18313   4.080   4.421   6.458
 5805SOL    HW118314   4.005   4.470   6.413
 5805SOL    HW218315   4.080   4.442   6.555
 5806SOL     OW18316   1.209   6.771   0.441
 5806SOL    HW118317   1.192   6.868   0.463
 5806SOL    HW218318   1.129   6.734   0.394
 5807SOL     OW18319   1.388   3.798   1.198
 5807SOL    HW118320   1.370   3.806   1.100
 5807SOL    HW218321   1.486   3.805   1.215
 5808SOL     OW18322   5.481   4.186   2.797
 5808SOL    HW118323   5.551   4.234   2.849
 5808SOL    HW218324   5.524   4.119   2.737
 5809SOL     OW18325   6.535   3.308   4.354
 5809SOL    HW118326   6.477   3.232   4.325
 5809SOL    HW218327   6.599   3.275   4.424
 5810SOL     OW18328   3.013   1.034   4.221
 5810SOL    HW118329   3.083   0.973   4.258
 5810SOL    HW218330   2.976   0.994   4.137
 5811SOL     OW18331   2.921   0.208   4.982
 5811SOL    HW118332   2.892   0.235   5.074
 5811SOL    HW218333   2.905   0.284   4.919
 5812SOL     OW18334   5.096   6.869   4.082
 5812SOL    HW118335   5.063   6.907   3.996
 5812SOL    HW218336   5.169   6.803   4.064
 5813SOL     OW18337   1.217   1.233   6.001
 5813SOL    HW118338   1.177   1.169   6.068
 5813SOL    HW218339   1.193   1.327   6.026
 5814SOL     OW18340   6.610   3.924   0.318
 5814SOL    HW118341   6.648   4.008   0.358
 5814SOL    HW218342   6.523   3.945   0.274
 5815SOL     OW18343   4.549   2.440   3.066
 5815SOL    HW118344   4.476   2.382   3.102
 5815SOL    HW218345   4.592   2.491   3.142
 5816SOL     OW18346   5.554   6.783   0.283
 5816SOL    HW118347   5.567   6.688   0.310
 5816SOL    HW218348   5.624   6.840   0.327
 5817SOL     OW18349   6.026   2.998   5.755
 5817SOL    HW118350   6.017   3.091   5.721
 5817SOL    HW218351   5.936   2.962   5.779
 5818SOL     OW18352   6.174   6.211   5.198
 5818SOL    HW118353   6.120   6.264   5.133
 5818SOL    HW218354   6.252   6.170   5.151
 5819SOL     OW18355   4.418   0.417   1.020
 5819SOL    HW118356   4.398   0.343   0.955
 5819SOL    HW218357   4.332   0.459   1.049
 5820SOL     OW18358   4.903   7.013   3.556
 5820SOL    HW118359   4.805   6.999   3.569
 5820SOL    HW218360   4.921   0.008   3.461
 5821SOL     OW18361   2.445   0.481   1.939
 5821SOL    HW118362   2.401   0.531   2.013
 5821SOL    HW218363   2.396   0.395   1.923
 5822SOL     OW18364   0.787   2.480   1.602
 5822SOL    HW118365   0.768   2.472   1.505
 5822SOL    HW218366   0.829   2.570   1.620
 5823SOL     OW18367   0.697   0.841   5.110
 5823SOL    HW118368   0.695   0.741   5.107
 5823SOL    HW218369   0.676   0.871   5.203
 5824SOL     OW18370   6.574   6.319   2.792
 5824SOL    HW118371   6.579   6.254   2.716
 5824SOL    HW218372   6.512   6.394   2.767
 5825SOL     OW18373   2.136   1.606   6.226
 5825SOL    HW118374   2.075   1.677   6.189
 5825SOL    HW218375   2.143   1.617   6.325
 5826SOL     OW18376   6.647   6.097   5.673
 5826SOL    HW118377   6.654   6.197   5.672
 5826SOL    HW218378   6.723   6.059   5.619
 5827SOL     OW18379   0.841   5.504   5.115
 5827SOL    HW118380   0.923   5.561   5.118
 5827SOL    HW218381   0.866   5.408   5.130
 5828SOL     OW18382   0.750   3.504   1.754
 5828SOL    HW118383   0.800   3.436   1.700
 5828SOL    HW218384   0.684   3.551   1.695
 5829SOL     OW18385   2.762   1.183   2.356
 5829SOL    HW118386   2.813   1.102   2.327
 5829SOL    HW218387   2.672   1.184   2.311
 5830SOL     OW18388   3.786   0.766   6.050
 5830SOL    HW118389   3.804   0.676   6.090
 5830SOL    HW218390   3.819   0.768   5.956
 5831SOL     OW18391   6.027   6.329   3.709
 5831SOL    HW118392   6.018   6.351   3.806
 5831SOL    HW218393   5.971   6.249   3.688
 5832SOL     OW18394   4.312   3.842   5.679
 5832SOL    HW118395   4.220   3.825   5.644
 5832SOL    HW218396   4.377   3.843   5.603
 5833SOL     OW18397   3.242   3.629   4.304
 5833SOL    HW118398   3.148   3.664   4.300
 5833SOL    HW218399   3.283   3.653   4.392
 5834SOL     OW18400   6.151   1.625   0.484
 5834SOL    HW118401   6.077   1.638   0.417
 5834SOL    HW218402   6.214   1.556   0.450
 5835SOL     OW18403   5.277   2.620   3.566
 5835SOL    HW118404   5.202   2.685   3.575
 5835SOL    HW218405   5.360   2.657   3.607
 5836SOL     OW18406   3.096   5.625   3.013
 5836SOL    HW118407   3.012   5.639   2.961
 5836SOL    HW218408   3.074   5.578   3.099
 5837SOL     OW18409   4.498   4.341   0.266
 5837SOL    HW118410   4.503   4.327   0.167
 5837SOL    HW218411   4.414   4.301   0.301
 5838SOL     OW18412   1.678   1.645   6.034
 5838SOL    HW118413   1.665   1.577   6.106
 5838SOL    HW218414   1.711   1.600   5.951
 5839SOL     OW18415   0.269   2.747   2.384
 5839SOL    HW118416   0.327   2.737   2.303
 5839SOL    HW218417   0.274   2.842   2.417
 5840SOL     OW18418   1.305   5.759   6.889
 5840SOL    HW118419   1.327   5.857   6.880
 5840SOL    HW218420   1.326   5.729   6.982
 5841SOL     OW18421   6.086   2.835   2.291
 5841SOL    HW118422   6.028   2.763   2.253
 5841SOL    HW218423   6.063   2.922   2.248
 5842SOL     OW18424   3.842   3.231   0.588
 5842SOL    HW118425   3.922   3.244   0.647
 5842SOL    HW218426   3.814   3.320   0.551
 5843SOL     OW18427   2.126   3.769   2.512
 5843SOL    HW118428   2.129   3.686   2.567
 5843SOL    HW218429   2.141   3.746   2.416
 5844SOL     OW18430   0.369   6.398   6.421
 5844SOL    HW118431   0.270   6.410   6.409
 5844SOL    HW218432   0.418   6.454   6.355
 5845SOL     OW18433   0.603   1.631   3.349
 5845SOL    HW118434   0.555   1.637   3.437
 5845SOL    HW218435   0.689   1.581   3.362
 5846SOL     OW18436   6.643   2.914   5.042
 5846SOL    HW118437   6.651   2.852   5.120
 5846SOL    HW218438   6.577   2.986   5.063
 5847SOL     OW18439   2.285   2.035   2.091
 5847SOL    HW118440   2.215   1.996   2.151
 5847SOL    HW218441   2.375   2.023   2.133
 5848SOL     OW18442   1.802   4.706   3.822
 5848SOL    HW118443   1.703   4.700   3.834
 5848SOL    HW218444   1.844   4.729   3.910
 5849SOL     OW18445   1.052   0.443   5.511
 5849SOL    HW118446   1.130   0.447   5.573
 5849SOL    HW218447   0.974   0.489   5.551
 5850SOL     OW18448   1.048   3.624   2.223
 5850SOL    HW118449   1.118   3.651   2.290
 5850SOL    HW218450   1.089   3.567   2.152
 5851SOL     OW18451   6.041   3.412   2.650
 5851SOL    HW118452   6.045   3.319   2.614
 5851SOL    HW218453   6.003   3.473   2.580
 5852SOL     OW18454   4.237   6.255   2.952
 5852SOL    HW118455   4.244   6.344   2.998
 5852SOL    HW218456   4.141   6.239   2.927
 5853SOL     OW18457   2.914   5.693   6.070
 5853SOL    HW118458   2.869   5.604   6.082
 5853SOL    HW218459   2.878   5.739   5.989
 5854SOL     OW18460   6.520   3.179   5.947
 5854SOL    HW118461   6.610   3.197   5.987
 5854SOL    HW218462   6.455   3.247   5.981
 5855SOL     OW18463   1.375   1.033   4.327
 5855SOL    HW118464   1.319   1.017   4.246
 5855SOL    HW218465   1.366   0.956   4.390
 5856SOL     OW18466   2.226   5.538   3.459
 5856SOL    HW118467   2.180   5.462   3.504
 5856SOL    HW218468   2.260   5.602   3.527
 5857SOL     OW18469   6.225   3.069   4.837
 5857SOL    HW118470   6.279   3.032   4.913
 5857SOL    HW218471   6.175   3.150   4.867
 5858SOL     OW18472   2.943   1.471   2.005
 5858SOL    HW118473   3.007   1.408   2.048
 5858SOL    HW218474   2.915   1.541   2.070
 5859SOL     OW18475   5.983   6.585   0.563
 5859SOL    HW118476   6.072   6.631   0.566
 5859SOL    HW218477   5.950   6.570   0.656
 5860SOL     OW18478   1.982   4.391   1.661
 5860SOL    HW118479   1.984   4.421   1.756
 5860SOL    HW218480   1.943   4.463   1.604
 5861SOL     OW18481   5.460   1.538   3.788
 5861SOL    HW118482   5.380   1.598   3.791
 5861SOL    HW218483   5.520   1.565   3.712
 5862SOL     OW18484   3.931   5.306   3.318
 5862SOL    HW118485   3.850   5.340   3.366
 5862SOL    HW218486   4.008   5.298   3.381
 5863SOL     OW18487   2.239   0.668   5.497
 5863SOL    HW118488   2.171   0.647   5.567
 5863SOL    HW218489   2.217   0.756   5.454
 5864SOL     OW18490   4.282   4.224   1.581
 5864SOL    HW118491   4.297   4.126   1.567
 5864SOL    HW218492   4.317   4.250   1.671
 5865SOL     OW18493   5.284   0.596   4.221
 5865SOL    HW118494   5.305   0.520   4.282
 5865SOL    HW218495   5.191   0.588   4.188
 5866SOL     OW18496   4.351   6.341   6.481
 5866SOL    HW118497   4.366   6.420   6.541
 5866SOL    HW218498   4.280   6.283   6.519
 5867SOL     OW18499   0.246   2.465   0.824
 5867SOL    HW118500   0.235   2.441   0.921
 5867SOL    HW218501   0.231   2.563   0.812
 5868SOL     OW18502   0.225   0.297   5.301
 5868SOL    HW118503   0.221   0.217   5.359
 5868SOL    HW218504   0.313   0.300   5.254
 5869SOL     OW18505   2.123   4.619   3.889
 5869SOL    HW118506   2.069   4.659   3.815
 5869SOL    HW218507   2.063   4.566   3.949
 5870SOL     OW18508   4.971   4.827   4.764
 5870SOL    HW118509   4.897   4.784   4.712
 5870SOL    HW218510   5.018   4.757   4.819
 5871SOL     OW18511   3.545   4.093   0.144
 5871SOL    HW118512   3.641   4.095   0.170
 5871SOL    HW218513   3.489   4.070   0.224
 5872SOL     OW18514   4.325   5.850   6.749
 5872SOL    HW118515   4.313   5.791   6.828
 5872SOL    HW218516   4.278   5.938   6.765
 5873SOL     OW18517   2.232   3.019   0.582
 5873SOL    HW118518   2.235   3.027   0.681
 5873SOL    HW218519   2.213   2.924   0.556
 5874SOL     OW18520   2.630   3.255   1.447
 5874SOL    HW118521   2.628   3.351   1.419
 5874SOL    HW218522   2.587   3.199   1.376
 5875SOL     OW18523   3.734   1.523   0.381
 5875SOL    HW118524   3.714   1.554   0.288
 5875SOL    HW218525   3.754   1.425   0.380
 5876SOL     OW18526   3.294   3.119   6.439
 5876SOL    HW118527   3.221   3.161   6.492
 5876SOL    HW218528   3.381   3.135   6.485
 5877SOL     OW18529   6.418   0.011   1.463
 5877SOL    HW118530   6.370   0.071   1.400
 5877SOL    HW218531   6.365   0.002   1.548
 5878SOL     OW18532   5.017   5.997   2.425
 5878SOL    HW118533   5.061   6.045   2.500
 5878SOL    HW218534   4.918   5.996   2.439
 5879SOL     OW18535   3.421   3.085   5.927
 5879SOL    HW118536   3.389   3.062   6.019
 5879SOL    HW218537   3.519   3.104   5.929
 5880SOL     OW18538   5.030   3.280   5.542
 5880SOL    HW118539   5.047   3.374   5.573
 5880SOL    HW218540   4.932   3.261   5.544
 5881SOL     OW18541   1.164   6.130   2.655
 5881SOL    HW118542   1.261   6.107   2.661
 5881SOL    HW218543   1.152   6.206   2.590
 5882SOL     OW18544   1.211   6.378   5.565
 5882SOL    HW118545   1.165   6.328   5.638
 5882SOL    HW218546   1.307   6.392   5.588
 5883SOL     OW18547   0.246   3.527   0.727
 5883SOL    HW118548   0.155   3.508   0.764
 5883SOL    HW218549   0.315   3.479   0.782
 5884SOL     OW18550   6.248   1.095   3.833
 5884SOL    HW118551   6.230   1.097   3.931
 5884SOL    HW218552   6.278   1.186   3.803
 5885SOL     OW18553   0.261   5.439   0.229
 5885SOL    HW118554   0.262   5.342   0.254
 5885SOL    HW218555   0.322   5.490   0.290
 5886SOL     OW18556   1.456   3.122   3.168
 5886SOL    HW118557   1.421   3.215   3.155
 5886SOL    HW218558   1.463   3.102   3.265
 5887SOL     OW18559   2.555   1.914   1.550
 5887SOL    HW118560   2.507   1.962   1.477
 5887SOL    HW218561   2.647   1.951   1.561
 5888SOL     OW18562   2.550   0.039   1.283
 5888SOL    HW118563   2.631   0.059   1.337
 5888SOL    HW218564   2.497   6.997   1.327
 5889SOL     OW18565   0.224   1.441   1.531
 5889SOL    HW118566   0.314   1.455   1.491
 5889SOL    HW218567   0.200   1.520   1.589
 5890SOL     OW18568   2.389   5.728   2.326
 5890SOL    HW118569   2.406   5.752   2.422
 5890SOL    HW218570   2.293   5.747   2.304
 5891SOL     OW18571   3.211   3.204   0.882
 5891SOL    HW118572   3.275   3.157   0.943
 5891SOL    HW218573   3.228   3.302   0.884
 5892SOL     OW18574   0.115   3.870   0.338
 5892SOL    HW118575   0.123   3.901   0.244
 5892SOL    HW218576   0.035   3.810   0.347
 5893SOL     OW18577   1.094   5.621   2.021
 5893SOL    HW118578   1.097   5.558   2.099
 5893SOL    HW218579   1.030   5.586   1.953
 5894SOL     OW18580   0.903   5.708   5.423
 5894SOL    HW118581   0.863   5.617   5.432
 5894SOL    HW218582   0.963   5.710   5.344
 5895SOL     OW18583   5.942   3.170   5.065
 5895SOL    HW118584   6.019   3.159   5.128
 5895SOL    HW218585   5.924   3.268   5.052
 5896SOL     OW18586   5.699   1.822   1.785
 5896SOL    HW118587   5.655   1.826   1.874
 5896SOL    HW218588   5.640   1.774   1.720
 5897SOL     OW18589   4.323   1.552   1.820
 5897SOL    HW118590   4.327   1.461   1.780
 5897SOL    HW218591   4.281   1.615   1.755
 5898SOL     OW18592   1.549   1.376   5.658
 5898SOL    HW118593   1.639   1.387   5.701
 5898SOL    HW218594   1.537   1.445   5.588
 5899SOL     OW18595   6.909   5.449   6.511
 5899SOL    HW118596   6.975   5.524   6.511
 5899SOL    HW218597   6.851   5.455   6.593
 5900SOL     OW18598   0.113   5.728   3.094
 5900SOL    HW118599   0.054   5.791   3.045
 5900SOL    HW218600   0.144   5.655   3.033
 5901SOL     OW18601   1.518   7.026   6.509
 5901SOL    HW118602   1.533   6.948   6.449
 5901SOL    HW218603   1.553   7.006   6.600
 5902SOL     OW18604   5.839   4.079   4.692
 5902SOL    HW118605   5.878   4.141   4.625
 5902SOL    HW218606   5.907   4.011   4.720
 5903SOL     OW18607   5.716   2.763   6.536
 5903SOL    HW118608   5.631   2.737   6.581
 5903SOL    HW218609   5.785   2.785   6.605
 5904SOL     OW18610   1.885   5.144   2.836
 5904SOL    HW118611   1.828   5.117   2.914
 5904SOL    HW218612   1.969   5.089   2.836
 5905SOL     OW18613   5.579   0.947   4.132
 5905SOL    HW118614   5.597   1.044   4.115
 5905SOL    HW218615   5.509   0.938   4.202
 5906SOL     OW18616   5.255   1.458   5.580
 5906SOL    HW118617   5.265   1.471   5.481
 5906SOL    HW218618   5.345   1.460   5.623
 5907SOL     OW18619   1.282   1.030   0.289
 5907SOL    HW118620   1.269   1.124   0.260
 5907SOL    HW218621   1.203   1.001   0.343
 5908SOL     OW18622   4.301   3.544   6.519
 5908SOL    HW118623   4.266   3.637   6.506
 5908SOL    HW218624   4.375   3.526   6.454
 5909SOL     OW18625   6.987   4.815   5.617
 5909SOL    HW118626   7.004   4.737   5.557
 5909SOL    HW218627   6.949   4.782   5.704
 5910SOL     OW18628   2.292   4.025   1.442
 5910SOL    HW118629   2.245   4.094   1.497
 5910SOL    HW218630   2.254   4.024   1.350
 5911SOL     OW18631   6.345   5.227   6.425
 5911SOL    HW118632   6.266   5.183   6.467
 5911SOL    HW218633   6.429   5.199   6.473
 5912SOL     OW18634   6.033   3.186   6.983
 5912SOL    HW118635   5.976   3.268   6.974
 5912SOL    HW218636   6.114   3.195   6.924
 5913SOL     OW18637   2.329   2.473   5.636
 5913SOL    HW118638   2.271   2.391   5.635
 5913SOL    HW218639   2.296   2.538   5.569
 5914SOL     OW18640   2.462   5.929   0.544
 5914SOL    HW118641   2.428   5.860   0.607
 5914SOL    HW218642   2.528   5.987   0.591
 5915SOL     OW18643   5.115   3.053   2.865
 5915SOL    HW118644   5.107   3.069   2.964
 5915SOL    HW218645   5.046   3.107   2.817
 5916SOL     OW18646   4.075   6.968   5.831
 5916SOL    HW118647   3.985   6.990   5.870
 5916SOL    HW218648   4.145   7.023   5.877
 5917SOL     OW18649   3.723   3.236   3.088
 5917SOL    HW118650   3.648   3.210   3.150
 5917SOL    HW218651   3.786   3.296   3.136
 5918SOL     OW18652   1.276   3.677   4.216
 5918SOL    HW118653   1.341   3.688   4.141
 5918SOL    HW218654   1.309   3.607   4.279
 5919SOL     OW18655   2.853   2.550   0.776
 5919SOL    HW118656   2.912   2.552   0.695
 5919SOL    HW218657   2.860   2.460   0.820
 5920SOL     OW18658   3.709   0.320   6.712
 5920SOL    HW118659   3.613   0.336   6.689
 5920SOL    HW218660   3.736   0.229   6.681
 5921SOL     OW18661   3.824   5.216   5.731
 5921SOL    HW118662   3.831   5.291   5.797
 5921SOL    HW218663   3.783   5.136   5.774
 5922SOL     OW18664   6.687   4.910   2.820
 5922SOL    HW118665   6.643   4.835   2.869
 5922SOL    HW218666   6.728   4.973   2.887
 5923SOL     OW18667   6.598   0.185   3.548
 5923SOL    HW118668   6.498   0.190   3.540
 5923SOL    HW218669   6.622   0.117   3.618
 5924SOL     OW18670   5.044   2.220   4.669
 5924SOL    HW118671   5.010   2.258   4.583
 5924SOL    HW218672   4.997   2.134   4.689
 5925SOL     OW18673   5.699   5.609   1.850
 5925SOL    HW118674   5.713   5.707   1.864
 5925SOL    HW218675   5.631   5.575   1.914
 5926SOL     OW18676   3.824   5.091   1.648
 5926SOL    HW118677   3.788   5.000   1.669
 5926SOL    HW218678   3.803   5.153   1.723
 5927SOL     OW18679   2.567   5.440   1.417
 5927SOL    HW118680   2.605   5.444   1.325
 5927SOL    HW218681   2.578   5.348   1.455
 5928SOL     OW18682   1.638   0.401   2.572
 5928SOL    HW118683   1.618   0.462   2.496
 5928SOL    HW218684   1.734   0.372   2.567
 5929SOL     OW18685   0.865   6.595   5.638
 5929SOL    HW118686   0.805   6.615   5.715
 5929SOL    HW218687   0.958   6.583   5.671
 5930SOL     OW18688   6.268   1.133   4.393
 5930SOL    HW118689   6.217   1.080   4.461
 5930SOL    HW218690   6.221   1.219   4.376
 5931SOL     OW18691   5.864   5.543   1.632
 5931SOL    HW118692   5.789   5.559   1.696
 5931SOL    HW218693   5.871   5.620   1.569
 5932SOL     OW18694   2.113   6.736   0.938
 5932SOL    HW118695   2.145   6.830   0.948
 5932SOL    HW218696   2.068   6.724   0.850
 5933SOL     OW18697   6.997   4.315   2.403
 5933SOL    HW118698   0.008   4.377   2.470
 5933SOL    HW218699   0.031   4.240   2.385
 5934SOL     OW18700   3.745   3.632   3.064
 5934SOL    HW118701   3.773   3.641   2.969
 5934SOL    HW218702   3.815   3.582   3.115
 5935SOL     OW18703   3.606   4.148   5.074
 5935SOL    HW118704   3.704   4.129   5.067
 5935SOL    HW218705   3.586   4.189   5.163
 5936SOL     OW18706   5.087   4.613   6.800
 5936SOL    HW118707   5.026   4.566   6.737
 5936SOL    HW218708   5.033   4.657   6.872
 5937SOL     OW18709   1.004   3.928   1.061
 5937SOL    HW118710   1.077   3.996   1.052
 5937SOL    HW218711   0.980   3.893   0.970
 5938SOL     OW18712   2.105   4.404   3.106
 5938SOL    HW118713   2.187   4.347   3.113
 5938SOL    HW218714   2.121   4.477   3.039
 5939SOL     OW18715   3.255   0.879   3.160
 5939SOL    HW118716   3.198   0.918   3.088
 5939SOL    HW218717   3.342   0.929   3.165
 5940SOL     OW18718   3.455   6.763   2.815
 5940SOL    HW118719   3.522   6.752   2.889
 5940SOL    HW218720   3.498   6.744   2.727
 5941SOL     OW18721   6.304   5.074   2.007
 5941SOL    HW118722   6.289   4.977   1.990
 5941SOL    HW218723   6.227   5.111   2.059
 5942SOL     OW18724   3.960   3.274   5.823
 5942SOL    HW118725   3.874   3.271   5.773
 5942SOL    HW218726   3.947   3.321   5.910
 5943SOL     OW18727   1.992   5.896   0.309
 5943SOL    HW118728   2.007   5.995   0.316
 5943SOL    HW218729   1.916   5.870   0.368
 5944SOL     OW18730   4.901   1.636   2.422
 5944SOL    HW118731   4.904   1.679   2.512
 5944SOL    HW218732   4.824   1.572   2.418
 5945SOL     OW18733   6.645   5.062   5.180
 5945SOL    HW118734   6.619   4.990   5.116
 5945SOL    HW218735   6.567   5.123   5.195
 5946SOL     OW18736   3.797   3.803   5.936
 5946SOL    HW118737   3.795   3.715   5.982
 5946SOL    HW218738   3.820   3.790   5.839
 5947SOL     OW18739   4.265   3.399   1.796
 5947SOL    HW118740   4.338   3.331   1.796
 5947SOL    HW218741   4.177   3.355   1.817
 5948SOL     OW18742   3.349   4.929   3.036
 5948SOL    HW118743   3.385   4.847   2.991
 5948SOL    HW218744   3.375   4.928   3.133
 5949SOL     OW18745   4.312   4.937   0.947
 5949SOL    HW118746   4.312   4.941   1.047
 5949SOL    HW218747   4.217   4.933   0.914
 5950SOL     OW18748   5.773   1.932   4.237
 5950SOL    HW118749   5.827   1.996   4.293
 5950SOL    HW218750   5.733   1.863   4.297
 5951SOL     OW18751   1.788   6.399   4.428
 5951SOL    HW118752   1.828   6.482   4.389
 5951SOL    HW218753   1.811   6.321   4.371
 5952SOL     OW18754   6.595   5.943   3.545
 5952SOL    HW118755   6.571   5.976   3.636
 5952SOL    HW218756   6.527   5.974   3.479
 5953SOL     OW18757   6.547   3.475   5.640
 5953SOL    HW118758   6.634   3.469   5.689
 5953SOL    HW218759   6.564   3.497   5.544
 5954SOL     OW18760   0.033   4.651   6.147
 5954SOL    HW118761   7.019   4.577   6.198
 5954SOL    HW218762   7.016   4.737   6.167
 5955SOL     OW18763   5.121   5.421   1.956
 5955SOL    HW118764   5.212   5.381   1.945
 5955SOL    HW218765   5.059   5.353   1.996
 5956SOL     OW18766   4.132   2.478   6.854
 5956SOL    HW118767   4.151   2.391   6.901
 5956SOL    HW218768   4.186   2.551   6.895
 5957SOL     OW18769   5.229   6.485   5.907
 5957SOL    HW118770   5.313   6.473   5.854
 5957SOL    HW218771   5.250   6.537   5.990
 5958SOL     OW18772   6.822   6.342   1.724
 5958SOL    HW118773   6.816   6.261   1.782
 5958SOL    HW218774   6.918   6.362   1.704
 5959SOL     OW18775   2.800   2.007   5.784
 5959SOL    HW118776   2.796   1.921   5.835
 5959SOL    HW218777   2.723   2.012   5.721
 5960SOL     OW18778   3.034   0.178   3.642
 5960SOL    HW118779   2.996   0.225   3.561
 5960SOL    HW218780   2.971   0.191   3.719
 5961SOL     OW18781   3.582   0.888   5.123
 5961SOL    HW118782   3.494   0.932   5.143
 5961SOL    HW218783   3.657   0.949   5.148
 5962SOL     OW18784   5.104   6.010   2.167
 5962SOL    HW118785   5.015   5.997   2.125
 5962SOL    HW218786   5.094   6.013   2.267
 5963SOL     OW18787   4.051   3.673   3.044
 5963SOL    HW118788   4.056   3.587   3.094
 5963SOL    HW218789   4.010   3.744   3.102
 5964SOL     OW18790   0.254   5.234   6.826
 5964SOL    HW118791   0.299   5.314   6.867
 5964SOL    HW218792   0.197   5.189   6.894
 5965SOL     OW18793   1.725   2.304   6.439
 5965SOL    HW118794   1.681   2.310   6.529
 5965SOL    HW218795   1.786   2.382   6.425
 5966SOL     OW18796   3.264   6.066   4.983
 5966SOL    HW118797   3.300   5.981   5.023
 5966SOL    HW218798   3.337   6.133   4.976
 5967SOL     OW18799   4.367   6.649   2.936
 5967SOL    HW118800   4.454   6.608   2.963
 5967SOL    HW218801   4.372   6.748   2.944
 5968SOL     OW18802   6.427   2.107   3.344
 5968SOL    HW118803   6.419   2.030   3.408
 5968SOL    HW218804   6.388   2.081   3.256
 5969SOL     OW18805   5.870   2.966   4.031
 5969SOL    HW118806   5.943   2.965   3.963
 5969SOL    HW218807   5.909   2.956   4.123
 5970SOL     OW18808   1.303   3.379   3.126
 5970SOL    HW118809   1.283   3.453   3.190
 5970SOL    HW218810   1.385   3.401   3.073
 5971SOL     OW18811   2.311   6.968   2.697
 5971SOL    HW118812   2.328   6.887   2.641
 5971SOL    HW218813   2.259   0.006   2.644
 5972SOL     OW18814   5.162   6.764   0.027
 5972SOL    HW118815   5.080   6.707   0.031
 5972SOL    HW218816   5.204   6.755   6.966
 5973SOL     OW18817   1.743   4.230   2.650
 5973SOL    HW118818   1.730   4.265   2.743
 5973SOL    HW218819   1.765   4.133   2.653
 5974SOL     OW18820   6.933   3.668   6.397
 5974SOL    HW118821   6.935   3.660   6.298
 5974SOL    HW218822   6.952   3.579   6.439
 5975SOL     OW18823   3.905   2.408   1.225
 5975SOL    HW118824   3.944   2.469   1.294
 5975SOL    HW218825   3.873   2.324   1.268
 5976SOL     OW18826   2.933   3.315   4.666
 5976SOL    HW118827   2.889   3.306   4.577
 5976SOL    HW218828   2.935   3.411   4.693
 5977SOL     OW18829   2.065   4.746   1.970
 5977SOL    HW118830   2.120   4.723   2.050
 5977SOL    HW218831   1.977   4.784   1.999
 5978SOL     OW18832   5.220   4.639   2.637
 5978SOL    HW118833   5.252   4.691   2.558
 5978SOL    HW218834   5.264   4.550   2.638
 5979SOL     OW18835   6.159   0.702   3.490
 5979SOL    HW118836   6.060   0.712   3.480
 5979SOL    HW218837   6.195   0.778   3.544
 5980SOL     OW18838   4.823   4.512   0.424
 5980SOL    HW118839   4.850   4.548   0.513
 5980SOL    HW218840   4.777   4.424   0.436
 5981SOL     OW18841   6.430   1.396   2.417
 5981SOL    HW118842   6.506   1.376   2.355
 5981SOL    HW218843   6.345   1.400   2.366
 5982SOL     OW18844   0.090   1.854   6.600
 5982SOL    HW118845   0.084   1.953   6.589
 5982SOL    HW218846   0.136   1.814   6.521
 5983SOL     OW18847   1.805   2.369   4.120
 5983SOL    HW118848   1.745   2.399   4.046
 5983SOL    HW218849   1.808   2.270   4.123
 5984SOL     OW18850   6.760   6.354   4.397
 5984SOL    HW118851   6.682   6.417   4.399
 5984SOL    HW218852   6.837   6.397   4.351
 5985SOL     OW18853   5.247   1.973   3.285
 5985SOL    HW118854   5.190   1.993   3.364
 5985SOL    HW218855   5.230   2.042   3.214
 5986SOL     OW18856   3.262   2.923   3.292
 5986SOL    HW118857   3.231   2.937   3.386
 5986SOL    HW218858   3.362   2.931   3.288
 5987SOL     OW18859   4.401   0.096   5.235
 5987SOL    HW118860   4.339   0.021   5.215
 5987SOL    HW218861   4.392   0.123   5.331
 5988SOL     OW18862   4.496   6.848   4.523
 5988SOL    HW118863   4.420   6.905   4.493
 5988SOL    HW218864   4.464   6.755   4.540
 5989SOL     OW18865   2.349   0.215   6.375
 5989SOL    HW118866   2.387   0.156   6.446
 5989SOL    HW218867   2.348   0.165   6.288
 5990SOL     OW18868   3.843   4.492   0.605
 5990SOL    HW118869   3.836   4.397   0.636
 5990SOL    HW218870   3.917   4.500   0.539
 5991SOL     OW18871   3.606   5.255   5.197
 5991SOL    HW118872   3.596   5.158   5.176
 5991SOL    HW218873   3.679   5.267   5.265
 5992SOL     OW18874   3.682   0.619   3.788
 5992SOL    HW118875   3.709   0.690   3.853
 5992SOL    HW218876   3.746   0.617   3.711
 5993SOL     OW18877   2.593   6.465   5.786
 5993SOL    HW118878   2.635   6.391   5.734
 5993SOL    HW218879   2.606   6.552   5.736
 5994SOL     OW18880   6.324   2.245   2.212
 5994SOL    HW118881   6.405   2.191   2.234
 5994SOL    HW218882   6.280   2.207   2.130
 5995SOL     OW18883   6.769   5.285   1.228
 5995SOL    HW118884   6.705   5.261   1.301
 5995SOL    HW218885   6.859   5.245   1.248
 5996SOL     OW18886   0.233   6.109   6.779
 5996SOL    HW118887   0.143   6.139   6.748
 5996SOL    HW218888   0.255   6.021   6.736
 5997SOL     OW18889   0.356   6.805   1.686
 5997SOL    HW118890   0.350   6.819   1.785
 5997SOL    HW218891   0.265   6.813   1.645
 5998SOL     OW18892   5.413   2.059   2.393
 5998SOL    HW118893   5.313   2.059   2.398
 5998SOL    HW218894   5.448   2.149   2.418
 5999SOL     OW18895   1.585   1.407   3.606
 5999SOL    HW118896   1.524   1.353   3.664
 5999SOL    HW218897   1.576   1.504   3.630
 6000SOL     OW18898   4.033   4.894   2.439
 6000SOL    HW118899   3.979   4.918   2.359
 6000SOL    HW218900   4.096   4.820   2.416
 6001SOL     OW18901   0.049   2.804   6.983
 6001SOL    HW118902   0.130   2.784   6.928
 6001SOL    HW218903   0.001   2.882   6.943
 6002SOL     OW18904   1.450   0.388   1.525
 6002SOL    HW118905   1.384   0.454   1.490
 6002SOL    HW218906   1.405   0.299   1.537
 6003SOL     OW18907   5.581   4.008   4.600
 6003SOL    HW118908   5.674   4.033   4.625
 6003SOL    HW218909   5.582   3.915   4.561
 6004SOL     OW18910   0.864   3.354   3.005
 6004SOL    HW118911   0.772   3.356   3.043
 6004SOL    HW218912   0.862   3.307   2.916
 6005SOL     OW18913   3.743   5.604   4.320
 6005SOL    HW118914   3.678   5.575   4.250
 6005SOL    HW218915   3.711   5.574   4.410
 6006SOL     OW18916   2.857   6.912   6.630
 6006SOL    HW118917   2.926   6.896   6.700
 6006SOL    HW218918   2.780   6.851   6.645
 6007SOL     OW18919   5.348   2.322   3.708
 6007SOL    HW118920   5.437   2.284   3.732
 6007SOL    HW218921   5.341   2.329   3.608
 6008SOL     OW18922   3.304   5.331   6.043
 6008SOL    HW118923   3.398   5.360   6.065
 6008SOL    HW218924   3.277   5.372   5.956
 6009SOL     OW18925   2.482   1.863   4.387
 6009SOL    HW118926   2.530   1.949   4.400
 6009SOL    HW218927   2.532   1.789   4.433
 6010SOL     OW18928   2.000   4.217   2.342
 6010SOL    HW118929   1.995   4.226   2.243
 6010SOL    HW218930   2.016   4.122   2.367
 6011SOL     OW18931   5.333   2.765   2.212
 6011SOL    HW118932   5.316   2.758   2.310
 6011SOL    HW218933   5.282   2.693   2.164
 6012SOL     OW18934   7.018   2.357   6.682
 6012SOL    HW118935   6.994   2.334   6.776
 6012SOL    HW218936   6.951   2.316   6.620
 6013SOL     OW18937   6.300   0.984   2.202
 6013SOL    HW118938   6.338   1.008   2.291
 6013SOL    HW218939   6.267   0.890   2.204
 6014SOL     OW18940   5.821   1.034   0.606
 6014SOL    HW118941   5.834   0.935   0.605
 6014SOL    HW218942   5.909   1.079   0.592
 6015SOL     OW18943   5.844   2.214   4.508
 6015SOL    HW118944   5.760   2.248   4.467
 6015SOL    HW218945   5.906   2.182   4.437
 6016SOL     OW18946   0.702   0.527   5.131
 6016SOL    HW118947   0.798   0.556   5.132
 6016SOL    HW218948   0.693   0.441   5.181
 6017SOL     OW18949   5.898   5.172   3.414
 6017SOL    HW118950   5.948   5.208   3.335
 6017SOL    HW218951   5.942   5.204   3.498
 6018SOL     OW18952   2.996   3.226   0.528
 6018SOL    HW118953   3.020   3.234   0.431
 6018SOL    HW218954   2.902   3.193   0.537
 6019SOL     OW18955   4.583   1.326   3.916
 6019SOL    HW118956   4.539   1.237   3.909
 6019SOL    HW218957   4.677   1.314   3.950
 6020SOL     OW18958   3.554   0.727   2.731
 6020SOL    HW118959   3.603   0.815   2.730
 6020SOL    HW218960   3.621   0.653   2.740
 6021SOL     OW18961   4.488   1.261   2.793
 6021SOL    HW118962   4.549   1.183   2.775
 6021SOL    HW218963   4.448   1.250   2.884
 6022SOL     OW18964   4.751   1.056   3.268
 6022SOL    HW118965   4.828   1.008   3.310
 6022SOL    HW218966   4.685   1.081   3.338
 6023SOL     OW18967   0.138   1.297   3.264
 6023SOL    HW118968   0.064   1.335   3.319
 6023SOL    HW218969   0.225   1.336   3.294
 6024SOL     OW18970   0.574   4.627   1.955
 6024SOL    HW118971   0.568   4.608   1.857
 6024SOL    HW218972   0.502   4.691   1.981
 6025SOL     OW18973   4.693   1.226   2.278
 6025SOL    HW118974   4.655   1.134   2.281
 6025SOL    HW218975   4.768   1.230   2.212
 6026SOL     OW18976   6.927   5.006   4.924
 6026SOL    HW118977   6.988   5.085   4.915
 6026SOL    HW218978   6.905   4.991   5.020
 6027SOL     OW18979   2.805   3.536   6.537
 6027SOL    HW118980   2.756   3.622   6.551
 6027SOL    HW218981   2.777   3.496   6.450
 6028SOL     OW18982   1.591   4.564   0.419
 6028SOL    HW118983   1.575   4.475   0.377
 6028SOL    HW218984   1.598   4.554   0.518
 6029SOL     OW18985   1.701   6.131   0.610
 6029SOL    HW118986   1.652   6.202   0.660
 6029SOL    HW218987   1.776   6.171   0.558
 6030SOL     OW18988   2.164   0.938   1.953
 6030SOL    HW118989   2.132   0.875   1.883
 6030SOL    HW218990   2.224   1.007   1.912
 6031SOL     OW18991   4.827   6.920   6.018
 6031SOL    HW118992   4.760   6.901   6.089
 6031SOL    HW218993   4.911   6.868   6.036
 6032SOL     OW18994   1.519   3.902   2.389
 6032SOL    HW118995   1.555   3.823   2.338
 6032SOL    HW218996   1.569   3.984   2.362
 6033SOL     OW18997   1.946   2.047   3.034
 6033SOL    HW118998   1.958   2.106   3.113
 6033SOL    HW218999   1.859   2.069   2.989
 6034SOL     OW19000   2.308   4.557   4.751
 6034SOL    HW119001   2.340   4.642   4.792
 6034SOL    HW219002   2.332   4.480   4.810
 6035SOL     OW19003   4.749   0.697   4.433
 6035SOL    HW119004   4.844   0.728   4.427
 6035SOL    HW219005   4.704   0.744   4.509
 6036SOL     OW19006   7.003   0.015   4.942
 6036SOL    HW119007   0.001   0.010   4.846
 6036SOL    HW219008   7.014   6.955   4.985
 6037SOL     OW19009   4.645   4.951   5.678
 6037SOL    HW119010   4.673   4.869   5.727
 6037SOL    HW219011   4.660   5.031   5.736
 6038SOL     OW19012   6.970   3.581   6.128
 6038SOL    HW119013   7.015   3.649   6.070
 6038SOL    HW219014   6.875   3.569   6.100
 6039SOL     OW19015   3.392   3.355   2.378
 6039SOL    HW119016   3.391   3.257   2.356
 6039SOL    HW219017   3.480   3.394   2.352
 6040SOL     OW19018   0.603   1.850   6.334
 6040SOL    HW119019   0.600   1.770   6.273
 6040SOL    HW219020   0.540   1.835   6.410
 6041SOL     OW19021   1.214   1.615   6.995
 6041SOL    HW119022   1.166   1.605   0.052
 6041SOL    HW219023   1.239   1.711   6.981
 6042SOL     OW19024   5.337   5.170   2.491
 6042SOL    HW119025   5.242   5.167   2.460
 6042SOL    HW219026   5.365   5.079   2.521
 6043SOL     OW19027   1.277   5.108   4.706
 6043SOL    HW119028   1.224   5.125   4.790
 6043SOL    HW219029   1.304   5.011   4.703
 6044SOL     OW19030   0.482   1.011   1.282
 6044SOL    HW119031   0.534   1.045   1.360
 6044SOL    HW219032   0.386   0.997   1.309
 6045SOL     OW19033   5.626   5.134   0.796
 6045SOL    HW119034   5.641   5.232   0.781
 6045SOL    HW219035   5.706   5.083   0.764
 6046SOL     OW19036   2.686   2.332   0.065
 6046SOL    HW119037   2.756   2.330   7.024
 6046SOL    HW219038   2.596   2.323   0.022
 6047SOL     OW19039   6.073   0.431   4.059
 6047SOL    HW119040   6.086   0.346   4.110
 6047SOL    HW219041   6.013   0.492   4.112
 6048SOL     OW19042   4.096   0.242   3.916
 6048SOL    HW119043   4.135   0.314   3.974
 6048SOL    HW219044   4.001   0.263   3.896
 6049SOL     OW19045   4.787   3.748   6.417
 6049SOL    HW119046   4.703   3.767   6.469
 6049SOL    HW219047   4.775   3.663   6.366
 6050SOL     OW19048   3.693   4.588   5.827
 6050SOL    HW119049   3.604   4.555   5.796
 6050SOL    HW219050   3.766   4.541   5.776
 6051SOL     OW19051   2.353   2.347   2.258
 6051SOL    HW119052   2.281   2.279   2.272
 6051SOL    HW219053   2.441   2.309   2.284
 6052SOL     OW19054   6.919   1.321   0.249
 6052SOL    HW119055   6.831   1.330   0.295
 6052SOL    HW219056   6.992   1.356   0.308
 6053SOL     OW19057   2.845   0.270   6.680
 6053SOL    HW119058   2.766   0.208   6.679
 6053SOL    HW219059   2.870   0.290   6.775
 6054SOL     OW19060   1.349   5.072   0.692
 6054SOL    HW119061   1.275   5.114   0.745
 6054SOL    HW219062   1.397   5.143   0.641
 6055SOL     OW19063   4.797   1.070   5.525
 6055SOL    HW119064   4.782   1.044   5.620
 6055SOL    HW219065   4.820   0.989   5.471
 6056SOL     OW19066   4.009   1.228   6.277
 6056SOL    HW119067   3.968   1.193   6.192
 6056SOL    HW219068   4.108   1.232   6.267
 6057SOL     OW19069   4.098   1.306   5.156
 6057SOL    HW119070   4.134   1.215   5.136
 6057SOL    HW219071   4.011   1.319   5.109
 6058SOL     OW19072   5.337   3.095   4.219
 6058SOL    HW119073   5.331   2.996   4.209
 6058SOL    HW219074   5.375   3.136   4.136
 6059SOL     OW19075   4.978   4.744   6.164
 6059SOL    HW119076   4.918   4.756   6.243
 6059SOL    HW219077   4.976   4.827   6.108
 6060SOL     OW19078   4.227   4.980   5.877
 6060SOL    HW119079   4.175   4.973   5.962
 6060SOL    HW219080   4.282   5.064   5.879
 6061SOL     OW19081   3.393   2.024   6.642
 6061SOL    HW119082   3.383   1.981   6.731
 6061SOL    HW219083   3.385   2.124   6.652
 6062SOL     OW19084   1.914   1.280   4.713
 6062SOL    HW119085   1.933   1.186   4.744
 6062SOL    HW219086   2.000   1.325   4.691
 6063SOL     OW19087   4.150   0.837   6.768
 6063SOL    HW119088   4.061   0.875   6.793
 6063SOL    HW219089   4.149   0.812   6.671
 6064SOL     OW19090   1.336   5.840   3.176
 6064SOL    HW119091   1.348   5.925   3.125
 6064SOL    HW219092   1.294   5.860   3.265
 6065SOL     OW19093   5.948   6.807   1.248
 6065SOL    HW119094   5.910   6.800   1.156
 6065SOL    HW219095   5.994   6.721   1.272
 6066SOL     OW19096   4.422   2.027   1.392
 6066SOL    HW119097   4.360   2.090   1.345
 6066SOL    HW219098   4.379   1.937   1.398
 6067SOL     OW19099   6.334   1.265   6.015
 6067SOL    HW119100   6.383   1.337   6.064
 6067SOL    HW219101   6.356   1.176   6.056
 6068SOL     OW19102   4.895   3.009   5.101
 6068SOL    HW119103   4.832   3.085   5.082
 6068SOL    HW219104   4.981   3.045   5.136
 6069SOL     OW19105   0.105   4.160   5.546
 6069SOL    HW119106   0.076   4.169   5.641
 6069SOL    HW219107   0.134   4.066   5.529
 6070SOL     OW19108   4.210   2.376   6.414
 6070SOL    HW119109   4.123   2.343   6.378
 6070SOL    HW219110   4.283   2.354   6.350
 6071SOL     OW19111   4.197   6.147   5.309
 6071SOL    HW119112   4.217   6.215   5.239
 6071SOL    HW219113   4.169   6.061   5.266
 6072SOL     OW19114   1.352   2.254   1.806
 6072SOL    HW119115   1.278   2.289   1.748
 6072SOL    HW219116   1.333   2.276   1.902
 6073SOL     OW19117   6.702   3.257   0.311
 6073SOL    HW119118   6.616   3.264   0.259
 6073SOL    HW219119   6.774   3.222   0.252
 6074SOL     OW19120   0.823   6.647   4.595
 6074SOL    HW119121   0.855   6.610   4.682
 6074SOL    HW219122   0.784   6.738   4.609
 6075SOL     OW19123   6.091   3.467   0.269
 6075SOL    HW119124   6.025   3.484   0.195
 6075SOL    HW219125   6.053   3.399   0.332
 6076SOL     OW19126   2.169   6.847   4.029
 6076SOL    HW119127   2.206   6.815   3.942
 6076SOL    HW219128   2.229   6.917   4.067
 6077SOL     OW19129   5.884   5.904   2.287
 6077SOL    HW119130   5.794   5.886   2.326
 6077SOL    HW219131   5.951   5.912   2.361
 6078SOL     OW19132   2.987   5.071   3.700
 6078SOL    HW119133   3.075   5.103   3.737
 6078SOL    HW219134   2.966   5.122   3.617
 6079SOL     OW19135   2.513   2.851   0.209
 6079SOL    HW119136   2.435   2.847   0.147
 6079SOL    HW219137   2.535   2.758   0.240
 6080SOL     OW19138   6.257   2.173   1.302
 6080SOL    HW119139   6.246   2.080   1.338
 6080SOL    HW219140   6.314   2.226   1.366
 6081SOL     OW19141   6.364   3.388   3.902
 6081SOL    HW119142   6.390   3.444   3.823
 6081SOL    HW219143   6.264   3.383   3.908
 6082SOL     OW19144   4.381   0.445   2.881
 6082SOL    HW119145   4.378   0.506   2.802
 6082SOL    HW219146   4.328   0.484   2.956
 6083SOL     OW19147   0.816   5.789   6.853
 6083SOL    HW119148   0.748   5.807   6.782
 6083SOL    HW219149   0.795   5.845   6.933
 6084SOL     OW19150   6.382   5.517   4.775
 6084SOL    HW119151   6.283   5.532   4.779
 6084SOL    HW219152   6.423   5.542   4.862
 6085SOL     OW19153   6.859   3.199   0.091
 6085SOL    HW119154   6.826   3.105   0.080
 6085SOL    HW219155   6.883   3.236   0.001
 6086SOL     OW19156   4.267   1.180   4.481
 6086SOL    HW119157   4.307   1.263   4.520
 6086SOL    HW219158   4.171   1.198   4.458
 6087SOL     OW19159   5.572   0.042   6.771
 6087SOL    HW119160   5.624   0.127   6.764
 6087SOL    HW219161   5.491   0.047   6.713
 6088SOL     OW19162   0.678   6.915   4.991
 6088SOL    HW119163   0.740   6.889   5.065
 6088SOL    HW219164   0.608   6.844   4.981
 6089SOL     OW19165   0.913   3.591   0.755
 6089SOL    HW119166   0.882   3.585   0.660
 6089SOL    HW219167   0.986   3.525   0.771
 6090SOL     OW19168   0.681   5.923   5.740
 6090SOL    HW119169   0.767   5.905   5.693
 6090SOL    HW219170   0.696   5.921   5.839
 6091SOL     OW19171   6.601   1.736   1.979
 6091SOL    HW119172   6.657   1.653   1.987
 6091SOL    HW219173   6.661   1.815   1.966
 6092SOL     OW19174   2.480   1.053   2.288
 6092SOL    HW119175   2.494   0.984   2.216
 6092SOL    HW219176   2.382   1.069   2.299
 6093SOL     OW19177   1.456   3.071   1.352
 6093SOL    HW119178   1.408   3.026   1.427
 6093SOL    HW219179   1.457   3.010   1.273
 6094SOL     OW19180   1.554   1.357   1.264
 6094SOL    HW119181   1.603   1.413   1.196
 6094SOL    HW219182   1.519   1.275   1.220
 6095SOL     OW19183   5.404   3.279   6.832
 6095SOL    HW119184   5.499   3.286   6.803
 6095SOL    HW219185   5.400   3.270   6.932
 6096SOL     OW19186   4.486   1.402   4.272
 6096SOL    HW119187   4.503   1.304   4.260
 6096SOL    HW219188   4.388   1.416   4.289
 6097SOL     OW19189   2.266   0.760   2.428
 6097SOL    HW119190   2.300   0.839   2.479
 6097SOL    HW219191   2.219   0.792   2.345
 6098SOL     OW19192   2.442   2.443   6.000
 6098SOL    HW119193   2.376   2.438   6.075
 6098SOL    HW219194   2.421   2.521   5.941
 6099SOL     OW19195   6.133   5.555   4.983
 6099SOL    HW119196   6.064   5.507   4.929
 6099SOL    HW219197   6.140   5.650   4.952
 6100SOL     OW19198   6.491   2.992   6.989
 6100SOL    HW119199   6.431   2.912   6.988
 6100SOL    HW219200   6.509   3.022   6.896
 6101SOL     OW19201   6.777   2.147   5.565
 6101SOL    HW119202   6.688   2.102   5.572
 6101SOL    HW219203   6.837   2.116   5.639
 6102SOL     OW19204   3.199   0.809   4.926
 6102SOL    HW119205   3.126   0.867   4.962
 6102SOL    HW219206   3.208   0.825   4.828
 6103SOL     OW19207   7.027   0.691   4.151
 6103SOL    HW119208   6.982   0.643   4.075
 6103SOL    HW219209   0.074   0.636   4.184
 6104SOL     OW19210   5.765   1.830   0.043
 6104SOL    HW119211   5.729   1.885   0.118
 6104SOL    HW219212   5.689   1.799   7.014
 6105SOL     OW19213   3.501   5.979   6.222
 6105SOL    HW119214   3.527   6.058   6.167
 6105SOL    HW219215   3.561   5.975   6.303
 6106SOL     OW19216   2.864   5.065   6.674
 6106SOL    HW119217   2.775   5.047   6.633
 6106SOL    HW219218   2.933   5.075   6.602
 6107SOL     OW19219   2.062   4.858   4.734
 6107SOL    HW119220   2.064   4.762   4.707
 6107SOL    HW219221   2.147   4.881   4.781
 6108SOL     OW19222   0.875   2.427   4.229
 6108SOL    HW119223   0.877   2.392   4.323
 6108SOL    HW219224   0.944   2.379   4.175
 6109SOL     OW19225   5.676   2.942   0.483
 6109SOL    HW119226   5.597   2.952   0.423
 6109SOL    HW219227   5.647   2.955   0.578
 6110SOL     OW19228   3.057   2.050   5.760
 6110SOL    HW119229   2.963   2.017   5.755
 6110SOL    HW219230   3.082   2.065   5.856
 6111SOL     OW19231   1.101   4.722   2.876
 6111SOL    HW119232   1.131   4.788   2.945
 6111SOL    HW219233   1.065   4.641   2.920
 6112SOL     OW19234   1.589   1.645   3.218
 6112SOL    HW119235   1.588   1.546   3.208
 6112SOL    HW219236   1.683   1.678   3.210
 6113SOL     OW19237   1.555   0.938   6.019
 6113SOL    HW119238   1.604   0.944   6.106
 6113SOL    HW219239   1.536   1.030   5.985
 6114SOL     OW19240   4.829   5.953   0.349
 6114SOL    HW119241   4.903   5.982   0.409
 6114SOL    HW219242   4.808   6.026   0.284
 6115SOL     OW19243   4.931   5.210   2.653
 6115SOL    HW119244   4.952   5.268   2.732
 6115SOL    HW219245   4.841   5.169   2.665
 6116SOL     OW19246   3.366   1.031   1.920
 6116SOL    HW119247   3.354   1.124   1.887
 6116SOL    HW219248   3.451   0.993   1.883
 6117SOL     OW19249   6.294   6.878   4.297
 6117SOL    HW119250   6.277   6.958   4.355
 6117SOL    HW219251   6.238   6.802   4.328
 6118SOL     OW19252   6.265   1.241   3.330
 6118SOL    HW119253   6.335   1.175   3.358
 6118SOL    HW219254   6.301   1.301   3.259
 6119SOL     OW19255   0.328   5.326   4.855
 6119SOL    HW119256   0.288   5.324   4.947
 6119SOL    HW219257   0.297   5.409   4.808
 6120SOL     OW19258   3.345   0.049   3.230
 6120SOL    HW119259   3.316   0.048   3.326
 6120SOL    HW219260   3.289   7.015   3.177
 6121SOL     OW19261   0.371   2.529   3.404
 6121SOL    HW119262   0.317   2.566   3.479
 6121SOL    HW219263   0.432   2.458   3.439
 6122SOL     OW19264   4.010   6.018   3.274
 6122SOL    HW119265   3.962   6.001   3.360
 6122SOL    HW219266   4.050   6.110   3.276
 6123SOL     OW19267   6.776   0.987   1.753
 6123SOL    HW119268   6.706   0.942   1.807
 6123SOL    HW219269   6.844   0.920   1.723
 6124SOL     OW19270   3.417   0.301   5.669
 6124SOL    HW119271   3.509   0.296   5.630
 6124SOL    HW219272   3.423   0.318   5.767
 6125SOL     OW19273   1.710   5.940   1.807
 6125SOL    HW119274   1.692   5.874   1.880
 6125SOL    HW219275   1.705   5.895   1.718
 6126SOL     OW19276   4.782   4.797   3.209
 6126SOL    HW119277   4.699   4.742   3.206
 6126SOL    HW219278   4.857   4.747   3.165
 6127SOL     OW19279   2.141   6.206   1.474
 6127SOL    HW119280   2.223   6.163   1.512
 6127SOL    HW219281   2.164   6.298   1.442
 6128SOL     OW19282   0.145   2.813   0.428
 6128SOL    HW119283   0.171   2.907   0.408
 6128SOL    HW219284   0.067   2.787   0.370
 6129SOL     OW19285   6.200   3.760   2.598
 6129SOL    HW119286   6.229   3.679   2.548
 6129SOL    HW219287   6.216   3.841   2.543
 6130SOL     OW19288   5.123   2.827   3.595
 6130SOL    HW119289   5.200   2.887   3.616
 6130SOL    HW219290   5.037   2.874   3.614
 6131SOL     OW19291   6.727   1.307   5.947
 6131SOL    HW119292   6.823   1.319   5.973
 6131SOL    HW219293   6.669   1.363   6.007
 6132SOL     OW19294   3.729   2.516   0.623
 6132SOL    HW119295   3.802   2.504   0.555
 6132SOL    HW219296   3.737   2.607   0.664
 6133SOL     OW19297   0.530   3.529   1.486
 6133SOL    HW119298   0.478   3.602   1.531
 6133SOL    HW219299   0.536   3.548   1.388
 6134SOL     OW19300   3.477   3.800   6.592
 6134SOL    HW119301   3.476   3.874   6.525
 6134SOL    HW219302   3.414   3.728   6.563
 6135SOL     OW19303   6.687   6.956   1.094
 6135SOL    HW119304   6.704   6.973   0.997
 6135SOL    HW219305   6.696   0.012   1.145
 6136SOL     OW19306   1.269   1.655   2.318
 6136SOL    HW119307   1.239   1.746   2.291
 6136SOL    HW219308   1.364   1.658   2.347
 6137SOL     OW19309   3.192   6.533   5.958
 6137SOL    HW119310   3.200   6.470   6.035
 6137SOL    HW219311   3.167   6.483   5.875
 6138SOL     OW19312   4.062   6.762   2.479
 6138SOL    HW119313   4.000   6.839   2.497
 6138SOL    HW219314   4.151   6.780   2.520
 6139SOL     OW19315   1.677   4.187   5.044
 6139SOL    HW119316   1.769   4.199   5.007
 6139SOL    HW219317   1.677   4.113   5.111
 6140SOL     OW19318   1.318   0.254   1.958
 6140SOL    HW119319   1.401   0.254   1.902
 6140SOL    HW219320   1.335   0.304   2.043
 6141SOL     OW19321   6.680   5.324   5.905
 6141SOL    HW119322   6.644   5.362   5.990
 6141SOL    HW219323   6.780   5.317   5.912
 6142SOL     OW19324   6.555   3.615   0.964
 6142SOL    HW119325   6.594   3.587   1.051
 6142SOL    HW219326   6.537   3.534   0.908
 6143SOL     OW19327   5.960   5.314   6.593
 6143SOL    HW119328   5.955   5.397   6.650
 6143SOL    HW219329   5.927   5.335   6.501
 6144SOL     OW19330   6.960   4.076   3.216
 6144SOL    HW119331   6.914   4.109   3.298
 6144SOL    HW219332   7.017   3.997   3.239
 6145SOL     OW19333   4.990   5.556   2.964
 6145SOL    HW119334   4.892   5.543   2.957
 6145SOL    HW219335   5.022   5.612   2.887
 6146SOL     OW19336   5.099   1.327   3.101
 6146SOL    HW119337   5.102   1.288   3.193
 6146SOL    HW219338   5.105   1.427   3.107
 6147SOL     OW19339   2.263   4.123   3.048
 6147SOL    HW119340   2.180   4.089   3.093
 6147SOL    HW219341   2.266   4.087   2.954
 6148SOL     OW19342   5.863   6.506   4.452
 6148SOL    HW119343   5.826   6.552   4.533
 6148SOL    HW219344   5.950   6.463   4.476
 6149SOL     OW19345   3.253   5.169   3.031
 6149SOL    HW119346   3.293   5.077   3.032
 6149SOL    HW219347   3.179   5.174   3.098
 6150SOL     OW19348   4.703   5.920   6.173
 6150SOL    HW119349   4.678   6.009   6.212
 6150SOL    HW219350   4.721   5.856   6.247
 6151SOL     OW19351   4.871   2.504   5.443
 6151SOL    HW119352   4.900   2.420   5.398
 6151SOL    HW219353   4.787   2.537   5.400
 6152SOL     OW19354   5.614   4.478   6.529
 6152SOL    HW119355   5.635   4.419   6.451
 6152SOL    HW219356   5.698   4.494   6.582
 6153SOL     OW19357   4.520   4.034   1.308
 6153SOL    HW119358   4.536   3.973   1.386
 6153SOL    HW219359   4.605   4.045   1.257
 6154SOL     OW19360   6.143   2.278   2.583
 6154SOL    HW119361   6.047   2.256   2.566
 6154SOL    HW219362   6.199   2.195   2.576
 6155SOL     OW19363   0.464   3.466   4.516
 6155SOL    HW119364   0.440   3.374   4.486
 6155SOL    HW219365   0.544   3.498   4.465
 6156SOL     OW19366   5.804   6.628   3.040
 6156SOL    HW119367   5.739   6.655   2.969
 6156SOL    HW219368   5.888   6.681   3.030
 6157SOL     OW19369   1.652   1.974   3.773
 6157SOL    HW119370   1.719   2.007   3.706
 6157SOL    HW219371   1.665   1.876   3.787
 6158SOL     OW19372   4.622   0.666   6.924
 6158SOL    HW119373   4.557   0.680   6.849
 6158SOL    HW219374   4.698   0.731   6.914
 6159SOL     OW19375   5.494   2.268   0.351
 6159SOL    HW119376   5.570   2.281   0.415
 6159SOL    HW219377   5.473   2.356   0.307
 6160SOL     OW19378   5.786   5.959   1.073
 6160SOL    HW119379   5.850   6.016   1.022
 6160SOL    HW219380   5.739   5.897   1.010
 6161SOL     OW19381   5.881   0.554   5.960
 6161SOL    HW119382   5.899   0.466   6.004
 6161SOL    HW219383   5.816   0.607   6.016
 6162SOL     OW19384   0.859   5.301   4.650
 6162SOL    HW119385   0.853   5.384   4.704
 6162SOL    HW219386   0.889   5.323   4.557
 6163SOL     OW19387   5.895   3.775   0.474
 6163SOL    HW119388   5.891   3.837   0.396
 6163SOL    HW219389   5.928   3.824   0.555
 6164SOL     OW19390   3.068   1.035   0.929
 6164SOL    HW119391   3.147   1.096   0.923
 6164SOL    HW219392   3.061   0.999   1.022
 6165SOL     OW19393   4.135   6.088   0.385
 6165SOL    HW119394   4.170   6.179   0.404
 6165SOL    HW219395   4.132   6.035   0.469
 6166SOL     OW19396   2.883   1.487   5.853
 6166SOL    HW119397   2.930   1.436   5.781
 6166SOL    HW219398   2.804   1.535   5.813
 6167SOL     OW19399   0.486   4.322   2.912
 6167SOL    HW119400   0.460   4.340   2.817
 6167SOL    HW219401   0.454   4.232   2.939
 6168SOL     OW19402   0.160   3.816   2.001
 6168SOL    HW119403   0.083   3.815   2.064
 6168SOL    HW219404   0.212   3.901   2.013
 6169SOL     OW19405   2.230   4.154   2.089
 6169SOL    HW119406   2.300   4.186   2.025
 6169SOL    HW219407   2.149   4.212   2.081
 6170SOL     OW19408   6.964   3.427   5.365
 6170SOL    HW119409   7.020   3.383   5.436
 6170SOL    HW219410   6.981   3.383   5.277
 6171SOL     OW19411   0.412   0.739   0.225
 6171SOL    HW119412   0.312   0.739   0.220
 6171SOL    HW219413   0.442   0.656   0.272
 6172SOL     OW19414   0.413   2.487   2.903
 6172SOL    HW119415   0.365   2.573   2.919
 6172SOL    HW219416   0.501   2.488   2.950
 6173SOL     OW19417   6.490   6.864   2.835
 6173SOL    HW119418   6.462   6.907   2.749
 6173SOL    HW219419   6.548   6.927   2.886
 6174SOL     OW19420   5.611   4.031   2.640
 6174SOL    HW119421   5.668   4.092   2.585
 6174SOL    HW219422   5.657   3.943   2.651
 6175SOL     OW19423   2.341   1.096   5.153
 6175SOL    HW119424   2.390   1.121   5.236
 6175SOL    HW219425   2.397   1.032   5.100
 6176SOL     OW19426   4.248   4.265   5.303
 6176SOL    HW119427   4.252   4.360   5.271
 6176SOL    HW219428   4.340   4.228   5.308
 6177SOL     OW19429   5.792   1.490   1.764
 6177SOL    HW119430   5.767   1.569   1.821
 6177SOL    HW219431   5.708   1.442   1.735
 6178SOL     OW19432   5.522   4.071   2.217
 6178SOL    HW119433   5.490   3.985   2.178
 6178SOL    HW219434   5.444   4.127   2.243
 6179SOL     OW19435   6.222   5.247   2.245
 6179SOL    HW119436   6.129   5.210   2.244
 6179SOL    HW219437   6.220   5.344   2.222
 6180SOL     OW19438   2.605   4.701   0.284
 6180SOL    HW119439   2.655   4.707   0.370
 6180SOL    HW219440   2.569   4.791   0.259
 6181SOL     OW19441   4.996   5.332   6.635
 6181SOL    HW119442   4.981   5.290   6.545
 6181SOL    HW219443   5.078   5.388   6.632
 6182SOL     OW19444   3.075   3.263   0.244
 6182SOL    HW119445   3.169   3.256   0.212
 6182SOL    HW219446   3.013   3.244   0.167
 6183SOL     OW19447   0.967   1.981   1.122
 6183SOL    HW119448   0.886   2.016   1.168
 6183SOL    HW219449   0.941   1.944   1.032
 6184SOL     OW19450   3.011   0.878   6.036
 6184SOL    HW119451   3.016   0.932   5.951
 6184SOL    HW219452   2.976   0.787   6.015
 6185SOL     OW19453   3.568   2.933   5.261
 6185SOL    HW119454   3.562   3.033   5.254
 6185SOL    HW219455   3.513   2.892   5.188
 6186SOL     OW19456   6.316   2.040   1.841
 6186SOL    HW119457   6.285   1.954   1.883
 6186SOL    HW219458   6.376   2.019   1.764
 6187SOL     OW19459   5.274   2.452   5.310
 6187SOL    HW119460   5.317   2.418   5.227
 6187SOL    HW219461   5.255   2.550   5.299
 6188SOL     OW19462   1.696   2.188   5.013
 6188SOL    HW119463   1.753   2.130   4.955
 6188SOL    HW219464   1.608   2.143   5.028
 6189SOL     OW19465   5.204   6.242   2.022
 6189SOL    HW119466   5.181   6.157   2.069
 6189SOL    HW219467   5.119   6.292   2.002
 6190SOL     OW19468   6.367   2.036   5.039
 6190SOL    HW119469   6.459   2.002   5.053
 6190SOL    HW219470   6.368   2.107   4.969
 6191SOL     OW19471   3.292   3.608   6.566
 6191SOL    HW119472   3.274   3.550   6.646
 6191SOL    HW219473   3.205   3.645   6.532
 6192SOL     OW19474   2.639   2.084   0.502
 6192SOL    HW119475   2.728   2.111   0.539
 6192SOL    HW219476   2.636   2.105   0.404
 6193SOL     OW19477   5.081   5.537   0.496
 6193SOL    HW119478   5.067   5.617   0.438
 6193SOL    HW219479   5.003   5.475   0.487
 6194SOL     OW19480   6.502   0.595   6.203
 6194SOL    HW119481   6.544   0.677   6.163
 6194SOL    HW219482   6.412   0.619   6.240
 6195SOL     OW19483   6.150   6.828   5.312
 6195SOL    HW119484   6.229   6.843   5.373
 6195SOL    HW219485   6.177   6.769   5.237
 6196SOL     OW19486   5.310   3.672   2.964
 6196SOL    HW119487   5.261   3.654   3.050
 6196SOL    HW219488   5.292   3.765   2.934
 6197SOL     OW19489   2.926   5.332   2.266
 6197SOL    HW119490   3.017   5.349   2.303
 6197SOL    HW219491   2.859   5.390   2.313
 6198SOL     OW19492   6.199   6.516   6.621
 6198SOL    HW119493   6.212   6.422   6.591
 6198SOL    HW219494   6.275   6.544   6.679
 6199SOL     OW19495   1.115   6.999   0.809
 6199SOL    HW119496   1.133   7.013   0.712
 6199SOL    HW219497   1.141   6.906   0.835
 6200SOL     OW19498   2.243   2.138   2.402
 6200SOL    HW119499   2.186   2.192   2.464
 6200SOL    HW219500   2.190   2.060   2.368
 6201SOL     OW19501   6.714   3.474   3.689
 6201SOL    HW119502   6.617   3.497   3.693
 6201SOL    HW219503   6.752   3.473   3.782
 6202SOL     OW19504   6.285   1.275   2.617
 6202SOL    HW119505   6.361   1.302   2.557
 6202SOL    HW219506   6.237   1.197   2.576
 6203SOL     OW19507   6.530   5.559   1.933
 6203SOL    HW119508   6.467   5.521   1.865
 6203SOL    HW219509   6.532   5.658   1.925
 6204SOL     OW19510   1.826   0.028   5.267
 6204SOL    HW119511   1.767   0.108   5.259
 6204SOL    HW219512   1.834   7.013   5.178
 6205SOL     OW19513   5.002   4.134   2.027
 6205SOL    HW119514   5.020   4.100   2.119
 6205SOL    HW219515   4.991   4.234   2.030
 6206SOL     OW19516   5.320   2.039   4.079
 6206SOL    HW119517   5.255   2.107   4.111
 6206SOL    HW219518   5.405   2.045   4.133
 6207SOL     OW19519   2.003   5.778   4.562
 6207SOL    HW119520   2.001   5.678   4.567
 6207SOL    HW219521   1.969   5.816   4.648
 6208SOL     OW19522   3.699   3.082   5.966
 6208SOL    HW119523   3.711   3.130   5.879
 6208SOL    HW219524   3.752   2.997   5.964
 6209SOL     OW19525   4.076   4.018   1.243
 6209SOL    HW119526   4.010   3.958   1.199
 6209SOL    HW219527   4.169   3.986   1.224
 6210SOL     OW19528   4.719   2.754   3.539
 6210SOL    HW119529   4.643   2.701   3.578
 6210SOL    HW219530   4.765   2.700   3.469
 6211SOL     OW19531   4.854   5.249   4.890
 6211SOL    HW119532   4.763   5.258   4.851
 6211SOL    HW219533   4.907   5.332   4.870
 6212SOL     OW19534   3.970   5.038   6.045
 6212SOL    HW119535   3.931   4.952   6.011
 6212SOL    HW219536   4.017   5.021   6.132
 6213SOL     OW19537   4.363   5.841   0.366
 6213SOL    HW119538   4.417   5.911   0.412
 6213SOL    HW219539   4.305   5.884   0.296
 6214SOL     OW19540   6.230   5.921   5.272
 6214SOL    HW119541   6.297   5.956   5.337
 6214SOL    HW219542   6.182   5.997   5.228
 6215SOL     OW19543   4.908   2.368   6.291
 6215SOL    HW119544   4.983   2.425   6.325
 6215SOL    HW219545   4.889   2.295   6.357
 6216SOL     OW19546   4.791   2.931   3.002
 6216SOL    HW119547   4.816   2.934   3.098
 6216SOL    HW219548   4.729   2.854   2.985
 6217SOL     OW19549   1.076   4.411   2.358
 6217SOL    HW119550   1.085   4.311   2.365
 6217SOL    HW219551   1.161   4.449   2.322
 6218SOL     OW19552   4.433   6.756   0.306
 6218SOL    HW119553   4.395   6.792   0.391
 6218SOL    HW219554   4.449   6.831   0.242
 6219SOL     OW19555   1.159   1.131   5.320
 6219SOL    HW119556   1.253   1.135   5.355
 6219SOL    HW219557   1.129   1.036   5.316
 6220SOL     OW19558   3.970   0.888   1.013
 6220SOL    HW119559   3.903   0.961   1.026
 6220SOL    HW219560   3.989   0.845   1.101
 6221SOL     OW19561   6.166   6.011   6.461
 6221SOL    HW119562   6.220   5.928   6.451
 6221SOL    HW219563   6.096   5.998   6.531
 6222SOL     OW19564   6.488   1.517   2.650
 6222SOL    HW119565   6.571   1.475   2.687
 6222SOL    HW219566   6.467   1.475   2.561
 6223SOL     OW19567   0.332   5.247   3.972
 6223SOL    HW119568   0.295   5.272   4.062
 6223SOL    HW219569   0.267   5.274   3.901
 6224SOL     OW19570   4.287   2.011   6.506
 6224SOL    HW119571   4.312   2.075   6.578
 6224SOL    HW219572   4.337   2.034   6.422
 6225SOL     OW19573   3.945   6.847   6.331
 6225SOL    HW119574   3.990   6.901   6.403
 6225SOL    HW219575   4.003   6.770   6.306
 6226SOL     OW19576   1.077   1.530   4.129
 6226SOL    HW119577   1.107   1.463   4.198
 6226SOL    HW219578   1.009   1.488   4.070
 6227SOL     OW19579   3.280   3.935   5.215
 6227SOL    HW119580   3.330   3.929   5.129
 6227SOL    HW219581   3.206   4.002   5.206
 6228SOL     OW19582   2.001   2.827   3.953
 6228SOL    HW119583   1.916   2.793   3.912
 6228SOL    HW219584   2.073   2.758   3.944
 6229SOL     OW19585   0.390   3.739   4.021
 6229SOL    HW119586   0.295   3.710   4.029
 6229SOL    HW219587   0.406   3.772   3.928
 6230SOL     OW19588   0.435   0.771   1.802
 6230SOL    HW119589   0.350   0.823   1.810
 6230SOL    HW219590   0.513   0.832   1.814
 6231SOL     OW19591   6.762   4.687   0.345
 6231SOL    HW119592   6.820   4.611   0.315
 6231SOL    HW219593   6.798   4.773   0.309
 6232SOL     OW19594   4.895   1.151   0.080
 6232SOL    HW119595   4.820   1.157   0.146
 6232SOL    HW219596   4.935   1.060   0.083
 6233SOL     OW19597   0.133   3.806   1.169
 6233SOL    HW119598   0.194   3.728   1.162
 6233SOL    HW219599   0.112   3.824   1.265
 6234SOL     OW19600   6.209   0.068   4.435
 6234SOL    HW119601   6.221   0.075   4.534
 6234SOL    HW219602   6.175   0.155   4.399
 6235SOL     OW19603   6.780   0.879   2.435
 6235SOL    HW119604   6.764   0.857   2.339
 6235SOL    HW219605   6.692   0.884   2.483
 6236SOL     OW19606   0.524   4.365   1.004
 6236SOL    HW119607   0.520   4.332   0.910
 6236SOL    HW219608   0.521   4.465   1.004
 6237SOL     OW19609   3.769   0.817   1.523
 6237SOL    HW119610   3.679   0.809   1.565
 6237SOL    HW219611   3.786   0.737   1.466
 6238SOL     OW19612   2.348   6.431   4.539
 6238SOL    HW119613   2.265   6.408   4.589
 6238SOL    HW219614   2.403   6.494   4.594
 6239SOL     OW19615   4.716   0.586   3.459
 6239SOL    HW119616   4.756   0.550   3.375
 6239SOL    HW219617   4.780   0.651   3.501
 6240SOL     OW19618   3.777   3.055   4.262
 6240SOL    HW119619   3.704   2.990   4.285
 6240SOL    HW219620   3.836   3.015   4.192
 6241SOL     OW19621   2.932   6.673   3.862
 6241SOL    HW119622   2.995   6.600   3.837
 6241SOL    HW219623   2.843   6.658   3.818
 6242SOL     OW19624   2.958   1.611   3.686
 6242SOL    HW119625   3.003   1.697   3.708
 6242SOL    HW219626   2.934   1.563   3.770
 6243SOL     OW19627   5.482   1.390   6.070
 6243SOL    HW119628   5.441   1.303   6.097
 6243SOL    HW219629   5.553   1.415   6.136
 6244SOL     OW19630   4.444   4.579   2.835
 6244SOL    HW119631   4.477   4.485   2.850
 6244SOL    HW219632   4.437   4.596   2.737
 6245SOL     OW19633   0.512   4.313   2.389
 6245SOL    HW119634   0.540   4.362   2.307
 6245SOL    HW219635   0.585   4.252   2.418
 6246SOL     OW19636   0.223   6.830   4.350
 6246SOL    HW119637   0.201   6.761   4.281
 6246SOL    HW219638   0.236   6.919   4.306
 6247SOL     OW19639   6.419   5.753   3.115
 6247SOL    HW119640   6.364   5.744   3.032
 6247SOL    HW219641   6.484   5.829   3.104
 6248SOL     OW19642   3.476   3.156   6.686
 6248SOL    HW119643   3.421   3.119   6.762
 6248SOL    HW219644   3.529   3.082   6.645
 6249SOL     OW19645   6.354   2.701   0.955
 6249SOL    HW119646   6.449   2.725   0.973
 6249SOL    HW219647   6.294   2.754   1.015
 6250SOL     OW19648   0.145   0.674   0.713
 6250SOL    HW119649   0.170   0.583   0.682
 6250SOL    HW219650   0.160   0.682   0.811
 6251SOL     OW19651   2.886   6.597   4.389
 6251SOL    HW119652   2.854   6.637   4.474
 6251SOL    HW219653   2.980   6.565   4.401
 6252SOL     OW19654   2.578   5.941   0.311
 6252SOL    HW119655   2.648   5.881   0.348
 6252SOL    HW219656   2.508   5.958   0.381
 6253SOL     OW19657   3.284   4.928   4.689
 6253SOL    HW119658   3.215   4.855   4.698
 6253SOL    HW219659   3.238   5.017   4.689
 6254SOL     OW19660   7.002   6.063   0.670
 6254SOL    HW119661   6.934   6.135   0.657
 6254SOL    HW219662   0.050   6.100   0.720
 6255SOL     OW19663   0.037   1.577   1.195
 6255SOL    HW119664   0.121   1.561   1.142
 6255SOL    HW219665   6.988   1.576   1.133
 6256SOL     OW19666   4.730   5.621   2.668
 6256SOL    HW119667   4.685   5.533   2.681
 6256SOL    HW219668   4.744   5.664   2.756
 6257SOL     OW19669   4.325   4.208   1.229
 6257SOL    HW119670   4.392   4.143   1.264
 6257SOL    HW219671   4.238   4.196   1.277
 6258SOL     OW19672   4.621   6.139   5.757
 6258SOL    HW119673   4.534   6.187   5.770
 6258SOL    HW219674   4.673   6.139   5.842
 6259SOL     OW19675   2.315   0.495   5.153
 6259SOL    HW119676   2.331   0.461   5.246
 6259SOL    HW219677   2.227   0.460   5.120
 6260SOL     OW19678   2.245   1.157   0.425
 6260SOL    HW119679   2.340   1.174   0.401
 6260SOL    HW219680   2.194   1.243   0.424
 6261SOL     OW19681   3.803   6.127   1.574
 6261SOL    HW119682   3.897   6.161   1.580
 6261SOL    HW219683   3.801   6.029   1.593
 6262SOL     OW19684   0.012   6.971   2.003
 6262SOL    HW119685   0.059   6.980   2.091
 6262SOL    HW219686   0.051   6.895   1.952
 6263SOL     OW19687   6.522   6.385   5.446
 6263SOL    HW119688   6.429   6.348   5.452
 6263SOL    HW219689   6.542   6.440   5.527
 6264SOL     OW19690   1.446   6.777   1.206
 6264SOL    HW119691   1.469   6.842   1.132
 6264SOL    HW219692   1.425   6.688   1.166
 6265SOL     OW19693   4.874   1.869   0.024
 6265SOL    HW119694   4.793   1.909   0.067
 6265SOL    HW219695   4.846   1.812   6.976
 6266SOL     OW19696   2.794   5.575   3.649
 6266SOL    HW119697   2.759   5.653   3.702
 6266SOL    HW219698   2.723   5.542   3.587
 6267SOL     OW19699   1.314   6.809   5.128
 6267SOL    HW119700   1.256   6.891   5.128
 6267SOL    HW219701   1.257   6.728   5.112
 6268SOL     OW19702   3.401   0.473   1.906
 6268SOL    HW119703   3.498   0.457   1.892
 6268SOL    HW219704   3.355   0.387   1.926
 6269SOL     OW19705   5.845   5.524   1.092
 6269SOL    HW119706   5.820   5.450   1.155
 6269SOL    HW219707   5.906   5.588   1.138
 6270SOL     OW19708   1.644   6.541   0.577
 6270SOL    HW119709   1.689   6.559   0.490
 6270SOL    HW219710   1.673   6.452   0.612
 6271SOL     OW19711   5.937   3.393   6.719
 6271SOL    HW119712   5.928   3.353   6.628
 6271SOL    HW219713   6.033   3.389   6.748
 6272SOL     OW19714   6.569   0.264   0.560
 6272SOL    HW119715   6.631   0.274   0.638
 6272SOL    HW219716   6.502   0.338   0.560
 6273SOL     OW19717   6.987   0.374   1.720
 6273SOL    HW119718   6.899   0.389   1.767
 6273SOL    HW219719   0.011   0.306   1.770
 6274SOL     OW19720   3.768   5.813   5.017
 6274SOL    HW119721   3.694   5.766   4.970
 6274SOL    HW219722   3.843   5.748   5.035
 6275SOL     OW19723   1.786   5.381   6.764
 6275SOL    HW119724   1.809   5.478   6.774
 6275SOL    HW219725   1.775   5.339   6.854
 6276SOL     OW19726   1.855   5.652   3.208
 6276SOL    HW119727   1.944   5.608   3.219
 6276SOL    HW219728   1.867   5.751   3.204
 6277SOL     OW19729   5.666   2.851   1.430
 6277SOL    HW119730   5.594   2.864   1.497
 6277SOL    HW219731   5.755   2.869   1.473
 6278SOL     OW19732   2.952   6.982   6.050
 6278SOL    HW119733   2.975   6.886   6.032
 6278SOL    HW219734   3.035   0.002   6.074
 6279SOL     OW19735   2.978   6.887   1.718
 6279SOL    HW119736   3.032   6.895   1.801
 6279SOL    HW219737   2.948   6.792   1.707
 6280SOL     OW19738   6.863   1.747   6.655
 6280SOL    HW119739   6.836   1.807   6.730
 6280SOL    HW219740   6.956   1.770   6.626
 6281SOL     OW19741   6.151   4.246   5.417
 6281SOL    HW119742   6.094   4.264   5.497
 6281SOL    HW219743   6.246   4.268   5.439
 6282SOL     OW19744   0.509   3.487   5.651
 6282SOL    HW119745   0.603   3.455   5.660
 6282SOL    HW219746   0.509   3.583   5.621
 6283SOL     OW19747   0.926   6.258   5.205
 6283SOL    HW119748   1.019   6.250   5.169
 6283SOL    HW219749   0.930   6.280   5.302
 6284SOL     OW19750   2.280   4.788   6.532
 6284SOL    HW119751   2.378   4.769   6.535
 6284SOL    HW219752   2.243   4.789   6.625
 6285SOL     OW19753   1.118   3.409   3.567
 6285SOL    HW119754   1.211   3.441   3.554
 6285SOL    HW219755   1.117   3.328   3.626
 6286SOL     OW19756   0.860   3.019   4.923
 6286SOL    HW119757   0.799   3.062   4.857
 6286SOL    HW219758   0.835   2.922   4.934
 6287SOL     OW19759   4.571   4.848   4.965
 6287SOL    HW119760   4.534   4.875   4.876
 6287SOL    HW219761   4.665   4.882   4.974
 6288SOL     OW19762   3.741   3.287   6.843
 6288SOL    HW119763   3.799   3.359   6.881
 6288SOL    HW219764   3.783   3.198   6.858
 6289SOL     OW19765   2.769   4.809   5.955
 6289SOL    HW119766   2.733   4.875   6.020
 6289SOL    HW219767   2.710   4.728   5.954
 6290SOL     OW19768   5.209   5.641   5.105
 6290SOL    HW119769   5.119   5.616   5.069
 6290SOL    HW219770   5.238   5.728   5.065
 6291SOL     OW19771   3.030   3.206   2.905
 6291SOL    HW119772   3.070   3.115   2.916
 6291SOL    HW219773   3.009   3.244   2.995
 6292SOL     OW19774   1.829   3.303   4.842
 6292SOL    HW119775   1.846   3.284   4.938
 6292SOL    HW219776   1.821   3.216   4.792
 6293SOL     OW19777   4.333   1.238   6.569
 6293SOL    HW119778   4.299   1.188   6.490
 6293SOL    HW219779   4.427   1.211   6.589
 6294SOL     OW19780   2.385   1.431   3.550
 6294SOL    HW119781   2.454   1.370   3.589
 6294SOL    HW219782   2.429   1.498   3.491
 6295SOL     OW19783   5.715   4.004   5.673
 6295SOL    HW119784   5.653   4.081   5.659
 6295SOL    HW219785   5.679   3.945   5.745
 6296SOL     OW19786   0.468   2.560   6.481
 6296SOL    HW119787   0.402   2.603   6.419
 6296SOL    HW219788   0.426   2.549   6.571
 6297SOL     OW19789   5.816   0.682   4.142
 6297SOL    HW119790   5.829   0.740   4.061
 6297SOL    HW219791   5.878   0.713   4.214
 6298SOL     OW19792   6.153   4.977   0.523
 6298SOL    HW119793   6.070   4.924   0.506
 6298SOL    HW219794   6.138   5.072   0.494
 6299SOL     OW19795   5.000   1.990   2.757
 6299SOL    HW119796   5.054   1.999   2.841
 6299SOL    HW219797   5.025   2.064   2.694
 6300SOL     OW19798   3.138   0.194   5.860
 6300SOL    HW119799   3.200   0.163   5.932
 6300SOL    HW219800   3.127   0.293   5.865
 6301SOL     OW19801   3.380   6.566   0.751
 6301SOL    HW119802   3.306   6.633   0.751
 6301SOL    HW219803   3.342   6.474   0.748
 6302SOL     OW19804   2.826   1.143   5.678
 6302SOL    HW119805   2.745   1.167   5.732
 6302SOL    HW219806   2.881   1.225   5.663
 6303SOL     OW19807   1.184   5.755   5.729
 6303SOL    HW119808   1.168   5.657   5.733
 6303SOL    HW219809   1.280   5.773   5.708
 6304SOL     OW19810   3.855   1.106   3.396
 6304SOL    HW119811   3.786   1.177   3.403
 6304SOL    HW219812   3.865   1.078   3.300
 6305SOL     OW19813   0.585   6.457   6.042
 6305SOL    HW119814   0.639   6.376   6.063
 6305SOL    HW219815   0.644   6.528   6.004
 6306SOL     OW19816   6.898   4.638   3.823
 6306SOL    HW119817   6.849   4.552   3.841
 6306SOL    HW219818   6.930   4.639   3.729
 6307SOL     OW19819   4.054   3.452   3.247
 6307SOL    HW119820   4.103   3.476   3.331
 6307SOL    HW219821   3.956   3.444   3.267
 6308SOL     OW19822   0.449   2.767   7.002
 6308SOL    HW119823   0.449   2.840   0.041
 6308SOL    HW219824   0.484   2.683   0.014
 6309SOL     OW19825   1.819   5.919   4.301
 6309SOL    HW119826   1.798   5.826   4.332
 6309SOL    HW219827   1.914   5.924   4.272
 6310SOL     OW19828   1.751   6.316   3.202
 6310SOL    HW119829   1.839   6.324   3.248
 6310SOL    HW219830   1.746   6.381   3.126
 6311SOL     OW19831   5.000   1.171   6.510
 6311SOL    HW119832   4.971   1.093   6.565
 6311SOL    HW219833   4.932   1.244   6.519
 6312SOL     OW19834   3.242   6.433   6.763
 6312SOL    HW119835   3.143   6.436   6.748
 6312SOL    HW219836   3.262   6.456   6.858
 6313SOL     OW19837   5.633   6.218   3.507
 6313SOL    HW119838   5.588   6.133   3.481
 6313SOL    HW219839   5.596   6.294   3.453
 6314SOL     OW19840   2.055   6.674   1.789
 6314SOL    HW119841   1.959   6.668   1.817
 6314SOL    HW219842   2.072   6.763   1.748
 6315SOL     OW19843   2.425   2.727   3.933
 6315SOL    HW119844   2.418   2.826   3.930
 6315SOL    HW219845   2.472   2.699   4.016
 6316SOL     OW19846   5.626   1.477   4.812
 6316SOL    HW119847   5.651   1.557   4.865
 6316SOL    HW219848   5.530   1.485   4.784
 6317SOL     OW19849   4.808   4.856   1.957
 6317SOL    HW119850   4.710   4.850   1.937
 6317SOL    HW219851   4.853   4.909   1.886
 6318SOL     OW19852   6.509   0.140   5.611
 6318SOL    HW119853   6.516   0.166   5.707
 6318SOL    HW219854   6.600   0.119   5.575
 6319SOL     OW19855   5.744   1.763   4.466
 6319SOL    HW119856   5.648   1.785   4.449
 6319SOL    HW219857   5.768   1.789   4.560
 6320SOL     OW19858   6.447   0.901   4.429
 6320SOL    HW119859   6.543   0.923   4.447
 6320SOL    HW219860   6.401   0.981   4.389
 6321SOL     OW19861   5.666   2.005   0.221
 6321SOL    HW119862   5.659   1.977   0.317
 6321SOL    HW219863   5.579   2.045   0.192
 6322SOL     OW19864   1.558   0.799   1.693
 6322SOL    HW119865   1.584   0.808   1.789
 6322SOL    HW219866   1.578   0.884   1.644
 6323SOL     OW19867   2.878   3.233   1.552
 6323SOL    HW119868   2.784   3.241   1.520
 6323SOL    HW219869   2.936   3.298   1.503
 6324SOL     OW19870   4.345   1.674   1.098
 6324SOL    HW119871   4.276   1.634   1.038
 6324SOL    HW219872   4.364   1.611   1.173
 6325SOL     OW19873   1.869   2.466   3.340
 6325SOL    HW119874   1.809   2.512   3.273
 6325SOL    HW219875   1.959   2.510   3.339
 6326SOL     OW19876   5.235   4.693   6.214
 6326SOL    HW119877   5.253   4.613   6.271
 6326SOL    HW219878   5.136   4.705   6.204
 6327SOL     OW19879   7.026   0.301   3.353
 6327SOL    HW119880   0.040   0.224   3.401
 6327SOL    HW219881   6.928   0.282   3.344
 6328SOL     OW19882   4.484   3.833   5.940
 6328SOL    HW119883   4.581   3.857   5.946
 6328SOL    HW219884   4.456   3.829   5.844
 6329SOL     OW19885   1.389   2.954   5.343
 6329SOL    HW119886   1.449   2.910   5.276
 6329SOL    HW219887   1.439   2.969   5.428
 6330SOL     OW19888   5.479   0.940   3.293
 6330SOL    HW119889   5.543   0.937   3.216
 6330SOL    HW219890   5.421   0.858   3.291
 6331SOL     OW19891   0.228   3.231   2.670
 6331SOL    HW119892   0.157   3.292   2.634
 6331SOL    HW219893   0.309   3.238   2.612
 6332SOL     OW19894   2.688   1.306   0.687
 6332SOL    HW119895   2.737   1.277   0.769
 6332SOL    HW219896   2.634   1.387   0.707
 6333SOL     OW19897   4.460   1.357   0.670
 6333SOL    HW119898   4.372   1.390   0.635
 6333SOL    HW219899   4.490   1.415   0.745
 6334SOL     OW19900   1.919   1.024   1.728
 6334SOL    HW119901   1.889   1.046   1.635
 6334SOL    HW219902   1.941   1.108   1.777
 6335SOL     OW19903   6.194   1.394   1.173
 6335SOL    HW119904   6.236   1.450   1.102
 6335SOL    HW219905   6.237   1.304   1.175
 6336SOL     OW19906   1.111   3.047   5.911
 6336SOL    HW119907   1.049   2.973   5.883
 6336SOL    HW219908   1.181   3.011   5.973
 6337SOL     OW19909   4.475   5.722   4.975
 6337SOL    HW119910   4.484   5.767   4.886
 6337SOL    HW219911   4.564   5.718   5.020
 6338SOL     OW19912   2.994   1.969   4.191
 6338SOL    HW119913   2.982   1.944   4.287
 6338SOL    HW219914   3.044   1.897   4.143
 6339SOL     OW19915   1.222   4.390   3.458
 6339SOL    HW119916   1.263   4.299   3.457
 6339SOL    HW219917   1.160   4.398   3.536
 6340SOL     OW19918   2.170   4.237   1.555
 6340SOL    HW119919   2.229   4.290   1.494
 6340SOL    HW219920   2.096   4.295   1.589
 6341SOL     OW19921   1.101   4.554   3.619
 6341SOL    HW119922   1.147   4.639   3.597
 6341SOL    HW219923   1.039   4.568   3.696
 6342SOL     OW19924   2.231   1.816   1.903
 6342SOL    HW119925   2.250   1.903   1.948
 6342SOL    HW219926   2.205   1.832   1.808
 6343SOL     OW19927   2.448   5.988   1.297
 6343SOL    HW119928   2.479   5.894   1.309
 6343SOL    HW219929   2.357   5.989   1.257
 6344SOL     OW19930   6.609   1.395   3.673
 6344SOL    HW119931   6.625   1.338   3.593
 6344SOL    HW219932   6.570   1.482   3.645
 6345SOL     OW19933   5.840   3.597   1.607
 6345SOL    HW119934   5.776   3.641   1.544
 6345SOL    HW219935   5.817   3.501   1.617
 6346SOL     OW19936   7.003   4.542   5.504
 6346SOL    HW119937   0.051   4.485   5.478
 6346SOL    HW219938   6.923   4.517   5.450
 6347SOL     OW19939   2.328   1.765   2.818
 6347SOL    HW119940   2.284   1.843   2.774
 6347SOL    HW219941   2.400   1.729   2.758
 6348SOL     OW19942   6.754   2.420   5.558
 6348SOL    HW119943   6.739   2.325   5.534
 6348SOL    HW219944   6.764   2.429   5.657
 6349SOL     OW19945   6.870   1.082   6.896
 6349SOL    HW119946   6.854   0.994   6.941
 6349SOL    HW219947   6.956   1.078   6.845
 6350SOL     OW19948   1.709   4.670   1.766
 6350SOL    HW119949   1.785   4.735   1.766
 6350SOL    HW219950   1.700   4.629   1.857
 6351SOL     OW19951   5.842   3.289   2.269
 6351SOL    HW119952   5.884   3.379   2.283
 6351SOL    HW219953   5.746   3.293   2.294
 6352SOL     OW19954   2.431   0.309   4.884
 6352SOL    HW119955   2.464   0.254   4.960
 6352SOL    HW219956   2.499   0.379   4.860
 6353SOL     OW19957   3.349   5.925   6.608
 6353SOL    HW119958   3.264   5.962   6.646
 6353SOL    HW219959   3.418   5.997   6.606
 6354SOL     OW19960   4.439   4.843   2.454
 6354SOL    HW119961   4.352   4.794   2.452
 6354SOL    HW219962   4.491   4.822   2.371
 6355SOL     OW19963   2.833   4.818   0.789
 6355SOL    HW119964   2.841   4.775   0.879
 6355SOL    HW219965   2.914   4.874   0.771
 6356SOL     OW19966   5.921   3.794   6.403
 6356SOL    HW119967   5.991   3.859   6.373
 6356SOL    HW219968   5.839   3.844   6.430
 6357SOL     OW19969   5.414   1.431   1.232
 6357SOL    HW119970   5.421   1.393   1.140
 6357SOL    HW219971   5.318   1.454   1.251
 6358SOL     OW19972   1.035   2.217   6.867
 6358SOL    HW119973   1.048   2.175   6.776
 6358SOL    HW219974   1.037   2.316   6.858
 6359SOL     OW19975   5.853   6.253   0.248
 6359SOL    HW119976   5.857   6.232   0.346
 6359SOL    HW219977   5.941   6.230   0.205
 6360SOL     OW19978   1.027   2.776   1.964
 6360SOL    HW119979   1.099   2.711   1.939
 6360SOL    HW219980   1.036   2.799   2.061
 6361SOL     OW19981   0.680   0.444   0.145
 6361SOL    HW119982   0.609   0.431   0.214
 6361SOL    HW219983   0.638   0.454   0.055
 6362SOL     OW19984   0.984   5.467   7.023
 6362SOL    HW119985   0.980   5.552   6.971
 6362SOL    HW219986   0.988   5.488   0.091
 6363SOL     OW19987   2.750   5.072   3.819
 6363SOL    HW119988   2.844   5.069   3.786
 6363SOL    HW219989   2.728   4.985   3.865
 6364SOL     OW19990   2.298   2.570   4.985
 6364SOL    HW119991   2.251   2.488   4.951
 6364SOL    HW219992   2.276   2.648   4.927
 6365SOL     OW19993   6.248   5.340   3.534
 6365SOL    HW119994   6.170   5.290   3.572
 6365SOL    HW219995   6.227   5.437   3.530
 6366SOL     OW19996   5.702   6.894   4.753
 6366SOL    HW119997   5.620   6.940   4.787
 6366SOL    HW219998   5.721   6.925   4.660
 6367SOL     OW19999   2.471   1.963   2.993
 6367SOL    HW120000   2.450   1.872   2.959
 6367SOL    HW220001   2.390   2.003   3.036
 6368SOL     OW20002   4.904   2.987   4.763
 6368SOL    HW120003   4.998   2.956   4.776
 6368SOL    HW220004   4.889   3.070   4.818
 6369SOL     OW20005   2.830   5.793   6.324
 6369SOL    HW120006   2.870   5.773   6.235
 6369SOL    HW220007   2.740   5.834   6.313
 6370SOL     OW20008   5.453   3.480   3.971
 6370SOL    HW120009   5.373   3.519   4.017
 6370SOL    HW220010   5.455   3.381   3.985
 6371SOL     OW20011   5.497   3.831   2.057
 6371SOL    HW120012   5.471   3.735   2.054
 6371SOL    HW220013   5.546   3.855   1.973
 6372SOL     OW20014   0.086   1.336   3.007
 6372SOL    HW120015   0.106   1.279   3.087
 6372SOL    HW220016   0.167   1.341   2.949
 6373SOL     OW20017   5.148   4.175   1.464
 6373SOL    HW120018   5.119   4.096   1.516
 6373SOL    HW220019   5.239   4.204   1.495
 6374SOL     OW20020   4.721   3.032   0.291
 6374SOL    HW120021   4.791   2.969   0.323
 6374SOL    HW220022   4.663   2.987   0.223
 6375SOL     OW20023   6.623   2.786   1.794
 6375SOL    HW120024   6.620   2.715   1.723
 6375SOL    HW220025   6.708   2.777   1.846
 6376SOL     OW20026   3.395   0.853   6.633
 6376SOL    HW120027   3.486   0.893   6.620
 6376SOL    HW220028   3.359   0.878   6.722
 6377SOL     OW20029   6.856   0.567   0.568
 6377SOL    HW120030   6.865   0.484   0.623
 6377SOL    HW220031   6.760   0.583   0.547
 6378SOL     OW20032   5.452   5.620   3.175
 6378SOL    HW120033   5.480   5.701   3.123
 6378SOL    HW220034   5.358   5.596   3.151
 6379SOL     OW20035   2.934   6.059   0.458
 6379SOL    HW120036   2.935   5.963   0.430
 6379SOL    HW220037   2.995   6.071   0.537
 6380SOL     OW20038   1.353   3.792   4.986
 6380SOL    HW120039   1.327   3.710   5.037
 6380SOL    HW220040   1.303   3.795   4.900
 6381SOL     OW20041   4.538   2.897   0.082
 6381SOL    HW120042   4.448   2.916   0.042
 6381SOL    HW220043   4.603   2.876   0.009
 6382SOL     OW20044   2.153   1.645   1.249
 6382SOL    HW120045   2.118   1.714   1.312
 6382SOL    HW220046   2.250   1.629   1.268
 6383SOL     OW20047   2.089   2.308   2.571
 6383SOL    HW120048   2.123   2.401   2.587
 6383SOL    HW220049   1.990   2.305   2.585
 6384SOL     OW20050   6.476   2.476   2.153
 6384SOL    HW120051   6.443   2.391   2.194
 6384SOL    HW220052   6.501   2.460   2.058
 6385SOL     OW20053   0.099   2.806   0.913
 6385SOL    HW120054   0.052   2.724   0.881
 6385SOL    HW220055   0.189   2.782   0.950
 6386SOL     OW20056   2.263   3.384   7.013
 6386SOL    HW120057   2.259   3.327   0.066
 6386SOL    HW220058   2.263   3.325   6.932
 6387SOL     OW20059   7.008   0.312   6.792
 6387SOL    HW120060   6.983   0.221   6.826
 6387SOL    HW220061   6.963   0.328   6.705
 6388SOL     OW20062   6.421   5.553   2.488
 6388SOL    HW120063   6.453   5.550   2.393
 6388SOL    HW220064   6.463   5.478   2.540
 6389SOL     OW20065   1.239   0.820   6.740
 6389SOL    HW120066   1.225   0.885   6.814
 6389SOL    HW220067   1.300   0.860   6.671
 6390SOL     OW20068   6.724   1.426   6.349
 6390SOL    HW120069   6.759   1.508   6.394
 6390SOL    HW220070   6.695   1.359   6.417
 6391SOL     OW20071   1.018   1.534   5.127
 6391SOL    HW120072   1.053   1.598   5.058
 6391SOL    HW220073   1.078   1.535   5.207
 6392SOL     OW20074   4.291   6.418   3.528
 6392SOL    HW120075   4.201   6.380   3.507
 6392SOL    HW220076   4.318   6.391   3.620
 6393SOL     OW20077   6.789   5.563   1.194
 6393SOL    HW120078   6.809   5.606   1.282
 6393SOL    HW220079   6.746   5.474   1.209
 6394SOL     OW20080   1.129   5.431   1.172
 6394SOL    HW120081   1.213   5.476   1.200
 6394SOL    HW220082   1.109   5.355   1.234
 6395SOL     OW20083   2.006   4.516   3.551
 6395SOL    HW120084   2.087   4.460   3.536
 6395SOL    HW220085   1.950   4.517   3.468
 6396SOL     OW20086   0.831   3.381   0.395
 6396SOL    HW120087   0.882   3.325   0.329
 6396SOL    HW220088   0.866   3.364   0.487
 6397SOL     OW20089   6.056   2.699   3.597
 6397SOL    HW120090   6.017   2.635   3.531
 6397SOL    HW220091   6.149   2.722   3.570
 6398SOL     OW20092   1.581   0.147   1.132
 6398SOL    HW120093   1.677   0.120   1.122
 6398SOL    HW220094   1.523   0.084   1.079
 6399SOL     OW20095   2.617   0.879   6.172
 6399SOL    HW120096   2.567   0.852   6.254
 6399SOL    HW220097   2.710   0.906   6.197
 6400SOL     OW20098   1.049   5.853   2.880
 6400SOL    HW120099   1.033   5.880   2.974
 6400SOL    HW220100   1.002   5.915   2.818
 6401SOL     OW20101   3.807   6.041   3.460
 6401SOL    HW120102   3.786   6.007   3.552
 6401SOL    HW220103   3.759   5.985   3.392
 6402SOL     OW20104   2.220   5.255   4.944
 6402SOL    HW120105   2.123   5.255   4.971
 6402SOL    HW220106   2.255   5.161   4.946
 6403SOL     OW20107   4.384   5.846   4.724
 6403SOL    HW120108   4.298   5.887   4.696
 6403SOL    HW220109   4.446   5.918   4.756
 6404SOL     OW20110   4.186   0.383   2.065
 6404SOL    HW120111   4.097   0.352   2.098
 6404SOL    HW220112   4.253   0.308   2.072
 6405SOL     OW20113   5.403   1.637   2.231
 6405SOL    HW120114   5.308   1.669   2.227
 6405SOL    HW220115   5.460   1.694   2.172
 6406SOL     OW20116   1.242   2.160   2.669
 6406SOL    HW120117   1.208   2.096   2.601
 6406SOL    HW220118   1.170   2.225   2.695
 6407SOL     OW20119   1.986   6.022   2.964
 6407SOL    HW120120   1.916   6.003   2.895
 6407SOL    HW220121   1.952   5.995   3.054
 6408SOL     OW20122   6.621   0.654   0.839
 6408SOL    HW120123   6.620   0.648   0.739
 6408SOL    HW220124   6.715   0.668   0.870
 6409SOL     OW20125   6.296   4.770   3.392
 6409SOL    HW120126   6.289   4.805   3.299
 6409SOL    HW220127   6.333   4.841   3.452
 6410SOL     OW20128   2.713   1.696   5.554
 6410SOL    HW120129   2.669   1.786   5.547
 6410SOL    HW220130   2.679   1.649   5.636
 6411SOL     OW20131   0.422   2.082   2.414
 6411SOL    HW120132   0.453   2.121   2.501
 6411SOL    HW220133   0.414   2.155   2.346
 6412SOL     OW20134   3.108   0.225   0.119
 6412SOL    HW120135   3.080   0.262   0.208
 6412SOL    HW220136   3.052   0.266   0.047
 6413SOL     OW20137   4.856   5.256   3.693
 6413SOL    HW120138   4.840   5.300   3.604
 6413SOL    HW220139   4.782   5.282   3.755
 6414SOL     OW20140   1.464   6.991   0.229
 6414SOL    HW120141   1.465   6.967   0.326
 6414SOL    HW220142   1.484   0.058   0.219
 6415SOL     OW20143   1.003   2.539   3.133
 6415SOL    HW120144   1.018   2.447   3.096
 6415SOL    HW220145   1.090   2.579   3.159
 6416SOL     OW20146   2.839   0.514   0.160
 6416SOL    HW120147   2.812   0.610   0.170
 6416SOL    HW220148   2.915   0.495   0.223
 6417SOL     OW20149   3.868   1.663   0.605
 6417SOL    HW120150   3.850   1.632   0.512
 6417SOL    HW220151   3.782   1.692   0.648
 6418SOL     OW20152   4.466   5.350   1.016
 6418SOL    HW120153   4.538   5.418   1.010
 6418SOL    HW220154   4.473   5.301   1.103
 6419SOL     OW20155   0.464   0.050   6.978
 6419SOL    HW120156   0.470   0.133   6.922
 6419SOL    HW220157   0.513   0.064   0.034
 6420SOL     OW20158   1.782   3.663   4.033
 6420SOL    HW120159   1.863   3.636   4.085
 6420SOL    HW220160   1.734   3.581   4.000
 6421SOL     OW20161   4.917   0.266   1.975
 6421SOL    HW120162   4.999   0.247   2.029
 6421SOL    HW220163   4.942   0.281   1.879
 6422SOL     OW20164   6.086   2.436   4.489
 6422SOL    HW120165   6.121   2.416   4.398
 6422SOL    HW220166   6.004   2.380   4.506
 6423SOL     OW20167   2.134   4.399   4.138
 6423SOL    HW120168   2.221   4.444   4.160
 6423SOL    HW220169   2.146   4.300   4.139
 6424SOL     OW20170   0.168   4.687   4.575
 6424SOL    HW120171   0.255   4.656   4.536
 6424SOL    HW220172   0.144   4.630   4.653
 6425SOL     OW20173   0.018   6.120   3.197
 6425SOL    HW120174   6.972   6.122   3.262
 6425SOL    HW220175   0.042   6.214   3.170
 6426SOL     OW20176   4.503   4.545   4.750
 6426SOL    HW120177   4.472   4.508   4.838
 6426SOL    HW220178   4.590   4.503   4.725
 6427SOL     OW20179   3.147   3.227   3.425
 6427SOL    HW120180   3.158   3.149   3.486
 6427SOL    HW220181   3.221   3.293   3.441
 6428SOL     OW20182   5.096   2.675   0.416
 6428SOL    HW120183   5.087   2.585   0.374
 6428SOL    HW220184   5.190   2.688   0.447
 6429SOL     OW20185   1.953   0.938   5.504
 6429SOL    HW120186   1.979   0.936   5.408
 6429SOL    HW220187   1.906   0.853   5.528
 6430SOL     OW20188   6.363   0.404   5.103
 6430SOL    HW120189   6.317   0.316   5.119
 6430SOL    HW220190   6.454   0.401   5.145
 6431SOL     OW20191   3.843   4.477   1.441
 6431SOL    HW120192   3.891   4.544   1.383
 6431SOL    HW220193   3.910   4.426   1.495
 6432SOL     OW20194   4.711   4.459   6.081
 6432SOL    HW120195   4.783   4.490   6.019
 6432SOL    HW220196   4.752   4.420   6.163
 6433SOL     OW20197   2.157   5.704   6.595
 6433SOL    HW120198   2.072   5.738   6.636
 6433SOL    HW220199   2.205   5.780   6.551
 6434SOL     OW20200   3.390   5.480   5.568
 6434SOL    HW120201   3.399   5.564   5.622
 6434SOL    HW220202   3.476   5.462   5.520
 6435SOL     OW20203   4.992   1.277   1.195
 6435SOL    HW120204   5.059   1.231   1.136
 6435SOL    HW220205   5.024   1.273   1.290
 6436SOL     OW20206   0.307   4.133   4.185
 6436SOL    HW120207   0.333   4.220   4.227
 6436SOL    HW220208   0.314   4.061   4.254
 6437SOL     OW20209   0.352   1.736   5.674
 6437SOL    HW120210   0.279   1.670   5.693
 6437SOL    HW220211   0.420   1.731   5.748
 6438SOL     OW20212   0.360   5.763   0.517
 6438SOL    HW120213   0.436   5.705   0.487
 6438SOL    HW220214   0.281   5.748   0.458
 6439SOL     OW20215   5.938   7.025   2.703
 6439SOL    HW120216   6.024   6.980   2.725
 6439SOL    HW220217   5.916   0.063   2.774
 6440SOL     OW20218   2.282   1.239   6.103
 6440SOL    HW120219   2.286   1.339   6.099
 6440SOL    HW220220   2.353   1.200   6.045
 6441SOL     OW20221   0.571   0.823   2.837
 6441SOL    HW120222   0.496   0.838   2.773
 6441SOL    HW220223   0.592   0.725   2.841
 6442SOL     OW20224   3.007   2.841   5.290
 6442SOL    HW120225   2.980   2.863   5.384
 6442SOL    HW220226   3.055   2.754   5.289
 6443SOL     OW20227   4.710   2.425   1.168
 6443SOL    HW120228   4.718   2.427   1.068
 6443SOL    HW220229   4.618   2.393   1.193
 6444SOL     OW20230   6.871   3.406   4.971
 6444SOL    HW120231   6.780   3.389   4.934
 6444SOL    HW220232   6.878   3.501   5.000
 6445SOL     OW20233   3.161   3.994   3.414
 6445SOL    HW120234   3.202   3.998   3.322
 6445SOL    HW220235   3.188   4.076   3.464
 6446SOL     OW20236   2.499   1.148   6.423
 6446SOL    HW120237   2.474   1.100   6.506
 6446SOL    HW220238   2.594   1.179   6.429
 6447SOL     OW20239   6.366   3.834   0.941
 6447SOL    HW120240   6.454   3.787   0.933
 6447SOL    HW220241   6.293   3.776   0.903
 6448SOL     OW20242   4.270   5.400   1.536
 6448SOL    HW120243   4.362   5.366   1.554
 6448SOL    HW220244   4.269   5.500   1.541
 6449SOL     OW20245   2.722   6.122   1.177
 6449SOL    HW120246   2.628   6.143   1.147
 6449SOL    HW220247   2.770   6.207   1.198
 6450SOL     OW20248   6.998   3.846   0.875
 6450SOL    HW120249   0.024   3.825   0.794
 6450SOL    HW220250   0.025   3.843   0.957
 6451SOL     OW20251   3.663   2.368   1.353
 6451SOL    HW120252   3.593   2.389   1.285
 6451SOL    HW220253   3.706   2.281   1.331
 6452SOL     OW20254   5.066   2.871   3.314
 6452SOL    HW120255   5.044   2.796   3.252
 6452SOL    HW220256   5.090   2.834   3.404
 6453SOL     OW20257   3.205   7.005   0.880
 6453SOL    HW120258   3.269   0.028   0.823
 6453SOL    HW220259   3.227   7.020   0.977
 6454SOL     OW20260   5.496   2.650   2.605
 6454SOL    HW120261   5.515   2.729   2.663
 6454SOL    HW220262   5.492   2.567   2.660
 6455SOL     OW20263   6.443   3.557   3.387
 6455SOL    HW120264   6.422   3.652   3.413
 6455SOL    HW220265   6.541   3.541   3.397
 6456SOL     OW20266   6.012   1.178   3.227
 6456SOL    HW120267   6.001   1.277   3.217
 6456SOL    HW220268   6.106   1.158   3.255
 6457SOL     OW20269   4.634   0.478   2.298
 6457SOL    HW120270   4.722   0.487   2.252
 6457SOL    HW220271   4.561   0.512   2.238
 6458SOL     OW20272   0.734   4.767   3.756
 6458SOL    HW120273   0.636   4.786   3.761
 6458SOL    HW220274   0.779   4.810   3.834
 6459SOL     OW20275   6.660   2.769   2.479
 6459SOL    HW120276   6.715   2.848   2.452
 6459SOL    HW220277   6.697   2.729   2.562
 6460SOL     OW20278   0.366   5.831   6.833
 6460SOL    HW120279   0.444   5.852   6.774
 6460SOL    HW220280   0.380   5.873   6.923
 6461SOL     OW20281   3.015   4.986   1.296
 6461SOL    HW120282   3.108   5.013   1.270
 6461SOL    HW220283   3.004   5.000   1.395
 6462SOL     OW20284   1.622   3.737   5.178
 6462SOL    HW120285   1.589   3.686   5.099
 6462SOL    HW220286   1.720   3.725   5.187
 6463SOL     OW20287   4.528   1.712   1.598
 6463SOL    HW120288   4.485   1.758   1.521
 6463SOL    HW220289   4.506   1.760   1.683
 6464SOL     OW20290   0.638   6.154   4.490
 6464SOL    HW120291   0.676   6.170   4.581
 6464SOL    HW220292   0.713   6.153   4.423
 6465SOL     OW20293   4.390   1.396   3.264
 6465SOL    HW120294   4.474   1.420   3.313
 6465SOL    HW220295   4.357   1.476   3.214
 6466SOL     OW20296   0.471   3.067   6.727
 6466SOL    HW120297   0.510   3.138   6.785
 6466SOL    HW220298   0.523   2.983   6.736
 6467SOL     OW20299   3.273   1.216   0.851
 6467SOL    HW120300   3.333   1.251   0.924
 6467SOL    HW220301   3.230   1.293   0.804
 6468SOL     OW20302   3.020   0.212   0.608
 6468SOL    HW120303   2.968   0.284   0.562
 6468SOL    HW220304   3.044   0.141   0.542
 6469SOL     OW20305   3.789   1.802   3.305
 6469SOL    HW120306   3.710   1.854   3.336
 6469SOL    HW220307   3.805   1.819   3.208
 6470SOL     OW20308   6.532   1.890   6.818
 6470SOL    HW120309   6.457   1.829   6.842
 6470SOL    HW220310   6.613   1.866   6.870
 6471SOL     OW20311   6.895   5.987   5.612
 6471SOL    HW120312   6.965   6.045   5.569
 6471SOL    HW220313   6.891   6.008   5.710
 6472SOL     OW20314   6.977   5.754   2.720
 6472SOL    HW120315   6.954   5.828   2.783
 6472SOL    HW220316   7.014   5.677   2.771
 6473SOL     OW20317   2.373   1.007   3.818
 6473SOL    HW120318   2.285   0.981   3.857
 6473SOL    HW220319   2.446   0.987   3.883
 6474SOL     OW20320   4.237   5.613   5.292
 6474SOL    HW120321   4.226   5.566   5.204
 6474SOL    HW220322   4.316   5.675   5.287
 6475SOL     OW20323   5.617   4.475   2.677
 6475SOL    HW120324   5.616   4.420   2.760
 6475SOL    HW220325   5.659   4.564   2.696
 6476SOL     OW20326   3.709   1.552   6.133
 6476SOL    HW120327   3.660   1.471   6.102
 6476SOL    HW220328   3.745   1.536   6.225
 6477SOL     OW20329   6.538   6.397   1.512
 6477SOL    HW120330   6.620   6.344   1.492
 6477SOL    HW220331   6.500   6.434   1.427
 6478SOL     OW20332   3.569   5.509   1.749
 6478SOL    HW120333   3.525   5.423   1.722
 6478SOL    HW220334   3.502   5.583   1.747
 6479SOL     OW20335   3.174   6.252   3.902
 6479SOL    HW120336   3.188   6.195   3.821
 6479SOL    HW220337   3.204   6.201   3.983
 6480SOL     OW20338   3.532   1.397   7.019
 6480SOL    HW120339   3.579   1.311   7.000
 6480SOL    HW220340   3.447   1.400   6.967
 6481SOL     OW20341   3.136   2.571   1.642
 6481SOL    HW120342   3.052   2.614   1.676
 6481SOL    HW220343   3.134   2.473   1.664
 6482SOL     OW20344   6.469   3.891   5.214
 6482SOL    HW120345   6.377   3.860   5.236
 6482SOL    HW220346   6.531   3.813   5.210
 6483SOL     OW20347   1.056   5.729   5.172
 6483SOL    HW120348   1.032   5.759   5.079
 6483SOL    HW220349   1.153   5.746   5.188
 6484SOL     OW20350   2.612   0.730   4.526
 6484SOL    HW120351   2.676   0.760   4.596
 6484SOL    HW220352   2.537   0.796   4.520
 6485SOL     OW20353   2.366   0.058   4.033
 6485SOL    HW120354   2.293   0.044   3.966
 6485SOL    HW220355   2.438   7.020   4.018
 6486SOL     OW20356   1.859   5.440   3.452
 6486SOL    HW120357   1.802   5.359   3.468
 6486SOL    HW220358   1.855   5.464   3.355
 6487SOL     OW20359   6.546   4.772   3.743
 6487SOL    HW120360   6.491   4.846   3.703
 6487SOL    HW220361   6.601   4.808   3.818
 6488SOL     OW20362   4.606   5.269   4.732
 6488SOL    HW120363   4.532   5.265   4.800
 6488SOL    HW220364   4.571   5.239   4.644
 6489SOL     OW20365   4.259   3.418   5.636
 6489SOL    HW120366   4.342   3.443   5.686
 6489SOL    HW220367   4.234   3.492   5.574
 6490SOL     OW20368   1.949   1.869   6.747
 6490SOL    HW120369   1.985   1.927   6.821
 6490SOL    HW220370   1.891   1.798   6.787
 6491SOL     OW20371   2.238   0.496   0.454
 6491SOL    HW120372   2.251   0.555   0.534
 6491SOL    HW220373   2.285   0.537   0.375
 6492SOL     OW20374   3.718   3.623   4.829
 6492SOL    HW120375   3.719   3.666   4.739
 6492SOL    HW220376   3.748   3.689   4.898
 6493SOL     OW20377   1.347   4.203   5.860
 6493SOL    HW120378   1.387   4.192   5.951
 6493SOL    HW220379   1.383   4.134   5.798
 6494SOL     OW20380   6.380   6.755   2.075
 6494SOL    HW120381   6.383   6.702   1.990
 6494SOL    HW220382   6.433   6.707   2.145
 6495SOL     OW20383   6.525   6.897   3.658
 6495SOL    HW120384   6.615   6.872   3.695
 6495SOL    HW220385   6.493   6.981   3.703
 6496SOL     OW20386   4.692   0.952   1.806
 6496SOL    HW120387   4.718   0.920   1.715
 6496SOL    HW220388   4.644   1.039   1.798
 6497SOL     OW20389   0.135   1.888   0.693
 6497SOL    HW120390   0.067   1.961   0.703
 6497SOL    HW220391   0.109   1.810   0.750
 6498SOL     OW20392   1.054   4.507   4.158
 6498SOL    HW120393   1.017   4.414   4.161
 6498SOL    HW220394   1.127   4.516   4.226
 6499SOL     OW20395   5.765   3.529   3.514
 6499SOL    HW120396   5.720   3.531   3.425
 6499SOL    HW220397   5.833   3.455   3.515
 6500SOL     OW20398   1.688   4.030   3.090
 6500SOL    HW120399   1.616   4.096   3.070
 6500SOL    HW220400   1.686   4.007   3.188
 6501SOL     OW20401   6.342   1.944   0.958
 6501SOL    HW120402   6.315   2.038   0.976
 6501SOL    HW220403   6.361   1.897   1.044
 6502SOL     OW20404   6.379   3.800   1.198
 6502SOL    HW120405   6.371   3.800   1.098
 6502SOL    HW220406   6.465   3.844   1.224
 6503SOL     OW20407   6.423   3.011   5.196
 6503SOL    HW120408   6.462   3.015   5.288
 6503SOL    HW220409   6.416   2.915   5.167
 6504SOL     OW20410   4.455   6.025   6.447
 6504SOL    HW120411   4.513   6.073   6.381
 6504SOL    HW220412   4.499   6.024   6.537
 6505SOL     OW20413   6.017   5.696   0.143
 6505SOL    HW120414   6.011   5.599   0.117
 6505SOL    HW220415   6.045   5.703   0.238
 6506SOL     OW20416   0.230   3.014   2.362
 6506SOL    HW120417   0.294   3.074   2.409
 6506SOL    HW220418   0.204   3.054   2.274
 6507SOL     OW20419   4.073   4.589   6.690
 6507SOL    HW120420   4.074   4.584   6.790
 6507SOL    HW220421   3.993   4.642   6.660
 6508SOL     OW20422   1.209   6.233   2.274
 6508SOL    HW120423   1.281   6.250   2.206
 6508SOL    HW220424   1.127   6.198   2.228
 6509SOL     OW20425   3.206   1.914   6.016
 6509SOL    HW120426   3.266   1.907   6.095
 6509SOL    HW220427   3.257   1.893   5.933
 6510SOL     OW20428   4.683   5.877   5.688
 6510SOL    HW120429   4.616   5.804   5.673
 6510SOL    HW220430   4.640   5.966   5.670
 6511SOL     OW20431   2.944   0.928   0.447
 6511SOL    HW120432   2.992   0.985   0.381
 6511SOL    HW220433   2.993   0.930   0.534
 6512SOL     OW20434   3.565   0.808   1.212
 6512SOL    HW120435   3.541   0.876   1.282
 6512SOL    HW220436   3.544   0.845   1.122
 6513SOL     OW20437   2.267   5.497   4.070
 6513SOL    HW120438   2.254   5.596   4.072
 6513SOL    HW220439   2.275   5.463   4.164
 6514SOL     OW20440   6.066   0.230   5.891
 6514SOL    HW120441   6.003   0.229   5.968
 6514SOL    HW220442   6.104   0.322   5.880
 6515SOL     OW20443   2.258   4.873   2.473
 6515SOL    HW120444   2.228   4.780   2.453
 6515SOL    HW220445   2.298   4.913   2.391
 6516SOL     OW20446   0.052   3.399   0.921
 6516SOL    HW120447   7.030   3.375   0.839
 6516SOL    HW220448   0.015   3.482   0.961
 6517SOL     OW20449   0.018   2.518   7.008
 6517SOL    HW120450   0.019   2.618   6.997
 6517SOL    HW220451   6.956   2.484   6.986
 6518SOL     OW20452   1.603   1.365   3.173
 6518SOL    HW120453   1.547   1.334   3.249
 6518SOL    HW220454   1.700   1.351   3.195
 6519SOL     OW20455   1.056   1.266   2.982
 6519SOL    HW120456   1.134   1.309   3.028
 6519SOL    HW220457   1.071   1.167   2.980
 6520SOL     OW20458   0.218   5.717   0.167
 6520SOL    HW120459   0.180   5.809   0.155
 6520SOL    HW220460   0.148   5.649   0.148
 6521SOL     OW20461   1.304   3.377   4.210
 6521SOL    HW120462   1.358   3.443   4.262
 6521SOL    HW220463   1.299   3.291   4.260
 6522SOL     OW20464   2.559   3.838   5.398
 6522SOL    HW120465   2.529   3.889   5.317
 6522SOL    HW220466   2.657   3.853   5.412
 6523SOL     OW20467   6.062   0.500   6.900
 6523SOL    HW120468   5.967   0.474   6.882
 6523SOL    HW220469   6.102   0.542   6.818
 6524SOL     OW20470   2.124   2.485   1.814
 6524SOL    HW120471   2.041   2.441   1.849
 6524SOL    HW220472   2.198   2.474   1.880
 6525SOL     OW20473   1.123   4.597   3.219
 6525SOL    HW120474   1.152   4.579   3.313
 6525SOL    HW220475   1.120   4.696   3.203
 6526SOL     OW20476   0.016   6.752   0.861
 6526SOL    HW120477   6.956   6.730   0.825
 6526SOL    HW220478   0.082   6.758   0.786
 6527SOL     OW20479   0.749   2.277   0.498
 6527SOL    HW120480   0.674   2.218   0.470
 6527SOL    HW220481   0.769   2.342   0.425
 6528SOL     OW20482   5.548   0.776   5.928
 6528SOL    HW120483   5.472   0.736   5.979
 6528SOL    HW220484   5.517   0.802   5.837
 6529SOL     OW20485   6.931   1.349   2.113
 6529SOL    HW120486   6.839   1.367   2.149
 6529SOL    HW220487   6.983   1.296   2.179
 6530SOL     OW20488   0.804   2.534   2.623
 6530SOL    HW120489   0.728   2.598   2.636
 6530SOL    HW220490   0.790   2.453   2.680
 6531SOL     OW20491   4.187   3.617   5.429
 6531SOL    HW120492   4.138   3.694   5.389
 6531SOL    HW220493   4.279   3.646   5.455
 6532SOL     OW20494   1.026   0.631   0.930
 6532SOL    HW120495   1.075   0.685   0.997
 6532SOL    HW220496   0.974   0.691   0.869
 6533SOL     OW20497   4.843   3.729   0.110
 6533SOL    HW120498   4.818   3.826   0.110
 6533SOL    HW220499   4.760   3.673   0.120
 6534SOL     OW20500   6.513   4.376   2.737
 6534SOL    HW120501   6.580   4.313   2.699
 6534SOL    HW220502   6.561   4.449   2.787
 6535SOL     OW20503   6.375   3.448   5.279
 6535SOL    HW120504   6.374   3.520   5.349
 6535SOL    HW220505   6.465   3.444   5.237
 6536SOL     OW20506   0.984   3.939   4.740
 6536SOL    HW120507   0.973   4.011   4.672
 6536SOL    HW220508   1.072   3.894   4.728
 6537SOL     OW20509   5.912   5.412   4.039
 6537SOL    HW120510   5.887   5.503   4.073
 6537SOL    HW220511   5.878   5.401   3.946
 6538SOL     OW20512   2.392   3.599   5.442
 6538SOL    HW120513   2.463   3.654   5.399
 6538SOL    HW220514   2.406   3.502   5.418
 6539SOL     OW20515   6.273   0.756   6.218
 6539SOL    HW120516   6.270   0.854   6.236
 6539SOL    HW220517   6.267   0.739   6.120
 6540SOL     OW20518   4.940   2.706   6.099
 6540SOL    HW120519   4.850   2.735   6.131
 6540SOL    HW220520   4.986   2.653   6.170
 6541SOL     OW20521   5.876   1.133   4.700
 6541SOL    HW120522   5.868   1.209   4.635
 6541SOL    HW220523   5.937   1.064   4.662
 6542SOL     OW20524   1.596   3.816   4.416
 6542SOL    HW120525   1.678   3.830   4.471
 6542SOL    HW220526   1.594   3.882   4.341
 6543SOL     OW20527   3.798   2.112   5.017
 6543SOL    HW120528   3.736   2.190   5.007
 6543SOL    HW220529   3.751   2.028   4.992
 6544SOL     OW20530   0.864   6.619   2.061
 6544SOL    HW120531   0.847   6.521   2.062
 6544SOL    HW220532   0.874   6.650   1.967
 6545SOL     OW20533   4.485   0.038   1.452
 6545SOL    HW120534   4.455   0.004   1.542
 6545SOL    HW220535   4.405   0.055   1.395
 6546SOL     OW20536   5.146   3.510   5.965
 6546SOL    HW120537   5.122   3.418   5.994
 6546SOL    HW220538   5.242   3.528   5.986
 6547SOL     OW20539   5.847   5.789   6.888
 6547SOL    HW120540   5.945   5.768   6.892
 6547SOL    HW220541   5.827   5.868   6.946
 6548SOL     OW20542   0.632   2.302   5.408
 6548SOL    HW120543   0.596   2.319   5.316
 6548SOL    HW220544   0.585   2.223   5.448
 6549SOL     OW20545   5.161   6.931   1.904
 6549SOL    HW120546   5.088   6.953   1.840
 6549SOL    HW220547   5.218   6.859   1.865
 6550SOL     OW20548   6.126   7.007   3.452
 6550SOL    HW120549   6.211   7.009   3.400
 6550SOL    HW220550   6.127   6.930   3.516
 6551SOL     OW20551   3.148   3.433   1.451
 6551SOL    HW120552   3.093   3.445   1.369
 6551SOL    HW220553   3.158   3.520   1.498
 6552SOL     OW20554   2.132   6.646   0.240
 6552SOL    HW120555   2.230   6.662   0.234
 6552SOL    HW220556   2.086   6.731   0.268
 6553SOL     OW20557   0.256   0.713   2.994
 6553SOL    HW120558   0.310   0.798   2.996
 6553SOL    HW220559   0.173   0.725   3.048
 6554SOL     OW20560   3.141   1.676   4.642
 6554SOL    HW120561   3.066   1.693   4.706
 6554SOL    HW220562   3.104   1.645   4.555
 6555SOL     OW20563   6.852   2.469   4.243
 6555SOL    HW120564   6.823   2.533   4.173
 6555SOL    HW220565   6.945   2.436   4.223
 6556SOL     OW20566   4.888   2.948   3.639
 6556SOL    HW120567   4.827   2.875   3.607
 6556SOL    HW220568   4.872   2.964   3.737
 6557SOL     OW20569   1.943   6.928   1.998
 6557SOL    HW120570   1.941   6.905   2.096
 6557SOL    HW220571   1.994   6.858   1.948
 6558SOL     OW20572   5.459   5.157   0.446
 6558SOL    HW120573   5.362   5.173   0.464
 6558SOL    HW220574   5.475   5.151   0.348
 6559SOL     OW20575   6.479   2.829   6.266
 6559SOL    HW120576   6.436   2.908   6.224
 6559SOL    HW220577   6.541   2.786   6.200
 6560SOL     OW20578   5.103   4.741   0.295
 6560SOL    HW120579   5.134   4.689   0.374
 6560SOL    HW220580   5.104   4.839   0.316
 6561SOL     OW20581   3.875   4.766   0.502
 6561SOL    HW120582   3.826   4.683   0.528
 6561SOL    HW220583   3.973   4.750   0.505
 6562SOL     OW20584   5.936   2.991   1.235
 6562SOL    HW120585   5.846   2.989   1.193
 6562SOL    HW220586   5.951   3.080   1.279
 6563SOL     OW20587   5.092   5.999   4.733
 6563SOL    HW120588   4.993   5.993   4.724
 6563SOL    HW220589   5.129   6.059   4.662
 6564SOL     OW20590   0.076   3.856   2.714
 6564SOL    HW120591   0.034   3.921   2.777
 6564SOL    HW220592   0.025   3.854   2.628
 6565SOL     OW20593   5.735   0.110   3.159
 6565SOL    HW120594   5.813   0.056   3.190
 6565SOL    HW220595   5.670   0.121   3.234
 6566SOL     OW20596   4.304   6.089   2.593
 6566SOL    HW120597   4.379   6.140   2.635
 6566SOL    HW220598   4.305   5.994   2.625
 6567SOL     OW20599   4.106   0.372   1.087
 6567SOL    HW120600   4.080   0.373   0.991
 6567SOL    HW220601   4.031   0.335   1.142
 6568SOL     OW20602   3.574   1.449   1.745
 6568SOL    HW120603   3.519   1.524   1.709
 6568SOL    HW220604   3.513   1.378   1.782
 6569SOL     OW20605   0.622   3.686   5.869
 6569SOL    HW120606   0.541   3.710   5.923
 6569SOL    HW220607   0.593   3.638   5.787
 6570SOL     OW20608   3.738   6.216   2.171
 6570SOL    HW120609   3.718   6.222   2.269
 6570SOL    HW220610   3.745   6.119   2.145
 6571SOL     OW20611   2.510   5.224   2.979
 6571SOL    HW120612   2.547   5.153   2.920
 6571SOL    HW220613   2.510   5.311   2.930
 6572SOL     OW20614   0.736   5.721   3.921
 6572SOL    HW120615   0.779   5.631   3.931
 6572SOL    HW220616   0.637   5.713   3.935
 6573SOL     OW20617   1.787   1.353   2.895
 6573SOL    HW120618   1.835   1.344   2.982
 6573SOL    HW220619   1.688   1.352   2.910
 6574SOL     OW20620   1.842   5.911   2.297
 6574SOL    HW120621   1.837   6.002   2.256
 6574SOL    HW220622   1.862   5.843   2.227
 6575SOL     OW20623   6.452   0.147   2.784
 6575SOL    HW120624   6.423   0.084   2.713
 6575SOL    HW220625   6.435   0.241   2.754
 6576SOL     OW20626   3.626   6.125   0.563
 6576SOL    HW120627   3.706   6.174   0.527
 6576SOL    HW220628   3.633   6.118   0.663
 6577SOL     OW20629   1.819   2.249   3.817
 6577SOL    HW120630   1.819   2.206   3.727
 6577SOL    HW220631   1.896   2.214   3.871
 6578SOL     OW20632   1.628   4.842   2.080
 6578SOL    HW120633   1.714   4.791   2.085
 6578SOL    HW220634   1.584   4.842   2.170
 6579SOL     OW20635   6.947   1.454   4.066
 6579SOL    HW120636   6.978   1.494   4.153
 6579SOL    HW220637   6.917   1.528   4.005
 6580SOL     OW20638   0.936   0.128   0.315
 6580SOL    HW120639   0.860   0.191   0.330
 6580SOL    HW220640   1.000   0.133   0.392
 6581SOL     OW20641   1.539   1.728   6.960
 6581SOL    HW120642   1.538   1.628   6.966
 6581SOL    HW220643   1.448   1.760   6.935
 6582SOL     OW20644   6.461   0.959   2.681
 6582SOL    HW120645   6.547   1.004   2.704
 6582SOL    HW220646   6.472   0.860   2.686
 6583SOL     OW20647   4.451   6.244   0.043
 6583SOL    HW120648   4.473   6.335   0.079
 6583SOL    HW220649   4.424   6.252   6.977
 6584SOL     OW20650   2.925   2.108   1.153
 6584SOL    HW120651   2.882   2.050   1.222
 6584SOL    HW220652   2.958   2.192   1.196
 6585SOL     OW20653   5.517   0.196   1.315
 6585SOL    HW120654   5.472   0.109   1.294
 6585SOL    HW220655   5.580   0.183   1.392
 6586SOL     OW20656   6.244   2.318   6.062
 6586SOL    HW120657   6.306   2.395   6.075
 6586SOL    HW220658   6.173   2.319   6.132
 6587SOL     OW20659   1.584   4.117   5.484
 6587SOL    HW120660   1.528   4.074   5.554
 6587SOL    HW220661   1.624   4.202   5.520
 6588SOL     OW20662   0.718   3.073   0.490
 6588SOL    HW120663   0.682   3.080   0.397
 6588SOL    HW220664   0.645   3.045   0.552
 6589SOL     OW20665   0.010   1.074   1.986
 6589SOL    HW120666   0.047   1.111   1.900
 6589SOL    HW220667   6.949   1.114   2.002
 6590SOL     OW20668   1.283   0.202   4.232
 6590SOL    HW120669   1.381   0.215   4.217
 6590SOL    HW220670   1.242   0.289   4.260
 6591SOL     OW20671   5.574   4.602   4.048
 6591SOL    HW120672   5.483   4.623   4.011
 6591SOL    HW220673   5.636   4.677   4.029
 6592SOL     OW20674   5.106   6.426   2.907
 6592SOL    HW120675   5.098   6.441   3.005
 6592SOL    HW220676   5.158   6.342   2.890
 6593SOL     OW20677   2.694   1.870   2.821
 6593SOL    HW120678   2.647   1.867   2.733
 6593SOL    HW220679   2.645   1.932   2.883
 6594SOL     OW20680   3.899   1.858   6.152
 6594SOL    HW120681   3.901   1.771   6.104
 6594SOL    HW220682   3.984   1.868   6.205
 6595SOL     OW20683   1.531   2.383   4.816
 6595SOL    HW120684   1.597   2.389   4.891
 6595SOL    HW220685   1.531   2.289   4.780
 6596SOL     OW20686   5.711   5.981   2.914
 6596SOL    HW120687   5.763   5.895   2.913
 6596SOL    HW220688   5.769   6.055   2.945
 6597SOL     OW20689   1.574   4.857   2.554
 6597SOL    HW120690   1.587   4.951   2.588
 6597SOL    HW220691   1.592   4.793   2.629
 6598SOL     OW20692   1.768   4.700   4.146
 6598SOL    HW120693   1.828   4.776   4.173
 6598SOL    HW220694   1.706   4.679   4.221
 6599SOL     OW20695   5.851   5.793   6.333
 6599SOL    HW120696   5.848   5.765   6.237
 6599SOL    HW220697   5.762   5.831   6.359
 6600SOL     OW20698   4.401   6.989   5.694
 6600SOL    HW120699   4.305   7.016   5.680
 6600SOL    HW220700   4.404   6.894   5.724
 6601SOL     OW20701   1.534   2.711   1.960
 6601SOL    HW120702   1.588   2.793   1.978
 6601SOL    HW220703   1.575   2.660   1.885
 6602SOL     OW20704   2.131   6.838   1.555
 6602SOL    HW120705   2.088   6.790   1.478
 6602SOL    HW220706   2.072   6.914   1.583
 6603SOL     OW20707   0.554   2.917   3.314
 6603SOL    HW120708   0.616   2.977   3.263
 6603SOL    HW220709   0.531   2.960   3.401
 6604SOL     OW20710   1.777   6.577   2.154
 6604SOL    HW120711   1.772   6.607   2.058
 6604SOL    HW220712   1.686   6.580   2.195
 6605SOL     OW20713   6.327   5.383   1.491
 6605SOL    HW120714   6.330   5.299   1.437
 6605SOL    HW220715   6.368   5.458   1.438
 6606SOL     OW20716   1.740   3.454   3.829
 6606SOL    HW120717   1.694   3.521   3.772
 6606SOL    HW220718   1.673   3.390   3.867
 6607SOL     OW20719   5.817   3.925   3.390
 6607SOL    HW120720   5.889   3.858   3.372
 6607SOL    HW220721   5.774   3.905   3.478
 6608SOL     OW20722   0.456   6.988   6.171
 6608SOL    HW120723   0.484   0.005   6.255
 6608SOL    HW220724   0.422   6.897   6.193
 6609SOL     OW20725   4.399   2.084   5.868
 6609SOL    HW120726   4.329   2.075   5.798
 6609SOL    HW220727   4.356   2.108   5.955
 6610SOL     OW20728   3.261   5.167   1.093
 6610SOL    HW120729   3.185   5.230   1.112
 6610SOL    HW220730   3.316   5.155   1.175
 6611SOL     OW20731   4.649   1.884   4.064
 6611SOL    HW120732   4.552   1.879   4.089
 6611SOL    HW220733   4.691   1.794   4.075
 6612SOL     OW20734   5.743   1.949   6.120
 6612SOL    HW120735   5.832   1.942   6.074
 6612SOL    HW220736   5.755   1.990   6.210
 6613SOL     OW20737   5.139   0.422   6.819
 6613SOL    HW120738   5.117   0.324   6.830
 6613SOL    HW220739   5.133   0.447   6.723
 6614SOL     OW20740   4.282   5.858   1.808
 6614SOL    HW120741   4.335   5.939   1.835
 6614SOL    HW220742   4.287   5.847   1.709
 6615SOL     OW20743   2.762   5.568   0.695
 6615SOL    HW120744   2.749   5.597   0.790
 6615SOL    HW220745   2.852   5.525   0.686
 6616SOL     OW20746   4.726   0.974   5.785
 6616SOL    HW120747   4.697   0.889   5.740
 6616SOL    HW220748   4.821   0.966   5.813
 6617SOL     OW20749   4.341   0.684   3.821
 6617SOL    HW120750   4.421   0.630   3.846
 6617SOL    HW220751   4.370   0.775   3.791
 6618SOL     OW20752   0.384   2.212   2.815
 6618SOL    HW120753   0.292   2.223   2.779
 6618SOL    HW220754   0.420   2.301   2.843
 6619SOL     OW20755   5.073   6.443   3.662
 6619SOL    HW120756   5.025   6.358   3.684
 6619SOL    HW220757   5.007   6.517   3.651
 6620SOL     OW20758   0.680   3.451   3.608
 6620SOL    HW120759   0.622   3.479   3.684
 6620SOL    HW220760   0.727   3.366   3.632
 6621SOL     OW20761   3.878   3.197   4.737
 6621SOL    HW120762   3.893   3.106   4.775
 6621SOL    HW220763   3.926   3.206   4.650
 6622SOL     OW20764   0.256   6.180   0.732
 6622SOL    HW120765   0.263   6.277   0.753
 6622SOL    HW220766   0.300   6.161   0.644
 6623SOL     OW20767   3.511   4.390   5.750
 6623SOL    HW120768   3.477   4.313   5.697
 6623SOL    HW220769   3.453   4.402   5.831
 6624SOL     OW20770   0.897   2.383   4.494
 6624SOL    HW120771   0.996   2.376   4.505
 6624SOL    HW220772   0.860   2.437   4.570
 6625SOL     OW20773   5.852   2.470   5.502
 6625SOL    HW120774   5.894   2.412   5.571
 6625SOL    HW220775   5.780   2.525   5.543
 6626SOL     OW20776   3.032   6.367   4.940
 6626SOL    HW120777   2.934   6.387   4.945
 6626SOL    HW220778   3.046   6.280   4.892
 6627SOL     OW20779   1.116   6.074   4.515
 6627SOL    HW120780   1.098   6.172   4.505
 6627SOL    HW220781   1.051   6.023   4.459
 6628SOL     OW20782   4.697   5.422   4.004
 6628SOL    HW120783   4.614   5.444   4.055
 6628SOL    HW220784   4.744   5.507   3.980
 6629SOL     OW20785   5.494   5.908   0.032
 6629SOL    HW120786   5.453   5.931   0.120
 6629SOL    HW220787   5.574   5.966   0.016
 6630SOL     OW20788   2.419   1.582   1.297
 6630SOL    HW120789   2.417   1.588   1.397
 6630SOL    HW220790   2.482   1.651   1.261
 6631SOL     OW20791   1.751   4.627   5.808
 6631SOL    HW120792   1.805   4.711   5.809
 6631SOL    HW220793   1.693   4.625   5.726
 6632SOL     OW20794   1.125   0.261   0.470
 6632SOL    HW120795   1.045   0.312   0.504
 6632SOL    HW220796   1.203   0.322   0.464
 6633SOL     OW20797   3.253   5.693   6.449
 6633SOL    HW120798   3.294   5.694   6.358
 6633SOL    HW220799   3.284   5.773   6.501
 6634SOL     OW20800   4.927   1.483   5.111
 6634SOL    HW120801   4.850   1.535   5.073
 6634SOL    HW220802   4.922   1.487   5.211
 6635SOL     OW20803   5.442   4.904   2.371
 6635SOL    HW120804   5.372   4.879   2.304
 6635SOL    HW220805   5.465   4.824   2.427
 6636SOL     OW20806   3.554   7.006   2.006
 6636SOL    HW120807   3.477   0.032   1.975
 6636SOL    HW220808   3.524   6.945   2.079
 6637SOL     OW20809   1.229   0.973   0.615
 6637SOL    HW120810   1.262   0.879   0.618
 6637SOL    HW220811   1.307   1.036   0.612
 6638SOL     OW20812   3.085   3.989   3.708
 6638SOL    HW120813   3.064   3.908   3.654
 6638SOL    HW220814   3.159   4.040   3.664
 6639SOL     OW20815   4.929   2.700   1.366
 6639SOL    HW120816   4.920   2.795   1.338
 6639SOL    HW220817   4.850   2.673   1.421
 6640SOL     OW20818   1.055   2.856   5.274
 6640SOL    HW120819   0.961   2.874   5.305
 6640SOL    HW220820   1.098   2.942   5.247
 6641SOL     OW20821   4.204   2.180   1.312
 6641SOL    HW120822   4.158   2.187   1.224
 6641SOL    HW220823   4.135   2.179   1.385
 6642SOL     OW20824   1.293   5.485   0.294
 6642SOL    HW120825   1.308   5.513   0.389
 6642SOL    HW220826   1.344   5.401   0.276
 6643SOL     OW20827   4.720   6.881   0.096
 6643SOL    HW120828   4.787   6.873   0.170
 6643SOL    HW220829   4.726   6.800   0.036
 6644SOL     OW20830   1.919   6.660   3.067
 6644SOL    HW120831   2.005   6.673   3.116
 6644SOL    HW220832   1.861   6.741   3.078
 6645SOL     OW20833   6.278   2.415   0.451
 6645SOL    HW120834   6.237   2.505   0.435
 6645SOL    HW220835   6.231   2.369   0.527
 6646SOL     OW20836   3.860   0.055   6.678
 6646SOL    HW120837   3.867   6.985   6.683
 6646SOL    HW220838   3.933   0.096   6.732
 6647SOL     OW20839   4.639   5.092   1.136
 6647SOL    HW120840   4.671   5.157   1.204
 6647SOL    HW220841   4.553   5.125   1.097
 6648SOL     OW20842   2.530   6.384   5.510
 6648SOL    HW120843   2.476   6.467   5.522
 6648SOL    HW220844   2.614   6.406   5.461
 6649SOL     OW20845   5.950   2.151   6.902
 6649SOL    HW120846   5.988   2.149   6.995
 6649SOL    HW220847   5.871   2.089   6.898
 6650SOL     OW20848   2.742   1.378   5.185
 6650SOL    HW120849   2.839   1.405   5.177
 6650SOL    HW220850   2.701   1.380   5.094
 6651SOL     OW20851   0.655   1.792   0.002
 6651SOL    HW120852   0.559   1.778   7.010
 6651SOL    HW220853   0.683   1.728   0.074
 6652SOL     OW20854   0.958   4.473   0.348
 6652SOL    HW120855   0.988   4.564   0.376
 6652SOL    HW220856   0.897   4.435   0.417
 6653SOL     OW20857   5.723   2.718   0.789
 6653SOL    HW120858   5.671   2.802   0.807
 6653SOL    HW220859   5.694   2.679   0.702
 6654SOL     OW20860   0.757   4.462   2.876
 6654SOL    HW120861   0.679   4.410   2.910
 6654SOL    HW220862   0.805   4.504   2.954
 6655SOL     OW20863   6.855   5.149   1.632
 6655SOL    HW120864   6.853   5.240   1.590
 6655SOL    HW220865   6.911   5.152   1.715
 6656SOL     OW20866   4.641   1.761   2.598
 6656SOL    HW120867   4.567   1.695   2.610
 6656SOL    HW220868   4.725   1.725   2.640
 6657SOL     OW20869   5.651   2.364   4.235
 6657SOL    HW120870   5.622   2.305   4.309
 6657SOL    HW220871   5.576   2.426   4.210
 6658SOL     OW20872   6.155   6.617   4.957
 6658SOL    HW120873   6.135   6.525   4.989
 6658SOL    HW220874   6.144   6.621   4.858
 6659SOL     OW20875   1.301   4.826   1.983
 6659SOL    HW120876   1.237   4.774   1.928
 6659SOL    HW220877   1.366   4.873   1.924
 6660SOL     OW20878   0.456   6.055   3.260
 6660SOL    HW120879   0.535   6.008   3.221
 6660SOL    HW220880   0.447   6.030   3.357
 6661SOL     OW20881   3.094   6.478   3.771
 6661SOL    HW120882   3.110   6.393   3.821
 6661SOL    HW220883   3.096   6.460   3.673
 6662SOL     OW20884   2.724   0.053   2.226
 6662SOL    HW120885   2.729   0.143   2.270
 6662SOL    HW220886   2.636   0.011   2.247
 6663SOL     OW20887   1.621   4.528   6.032
 6663SOL    HW120888   1.701   4.564   5.984
 6663SOL    HW220889   1.548   4.510   5.966
 6664SOL     OW20890   2.867   0.739   1.894
 6664SOL    HW120891   2.877   0.640   1.901
 6664SOL    HW220892   2.952   0.783   1.923
 6665SOL     OW20893   2.621   0.690   5.940
 6665SOL    HW120894   2.680   0.610   5.953
 6665SOL    HW220895   2.654   0.764   5.998
 6666SOL     OW20896   5.499   6.106   4.901
 6666SOL    HW120897   5.569   6.175   4.922
 6666SOL    HW220898   5.458   6.074   4.987
 6667SOL     OW20899   6.531   6.592   6.615
 6667SOL    HW120900   6.529   6.558   6.521
 6667SOL    HW220901   6.506   6.518   6.678
 6668SOL     OW20902   0.015   6.142   0.983
 6668SOL    HW120903   6.954   6.105   0.964
 6668SOL    HW220904   0.037   6.212   0.915
 6669SOL     OW20905   2.061   1.625   1.980
 6669SOL    HW120906   2.120   1.706   1.983
 6669SOL    HW220907   2.005   1.628   1.897
 6670SOL     OW20908   3.434   2.514   0.542
 6670SOL    HW120909   3.396   2.429   0.580
 6670SOL    HW220910   3.533   2.511   0.549
 6671SOL     OW20911   5.329   6.359   0.058
 6671SOL    HW120912   5.256   6.395   7.029
 6671SOL    HW220913   5.409   6.418   0.052
 6672SOL     OW20914   1.417   2.201   0.656
 6672SOL    HW120915   1.391   2.286   0.703
 6672SOL    HW220916   1.494   2.219   0.595
 6673SOL     OW20917   5.777   3.784   4.301
 6673SOL    HW120918   5.694   3.800   4.354
 6673SOL    HW220919   5.763   3.816   4.207
 6674SOL     OW20920   0.223   2.757   6.783
 6674SOL    HW120921   0.320   2.755   6.806
 6674SOL    HW220922   0.197   2.668   6.745
 6675SOL     OW20923   4.426   2.878   6.697
 6675SOL    HW120924   4.437   2.961   6.751
 6675SOL    HW220925   4.426   2.900   6.600
 6676SOL     OW20926   1.510   3.901   3.601
 6676SOL    HW120927   1.494   3.893   3.503
 6676SOL    HW220928   1.458   3.831   3.650
 6677SOL     OW20929   0.571   1.546   0.519
 6677SOL    HW120930   0.654   1.582   0.562
 6677SOL    HW220931   0.495   1.609   0.535
 6678SOL     OW20932   1.547   4.892   0.386
 6678SOL    HW120933   1.634   4.890   0.337
 6678SOL    HW220934   1.562   4.913   0.482
 6679SOL     OW20935   2.533   1.042   4.027
 6679SOL    HW120936   2.570   1.104   4.096
 6679SOL    HW220937   2.606   0.985   3.990
 6680SOL     OW20938   5.705   6.518   0.364
 6680SOL    HW120939   5.733   6.462   0.285
 6680SOL    HW220940   5.757   6.603   0.364
 6681SOL     OW20941   4.208   5.778   1.381
 6681SOL    HW120942   4.275   5.752   1.450
 6681SOL    HW220943   4.129   5.821   1.426
 6682SOL     OW20944   3.161   5.249   6.776
 6682SOL    HW120945   3.097   5.276   6.705
 6682SOL    HW220946   3.138   5.158   6.809
 6683SOL     OW20947   6.216   3.308   6.797
 6683SOL    HW120948   6.296   3.360   6.768
 6683SOL    HW220949   6.225   3.212   6.770
 6684SOL     OW20950   3.589   6.913   1.739
 6684SOL    HW120951   3.567   6.934   1.835
 6684SOL    HW220952   3.545   6.827   1.714
 6685SOL     OW20953   3.908   3.431   6.994
 6685SOL    HW120954   4.005   3.423   6.970
 6685SOL    HW220955   3.893   3.394   0.056
 6686SOL     OW20956   5.608   5.260   3.814
 6686SOL    HW120957   5.566   5.350   3.823
 6686SOL    HW220958   5.603   5.212   3.901
 6687SOL     OW20959   6.599   2.192   1.973
 6687SOL    HW120960   6.501   2.211   1.968
 6687SOL    HW220961   6.640   2.247   2.045
 6688SOL     OW20962   3.949   5.038   1.301
 6688SOL    HW120963   4.004   5.118   1.276
 6688SOL    HW220964   3.934   5.037   1.400
 6689SOL     OW20965   3.028   5.107   6.225
 6689SOL    HW120966   3.041   5.178   6.294
 6689SOL    HW220967   3.035   5.148   6.134
 6690SOL     OW20968   0.950   0.179   5.813
 6690SOL    HW120969   0.981   0.270   5.838
 6690SOL    HW220970   0.975   0.160   5.718
 6691SOL     OW20971   2.179   1.889   2.610
 6691SOL    HW120972   2.099   1.885   2.550
 6691SOL    HW220973   2.177   1.974   2.662
 6692SOL     OW20974   4.735   4.966   1.542
 6692SOL    HW120975   4.642   4.979   1.507
 6692SOL    HW220976   4.800   4.988   1.470
 6693SOL     OW20977   4.367   1.395   4.587
 6693SOL    HW120978   4.297   1.412   4.657
 6693SOL    HW220979   4.344   1.445   4.504
 6694SOL     OW20980   3.808   5.741   0.937
 6694SOL    HW120981   3.851   5.672   0.879
 6694SOL    HW220982   3.830   5.723   1.032
 6695SOL     OW20983   2.633   2.135   6.755
 6695SOL    HW120984   2.696   2.194   6.806
 6695SOL    HW220985   2.558   2.108   6.815
 6696SOL     OW20986   4.159   3.497   4.325
 6696SOL    HW120987   4.240   3.461   4.371
 6696SOL    HW220988   4.142   3.446   4.241
 6697SOL     OW20989   4.706   2.386   2.297
 6697SOL    HW120990   4.749   2.318   2.356
 6697SOL    HW220991   4.724   2.364   2.202
 6698SOL     OW20992   3.471   4.232   1.832
 6698SOL    HW120993   3.375   4.251   1.809
 6698SOL    HW220994   3.531   4.283   1.770
 6699SOL     OW20995   1.096   4.918   5.590
 6699SOL    HW120996   1.137   4.910   5.499
 6699SOL    HW220997   1.148   4.983   5.644
 6700SOL     OW20998   6.109   0.520   0.791
 6700SOL    HW120999   6.114   0.620   0.789
 6700SOL    HW221000   6.140   0.487   0.880
 6701SOL     OW21001   5.704   6.810   1.528
 6701SOL    HW121002   5.610   6.776   1.533
 6701SOL    HW221003   5.714   6.868   1.448
 6702SOL     OW21004   2.425   2.230   0.835
 6702SOL    HW121005   2.395   2.275   0.919
 6702SOL    HW221006   2.504   2.173   0.855
 6703SOL     OW21007   1.937   1.897   5.914
 6703SOL    HW121008   1.877   1.972   5.884
 6703SOL    HW221009   1.902   1.858   5.999
 6704SOL     OW21010   3.714   1.454   5.232
 6704SOL    HW121011   3.656   1.425   5.156
 6704SOL    HW221012   3.725   1.379   5.297
 6705SOL     OW21013   6.383   3.555   1.398
 6705SOL    HW121014   6.365   3.529   1.303
 6705SOL    HW221015   6.297   3.552   1.450
 6706SOL     OW21016   0.362   6.229   1.457
 6706SOL    HW121017   0.380   6.311   1.512
 6706SOL    HW221018   0.263   6.216   1.447
 6707SOL     OW21019   5.935   0.325   2.388
 6707SOL    HW121020   5.974   0.255   2.328
 6707SOL    HW221021   5.882   0.390   2.333
 6708SOL     OW21022   0.244   3.881   1.409
 6708SOL    HW121023   0.303   3.839   1.478
 6708SOL    HW221024   0.301   3.921   1.337
 6709SOL     OW21025   1.213   4.686   2.312
 6709SOL    HW121026   1.190   4.658   2.219
 6709SOL    HW221027   1.129   4.702   2.364
 6710SOL     OW21028   4.461   1.071   2.258
 6710SOL    HW121029   4.435   0.996   2.319
 6710SOL    HW221030   4.406   1.152   2.279
 6711SOL     OW21031   4.657   6.146   6.309
 6711SOL    HW121032   4.661   6.243   6.284
 6711SOL    HW221033   4.680   6.136   6.406
 6712SOL     OW21034   5.823   3.538   0.612
 6712SOL    HW121035   5.883   3.464   0.581
 6712SOL    HW221036   5.838   3.619   0.556
 6713SOL     OW21037   1.618   0.174   4.212
 6713SOL    HW121038   1.565   0.106   4.263
 6713SOL    HW221039   1.635   0.254   4.271
 6714SOL     OW21040   5.646   1.331   0.522
 6714SOL    HW121041   5.653   1.375   0.612
 6714SOL    HW221042   5.598   1.244   0.532
 6715SOL     OW21043   1.189   0.843   1.095
 6715SOL    HW121044   1.185   0.914   1.024
 6715SOL    HW221045   1.183   0.886   1.185
 6716SOL     OW21046   6.882   5.255   2.570
 6716SOL    HW121047   6.844   5.163   2.564
 6716SOL    HW221048   6.821   5.314   2.624
 6717SOL     OW21049   3.462   2.639   6.655
 6717SOL    HW121050   3.434   2.595   6.570
 6717SOL    HW221051   3.444   2.577   6.732
 6718SOL     OW21052   3.388   0.538   2.453
 6718SOL    HW121053   3.289   0.529   2.443
 6718SOL    HW221054   3.412   0.535   2.550
 6719SOL     OW21055   1.870   0.241   6.598
 6719SOL    HW121056   1.946   0.259   6.535
 6719SOL    HW221057   1.826   0.155   6.572
 6720SOL     OW21058   2.408   0.903   5.656
 6720SOL    HW121059   2.391   0.807   5.632
 6720SOL    HW221060   2.473   0.907   5.732
 6721SOL     OW21061   0.661   1.257   0.489
 6721SOL    HW121062   0.643   1.354   0.505
 6721SOL    HW221063   0.575   1.210   0.471
 6722SOL     OW21064   5.992   2.997   0.158
 6722SOL    HW121065   6.009   3.075   0.099
 6722SOL    HW221066   6.048   3.004   0.240
 6723SOL     OW21067   1.747   1.981   6.152
 6723SOL    HW121068   1.664   1.951   6.105
 6723SOL    HW221069   1.804   1.902   6.172
 6724SOL     OW21070   1.886   3.405   5.803
 6724SOL    HW121071   1.845   3.322   5.839
 6724SOL    HW221072   1.972   3.384   5.757
 6725SOL     OW21073   6.112   2.984   3.276
 6725SOL    HW121074   6.166   3.068   3.276
 6725SOL    HW221075   6.167   2.908   3.242
 6726SOL     OW21076   0.001   0.943   5.632
 6726SOL    HW121077   6.936   0.953   5.602
 6726SOL    HW221078   0.055   1.018   5.595
 6727SOL     OW21079   1.130   4.549   5.818
 6727SOL    HW121080   1.068   4.519   5.892
 6727SOL    HW221081   1.225   4.536   5.847
 6728SOL     OW21082   4.033   2.081   3.634
 6728SOL    HW121083   3.997   1.992   3.662
 6728SOL    HW221084   4.133   2.078   3.635
 6729SOL     OW21085   4.953   1.834   1.220
 6729SOL    HW121086   4.854   1.826   1.229
 6729SOL    HW221087   4.990   1.752   1.177
 6730SOL     OW21088   1.450   1.127   1.099
 6730SOL    HW121089   1.467   1.066   1.176
 6730SOL    HW221090   1.484   1.085   1.015
 6731SOL     OW21091   3.032   6.219   1.030
 6731SOL    HW121092   3.000   6.194   0.938
 6731SOL    HW221093   2.998   6.310   1.054
 6732SOL     OW21094   5.931   4.667   4.561
 6732SOL    HW121095   5.944   4.577   4.519
 6732SOL    HW221096   6.002   4.683   4.629
 6733SOL     OW21097   3.353   5.622   6.723
 6733SOL    HW121098   3.382   5.531   6.694
 6733SOL    HW221099   3.260   5.639   6.692
 6734SOL     OW21100   5.180   1.572   5.040
 6734SOL    HW121101   5.087   1.547   5.065
 6734SOL    HW221102   5.226   1.493   5.000
 6735SOL     OW21103   5.971   3.329   3.614
 6735SOL    HW121104   6.002   3.234   3.618
 6735SOL    HW221105   6.038   3.384   3.564
 6736SOL     OW21106   3.494   3.895   1.146
 6736SOL    HW121107   3.412   3.861   1.192
 6736SOL    HW221108   3.470   3.926   1.054
 6737SOL     OW21109   1.332   2.844   1.481
 6737SOL    HW121110   1.341   2.895   1.567
 6737SOL    HW221111   1.317   2.747   1.502
 6738SOL     OW21112   1.927   5.666   3.559
 6738SOL    HW121113   1.910   5.570   3.540
 6738SOL    HW221114   2.020   5.690   3.530
 6739SOL     OW21115   6.610   0.143   4.182
 6739SOL    HW121116   6.593   0.053   4.222
 6739SOL    HW221117   6.533   0.204   4.204
 6740SOL     OW21118   6.500   6.489   4.434
 6740SOL    HW121119   6.542   6.571   4.475
 6740SOL    HW221120   6.413   6.513   4.392
 6741SOL     OW21121   4.533   1.892   5.707
 6741SOL    HW121122   4.626   1.896   5.743
 6741SOL    HW221123   4.473   1.950   5.763
 6742SOL     OW21124   5.600   4.424   3.275
 6742SOL    HW121125   5.555   4.470   3.198
 6742SOL    HW221126   5.692   4.461   3.287
 6743SOL     OW21127   4.304   4.083   0.202
 6743SOL    HW121128   4.292   4.027   0.283
 6743SOL    HW221129   4.216   4.093   0.155
 6744SOL     OW21130   6.442   5.565   6.477
 6744SOL    HW121131   6.529   5.527   6.508
 6744SOL    HW221132   6.416   5.522   6.390
 6745SOL     OW21133   0.058   6.260   4.134
 6745SOL    HW121134   6.999   6.301   4.112
 6745SOL    HW221135   0.099   6.311   4.210
 6746SOL     OW21136   1.760   1.603   2.771
 6746SOL    HW121137   1.767   1.521   2.827
 6746SOL    HW221138   1.770   1.684   2.830
 6747SOL     OW21139   0.883   6.971   6.692
 6747SOL    HW121140   0.856   6.962   6.787
 6747SOL    HW221141   0.840   6.898   6.638
 6748SOL     OW21142   2.726   1.691   4.169
 6748SOL    HW121143   2.755   1.786   4.162
 6748SOL    HW221144   2.636   1.681   4.127
 6749SOL     OW21145   3.573   4.237   0.856
 6749SOL    HW121146   3.539   4.258   0.765
 6749SOL    HW221147   3.673   4.240   0.856
 6750SOL     OW21148   2.890   1.709   4.529
 6750SOL    HW121149   2.900   1.807   4.516
 6750SOL    HW221150   2.793   1.685   4.524
 6751SOL     OW21151   4.555   0.084   3.313
 6751SOL    HW121152   4.467   0.131   3.311
 6751SOL    HW221153   4.565   0.035   3.399
 6752SOL     OW21154   1.768   6.467   2.957
 6752SOL    HW121155   1.834   6.538   2.982
 6752SOL    HW221156   1.771   6.452   2.858
 6753SOL     OW21157   3.878   2.680   5.686
 6753SOL    HW121158   3.817   2.749   5.646
 6753SOL    HW221159   3.940   2.724   5.751
 6754SOL     OW21160   5.811   0.690   1.309
 6754SOL    HW121161   5.763   0.767   1.350
 6754SOL    HW221162   5.746   0.618   1.285
 6755SOL     OW21163   3.071   4.943   0.753
 6755SOL    HW121164   3.089   4.890   0.836
 6755SOL    HW221165   3.146   4.930   0.688
 6756SOL     OW21166   2.302   1.609   5.832
 6756SOL    HW121167   2.311   1.591   5.735
 6756SOL    HW221168   2.251   1.695   5.846
 6757SOL     OW21169   3.246   0.714   0.726
 6757SOL    HW121170   3.206   0.643   0.667
 6757SOL    HW221171   3.281   0.671   0.809
 6758SOL     OW21172   5.461   2.546   0.844
 6758SOL    HW121173   5.532   2.563   0.913
 6758SOL    HW221174   5.378   2.596   0.869
 6759SOL     OW21175   0.070   3.299   2.915
 6759SOL    HW121176   0.145   3.239   2.888
 6759SOL    HW221177   0.106   3.392   2.929
 6760SOL     OW21178   5.650   2.818   2.766
 6760SOL    HW121179   5.709   2.794   2.689
 6760SOL    HW221180   5.685   2.899   2.812
 6761SOL     OW21181   4.720   2.119   4.588
 6761SOL    HW121182   4.787   2.048   4.609
 6761SOL    HW221183   4.754   2.176   4.513
 6762SOL     OW21184   6.864   5.323   3.842
 6762SOL    HW121185   6.833   5.414   3.813
 6762SOL    HW221186   6.803   5.288   3.913
 6763SOL     OW21187   4.574   5.998   4.834
 6763SOL    HW121188   4.578   6.096   4.816
 6763SOL    HW221189   4.620   5.979   4.921
 6764SOL     OW21190   1.604   5.674   2.297
 6764SOL    HW121191   1.645   5.694   2.208
 6764SOL    HW221192   1.530   5.608   2.285
 6765SOL     OW21193   6.161   5.041   3.819
 6765SOL    HW121194   6.142   5.079   3.910
 6765SOL    HW221195   6.121   4.950   3.812
 6766SOL     OW21196   4.704   6.197   0.235
 6766SOL    HW121197   4.759   6.249   0.300
 6766SOL    HW221198   4.620   6.247   0.213
 6767SOL     OW21199   3.019   0.490   0.925
 6767SOL    HW121200   3.065   0.569   0.967
 6767SOL    HW221201   3.065   0.406   0.952
 6768SOL     OW21202   1.794   0.875   7.001
 6768SOL    HW121203   1.790   0.801   6.934
 6768SOL    HW221204   1.883   0.873   0.017
 6769SOL     OW21205   3.197   2.635   0.434
 6769SOL    HW121206   3.267   2.651   0.504
 6769SOL    HW221207   3.240   2.607   0.349
 6770SOL     OW21208   6.893   0.716   1.575
 6770SOL    HW121209   6.894   0.619   1.554
 6770SOL    HW221210   6.849   0.766   1.500
 6771SOL     OW21211   4.746   2.263   3.168
 6771SOL    HW121212   4.836   2.297   3.193
 6771SOL    HW221213   4.717   2.304   3.081
 6772SOL     OW21214   3.134   1.206   2.543
 6772SOL    HW121215   3.093   1.219   2.633
 6772SOL    HW221216   3.077   1.251   2.474
 6773SOL     OW21217   6.779   4.079   1.504
 6773SOL    HW121218   6.776   4.048   1.599
 6773SOL    HW221219   6.873   4.080   1.472
 6774SOL     OW21220   6.942   2.583   6.115
 6774SOL    HW121221   6.993   2.502   6.087
 6774SOL    HW221222   7.000   2.664   6.106
 6775SOL     OW21223   2.695   3.443   0.805
 6775SOL    HW121224   2.641   3.490   0.875
 6775SOL    HW221225   2.681   3.344   0.813
 6776SOL     OW21226   4.374   4.596   0.343
 6776SOL    HW121227   4.419   4.679   0.311
 6776SOL    HW221228   4.415   4.516   0.298
 6777SOL     OW21229   4.188   4.671   6.206
 6777SOL    HW121230   4.247   4.686   6.126
 6777SOL    HW221231   4.244   4.646   6.284
 6778SOL     OW21232   0.328   4.033   2.066
 6778SOL    HW121233   0.379   4.085   1.997
 6778SOL    HW221234   0.390   4.001   2.137
 6779SOL     OW21235   6.735   4.163   6.756
 6779SOL    HW121236   6.694   4.178   6.846
 6779SOL    HW221237   6.717   4.243   6.698
 6780SOL     OW21238   1.079   2.374   2.432
 6780SOL    HW121239   1.025   2.432   2.372
 6780SOL    HW221240   1.051   2.387   2.527
 6781SOL     OW21241   5.571   6.333   5.070
 6781SOL    HW121242   5.528   6.390   5.139
 6781SOL    HW221243   5.510   6.257   5.046
 6782SOL     OW21244   0.316   0.376   2.679
 6782SOL    HW121245   0.286   0.408   2.769
 6782SOL    HW221246   0.294   0.445   2.610
 6783SOL     OW21247   0.358   6.724   6.272
 6783SOL    HW121248   0.436   6.662   6.277
 6783SOL    HW221249   0.291   6.687   6.207
 6784SOL     OW21250   4.050   4.206   0.451
 6784SOL    HW121251   4.012   4.276   0.390
 6784SOL    HW221252   4.140   4.236   0.483
 6785SOL     OW21253   5.923   4.751   2.443
 6785SOL    HW121254   5.837   4.700   2.429
 6785SOL    HW221255   5.937   4.765   2.541
 6786SOL     OW21256   1.287   1.861   6.885
 6786SOL    HW121257   1.188   1.855   6.879
 6786SOL    HW221258   1.327   1.857   6.793
 6787SOL     OW21259   2.128   3.831   1.001
 6787SOL    HW121260   2.076   3.843   1.086
 6787SOL    HW221261   2.111   3.908   0.940
 6788SOL     OW21262   2.737   3.867   1.693
 6788SOL    HW121263   2.782   3.844   1.780
 6788SOL    HW221264   2.783   3.820   1.618
 6789SOL     OW21265   0.222   6.782   2.239
 6789SOL    HW121266   0.289   6.730   2.293
 6789SOL    HW221267   0.144   6.723   2.217
 6790SOL     OW21268   1.492   4.079   0.328
 6790SOL    HW121269   1.588   4.074   0.356
 6790SOL    HW221270   1.440   4.006   0.372
 6791SOL     OW21271   3.794   2.472   0.983
 6791SOL    HW121272   3.722   2.402   0.983
 6791SOL    HW221273   3.817   2.496   1.077
 6792SOL     OW21274   6.871   6.210   6.230
 6792SOL    HW121275   6.951   6.153   6.212
 6792SOL    HW221276   6.850   6.265   6.148
 6793SOL     OW21277   0.685   2.440   0.721
 6793SOL    HW121278   0.704   2.378   0.645
 6793SOL    HW221279   0.718   2.531   0.699
 6794SOL     OW21280   5.274   1.345   4.906
 6794SOL    HW121281   5.318   1.384   4.826
 6794SOL    HW221282   5.313   1.256   4.926
 6795SOL     OW21283   2.386   6.079   0.841
 6795SOL    HW121284   2.481   6.082   0.812
 6795SOL    HW221285   2.373   6.005   0.907
 6796SOL     OW21286   5.743   0.943   2.318
 6796SOL    HW121287   5.761   1.031   2.275
 6796SOL    HW221288   5.687   0.955   2.399
 6797SOL     OW21289   4.949   3.614   1.571
 6797SOL    HW121290   4.919   3.627   1.476
 6797SOL    HW221291   4.907   3.532   1.608
 6798SOL     OW21292   5.551   5.612   2.822
 6798SOL    HW121293   5.455   5.636   2.818
 6798SOL    HW221294   5.562   5.514   2.805
 6799SOL     OW21295   5.965   5.795   0.421
 6799SOL    HW121296   6.014   5.883   0.421
 6799SOL    HW221297   5.867   5.812   0.415
 6800SOL     OW21298   2.060   4.432   0.522
 6800SOL    HW121299   2.122   4.499   0.562
 6800SOL    HW221300   1.992   4.478   0.466
 6801SOL     OW21301   1.706   1.288   2.084
 6801SOL    HW121302   1.776   1.228   2.046
 6801SOL    HW221303   1.729   1.309   2.180
 6802SOL     OW21304   2.629   6.068   0.692
 6802SOL    HW121305   2.702   6.000   0.693
 6802SOL    HW221306   2.665   6.157   0.665
 6803SOL     OW21307   4.700   2.532   6.714
 6803SOL    HW121308   4.627   2.565   6.774
 6803SOL    HW221309   4.663   2.465   6.650
 6804SOL     OW21310   2.634   5.446   3.431
 6804SOL    HW121311   2.625   5.545   3.439
 6804SOL    HW221312   2.545   5.406   3.412
 6805SOL     OW21313   5.769   6.595   4.686
 6805SOL    HW121314   5.701   6.639   4.628
 6805SOL    HW221315   5.819   6.664   4.737
 6806SOL     OW21316   5.075   1.326   3.628
 6806SOL    HW121317   5.085   1.274   3.544
 6806SOL    HW221318   5.096   1.422   3.610
 6807SOL     OW21319   2.412   3.202   0.167
 6807SOL    HW121320   2.402   3.270   0.240
 6807SOL    HW221321   2.442   3.115   0.205
 6808SOL     OW21322   0.600   3.080   5.390
 6808SOL    HW121323   0.654   3.133   5.455
 6808SOL    HW221324   0.530   3.028   5.439
 6809SOL     OW21325   1.685   4.303   0.015
 6809SOL    HW121326   1.601   4.344   7.010
 6809SOL    HW221327   1.764   4.349   7.003
 6810SOL     OW21328   1.679   0.486   1.654
 6810SOL    HW121329   1.640   0.575   1.674
 6810SOL    HW221330   1.616   0.433   1.598
 6811SOL     OW21331   4.910   4.164   0.464
 6811SOL    HW121332   4.819   4.189   0.496
 6811SOL    HW221333   4.922   4.192   0.369
 6812SOL     OW21334   3.620   3.224   3.411
 6812SOL    HW121335   3.557   3.205   3.486
 6812SOL    HW221336   3.575   3.205   3.324
 6813SOL     OW21337   4.752   1.536   1.587
 6813SOL    HW121338   4.796   1.537   1.677
 6813SOL    HW221339   4.667   1.587   1.590
 6814SOL     OW21340   3.271   2.811   1.075
 6814SOL    HW121341   3.191   2.778   1.025
 6814SOL    HW221342   3.354   2.774   1.033
 6815SOL     OW21343   3.275   0.166   1.479
 6815SOL    HW121344   3.274   0.076   1.435
 6815SOL    HW221345   3.331   0.229   1.425
 6816SOL     OW21346   6.683   5.289   0.309
 6816SOL    HW121347   6.643   5.294   0.217
 6816SOL    HW221348   6.634   5.221   0.364
 6817SOL     OW21349   6.663   1.619   5.216
 6817SOL    HW121350   6.584   1.663   5.259
 6817SOL    HW221351   6.650   1.520   5.215
 6818SOL     OW21352   2.701   6.087   1.950
 6818SOL    HW121353   2.632   6.159   1.939
 6818SOL    HW221354   2.660   5.998   1.933
 6819SOL     OW21355   3.700   0.869   3.907
 6819SOL    HW121356   3.702   0.969   3.904
 6819SOL    HW221357   3.606   0.838   3.925
 6820SOL     OW21358   1.355   4.943   3.362
 6820SOL    HW121359   1.339   5.041   3.363
 6820SOL    HW221360   1.415   4.919   3.286
 6821SOL     OW21361   2.927   1.884   5.135
 6821SOL    HW121362   2.959   1.912   5.226
 6821SOL    HW221363   2.879   1.797   5.142
 6822SOL     OW21364   5.674   1.719   5.932
 6822SOL    HW121365   5.761   1.756   5.965
 6822SOL    HW221366   5.600   1.756   5.987
 6823SOL     OW21367   3.896   3.508   4.128
 6823SOL    HW121368   3.894   3.517   4.228
 6823SOL    HW221369   3.808   3.538   4.090
 6824SOL     OW21370   0.647   2.851   6.100
 6824SOL    HW121371   0.677   2.930   6.153
 6824SOL    HW221372   0.551   2.833   6.118
 6825SOL     OW21373   4.749   6.851   2.246
 6825SOL    HW121374   4.703   6.811   2.167
 6825SOL    HW221375   4.763   6.781   2.316
 6826SOL     OW21376   2.116   3.688   3.029
 6826SOL    HW121377   2.176   3.760   3.061
 6826SOL    HW221378   2.093   3.703   2.932
 6827SOL     OW21379   5.043   6.147   0.384
 6827SOL    HW121380   5.092   6.124   0.300
 6827SOL    HW221381   4.973   6.215   0.365
 6828SOL     OW21382   1.735   2.367   1.629
 6828SOL    HW121383   1.816   2.372   1.687
 6828SOL    HW221384   1.708   2.271   1.617
 6829SOL     OW21385   4.929   6.694   3.601
 6829SOL    HW121386   4.938   6.767   3.668
 6829SOL    HW221387   5.020   6.670   3.567
 6830SOL     OW21388   5.588   1.360   3.143
 6830SOL    HW121389   5.522   1.304   3.093
 6830SOL    HW221390   5.578   1.456   3.116
 6831SOL     OW21391   1.062   0.474   6.205
 6831SOL    HW121392   1.030   0.400   6.265
 6831SOL    HW221393   1.076   0.438   6.113
 6832SOL     OW21394   2.902   4.489   1.246
 6832SOL    HW121395   2.833   4.515   1.179
 6832SOL    HW221396   2.891   4.543   1.329
 6833SOL     OW21397   4.424   5.456   0.216
 6833SOL    HW121398   4.503   5.479   0.160
 6833SOL    HW221399   4.342   5.499   0.177
 6834SOL     OW21400   4.549   6.492   1.692
 6834SOL    HW121401   4.600   6.534   1.767
 6834SOL    HW221402   4.452   6.486   1.717
 6835SOL     OW21403   4.265   6.882   5.236
 6835SOL    HW121404   4.206   6.872   5.316
 6835SOL    HW221405   4.225   6.834   5.159
 6836SOL     OW21406   3.290   6.310   0.751
 6836SOL    HW121407   3.311   6.243   0.680
 6836SOL    HW221408   3.194   6.299   0.779
 6837SOL     OW21409   1.650   3.411   2.319
 6837SOL    HW121410   1.706   3.371   2.392
 6837SOL    HW221411   1.707   3.428   2.239
 6838SOL     OW21412   1.642   0.670   0.887
 6838SOL    HW121413   1.652   0.736   0.814
 6838SOL    HW221414   1.595   0.713   0.965
 6839SOL     OW21415   4.857   0.841   0.433
 6839SOL    HW121416   4.804   0.779   0.491
 6839SOL    HW221417   4.835   0.935   0.456
 6840SOL     OW21418   2.189   2.219   5.590
 6840SOL    HW121419   2.185   2.127   5.552
 6840SOL    HW221420   2.098   2.259   5.592
 6841SOL     OW21421   5.939   3.381   5.817
 6841SOL    HW121422   5.916   3.323   5.739
 6841SOL    HW221423   5.865   3.378   5.884
 6842SOL     OW21424   2.419   4.767   1.016
 6842SOL    HW121425   2.451   4.840   1.076
 6842SOL    HW221426   2.469   4.682   1.036
 6843SOL     OW21427   5.308   0.014   6.658
 6843SOL    HW121428   5.209   0.013   6.675
 6843SOL    HW221429   5.336   0.105   6.628
 6844SOL     OW21430   5.411   0.837   4.352
 6844SOL    HW121431   5.353   0.917   4.361
 6844SOL    HW221432   5.361   0.765   4.303
 6845SOL     OW21433   6.005   2.779   2.958
 6845SOL    HW121434   5.935   2.771   3.028
 6845SOL    HW221435   6.030   2.875   2.946
 6846SOL     OW21436   3.048   4.070   6.982
 6846SOL    HW121437   3.071   3.998   6.916
 6846SOL    HW221438   2.984   4.134   6.941
 6847SOL     OW21439   6.499   4.141   4.720
 6847SOL    HW121440   6.579   4.165   4.665
 6847SOL    HW221441   6.518   4.059   4.773
 6848SOL     OW21442   5.191   4.161   3.973
 6848SOL    HW121443   5.185   4.063   3.989
 6848SOL    HW221444   5.266   4.199   4.027
 6849SOL     OW21445   3.498   4.601   5.503
 6849SOL    HW121446   3.576   4.546   5.534
 6849SOL    HW221447   3.450   4.638   5.583
 6850SOL     OW21448   4.315   2.333   3.148
 6850SOL    HW121449   4.234   2.299   3.195
 6850SOL    HW221450   4.292   2.356   3.053
 6851SOL     OW21451   2.217   2.957   2.855
 6851SOL    HW121452   2.234   2.903   2.772
 6851SOL    HW221453   2.259   2.911   2.934
 6852SOL     OW21454   2.840   5.197   1.002
 6852SOL    HW121455   2.868   5.167   0.911
 6852SOL    HW221456   2.919   5.232   1.052
 6853SOL     OW21457   5.391   3.597   6.054
 6853SOL    HW121458   5.461   3.662   6.083
 6853SOL    HW221459   5.401   3.512   6.106
 6854SOL     OW21460   5.139   6.323   5.577
 6854SOL    HW121461   5.089   6.402   5.614
 6854SOL    HW221462   5.236   6.334   5.594
 6855SOL     OW21463   4.347   5.635   3.504
 6855SOL    HW121464   4.447   5.628   3.498
 6855SOL    HW221465   4.306   5.562   3.450
 6856SOL     OW21466   0.463   2.433   6.007
 6856SOL    HW121467   0.438   2.517   6.056
 6856SOL    HW221468   0.480   2.454   5.911
 6857SOL     OW21469   1.186   3.191   6.821
 6857SOL    HW121470   1.203   3.289   6.815
 6857SOL    HW221471   1.227   3.154   6.904
 6858SOL     OW21472   3.238   4.285   1.718
 6858SOL    HW121473   3.146   4.288   1.758
 6858SOL    HW221474   3.245   4.352   1.645
 6859SOL     OW21475   0.993   1.469   1.652
 6859SOL    HW121476   0.945   1.500   1.570
 6859SOL    HW221477   1.070   1.529   1.671
 6860SOL     OW21478   0.171   4.981   2.349
 6860SOL    HW121479   0.153   4.886   2.374
 6860SOL    HW221480   0.105   5.010   2.280
 6861SOL     OW21481   4.787   3.138   5.576
 6861SOL    HW121482   4.832   3.058   5.617
 6861SOL    HW221483   4.688   3.124   5.574
 6862SOL     OW21484   0.712   4.698   6.186
 6862SOL    HW121485   0.726   4.734   6.094
 6862SOL    HW221486   0.697   4.774   6.249
 6863SOL     OW21487   6.880   6.075   4.736
 6863SOL    HW121488   6.946   6.005   4.761
 6863SOL    HW221489   6.892   6.099   4.639
 6864SOL     OW21490   1.737   3.965   6.093
 6864SOL    HW121491   1.697   3.904   6.161
 6864SOL    HW221492   1.778   3.911   6.020
 6865SOL     OW21493   2.096   0.882   5.020
 6865SOL    HW121494   2.042   0.827   4.956
 6865SOL    HW221495   2.170   0.928   4.971
 6866SOL     OW21496   6.260   4.009   2.095
 6866SOL    HW121497   6.165   4.010   2.064
 6866SOL    HW221498   6.280   4.094   2.144
 6867SOL     OW21499   1.467   4.491   1.016
 6867SOL    HW121500   1.429   4.445   1.096
 6867SOL    HW221501   1.544   4.438   0.980
 6868SOL     OW21502   2.067   5.921   5.716
 6868SOL    HW121503   2.122   5.860   5.773
 6868SOL    HW221504   1.973   5.922   5.749
 6869SOL     OW21505   3.834   6.855   5.584
 6869SOL    HW121506   3.756   6.796   5.605
 6869SOL    HW221507   3.845   6.924   5.655
 6870SOL     OW21508   1.012   3.435   0.055
 6870SOL    HW121509   1.017   3.348   0.104
 6870SOL    HW221510   0.924   3.478   0.072
 6871SOL     OW21511   6.851   3.351   2.032
 6871SOL    HW121512   6.789   3.362   2.110
 6871SOL    HW221513   6.945   3.346   2.066
 6872SOL     OW21514   1.309   2.752   2.216
 6872SOL    HW121515   1.345   2.729   2.126
 6872SOL    HW221516   1.360   2.830   2.253
 6873SOL     OW21517   1.294   4.081   4.184
 6873SOL    HW121518   1.233   4.023   4.237
 6873SOL    HW221519   1.389   4.062   4.209
 6874SOL     OW21520   6.195   5.601   2.994
 6874SOL    HW121521   6.178   5.624   3.090
 6874SOL    HW221522   6.159   5.674   2.936
 6875SOL     OW21523   1.592   3.042   1.900
 6875SOL    HW121524   1.678   3.078   1.935
 6875SOL    HW221525   1.588   3.055   1.801
 6876SOL     OW21526   3.484   0.124   3.564
 6876SOL    HW121527   3.386   0.106   3.558
 6876SOL    HW221528   3.511   0.130   3.660
 6877SOL     OW21529   2.667   4.470   1.700
 6877SOL    HW121530   2.607   4.502   1.773
 6877SOL    HW221531   2.760   4.460   1.736
 6878SOL     OW21532   2.175   1.280   3.841
 6878SOL    HW121533   2.219   1.224   3.770
 6878SOL    HW221534   2.132   1.221   3.908
 6879SOL     OW21535   2.363   2.212   0.443
 6879SOL    HW121536   2.370   2.289   0.506
 6879SOL    HW221537   2.450   2.200   0.394
 6880SOL     OW21538   0.948   6.013   6.109
 6880SOL    HW121539   1.009   6.012   6.188
 6880SOL    HW221540   1.000   6.037   6.027
 6881SOL     OW21541   1.675   3.924   0.720
 6881SOL    HW121542   1.585   3.968   0.718
 6881SOL    HW221543   1.698   3.892   0.628
 6882SOL     OW21544   2.542   0.882   6.987
 6882SOL    HW121545   2.496   0.951   6.931
 6882SOL    HW221546   2.632   0.862   6.947
 6883SOL     OW21547   5.346   0.704   6.484
 6883SOL    HW121548   5.324   0.715   6.581
 6883SOL    HW221549   5.276   0.749   6.429
 6884SOL     OW21550   2.055   4.211   2.797
 6884SOL    HW121551   2.014   4.291   2.755
 6884SOL    HW221552   2.025   4.204   2.892
 6885SOL     OW21553   4.873   4.759   4.277
 6885SOL    HW121554   4.892   4.765   4.179
 6885SOL    HW221555   4.871   4.663   4.305
 6886SOL     OW21556   5.755   1.254   5.211
 6886SOL    HW121557   5.854   1.267   5.217
 6886SOL    HW221558   5.734   1.157   5.216
 6887SOL     OW21559   4.960   5.879   6.657
 6887SOL    HW121560   4.970   5.899   6.755
 6887SOL    HW221561   5.045   5.903   6.610
 6888SOL     OW21562   5.707   3.959   6.454
 6888SOL    HW121563   5.617   3.975   6.412
 6888SOL    HW221564   5.745   4.047   6.485
 6889SOL     OW21565   1.427   2.537   5.920
 6889SOL    HW121566   1.516   2.557   5.879
 6889SOL    HW221567   1.426   2.567   6.015
 6890SOL     OW21568   3.686   5.713   3.005
 6890SOL    HW121569   3.603   5.767   2.988
 6890SOL    HW221570   3.704   5.710   3.103
 6891SOL     OW21571   2.227   2.894   1.448
 6891SOL    HW121572   2.193   2.830   1.517
 6891SOL    HW221573   2.206   2.988   1.476
 6892SOL     OW21574   3.266   1.530   4.260
 6892SOL    HW121575   3.323   1.612   4.265
 6892SOL    HW221576   3.169   1.556   4.266
 6893SOL     OW21577   6.226   3.592   6.961
 6893SOL    HW121578   6.173   3.645   7.027
 6893SOL    HW221579   6.177   3.508   6.939
 6894SOL     OW21580   5.502   4.323   1.387
 6894SOL    HW121581   5.480   4.227   1.370
 6894SOL    HW221582   5.445   4.381   1.328
 6895SOL     OW21583   1.273   6.175   0.521
 6895SOL    HW121584   1.177   6.184   0.496
 6895SOL    HW221585   1.304   6.082   0.501
 6896SOL     OW21586   3.647   1.809   4.503
 6896SOL    HW121587   3.674   1.829   4.409
 6896SOL    HW221588   3.590   1.884   4.538
 6897SOL     OW21589   4.932   3.813   4.898
 6897SOL    HW121590   4.875   3.738   4.934
 6897SOL    HW221591   5.026   3.782   4.889
 6898SOL     OW21592   2.375   1.070   1.289
 6898SOL    HW121593   2.338   1.159   1.315
 6898SOL    HW221594   2.420   1.028   1.368
 6899SOL     OW21595   5.688   5.949   2.587
 6899SOL    HW121596   5.758   5.890   2.629
 6899SOL    HW221597   5.695   6.041   2.626
 6900SOL     OW21598   6.898   4.473   6.258
 6900SOL    HW121599   6.822   4.536   6.274
 6900SOL    HW221600   6.888   4.393   6.317
 6901SOL     OW21601   4.584   4.649   6.812
 6901SOL    HW121602   4.644   4.580   6.852
 6901SOL    HW221603   4.629   4.690   6.732
 6902SOL     OW21604   6.770   6.269   5.959
 6902SOL    HW121605   6.817   6.308   5.880
 6902SOL    HW221606   6.673   6.258   5.938
 6903SOL     OW21607   2.530   4.850   5.359
 6903SOL    HW121608   2.477   4.783   5.307
 6903SOL    HW221609   2.619   4.863   5.315
 6904SOL     OW21610   0.226   5.973   5.638
 6904SOL    HW121611   0.267   6.062   5.621
 6904SOL    HW221612   0.280   5.902   5.593
 6905SOL     OW21613   5.205   5.445   0.074
 6905SOL    HW121614   5.173   5.351   0.083
 6905SOL    HW221615   5.304   5.447   0.087
 6906SOL     OW21616   3.775   1.873   3.774
 6906SOL    HW121617   3.826   1.874   3.859
 6906SOL    HW221618   3.744   1.965   3.752
 6907SOL     OW21619   6.418   2.262   1.539
 6907SOL    HW121620   6.408   2.176   1.588
 6907SOL    HW221621   6.495   2.255   1.476
 6908SOL     OW21622   2.169   4.435   6.795
 6908SOL    HW121623   2.161   4.352   6.739
 6908SOL    HW221624   2.261   4.473   6.784
 6909SOL     OW21625   5.278   4.939   2.138
 6909SOL    HW121626   5.182   4.927   2.161
 6909SOL    HW221627   5.302   5.036   2.146
 6910SOL     OW21628   1.529   3.446   2.969
 6910SOL    HW121629   1.514   3.469   2.873
 6910SOL    HW221630   1.617   3.401   2.979
 6911SOL     OW21631   3.638   7.025   5.415
 6911SOL    HW121632   3.719   6.973   5.440
 6911SOL    HW221633   3.556   6.969   5.428
 6912SOL     OW21634   2.110   3.127   6.246
 6912SOL    HW121635   2.138   3.149   6.340
 6912SOL    HW221636   2.140   3.200   6.185
 6913SOL     OW21637   5.155   6.016   5.008
 6913SOL    HW121638   5.095   5.963   5.067
 6913SOL    HW221639   5.144   5.986   4.913
 6914SOL     OW21640   6.242   3.778   1.594
 6914SOL    HW121641   6.182   3.753   1.670
 6914SOL    HW221642   6.196   3.760   1.508
 6915SOL     OW21643   0.916   3.271   1.987
 6915SOL    HW121644   0.982   3.272   1.912
 6915SOL    HW221645   0.823   3.275   1.950
 6916SOL     OW21646   5.281   0.862   6.083
 6916SOL    HW121647   5.299   0.766   6.100
 6916SOL    HW221648   5.238   0.873   5.993
 6917SOL     OW21649   4.885   5.560   1.602
 6917SOL    HW121650   4.982   5.537   1.606
 6917SOL    HW221651   4.871   5.654   1.631
 6918SOL     OW21652   0.480   2.988   2.154
 6918SOL    HW121653   0.541   2.943   2.219
 6918SOL    HW221654   0.397   2.933   2.142
 6919SOL     OW21655   5.967   6.726   2.700
 6919SOL    HW121656   6.020   6.789   2.757
 6919SOL    HW221657   5.878   6.709   2.743
 6920SOL     OW21658   4.747   0.490   5.215
 6920SOL    HW121659   4.740   0.405   5.163
 6920SOL    HW221660   4.685   0.486   5.293
 6921SOL     OW21661   4.273   6.991   4.471
 6921SOL    HW121662   4.216   6.949   4.401
 6921SOL    HW221663   4.236   0.051   4.495
 6922SOL     OW21664   2.121   5.994   4.292
 6922SOL    HW121665   2.084   5.989   4.385
 6922SOL    HW221666   2.220   6.004   4.296
 6923SOL     OW21667   6.047   6.385   2.600
 6923SOL    HW121668   5.974   6.423   2.656
 6923SOL    HW221669   6.107   6.458   2.569
 6924SOL     OW21670   3.473   6.162   1.330
 6924SOL    HW121671   3.392   6.218   1.312
 6924SOL    HW221672   3.488   6.155   1.428
 6925SOL     OW21673   5.160   6.183   6.342
 6925SOL    HW121674   5.108   6.266   6.320
 6925SOL    HW221675   5.245   6.182   6.290
 6926SOL     OW21676   2.128   1.402   0.425
 6926SOL    HW121677   2.100   1.465   0.352
 6926SOL    HW221678   2.173   1.454   0.498
 6927SOL     OW21679   3.897   0.954   0.522
 6927SOL    HW121680   3.964   0.883   0.545
 6927SOL    HW221681   3.934   1.014   0.451
 6928SOL     OW21682   5.170   5.393   0.718
 6928SOL    HW121683   5.230   5.455   0.768
 6928SOL    HW221684   5.129   5.441   0.640
 6929SOL     OW21685   5.249   5.042   1.466
 6929SOL    HW121686   5.234   4.970   1.534
 6929SOL    HW221687   5.286   5.001   1.383
 6930SOL     OW21688   0.808   0.927   0.365
 6930SOL    HW121689   0.871   0.986   0.417
 6930SOL    HW221690   0.861   0.858   0.315
 6931SOL     OW21691   2.418   2.051   1.344
 6931SOL    HW121692   2.458   2.023   1.257
 6931SOL    HW221693   2.360   2.131   1.330
 6932SOL     OW21694   4.934   5.075   0.230
 6932SOL    HW121695   4.915   4.982   0.263
 6932SOL    HW221696   4.852   5.131   0.242
 6933SOL     OW21697   3.557   6.229   6.077
 6933SOL    HW121698   3.532   6.295   6.147
 6933SOL    HW221699   3.524   6.261   5.988
 6934SOL     OW21700   4.931   3.922   6.609
 6934SOL    HW121701   4.904   3.871   6.527
 6934SOL    HW221702   4.919   3.863   6.689
 6935SOL     OW21703   4.663   5.505   2.056
 6935SOL    HW121704   4.708   5.456   2.130
 6935SOL    HW221705   4.614   5.439   1.998
 6936SOL     OW21706   0.587   2.291   4.206
 6936SOL    HW121707   0.643   2.370   4.182
 6936SOL    HW221708   0.645   2.219   4.244
 6937SOL     OW21709   5.868   6.310   0.523
 6937SOL    HW121710   5.880   6.408   0.539
 6937SOL    HW221711   5.941   6.259   0.568
 6938SOL     OW21712   0.413   0.981   4.530
 6938SOL    HW121713   0.432   0.913   4.460
 6938SOL    HW221714   0.480   1.054   4.526
 6939SOL     OW21715   6.383   5.115   3.436
 6939SOL    HW121716   6.340   5.202   3.462
 6939SOL    HW221717   6.368   5.097   3.339
 6940SOL     OW21718   4.907   6.637   0.678
 6940SOL    HW121719   4.978   6.604   0.616
 6940SOL    HW221720   4.867   6.721   0.642
 6941SOL     OW21721   2.981   3.849   2.294
 6941SOL    HW121722   2.921   3.771   2.312
 6941SOL    HW221723   2.937   3.911   2.229
 6942SOL     OW21724   6.442   6.456   1.974
 6942SOL    HW121725   6.477   6.370   1.937
 6942SOL    HW221726   6.514   6.526   1.969
 6943SOL     OW21727   3.530   4.600   6.996
 6943SOL    HW121728   3.528   4.519   0.025
 6943SOL    HW221729   3.617   4.603   6.947
 6944SOL     OW21730   0.917   4.491   6.001
 6944SOL    HW121731   0.824   4.527   5.991
 6944SOL    HW221732   0.913   4.394   6.025
 6945SOL     OW21733   6.148   2.257   0.638
 6945SOL    HW121734   6.231   2.207   0.665
 6945SOL    HW221735   6.075   2.239   0.703
 6946SOL     OW21736   3.953   5.876   2.052
 6946SOL    HW121737   4.024   5.946   2.053
 6946SOL    HW221738   3.972   5.810   1.979
 6947SOL     OW21739   4.477   4.887   6.401
 6947SOL    HW121740   4.422   4.907   6.482
 6947SOL    HW221741   4.457   4.956   6.331
 6948SOL     OW21742   0.191   6.433   1.182
 6948SOL    HW121743   0.102   6.432   1.137
 6948SOL    HW221744   0.231   6.341   1.178
 6949SOL     OW21745   2.820   2.336   3.752
 6949SOL    HW121746   2.856   2.295   3.836
 6949SOL    HW221747   2.832   2.436   3.755
 6950SOL     OW21748   1.432   6.995   4.356
 6950SOL    HW121749   1.434   6.934   4.277
 6950SOL    HW221750   1.376   6.955   4.428
 6951SOL     OW21751   6.483   5.431   6.851
 6951SOL    HW121752   6.396   5.429   6.802
 6951SOL    HW221753   6.488   5.513   6.908
 6952SOL     OW21754   2.910   5.191   3.044
 6952SOL    HW121755   2.978   5.151   3.105
 6952SOL    HW221756   2.957   5.237   2.968
 6953SOL     OW21757   5.150   6.838   0.710
 6953SOL    HW121758   5.148   6.751   0.661
 6953SOL    HW221759   5.137   6.821   0.807
 6954SOL     OW21760   0.195   3.538   1.238
 6954SOL    HW121761   0.148   3.565   1.322
 6954SOL    HW221762   0.175   3.442   1.219
 6955SOL     OW21763   5.562   0.013   2.422
 6955SOL    HW121764   5.468   0.035   2.447
 6955SOL    HW221765   5.618   0.009   2.505
 6956SOL     OW21766   6.108   5.887   1.880
 6956SOL    HW121767   6.022   5.860   1.924
 6956SOL    HW221768   6.119   5.986   1.886
 6957SOL     OW21769   5.411   6.079   6.222
 6957SOL    HW121770   5.439   6.055   6.316
 6957SOL    HW221771   5.449   6.012   6.158
 6958SOL     OW21772   3.631   3.571   4.010
 6958SOL    HW121773   3.569   3.493   3.998
 6958SOL    HW221774   3.674   3.593   3.922
 6959SOL     OW21775   1.297   4.001   3.136
 6959SOL    HW121776   1.223   3.960   3.083
 6959SOL    HW221777   1.352   4.061   3.077
 6960SOL     OW21778   1.547   4.866   0.691
 6960SOL    HW121779   1.510   4.953   0.722
 6960SOL    HW221780   1.472   4.802   0.675
 6961SOL     OW21781   4.133   1.146   4.786
 6961SOL    HW121782   4.049   1.096   4.767
 6961SOL    HW221783   4.211   1.084   4.781
 6962SOL     OW21784   3.708   6.484   0.085
 6962SOL    HW121785   3.783   6.509   0.024
 6962SOL    HW221786   3.712   6.387   0.107
 6963SOL     OW21787   4.828   6.358   0.404
 6963SOL    HW121788   4.895   6.430   0.426
 6963SOL    HW221789   4.741   6.380   0.449
 6964SOL     OW21790   2.868   0.208   5.560
 6964SOL    HW121791   2.945   0.177   5.504
 6964SOL    HW221792   2.890   0.195   5.657
 6965SOL     OW21793   1.152   2.215   0.382
 6965SOL    HW121794   1.078   2.172   0.330
 6965SOL    HW221795   1.207   2.144   0.426
 6966SOL     OW21796   1.210   0.500   2.331
 6966SOL    HW121797   1.262   0.422   2.296
 6966SOL    HW221798   1.254   0.585   2.301
 6967SOL     OW21799   3.554   1.767   6.007
 6967SOL    HW121800   3.612   1.698   6.051
 6967SOL    HW221801   3.467   1.773   6.056
 6968SOL     OW21802   3.610   0.040   3.164
 6968SOL    HW121803   3.614   0.104   3.087
 6968SOL    HW221804   3.518   0.039   3.202
 6969SOL     OW21805   2.624   1.747   1.202
 6969SOL    HW121806   2.640   1.652   1.229
 6969SOL    HW221807   2.687   1.807   1.251
 6970SOL     OW21808   3.167   4.866   6.305
 6970SOL    HW121809   3.150   4.789   6.243
 6970SOL    HW221810   3.124   4.948   6.267
 6971SOL     OW21811   5.374   4.477   1.207
 6971SOL    HW121812   5.322   4.410   1.154
 6971SOL    HW221813   5.318   4.559   1.220
 6972SOL     OW21814   4.863   3.438   3.043
 6972SOL    HW121815   4.835   3.534   3.042
 6972SOL    HW221816   4.962   3.432   3.046
 6973SOL     OW21817   1.268   1.951   2.479
 6973SOL    HW121818   1.353   2.001   2.463
 6973SOL    HW221819   1.219   1.941   2.393
 6974SOL     OW21820   3.193   3.855   2.507
 6974SOL    HW121821   3.120   3.876   2.443
 6974SOL    HW221822   3.252   3.783   2.469
 6975SOL     OW21823   3.137   5.618   4.801
 6975SOL    HW121824   3.150   5.603   4.703
 6975SOL    HW221825   3.039   5.627   4.821
 6976SOL     OW21826   4.924   4.094   5.336
 6976SOL    HW121827   4.855   4.128   5.400
 6976SOL    HW221828   4.884   4.088   5.244
 6977SOL     OW21829   4.036   4.347   1.579
 6977SOL    HW121830   4.135   4.346   1.596
 6977SOL    HW221831   4.008   4.261   1.538
 6978SOL     OW21832   5.588   3.268   0.961
 6978SOL    HW121833   5.675   3.300   0.923
 6978SOL    HW221834   5.602   3.181   1.009
 6979SOL     OW21835   1.033   3.594   1.475
 6979SOL    HW121836   1.050   3.650   1.556
 6979SOL    HW221837   1.029   3.653   1.394
 6980SOL     OW21838   1.468   0.891   2.853
 6980SOL    HW121839   1.440   0.810   2.801
 6980SOL    HW221840   1.477   0.969   2.792
 6981SOL     OW21841   3.780   3.589   6.748
 6981SOL    HW121842   3.745   3.666   6.801
 6981SOL    HW221843   3.802   3.514   6.809
 6982SOL     OW21844   1.044   1.051   3.961
 6982SOL    HW121845   0.967   0.987   3.967
 6982SOL    HW221846   1.125   1.010   4.003
 6983SOL     OW21847   4.382   0.929   4.582
 6983SOL    HW121848   4.293   0.924   4.538
 6983SOL    HW221849   4.409   1.024   4.593
 6984SOL     OW21850   1.260   2.777   2.968
 6984SOL    HW121851   1.357   2.795   2.954
 6984SOL    HW221852   1.233   2.695   2.917
 6985SOL     OW21853   6.996   4.344   7.011
 6985SOL    HW121854   6.962   4.397   6.933
 6985SOL    HW221855   6.976   4.248   6.997
 6986SOL     OW21856   4.162   6.094   6.364
 6986SOL    HW121857   4.249   6.087   6.413
 6986SOL    HW221858   4.124   6.186   6.377
 6987SOL     OW21859   6.936   1.699   5.589
 6987SOL    HW121860   6.954   1.628   5.522
 6987SOL    HW221861   6.999   1.690   5.666
 6988SOL     OW21862   2.975   0.392   5.980
 6988SOL    HW121863   2.949   0.369   6.074
 6988SOL    HW221864   2.958   0.314   5.920
 6989SOL     OW21865   6.960   4.519   2.225
 6989SOL    HW121866   6.886   4.577   2.259
 6989SOL    HW221867   6.974   4.443   2.288
 6990SOL     OW21868   3.520   2.799   2.116
 6990SOL    HW121869   3.489   2.834   2.028
 6990SOL    HW221870   3.501   2.701   2.122
 6991SOL     OW21871   5.270   4.728   2.943
 6991SOL    HW121872   5.261   4.827   2.955
 6991SOL    HW221873   5.288   4.708   2.846
 6992SOL     OW21874   0.163   0.050   0.455
 6992SOL    HW121875   0.141   0.091   0.367
 6992SOL    HW221876   0.117   6.991   0.463
 6993SOL     OW21877   5.607   1.015   1.920
 6993SOL    HW121878   5.549   1.096   1.917
 6993SOL    HW221879   5.699   1.039   1.888
 6994SOL     OW21880   1.596   0.007   3.540
 6994SOL    HW121881   1.637   0.024   3.630
 6994SOL    HW221882   1.529   6.962   3.548
 6995SOL     OW21883   0.610   3.727   0.078
 6995SOL    HW121884   0.653   3.638   0.093
 6995SOL    HW221885   0.535   3.739   0.144
 6996SOL     OW21886   1.728   0.389   6.844
 6996SOL    HW121887   1.760   0.348   6.758
 6996SOL    HW221888   1.682   0.319   6.899
 6997SOL     OW21889   6.846   4.714   5.181
 6997SOL    HW121890   6.917   4.679   5.119
 6997SOL    HW221891   6.819   4.641   5.244
 6998SOL     OW21892   1.069   1.713   1.384
 6998SOL    HW121893   1.038   1.619   1.371
 6998SOL    HW221894   1.169   1.717   1.377
 6999SOL     OW21895   0.758   2.625   6.766
 6999SOL    HW121896   0.763   2.531   6.733
 6999SOL    HW221897   0.847   2.653   6.801
 7000SOL     OW21898   6.174   0.389   2.714
 7000SOL    HW121899   6.236   0.371   2.638
 7000SOL    HW221900   6.087   0.423   2.678
 7001SOL     OW21901   1.094   1.665   4.495
 7001SOL    HW121902   0.995   1.660   4.507
 7001SOL    HW221903   1.125   1.586   4.442
 7002SOL     OW21904   0.545   5.421   3.920
 7002SOL    HW121905   0.525   5.513   3.955
 7002SOL    HW221906   0.479   5.356   3.957
 7003SOL     OW21907   6.057   4.486   1.231
 7003SOL    HW121908   6.012   4.400   1.255
 7003SOL    HW221909   6.151   4.468   1.203
 7004SOL     OW21910   1.591   5.998   0.353
 7004SOL    HW121911   1.498   5.962   0.365
 7004SOL    HW221912   1.622   6.039   0.438
 7005SOL     OW21913   1.032   0.307   0.116
 7005SOL    HW121914   0.964   0.260   0.172
 7005SOL    HW221915   1.103   0.345   0.175
 7006SOL     OW21916   6.801   6.645   3.301
 7006SOL    HW121917   6.759   6.584   3.234
 7006SOL    HW221918   6.732   6.709   3.335
 7007SOL     OW21919   3.986   0.836   5.769
 7007SOL    HW121920   3.994   0.743   5.735
 7007SOL    HW221921   3.956   0.896   5.695
 7008SOL     OW21922   6.875   4.176   3.480
 7008SOL    HW121923   6.898   4.272   3.496
 7008SOL    HW221924   6.907   4.120   3.557
 7009SOL     OW21925   3.933   6.431   2.313
 7009SOL    HW121926   3.975   6.372   2.383
 7009SOL    HW221927   3.843   6.395   2.289
 7010SOL     OW21928   5.373   3.800   2.561
 7010SOL    HW121929   5.287   3.830   2.519
 7010SOL    HW221930   5.431   3.879   2.579
 7011SOL     OW21931   3.465   6.542   0.457
 7011SOL    HW121932   3.549   6.569   0.410
 7011SOL    HW221933   3.460   6.588   0.546
 7012SOL     OW21934   1.276   2.891   0.662
 7012SOL    HW121935   1.258   2.820   0.593
 7012SOL    HW221936   1.338   2.855   0.731
 7013SOL     OW21937   2.281   1.017   6.841
 7013SOL    HW121938   2.183   1.007   6.825
 7013SOL    HW221939   2.298   1.100   6.895
 7014SOL     OW21940   6.105   3.856   1.351
 7014SOL    HW121941   6.014   3.827   1.323
 7014SOL    HW221942   6.164   3.864   1.271
 7015SOL     OW21943   5.744   4.360   2.268
 7015SOL    HW121944   5.808   4.437   2.277
 7015SOL    HW221945   5.759   4.315   2.179
 7016SOL     OW21946   3.323   4.925   0.996
 7016SOL    HW121947   3.299   5.019   1.019
 7016SOL    HW221948   3.238   4.872   0.984
 7017SOL     OW21949   4.011   4.857   3.650
 7017SOL    HW121950   3.971   4.928   3.593
 7017SOL    HW221951   3.945   4.828   3.719
 7018SOL     OW21952   4.902   3.132   4.456
 7018SOL    HW121953   4.901   3.224   4.497
 7018SOL    HW221954   4.877   3.065   4.526
 7019SOL     OW21955   4.971   5.583   2.311
 7019SOL    HW121956   4.890   5.527   2.327
 7019SOL    HW221957   5.048   5.524   2.286
 7020SOL     OW21958   0.811   3.223   6.599
 7020SOL    HW121959   0.857   3.153   6.656
 7020SOL    HW221960   0.873   3.301   6.586
 7021SOL     OW21961   0.965   2.717   4.806
 7021SOL    HW121962   0.891   2.750   4.865
 7021SOL    HW221963   1.034   2.787   4.796
 7022SOL     OW21964   4.175   0.794   0.060
 7022SOL    HW121965   4.080   0.803   0.089
 7022SOL    HW221966   4.236   0.810   0.137
 7023SOL     OW21967   0.639   1.684   1.859
 7023SOL    HW121968   0.579   1.623   1.806
 7023SOL    HW221969   0.613   1.680   1.956
 7024SOL     OW21970   3.658   2.925   3.805
 7024SOL    HW121971   3.652   2.933   3.905
 7024SOL    HW221972   3.692   2.834   3.781
 7025SOL     OW21973   3.248   0.113   6.927
 7025SOL    HW121974   3.319   0.048   6.954
 7025SOL    HW221975   3.199   0.143   7.008
 7026SOL     OW21976   3.203   1.258   1.290
 7026SOL    HW121977   3.130   1.319   1.259
 7026SOL    HW221978   3.169   1.164   1.293
 7027SOL     OW21979   2.408   5.433   2.811
 7027SOL    HW121980   2.377   5.525   2.832
 7027SOL    HW221981   2.343   5.389   2.748
 7028SOL     OW21982   2.838   0.618   3.766
 7028SOL    HW121983   2.904   0.656   3.700
 7028SOL    HW221984   2.759   0.678   3.772
 7029SOL     OW21985   3.073   3.364   5.625
 7029SOL    HW121986   2.985   3.410   5.612
 7029SOL    HW221987   3.147   3.425   5.597
 7030SOL     OW21988   0.440   1.812   4.581
 7030SOL    HW121989   0.470   1.725   4.620
 7030SOL    HW221990   0.466   1.817   4.485
 7031SOL     OW21991   4.572   6.270   0.572
 7031SOL    HW121992   4.525   6.353   0.543
 7031SOL    HW221993   4.608   6.282   0.664
 7032SOL     OW21994   4.334   0.090   3.974
 7032SOL    HW121995   4.245   0.129   3.999
 7032SOL    HW221996   4.350   0.104   3.877
 7033SOL     OW21997   1.326   2.510   5.121
 7033SOL    HW121998   1.298   2.436   5.061
 7033SOL    HW221999   1.422   2.533   5.105
 7034SOL     OW22000   6.747   1.927   3.469
 7034SOL    HW122001   6.796   1.992   3.528
 7034SOL    HW222002   6.730   1.970   3.380
 7035SOL     OW22003   2.138   0.261   1.450
 7035SOL    HW122004   2.059   0.317   1.476
 7035SOL    HW222005   2.141   0.180   1.508
 7036SOL     OW22006   0.376   1.571   2.266
 7036SOL    HW122007   0.288   1.547   2.225
 7036SOL    HW222008   0.365   1.649   2.327
 7037SOL     OW22009   0.216   0.149   5.769
 7037SOL    HW122010   0.208   0.239   5.726
 7037SOL    HW222011   0.257   0.159   5.860
 7038SOL     OW22012   2.450   4.271   6.322
 7038SOL    HW122013   2.408   4.272   6.231
 7038SOL    HW222014   2.550   4.266   6.311
 7039SOL     OW22015   0.778   5.065   2.956
 7039SOL    HW122016   0.728   5.138   2.910
 7039SOL    HW222017   0.752   4.977   2.917
 7040SOL     OW22018   4.220   1.935   5.453
 7040SOL    HW122019   4.142   1.902   5.400
 7040SOL    HW222020   4.295   1.957   5.391
 7041SOL     OW22021   1.257   1.062   3.463
 7041SOL    HW122022   1.186   1.091   3.527
 7041SOL    HW222023   1.214   1.015   3.386
 7042SOL     OW22024   4.305   6.279   5.095
 7042SOL    HW122025   4.309   6.375   5.066
 7042SOL    HW222026   4.343   6.221   5.024
 7043SOL     OW22027   2.582   4.600   3.543
 7043SOL    HW122028   2.663   4.647   3.510
 7043SOL    HW222029   2.560   4.523   3.484
 7044SOL     OW22030   5.275   6.097   3.895
 7044SOL    HW122031   5.285   5.998   3.887
 7044SOL    HW222032   5.349   6.134   3.952
 7045SOL     OW22033   5.871   5.600   2.207
 7045SOL    HW122034   5.957   5.649   2.218
 7045SOL    HW222035   5.796   5.665   2.196
 7046SOL     OW22036   3.067   2.224   4.219
 7046SOL    HW122037   3.034   2.129   4.220
 7046SOL    HW222038   3.153   2.230   4.269
 7047SOL     OW22039   0.692   0.168   1.438
 7047SOL    HW122040   0.790   0.159   1.455
 7047SOL    HW222041   0.642   0.098   1.489
 7048SOL     OW22042   6.628   5.933   5.173
 7048SOL    HW122043   6.552   5.950   5.237
 7048SOL    HW222044   6.618   5.992   5.093
 7049SOL     OW22045   3.901   1.575   1.882
 7049SOL    HW122046   3.961   1.634   1.936
 7049SOL    HW222047   3.848   1.517   1.944
 7050SOL     OW22048   3.398   5.232   0.659
 7050SOL    HW122049   3.472   5.183   0.704
 7050SOL    HW222050   3.316   5.230   0.717
 7051SOL     OW22051   0.195   0.189   2.115
 7051SOL    HW122052   0.279   0.153   2.074
 7051SOL    HW222053   0.149   0.116   2.165
 7052SOL     OW22054   6.030   6.793   3.071
 7052SOL    HW122055   6.114   6.759   3.112
 7052SOL    HW222056   5.986   6.858   3.133
 7053SOL     OW22057   1.493   3.255   3.679
 7053SOL    HW122058   1.450   3.165   3.683
 7053SOL    HW222059   1.486   3.300   3.768
 7054SOL     OW22060   0.200   0.436   1.170
 7054SOL    HW122061   0.282   0.493   1.174
 7054SOL    HW222062   0.224   0.342   1.194
 7055SOL     OW22063   1.867   0.736   6.500
 7055SOL    HW122064   1.780   0.688   6.504
 7055SOL    HW222065   1.851   0.834   6.488
 7056SOL     OW22066   6.292   5.860   1.246
 7056SOL    HW122067   6.278   5.823   1.154
 7056SOL    HW222068   6.341   5.794   1.301
 7057SOL     OW22069   2.776   5.086   4.779
 7057SOL    HW122070   2.760   5.045   4.869
 7057SOL    HW222071   2.829   5.170   4.790
 7058SOL     OW22072   5.146   2.129   6.895
 7058SOL    HW122073   5.163   2.206   6.955
 7058SOL    HW222074   5.151   2.044   6.948
 7059SOL     OW22075   2.067   1.596   4.635
 7059SOL    HW122076   2.080   1.499   4.616
 7059SOL    HW222077   2.138   1.648   4.587
 7060SOL     OW22078   3.356   6.679   2.459
 7060SOL    HW122079   3.300   6.753   2.496
 7060SOL    HW222080   3.439   6.671   2.514
 7061SOL     OW22081   1.777   2.077   2.652
 7061SOL    HW122082   1.748   2.052   2.745
 7061SOL    HW222083   1.784   2.177   2.646
 7062SOL     OW22084   4.552   1.599   3.991
 7062SOL    HW122085   4.525   1.629   3.900
 7062SOL    HW222086   4.551   1.499   3.995
 7063SOL     OW22087   0.508   6.576   2.324
 7063SOL    HW122088   0.506   6.489   2.275
 7063SOL    HW222089   0.497   6.560   2.422
 7064SOL     OW22090   4.914   1.920   5.556
 7064SOL    HW122091   4.987   1.986   5.574
 7064SOL    HW222092   4.875   1.891   5.643
 7065SOL     OW22093   3.732   4.723   5.429
 7065SOL    HW122094   3.640   4.686   5.437
 7065SOL    HW222095   3.794   4.651   5.396
 7066SOL     OW22096   4.488   0.410   6.909
 7066SOL    HW122097   4.574   0.452   6.881
 7066SOL    HW222098   4.411   0.469   6.885
 7067SOL     OW22099   1.898   3.185   6.879
 7067SOL    HW122100   1.987   3.214   6.842
 7067SOL    HW222101   1.858   3.260   6.931
 7068SOL     OW22102   5.703   4.347   4.137
 7068SOL    HW122103   5.630   4.352   4.204
 7068SOL    HW222104   5.687   4.414   4.064
 7069SOL     OW22105   5.973   0.938   5.675
 7069SOL    HW122106   5.882   0.899   5.687
 7069SOL    HW222107   5.980   0.977   5.583
 7070SOL     OW22108   0.283   6.889   4.792
 7070SOL    HW122109   0.317   6.802   4.756
 7070SOL    HW222110   0.184   6.884   4.802
 7071SOL     OW22111   5.066   6.745   6.422
 7071SOL    HW122112   5.097   6.705   6.509
 7071SOL    HW222113   5.143   6.750   6.358
 7072SOL     OW22114   0.588   4.434   6.646
 7072SOL    HW122115   0.528   4.365   6.687
 7072SOL    HW222116   0.650   4.469   6.716
 7073SOL     OW22117   4.264   0.499   3.627
 7073SOL    HW122118   4.234   0.530   3.717
 7073SOL    HW222119   4.327   0.567   3.588
 7074SOL     OW22120   6.477   3.626   3.074
 7074SOL    HW122121   6.548   3.671   3.127
 7074SOL    HW222122   6.459   3.678   2.991
 7075SOL     OW22123   3.372   4.890   4.954
 7075SOL    HW122124   3.297   4.913   5.015
 7075SOL    HW222125   3.341   4.893   4.859
 7076SOL     OW22126   6.055   3.112   2.195
 7076SOL    HW122127   5.988   3.181   2.220
 7076SOL    HW222128   6.068   3.112   2.096
 7077SOL     OW22129   2.545   4.983   2.130
 7077SOL    HW122130   2.465   5.022   2.176
 7077SOL    HW222131   2.627   5.031   2.158
 7078SOL     OW22132   5.429   6.704   0.716
 7078SOL    HW122133   5.506   6.706   0.780
 7078SOL    HW222134   5.416   6.794   0.676
 7079SOL     OW22135   0.905   6.959   3.786
 7079SOL    HW122136   1.004   6.969   3.777
 7079SOL    HW222137   0.868   0.007   3.836
 7080SOL     OW22138   3.932   1.599   5.212
 7080SOL    HW122139   4.022   1.570   5.244
 7080SOL    HW222140   3.866   1.526   5.227
 7081SOL     OW22141   1.609   0.940   0.203
 7081SOL    HW122142   1.587   0.948   0.106
 7081SOL    HW222143   1.525   0.941   0.257
 7082SOL     OW22144   6.678   3.576   2.122
 7082SOL    HW122145   6.603   3.617   2.071
 7082SOL    HW222146   6.740   3.530   2.058
 7083SOL     OW22147   6.764   2.386   2.596
 7083SOL    HW122148   6.733   2.291   2.606
 7083SOL    HW222149   6.740   2.437   2.679
 7084SOL     OW22150   0.501   5.772   0.153
 7084SOL    HW122151   0.404   5.751   0.156
 7084SOL    HW222152   0.513   5.870   0.138
 7085SOL     OW22153   0.362   2.551   2.598
 7085SOL    HW122154   0.302   2.481   2.559
 7085SOL    HW222155   0.344   2.639   2.554
 7086SOL     OW22156   6.240   0.964   6.500
 7086SOL    HW122157   6.247   0.932   6.595
 7086SOL    HW222158   6.316   0.927   6.447
 7087SOL     OW22159   5.803   3.072   2.862
 7087SOL    HW122160   5.751   3.111   2.938
 7087SOL    HW222161   5.900   3.094   2.873
 7088SOL     OW22162   5.562   1.584   5.228
 7088SOL    HW122163   5.532   1.491   5.207
 7088SOL    HW222164   5.629   1.582   5.302
 7089SOL     OW22165   4.228   5.532   1.882
 7089SOL    HW122166   4.197   5.436   1.887
 7089SOL    HW222167   4.199   5.580   1.965
 7090SOL     OW22168   3.593   1.441   0.939
 7090SOL    HW122169   3.506   1.393   0.942
 7090SOL    HW222170   3.624   1.461   1.032
 7091SOL     OW22171   0.736   6.926   0.386
 7091SOL    HW122172   0.723   7.009   0.439
 7091SOL    HW222173   0.654   6.869   0.394
 7092SOL     OW22174   4.236   2.248   6.662
 7092SOL    HW122175   4.226   2.312   6.586
 7092SOL    HW222176   4.146   2.213   6.689
 7093SOL     OW22177   3.276   3.921   0.687
 7093SOL    HW122178   3.329   3.870   0.619
 7093SOL    HW222179   3.204   3.973   0.641
 7094SOL     OW22180   2.143   0.094   5.863
 7094SOL    HW122181   2.096   0.107   5.775
 7094SOL    HW222182   2.188   0.179   5.890
 7095SOL     OW22183   3.021   4.764   5.656
 7095SOL    HW122184   2.988   4.844   5.707
 7095SOL    HW222185   2.949   4.732   5.595
 7096SOL     OW22186   6.747   0.647   1.149
 7096SOL    HW122187   6.764   0.745   1.146
 7096SOL    HW222188   6.809   0.600   1.086
 7097SOL     OW22189   5.724   0.136   1.729
 7097SOL    HW122190   5.649   0.093   1.778
 7097SOL    HW222191   5.717   0.236   1.737
 7098SOL     OW22192   1.597   6.753   4.433
 7098SOL    HW122193   1.501   6.748   4.404
 7098SOL    HW222194   1.656   6.733   4.356
 7099SOL     OW22195   3.297   1.983   4.139
 7099SOL    HW122196   3.306   2.059   4.204
 7099SOL    HW222197   3.223   2.003   4.075
 7100SOL     OW22198   0.494   3.433   0.782
 7100SOL    HW122199   0.532   3.344   0.808
 7100SOL    HW222200   0.568   3.498   0.764
 7101SOL     OW22201   1.924   6.734   5.310
 7101SOL    HW122202   1.957   6.654   5.359
 7101SOL    HW222203   1.961   6.734   5.217
 7102SOL     OW22204   5.073   0.653   0.706
 7102SOL    HW122205   5.073   0.593   0.786
 7102SOL    HW222206   5.083   0.748   0.736
 7103SOL     OW22207   5.269   5.355   2.715
 7103SOL    HW122208   5.194   5.358   2.781
 7103SOL    HW222209   5.253   5.280   2.650
 7104SOL     OW22210   5.505   3.032   3.479
 7104SOL    HW122211   5.476   2.960   3.542
 7104SOL    HW222212   5.594   3.068   3.508
 7105SOL     OW22213   3.402   4.164   3.840
 7105SOL    HW122214   3.462   4.244   3.850
 7105SOL    HW222215   3.353   4.148   3.925
 7106SOL     OW22216   3.575   2.979   1.538
 7106SOL    HW122217   3.624   2.993   1.624
 7106SOL    HW222218   3.494   2.922   1.555
 7107SOL     OW22219   4.075   6.977   0.065
 7107SOL    HW122220   4.142   6.908   0.089
 7107SOL    HW222221   4.100   7.018   7.007
 7108SOL     OW22222   3.060   6.039   2.744
 7108SOL    HW122223   3.040   6.119   2.689
 7108SOL    HW222224   2.993   6.031   2.818
 7109SOL     OW22225   1.692   0.319   5.870
 7109SOL    HW122226   1.711   0.385   5.797
 7109SOL    HW222227   1.667   0.367   5.954
 7110SOL     OW22228   3.117   6.516   4.503
 7110SOL    HW122229   3.063   6.564   4.573
 7110SOL    HW222230   3.190   6.464   4.548
 7111SOL     OW22231   1.258   0.602   4.003
 7111SOL    HW122232   1.187   0.630   4.068
 7111SOL    HW222233   1.214   0.571   3.918
 7112SOL     OW22234   2.022   4.747   4.423
 7112SOL    HW122235   1.948   4.814   4.413
 7112SOL    HW222236   2.004   4.690   4.503
 7113SOL     OW22237   3.004   4.852   4.876
 7113SOL    HW122238   2.955   4.939   4.886
 7113SOL    HW222239   2.974   4.788   4.946
 7114SOL     OW22240   5.029   5.390   1.043
 7114SOL    HW122241   5.088   5.437   0.977
 7114SOL    HW222242   5.014   5.450   1.122
 7115SOL     OW22243   6.337   4.252   6.795
 7115SOL    HW122244   6.285   4.172   6.766
 7115SOL    HW222245   6.338   4.319   6.720
 7116SOL     OW22246   6.567   3.443   4.085
 7116SOL    HW122247   6.539   3.387   4.164
 7116SOL    HW222248   6.501   3.430   4.011
 7117SOL     OW22249   6.293   0.207   3.514
 7117SOL    HW122250   6.251   0.298   3.524
 7117SOL    HW222251   6.225   0.137   3.533
 7118SOL     OW22252   4.183   4.654   5.338
 7118SOL    HW122253   4.205   4.743   5.299
 7118SOL    HW222254   4.207   4.582   5.273
 7119SOL     OW22255   4.877   6.970   5.035
 7119SOL    HW122256   4.783   6.988   5.065
 7119SOL    HW222257   4.907   0.015   4.975
 7120SOL     OW22258   4.721   1.220   1.192
 7120SOL    HW122259   4.819   1.223   1.210
 7120SOL    HW222260   4.671   1.256   1.271
 7121SOL     OW22261   0.644   6.367   3.389
 7121SOL    HW122262   0.694   6.283   3.363
 7121SOL    HW222263   0.675   6.397   3.479
 7122SOL     OW22264   2.838   0.151   5.859
 7122SOL    HW122265   2.906   0.101   5.913
 7122SOL    HW222266   2.748   0.141   5.902
 7123SOL     OW22267   5.897   5.412   4.863
 7123SOL    HW122268   5.890   5.356   4.781
 7123SOL    HW222269   5.891   5.354   4.944
 7124SOL     OW22270   0.742   2.428   1.329
 7124SOL    HW122271   0.774   2.343   1.287
 7124SOL    HW222272   0.653   2.412   1.372
 7125SOL     OW22273   0.933   0.215   1.580
 7125SOL    HW122274   0.929   0.296   1.639
 7125SOL    HW222275   1.001   0.230   1.508
 7126SOL     OW22276   4.065   6.264   1.612
 7126SOL    HW122277   4.067   6.214   1.699
 7126SOL    HW222278   4.126   6.343   1.618
 7127SOL     OW22279   2.954   6.252   5.334
 7127SOL    HW122280   3.011   6.290   5.262
 7127SOL    HW222281   2.917   6.164   5.305
 7128SOL     OW22282   3.218   4.313   6.713
 7128SOL    HW122283   3.317   4.299   6.710
 7128SOL    HW222284   3.189   4.364   6.632
 7129SOL     OW22285   0.213   0.963   1.341
 7129SOL    HW122286   0.204   0.880   1.395
 7129SOL    HW222287   0.235   1.040   1.401
 7130SOL     OW22288   2.690   6.501   4.177
 7130SOL    HW122289   2.739   6.449   4.107
 7130SOL    HW222290   2.754   6.530   4.248
 7131SOL     OW22291   4.040   0.635   2.460
 7131SOL    HW122292   4.065   0.623   2.364
 7131SOL    HW222293   3.952   0.682   2.466
 7132SOL     OW22294   5.587   4.050   0.040
 7132SOL    HW122295   5.620   3.960   0.012
 7132SOL    HW222296   5.543   4.095   6.991
 7133SOL     OW22297   3.473   5.771   3.497
 7133SOL    HW122298   3.510   5.706   3.563
 7133SOL    HW222299   3.373   5.769   3.501
 7134SOL     OW22300   6.063   5.351   1.508
 7134SOL    HW122301   6.023   5.439   1.534
 7134SOL    HW222302   6.162   5.358   1.508
 7135SOL     OW22303   2.096   3.213   1.996
 7135SOL    HW122304   2.008   3.238   1.956
 7135SOL    HW222305   2.143   3.296   2.026
 7136SOL     OW22306   3.112   1.666   1.607
 7136SOL    HW122307   3.092   1.707   1.517
 7136SOL    HW222308   3.039   1.691   1.671
 7137SOL     OW22309   2.822   2.012   1.561
 7137SOL    HW122310   2.861   2.099   1.531
 7137SOL    HW222311   2.872   1.980   1.641
 7138SOL     OW22312   2.016   1.766   0.615
 7138SOL    HW122313   1.944   1.731   0.674
 7138SOL    HW222314   2.084   1.815   0.670
 7139SOL     OW22315   6.372   6.036   1.739
 7139SOL    HW122316   6.318   6.034   1.655
 7139SOL    HW222317   6.313   6.061   1.816
 7140SOL     OW22318   6.555   3.363   0.804
 7140SOL    HW122319   6.591   3.315   0.884
 7140SOL    HW222320   6.600   3.329   0.722
 7141SOL     OW22321   3.839   6.426   1.252
 7141SOL    HW122322   3.801   6.485   1.323
 7141SOL    HW222323   3.765   6.391   1.195
 7142SOL     OW22324   3.505   0.631   4.548
 7142SOL    HW122325   3.530   0.711   4.494
 7142SOL    HW222326   3.423   0.589   4.510
 7143SOL     OW22327   2.557   4.755   6.510
 7143SOL    HW122328   2.573   4.799   6.599
 7143SOL    HW222329   2.565   4.656   6.520
 7144SOL     OW22330   6.742   1.258   4.284
 7144SOL    HW122331   6.687   1.324   4.233
 7144SOL    HW222332   6.798   1.204   4.221
 7145SOL     OW22333   4.715   2.010   0.260
 7145SOL    HW122334   4.744   2.046   0.349
 7145SOL    HW222335   4.634   2.059   0.229
 7146SOL     OW22336   2.141   0.927   5.285
 7146SOL    HW122337   2.102   0.911   5.194
 7146SOL    HW222338   2.233   0.964   5.277
 7147SOL     OW22339   5.921   4.410   2.619
 7147SOL    HW122340   5.918   4.410   2.519
 7147SOL    HW222341   5.904   4.502   2.653
 7148SOL     OW22342   6.588   6.161   1.006
 7148SOL    HW122343   6.599   6.075   1.056
 7148SOL    HW222344   6.665   6.174   0.944
 7149SOL     OW22345   6.641   5.197   4.395
 7149SOL    HW122346   6.600   5.114   4.358
 7149SOL    HW222347   6.734   5.178   4.426
 7150SOL     OW22348   4.047   3.727   0.218
 7150SOL    HW122349   4.046   3.638   0.263
 7150SOL    HW222350   4.081   3.797   0.281
 7151SOL     OW22351   3.682   0.117   0.740
 7151SOL    HW122352   3.660   0.200   0.688
 7151SOL    HW222353   3.770   0.130   0.787
 7152SOL     OW22354   0.419   1.401   6.869
 7152SOL    HW122355   0.392   1.304   6.863
 7152SOL    HW222356   0.481   1.423   6.794
 7153SOL     OW22357   4.039   6.405   0.999
 7153SOL    HW122358   4.042   6.390   1.098
 7153SOL    HW222359   4.090   6.333   0.952
 7154SOL     OW22360   4.318   1.291   2.320
 7154SOL    HW122361   4.287   1.325   2.409
 7154SOL    HW222362   4.250   1.312   2.250
 7155SOL     OW22363   3.428   1.619   2.677
 7155SOL    HW122364   3.443   1.665   2.589
 7155SOL    HW222365   3.511   1.570   2.703
 7156SOL     OW22366   6.355   3.993   0.242
 7156SOL    HW122367   6.357   4.092   0.256
 7156SOL    HW222368   6.284   3.952   0.299
 7157SOL     OW22369   6.064   4.357   6.253
 7157SOL    HW122370   6.059   4.433   6.188
 7157SOL    HW222371   6.156   4.351   6.289
 7158SOL     OW22372   5.012   7.006   3.839
 7158SOL    HW122373   5.016   0.073   3.865
 7158SOL    HW222374   4.971   6.998   3.748
 7159SOL     OW22375   0.629   5.735   3.459
 7159SOL    HW122376   0.558   5.712   3.525
 7159SOL    HW222377   0.602   5.704   3.368
 7160SOL     OW22378   5.520   6.954   3.094
 7160SOL    HW122379   5.603   6.993   3.135
 7160SOL    HW222380   5.516   6.856   3.113
 7161SOL     OW22381   3.881   3.119   3.534
 7161SOL    HW122382   3.848   3.184   3.466
 7161SOL    HW222383   3.829   3.131   3.619
 7162SOL     OW22384   0.436   5.084   2.267
 7162SOL    HW122385   0.474   5.134   2.345
 7162SOL    HW222386   0.365   5.021   2.299
 7163SOL     OW22387   1.205   1.521   2.010
 7163SOL    HW122388   1.146   1.485   2.082
 7163SOL    HW222389   1.237   1.446   1.952
 7164SOL     OW22390   1.657   1.328   6.085
 7164SOL    HW122391   1.585   1.364   6.144
 7164SOL    HW222392   1.616   1.285   6.005
 7165SOL     OW22393   6.397   0.429   0.124
 7165SOL    HW122394   6.487   0.471   0.136
 7165SOL    HW222395   6.401   0.364   0.049
 7166SOL     OW22396   5.317   6.771   6.236
 7166SOL    HW122397   5.373   6.698   6.196
 7166SOL    HW222398   5.364   6.809   6.316
 7167SOL     OW22399   5.898   2.079   4.796
 7167SOL    HW122400   5.867   2.127   4.714
 7167SOL    HW222401   5.969   2.132   4.841
 7168SOL     OW22402   2.587   0.934   1.802
 7168SOL    HW122403   2.527   0.965   1.729
 7168SOL    HW222404   2.658   1.003   1.818
 7169SOL     OW22405   2.286   4.200   6.092
 7169SOL    HW122406   2.264   4.105   6.115
 7169SOL    HW222407   2.204   4.257   6.100
 7170SOL     OW22408   4.218   1.036   1.891
 7170SOL    HW122409   4.187   1.090   1.813
 7170SOL    HW222410   4.151   1.043   1.965
 7171SOL     OW22411   5.851   4.971   0.765
 7171SOL    HW122412   5.811   4.884   0.736
 7171SOL    HW222413   5.886   4.962   0.859
 7172SOL     OW22414   1.428   1.305   4.339
 7172SOL    HW122415   1.458   1.320   4.433
 7172SOL    HW222416   1.424   1.206   4.320
 7173SOL     OW22417   5.337   6.055   6.790
 7173SOL    HW122418   5.266   6.064   6.860
 7173SOL    HW222419   5.410   5.995   6.824
 7174SOL     OW22420   5.966   4.219   1.291
 7174SOL    HW122421   5.985   4.177   1.380
 7174SOL    HW222422   5.988   4.155   1.218
 7175SOL     OW22423   5.880   3.746   5.478
 7175SOL    HW122424   5.878   3.846   5.469
 7175SOL    HW222425   5.892   3.705   5.388
 7176SOL     OW22426   7.017   1.324   4.808
 7176SOL    HW122427   6.980   1.290   4.895
 7176SOL    HW222428   6.954   1.300   4.734
 7177SOL     OW22429   1.900   5.272   4.702
 7177SOL    HW122430   1.992   5.280   4.663
 7177SOL    HW222431   1.907   5.274   4.801
 7178SOL     OW22432   0.699   0.757   5.608
 7178SOL    HW122433   0.627   0.717   5.551
 7178SOL    HW222434   0.661   0.780   5.698
 7179SOL     OW22435   3.582   5.741   6.632
 7179SOL    HW122436   3.492   5.783   6.620
 7179SOL    HW222437   3.644   5.773   6.560
 7180SOL     OW22438   1.383   5.023   1.228
 7180SOL    HW122439   1.413   4.952   1.292
 7180SOL    HW222440   1.344   4.980   1.147
 7181SOL     OW22441   2.330   1.500   6.067
 7181SOL    HW122442   2.325   1.545   5.978
 7181SOL    HW222443   2.258   1.534   6.126
 7182SOL     OW22444   0.779   3.522   4.077
 7182SOL    HW122445   0.803   3.612   4.040
 7182SOL    HW222446   0.833   3.505   4.159
 7183SOL     OW22447   1.063   6.498   1.743
 7183SOL    HW122448   1.020   6.408   1.741
 7183SOL    HW222449   1.114   6.512   1.658
 7184SOL     OW22450   6.447   0.108   3.810
 7184SOL    HW122451   6.499   0.110   3.895
 7184SOL    HW222452   6.391   0.191   3.802
 7185SOL     OW22453   4.945   0.385   4.998
 7185SOL    HW122454   5.014   0.336   4.945
 7185SOL    HW222455   4.866   0.325   5.013
 7186SOL     OW22456   0.433   0.088   0.282
 7186SOL    HW122457   0.396   7.027   0.301
 7186SOL    HW222458   0.533   0.082   0.273
 7187SOL     OW22459   2.932   3.329   5.004
 7187SOL    HW122460   2.867   3.367   4.938
 7187SOL    HW222461   2.986   3.257   4.961
 7188SOL     OW22462   3.851   4.987   6.904
 7188SOL    HW122463   3.836   5.045   6.984
 7188SOL    HW222464   3.916   5.031   6.842
 7189SOL     OW22465   6.166   2.253   5.279
 7189SOL    HW122466   6.070   2.267   5.300
 7189SOL    HW222467   6.220   2.253   5.363
 7190SOL     OW22468   5.866   5.358   1.338
 7190SOL    HW122469   5.941   5.375   1.402
 7190SOL    HW222470   5.788   5.319   1.388
 7191SOL     OW22471   0.683   3.869   3.203
 7191SOL    HW122472   0.595   3.876   3.250
 7191SOL    HW222473   0.668   3.835   3.110
 7192SOL     OW22474   1.646   4.993   6.664
 7192SOL    HW122475   1.608   4.949   6.745
 7192SOL    HW222476   1.700   4.927   6.612
 7193SOL     OW22477   2.506   2.178   2.808
 7193SOL    HW122478   2.478   2.131   2.724
 7193SOL    HW222479   2.489   2.118   2.886
 7194SOL     OW22480   2.860   2.458   6.398
 7194SOL    HW122481   2.775   2.510   6.387
 7194SOL    HW222482   2.912   2.496   6.474
 7195SOL     OW22483   0.417   2.940   6.270
 7195SOL    HW122484   0.352   3.003   6.228
 7195SOL    HW222485   0.480   2.991   6.329
 7196SOL     OW22486   3.505   4.144   2.351
 7196SOL    HW122487   3.518   4.163   2.254
 7196SOL    HW222488   3.593   4.122   2.393
 7197SOL     OW22489   1.769   3.921   5.524
 7197SOL    HW122490   1.720   4.007   5.514
 7197SOL    HW222491   1.713   3.847   5.486
 7198SOL     OW22492   6.447   1.270   0.673
 7198SOL    HW122493   6.519   1.206   0.700
 7198SOL    HW222494   6.488   1.359   0.655
 7199SOL     OW22495   1.075   0.783   2.204
 7199SOL    HW122496   0.977   0.804   2.203
 7199SOL    HW222497   1.102   0.751   2.113
 7200SOL     OW22498   2.168   2.535   0.655
 7200SOL    HW122499   2.181   2.581   0.742
 7200SOL    HW222500   2.253   2.489   0.628
 7201SOL     OW22501   5.548   5.519   4.133
 7201SOL    HW122502   5.539   5.589   4.204
 7201SOL    HW222503   5.644   5.510   4.107
 7202SOL     OW22504   4.945   0.620   5.618
 7202SOL    HW122505   5.019   0.557   5.640
 7202SOL    HW222506   4.899   0.648   5.703
 7203SOL     OW22507   7.014   1.752   2.029
 7203SOL    HW122508   7.002   1.657   2.058
 7203SOL    HW222509   6.974   1.765   1.938
 7204SOL     OW22510   6.844   1.389   1.228
 7204SOL    HW122511   6.773   1.405   1.159
 7204SOL    HW222512   6.827   1.302   1.274
 7205SOL     OW22513   1.917   2.286   5.513
 7205SOL    HW122514   1.921   2.226   5.433
 7205SOL    HW222515   1.864   2.368   5.489
 7206SOL     OW22516   2.053   2.074   1.230
 7206SOL    HW122517   2.021   2.142   1.164
 7206SOL    HW222518   2.134   2.110   1.277
 7207SOL     OW22519   1.763   2.063   4.093
 7207SOL    HW122520   1.745   2.084   3.997
 7207SOL    HW222521   1.677   2.039   4.139
 7208SOL     OW22522   3.527   1.148   4.462
 7208SOL    HW122523   3.468   1.184   4.534
 7208SOL    HW222524   3.518   1.205   4.380
 7209SOL     OW22525   2.671   2.362   2.099
 7209SOL    HW122526   2.633   2.297   2.164
 7209SOL    HW222527   2.769   2.345   2.087
 7210SOL     OW22528   2.949   1.607   3.271
 7210SOL    HW122529   2.901   1.667   3.208
 7210SOL    HW222530   2.907   1.613   3.362
 7211SOL     OW22531   3.241   5.827   5.326
 7211SOL    HW122532   3.340   5.825   5.312
 7211SOL    HW222533   3.222   5.832   5.424
 7212SOL     OW22534   5.863   5.283   6.100
 7212SOL    HW122535   5.783   5.313   6.049
 7212SOL    HW222536   5.886   5.189   6.073
 7213SOL     OW22537   3.617   0.981   0.568
 7213SOL    HW122538   3.714   0.969   0.587
 7213SOL    HW222539   3.565   0.968   0.653
 7214SOL     OW22540   0.656   1.141   6.394
 7214SOL    HW122541   0.676   1.085   6.474
 7214SOL    HW222542   0.641   1.082   6.314
 7215SOL     OW22543   0.063   2.812   2.862
 7215SOL    HW122544   0.010   2.883   2.908
 7215SOL    HW222545   0.131   2.855   2.802
 7216SOL     OW22546   2.889   6.080   3.375
 7216SOL    HW122547   2.800   6.096   3.334
 7216SOL    HW222548   2.959   6.128   3.322
 7217SOL     OW22549   1.249   4.452   3.824
 7217SOL    HW122550   1.223   4.359   3.800
 7217SOL    HW222551   1.255   4.508   3.741
 7218SOL     OW22552   6.265   3.716   4.880
 7218SOL    HW122553   6.278   3.814   4.866
 7218SOL    HW222554   6.201   3.681   4.812
 7219SOL     OW22555   3.261   6.409   1.982
 7219SOL    HW122556   3.177   6.385   1.932
 7219SOL    HW222557   3.237   6.460   2.065
 7220SOL     OW22558   6.797   4.364   4.390
 7220SOL    HW122559   6.703   4.365   4.424
 7220SOL    HW222560   6.798   4.331   4.295
 7221SOL     OW22561   3.450   6.254   4.882
 7221SOL    HW122562   3.522   6.292   4.939
 7221SOL    HW222563   3.491   6.209   4.802
 7222SOL     OW22564   6.663   6.517   3.025
 7222SOL    HW122565   6.568   6.542   3.010
 7222SOL    HW222566   6.721   6.599   3.017
 7223SOL     OW22567   1.998   2.197   0.977
 7223SOL    HW122568   1.910   2.152   0.957
 7223SOL    HW222569   2.064   2.174   0.905
 7224SOL     OW22570   4.571   1.902   3.595
 7224SOL    HW122571   4.488   1.931   3.644
 7224SOL    HW222572   4.640   1.874   3.661
 7225SOL     OW22573   1.863   6.799   0.722
 7225SOL    HW122574   1.870   6.728   0.652
 7225SOL    HW222575   1.919   6.877   0.695
 7226SOL     OW22576   5.904   1.379   0.118
 7226SOL    HW122577   5.887   1.327   0.034
 7226SOL    HW222578   5.879   1.323   0.197
 7227SOL     OW22579   2.466   0.916   2.041
 7227SOL    HW122580   2.368   0.924   2.028
 7227SOL    HW222581   2.512   0.917   1.952
 7228SOL     OW22582   0.881   1.928   2.417
 7228SOL    HW122583   0.874   1.878   2.331
 7228SOL    HW222584   0.940   2.008   2.405
 7229SOL     OW22585   6.927   0.271   4.567
 7229SOL    HW122586   6.932   0.315   4.657
 7229SOL    HW222587   6.848   0.210   4.564
 7230SOL     OW22588   2.542   4.966   4.097
 7230SOL    HW122589   2.453   4.965   4.052
 7230SOL    HW222590   2.580   4.873   4.098
 7231SOL     OW22591   4.101   1.351   6.648
 7231SOL    HW122592   4.069   1.397   6.565
 7231SOL    HW222593   4.188   1.304   6.628
 7232SOL     OW22594   5.308   0.090   2.465
 7232SOL    HW122595   5.327   0.158   2.394
 7232SOL    HW222596   5.218   0.050   2.450
 7233SOL     OW22597   6.109   1.439   5.692
 7233SOL    HW122598   6.180   1.507   5.711
 7233SOL    HW222599   6.066   1.411   5.777
 7234SOL     OW22600   4.982   3.753   3.301
 7234SOL    HW122601   4.949   3.659   3.304
 7234SOL    HW222602   4.905   3.816   3.311
 7235SOL     OW22603   6.603   5.537   1.584
 7235SOL    HW122604   6.645   5.610   1.638
 7235SOL    HW222605   6.538   5.487   1.641
 7236SOL     OW22606   2.072   2.652   3.065
 7236SOL    HW122607   2.022   2.734   3.095
 7236SOL    HW222608   2.153   2.680   3.012
 7237SOL     OW22609   5.252   0.694   6.753
 7237SOL    HW122610   5.250   0.602   6.792
 7237SOL    HW222611   5.178   0.749   6.792
 7238SOL     OW22612   4.724   2.799   6.920
 7238SOL    HW122613   4.805   2.776   6.974
 7238SOL    HW222614   4.685   2.716   6.880
 7239SOL     OW22615   0.227   3.569   2.319
 7239SOL    HW122616   0.296   3.521   2.265
 7239SOL    HW222617   0.267   3.652   2.357
 7240SOL     OW22618   6.597   1.903   5.769
 7240SOL    HW122619   6.535   1.881   5.844
 7240SOL    HW222620   6.623   1.819   5.722
 7241SOL     OW22621   2.435   0.691   0.896
 7241SOL    HW122622   2.515   0.635   0.918
 7241SOL    HW222623   2.462   0.787   0.896
 7242SOL     OW22624   0.502   5.922   4.187
 7242SOL    HW122625   0.484   6.009   4.233
 7242SOL    HW222626   0.540   5.939   4.096
 7243SOL     OW22627   6.770   4.116   6.062
 7243SOL    HW122628   6.804   4.058   6.136
 7243SOL    HW222629   6.670   4.106   6.056
 7244SOL     OW22630   0.355   6.803   0.230
 7244SOL    HW122631   0.402   6.804   0.141
 7244SOL    HW222632   0.262   6.769   0.218
 7245SOL     OW22633   1.779   2.468   6.825
 7245SOL    HW122634   1.714   2.421   6.765
 7245SOL    HW222635   1.852   2.404   6.852
 7246SOL     OW22636   3.071   0.395   4.566
 7246SOL    HW122637   3.072   0.296   4.558
 7246SOL    HW222638   2.980   0.425   4.596
 7247SOL     OW22639   3.192   2.644   5.305
 7247SOL    HW122640   3.230   2.644   5.398
 7247SOL    HW222641   3.199   2.552   5.266
 7248SOL     OW22642   3.585   0.455   4.350
 7248SOL    HW122643   3.574   0.516   4.428
 7248SOL    HW222644   3.506   0.463   4.290
 7249SOL     OW22645   4.112   4.746   2.095
 7249SOL    HW122646   4.062   4.817   2.146
 7249SOL    HW222647   4.079   4.744   2.000
 7250SOL     OW22648   5.323   4.799   5.704
 7250SOL    HW122649   5.379   4.838   5.778
 7250SOL    HW222650   5.330   4.857   5.623
 7251SOL     OW22651   0.509   6.595   5.677
 7251SOL    HW122652   0.572   6.650   5.732
 7251SOL    HW222653   0.438   6.654   5.639
 7252SOL     OW22654   3.327   4.051   2.037
 7252SOL    HW122655   3.317   4.036   1.939
 7252SOL    HW222656   3.402   4.115   2.054
 7253SOL     OW22657   1.392   6.137   5.917
 7253SOL    HW122658   1.420   6.162   5.824
 7253SOL    HW222659   1.473   6.125   5.974
 7254SOL     OW22660   5.803   4.453   3.638
 7254SOL    HW122661   5.834   4.369   3.594
 7254SOL    HW222662   5.707   4.443   3.665
 7255SOL     OW22663   4.842   3.542   6.689
 7255SOL    HW122664   4.907   3.568   6.617
 7255SOL    HW222665   4.891   3.501   6.765
 7256SOL     OW22666   3.416   6.634   5.421
 7256SOL    HW122667   3.396   6.731   5.432
 7256SOL    HW222668   3.333   6.585   5.395
 7257SOL     OW22669   6.944   1.869   4.933
 7257SOL    HW122670   6.884   1.789   4.932
 7257SOL    HW222671   6.982   1.881   5.024
 7258SOL     OW22672   5.793   2.637   2.060
 7258SOL    HW122673   5.757   2.585   2.137
 7258SOL    HW222674   5.802   2.577   1.980
 7259SOL     OW22675   1.136   3.861   2.955
 7259SOL    HW122676   1.206   3.796   2.926
 7259SOL    HW222677   1.065   3.812   3.007
 7260SOL     OW22678   5.286   2.368   1.095
 7260SOL    HW122679   5.270   2.271   1.116
 7260SOL    HW222680   5.381   2.391   1.116
 7261SOL     OW22681   0.190   3.976   0.584
 7261SOL    HW122682   0.184   3.936   0.492
 7261SOL    HW222683   0.199   3.903   0.651
 7262SOL     OW22684   5.331   1.582   5.959
 7262SOL    HW122685   5.401   1.540   6.017
 7262SOL    HW222686   5.357   1.676   5.939
 7263SOL     OW22687   0.743   6.686   0.541
 7263SOL    HW122688   0.774   6.769   0.496
 7263SOL    HW222689   0.683   6.635   0.480
 7264SOL     OW22690   5.696   1.274   0.959
 7264SOL    HW122691   5.675   1.348   0.895
 7264SOL    HW222692   5.791   1.246   0.947
 7265SOL     OW22693   5.255   5.625   4.507
 7265SOL    HW122694   5.278   5.720   4.487
 7265SOL    HW222695   5.245   5.613   4.605
 7266SOL     OW22696   0.019   0.799   3.731
 7266SOL    HW122697   0.077   0.846   3.797
 7266SOL    HW222698   0.034   0.838   3.640
 7267SOL     OW22699   6.516   6.438   5.186
 7267SOL    HW122700   6.521   6.413   5.283
 7267SOL    HW222701   6.466   6.524   5.177
 7268SOL     OW22702   6.475   5.656   4.477
 7268SOL    HW122703   6.443   5.562   4.481
 7268SOL    HW222704   6.503   5.678   4.383
 7269SOL     OW22705   1.786   5.650   5.892
 7269SOL    HW122706   1.791   5.551   5.885
 7269SOL    HW222707   1.877   5.687   5.915
 7270SOL     OW22708   0.133   2.054   4.118
 7270SOL    HW122709   0.202   2.108   4.167
 7270SOL    HW222710   0.130   2.084   4.022
 7271SOL     OW22711   1.537   5.224   4.068
 7271SOL    HW122712   1.491   5.286   4.005
 7271SOL    HW222713   1.504   5.131   4.053
 7272SOL     OW22714   6.633   6.594   1.697
 7272SOL    HW122715   6.595   6.542   1.620
 7272SOL    HW222716   6.669   6.531   1.765
 7273SOL     OW22717   5.094   3.237   6.032
 7273SOL    HW122718   5.002   3.210   6.004
 7273SOL    HW222719   5.144   3.156   6.064
 7274SOL     OW22720   0.717   4.482   6.865
 7274SOL    HW122721   0.814   4.502   6.855
 7274SOL    HW222722   0.682   4.526   6.949
 7275SOL     OW22723   0.151   6.587   3.182
 7275SOL    HW122724   0.244   6.597   3.146
 7275SOL    HW222725   0.117   6.496   3.159
 7276SOL     OW22726   5.589   0.245   3.823
 7276SOL    HW122727   5.635   0.224   3.736
 7276SOL    HW222728   5.658   0.261   3.893
 7277SOL     OW22729   5.078   0.547   5.992
 7277SOL    HW122730   5.042   0.457   5.967
 7277SOL    HW222731   5.022   0.585   6.066
 7278SOL     OW22732   3.049   4.013   2.020
 7278SOL    HW122733   3.000   4.100   2.018
 7278SOL    HW222734   3.144   4.029   2.049
 7279SOL     OW22735   4.037   6.227   0.085
 7279SOL    HW122736   3.950   6.197   0.124
 7279SOL    HW222737   4.104   6.153   0.092
 7280SOL     OW22738   5.650   6.750   5.056
 7280SOL    HW122739   5.701   6.827   5.094
 7280SOL    HW222740   5.627   6.769   4.961
 7281SOL     OW22741   3.233   1.403   6.939
 7281SOL    HW122742   3.197   1.467   6.871
 7281SOL    HW222743   3.168   1.394   7.014
 7282SOL     OW22744   6.121   4.955   2.566
 7282SOL    HW122745   6.096   5.001   2.651
 7282SOL    HW222746   6.193   5.008   2.520
 7283SOL     OW22747   2.692   1.255   3.268
 7283SOL    HW122748   2.633   1.248   3.188
 7283SOL    HW222749   2.719   1.350   3.282
 7284SOL     OW22750   0.759   4.106   5.495
 7284SOL    HW122751   0.739   4.070   5.404
 7284SOL    HW222752   0.838   4.058   5.533
 7285SOL     OW22753   5.176   4.688   2.333
 7285SOL    HW122754   5.138   4.757   2.272
 7285SOL    HW222755   5.148   4.597   2.303
 7286SOL     OW22756   2.482   1.951   1.093
 7286SOL    HW122757   2.540   1.873   1.118
 7286SOL    HW222758   2.395   1.917   1.058
 7287SOL     OW22759   1.014   2.161   6.564
 7287SOL    HW122760   0.942   2.091   6.563
 7287SOL    HW222761   1.014   2.210   6.476
 7288SOL     OW22762   3.991   0.807   6.517
 7288SOL    HW122763   3.906   0.793   6.568
 7288SOL    HW222764   3.971   0.858   6.433
 7289SOL     OW22765   6.007   1.447   3.193
 7289SOL    HW122766   6.086   1.505   3.170
 7289SOL    HW222767   5.931   1.505   3.223
 7290SOL     OW22768   2.738   5.650   5.609
 7290SOL    HW122769   2.749   5.743   5.574
 7290SOL    HW222770   2.807   5.590   5.569
 7291SOL     OW22771   2.261   0.351   1.234
 7291SOL    HW122772   2.228   0.311   1.319
 7291SOL    HW222773   2.187   0.403   1.191
 7292SOL     OW22774   2.315   0.354   3.906
 7292SOL    HW122775   2.389   0.326   3.966
 7292SOL    HW222776   2.350   0.370   3.814
 7293SOL     OW22777   1.602   1.603   4.696
 7293SOL    HW122778   1.542   1.670   4.652
 7293SOL    HW222779   1.695   1.638   4.697
 7294SOL     OW22780   2.602   5.023   0.422
 7294SOL    HW122781   2.606   5.013   0.322
 7294SOL    HW222782   2.689   5.057   0.455
 7295SOL     OW22783   1.251   2.544   0.768
 7295SOL    HW122784   1.231   2.499   0.680
 7295SOL    HW222785   1.177   2.606   0.792
 7296SOL     OW22786   3.085   4.791   0.980
 7296SOL    HW122787   3.115   4.696   0.986
 7296SOL    HW222788   2.993   4.799   1.018
 7297SOL     OW22789   4.142   5.969   0.653
 7297SOL    HW122790   4.085   6.032   0.706
 7297SOL    HW222791   4.165   5.890   0.709
 7298SOL     OW22792   5.134   4.272   5.781
 7298SOL    HW122793   5.194   4.352   5.773
 7298SOL    HW222794   5.188   4.192   5.805
 7299SOL     OW22795   0.678   2.067   6.644
 7299SOL    HW122796   0.726   2.051   6.558
 7299SOL    HW222797   0.722   2.015   6.717
 7300SOL     OW22798   5.372   5.359   1.926
 7300SOL    HW122799   5.426   5.435   1.962
 7300SOL    HW222800   5.403   5.337   1.834
 7301SOL     OW22801   6.094   1.000   4.585
 7301SOL    HW122802   6.161   0.950   4.641
 7301SOL    HW222803   6.067   0.943   4.507
 7302SOL     OW22804   0.284   1.446   0.088
 7302SOL    HW122805   0.295   1.414   7.024
 7302SOL    HW222806   0.356   1.408   0.146
 7303SOL     OW22807   5.068   0.857   6.876
 7303SOL    HW122808   5.121   0.927   6.925
 7303SOL    HW222809   5.047   0.781   6.938
 7304SOL     OW22810   3.685   4.495   6.583
 7304SOL    HW122811   3.661   4.516   6.488
 7304SOL    HW222812   3.603   4.502   6.640
 7305SOL     OW22813   4.516   1.800   0.921
 7305SOL    HW122814   4.442   1.750   0.967
 7305SOL    HW222815   4.486   1.893   0.902
 7306SOL     OW22816   5.252   3.218   1.249
 7306SOL    HW122817   5.220   3.129   1.281
 7306SOL    HW222818   5.298   3.266   1.323
 7307SOL     OW22819   3.212   6.818   1.591
 7307SOL    HW122820   3.130   6.865   1.626
 7307SOL    HW222821   3.215   6.725   1.628
 7308SOL     OW22822   0.133   3.665   5.427
 7308SOL    HW122823   0.065   3.593   5.436
 7308SOL    HW222824   0.173   3.663   5.336
 7309SOL     OW22825   5.474   6.196   0.493
 7309SOL    HW122826   5.497   6.132   0.566
 7309SOL    HW222827   5.516   6.285   0.512
 7310SOL     OW22828   2.144   4.318   1.162
 7310SOL    HW122829   2.213   4.257   1.123
 7310SOL    HW222830   2.183   4.370   1.238
 7311SOL     OW22831   3.379   2.014   2.267
 7311SOL    HW122832   3.299   1.981   2.317
 7311SOL    HW222833   3.353   2.033   2.172
 7312SOL     OW22834   0.224   3.056   5.680
 7312SOL    HW122835   0.292   3.064   5.752
 7312SOL    HW222836   0.132   3.061   5.720
 7313SOL     OW22837   4.729   2.559   6.249
 7313SOL    HW122838   4.796   2.486   6.269
 7313SOL    HW222839   4.654   2.555   6.315
 7314SOL     OW22840   6.834   4.034   5.293
 7314SOL    HW122841   6.884   4.110   5.334
 7314SOL    HW222842   6.771   4.069   5.223
 7315SOL     OW22843   6.696   0.781   3.113
 7315SOL    HW122844   6.709   0.798   3.211
 7315SOL    HW222845   6.629   0.708   3.100
 7316SOL     OW22846   3.050   3.552   5.917
 7316SOL    HW122847   2.994   3.516   5.992
 7316SOL    HW222848   2.995   3.618   5.864
 7317SOL     OW22849   4.407   0.842   2.426
 7317SOL    HW122850   4.495   0.845   2.474
 7317SOL    HW222851   4.383   0.747   2.407
 7318SOL     OW22852   0.766   1.582   0.976
 7318SOL    HW122853   0.832   1.508   0.970
 7318SOL    HW222854   0.811   1.669   0.953
 7319SOL     OW22855   6.418   3.792   6.242
 7319SOL    HW122856   6.407   3.710   6.298
 7319SOL    HW222857   6.363   3.784   6.159
 7320SOL     OW22858   6.887   3.729   1.625
 7320SOL    HW122859   6.893   3.740   1.526
 7320SOL    HW222860   6.961   3.781   1.668
 7321SOL     OW22861   3.114   0.193   5.391
 7321SOL    HW122862   3.187   0.145   5.342
 7321SOL    HW222863   3.062   0.250   5.327
 7322SOL     OW22864   0.921   2.743   2.758
 7322SOL    HW122865   0.870   2.729   2.843
 7322SOL    HW222866   0.886   2.681   2.688
 7323SOL     OW22867   2.073   2.195   2.022
 7323SOL    HW122868   2.122   2.278   2.047
 7323SOL    HW222869   2.132   2.115   2.036
 7324SOL     OW22870   5.349   6.593   2.422
 7324SOL    HW122871   5.305   6.679   2.448
 7324SOL    HW222872   5.280   6.532   2.382
 7325SOL     OW22873   3.920   0.428   6.261
 7325SOL    HW122874   3.937   0.366   6.338
 7325SOL    HW222875   3.834   0.477   6.277
 7326SOL     OW22876   2.344   6.591   5.529
 7326SOL    HW122877   2.256   6.610   5.573
 7326SOL    HW222878   2.329   6.555   5.437
 7327SOL     OW22879   6.391   2.764   5.101
 7327SOL    HW122880   6.344   2.704   5.166
 7327SOL    HW222881   6.425   2.710   5.024
 7328SOL     OW22882   3.467   0.338   6.560
 7328SOL    HW122883   3.478   0.307   6.465
 7328SOL    HW222884   3.387   0.292   6.600
 7329SOL     OW22885   4.286   3.890   1.701
 7329SOL    HW122886   4.269   3.857   1.794
 7329SOL    HW222887   4.371   3.943   1.700
 7330SOL     OW22888   3.163   2.300   0.061
 7330SOL    HW122889   3.102   2.275   7.015
 7330SOL    HW222890   3.231   2.366   0.030
 7331SOL     OW22891   5.319   0.115   1.715
 7331SOL    HW122892   5.318   0.062   1.631
 7331SOL    HW222893   5.383   0.073   1.780
 7332SOL     OW22894   2.147   5.971   0.633
 7332SOL    HW122895   2.188   5.884   0.605
 7332SOL    HW222896   2.191   6.003   0.717
 7333SOL     OW22897   0.231   3.066   3.669
 7333SOL    HW122898   0.277   3.112   3.593
 7333SOL    HW222899   0.299   3.023   3.728
 7334SOL     OW22900   4.161   6.051   6.840
 7334SOL    HW122901   4.107   6.004   6.910
 7334SOL    HW222902   4.210   6.128   6.882
 7335SOL     OW22903   1.974   2.835   2.593
 7335SOL    HW122904   1.928   2.856   2.507
 7335SOL    HW222905   1.944   2.900   2.664
 7336SOL     OW22906   1.592   6.060   3.147
 7336SOL    HW122907   1.647   6.139   3.174
 7336SOL    HW222908   1.518   6.089   3.086
 7337SOL     OW22909   0.384   2.726   2.123
 7337SOL    HW122910   0.432   2.641   2.100
 7337SOL    HW222911   0.314   2.745   2.054
 7338SOL     OW22912   6.451   2.844   1.315
 7338SOL    HW122913   6.367   2.849   1.262
 7338SOL    HW222914   6.455   2.919   1.380
 7339SOL     OW22915   5.177   5.840   3.532
 7339SOL    HW122916   5.178   5.841   3.432
 7339SOL    HW222917   5.110   5.906   3.565
 7340SOL     OW22918   1.745   1.116   0.471
 7340SOL    HW122919   1.783   1.023   0.472
 7340SOL    HW222920   1.816   1.181   0.497
 7341SOL     OW22921   7.024   2.094   6.576
 7341SOL    HW122922   6.943   2.139   6.538
 7341SOL    HW222923   0.004   2.120   6.672
 7342SOL     OW22924   6.410   1.093   1.975
 7342SOL    HW122925   6.366   1.050   2.054
 7342SOL    HW222926   6.464   1.170   2.006
 7343SOL     OW22927   4.344   3.198   0.268
 7343SOL    HW122928   4.352   3.282   0.215
 7343SOL    HW222929   4.329   3.121   0.207
 7344SOL     OW22930   1.459   0.033   6.058
 7344SOL    HW122931   1.510   0.064   6.138
 7344SOL    HW222932   1.518   7.009   5.999
 7345SOL     OW22933   3.618   3.236   5.295
 7345SOL    HW122934   3.606   3.253   5.197
 7345SOL    HW222935   3.549   3.288   5.345
 7346SOL     OW22936   3.866   6.601   3.242
 7346SOL    HW122937   3.880   6.515   3.192
 7346SOL    HW222938   3.842   6.580   3.336
 7347SOL     OW22939   0.721   2.089   0.107
 7347SOL    HW122940   0.780   2.092   0.187
 7347SOL    HW222941   0.659   2.010   0.114
 7348SOL     OW22942   1.226   3.568   3.915
 7348SOL    HW122943   1.139   3.523   3.898
 7348SOL    HW222944   1.267   3.530   3.998
 7349SOL     OW22945   4.050   0.343   1.472
 7349SOL    HW122946   4.096   0.416   1.522
 7349SOL    HW222947   4.064   0.256   1.521
 7350SOL     OW22948   2.488   1.069   5.402
 7350SOL    HW122949   2.486   0.989   5.462
 7350SOL    HW222950   2.582   1.086   5.371
 7351SOL     OW22951   5.107   5.159   3.482
 7351SOL    HW122952   5.119   5.061   3.469
 7351SOL    HW222953   5.017   5.187   3.447
 7352SOL     OW22954   1.448   1.689   2.793
 7352SOL    HW122955   1.526   1.751   2.786
 7352SOL    HW222956   1.363   1.742   2.789
 7353SOL     OW22957   0.730   0.559   6.510
 7353SOL    HW122958   0.763   0.599   6.595
 7353SOL    HW222959   0.759   0.463   6.505
 7354SOL     OW22960   1.971   1.068   4.472
 7354SOL    HW122961   1.892   1.123   4.444
 7354SOL    HW222962   2.001   1.097   4.563
 7355SOL     OW22963   0.233   2.276   6.363
 7355SOL    HW122964   0.322   2.315   6.339
 7355SOL    HW222965   0.245   2.208   6.436
 7356SOL     OW22966   3.750   4.513   6.122
 7356SOL    HW122967   3.716   4.537   6.031
 7356SOL    HW222968   3.771   4.415   6.124
 7357SOL     OW22969   3.698   5.948   2.141
 7357SOL    HW122970   3.779   5.911   2.096
 7357SOL    HW222971   3.619   5.889   2.123
 7358SOL     OW22972   6.089   3.078   1.907
 7358SOL    HW122973   6.159   3.109   1.842
 7358SOL    HW222974   6.075   2.980   1.896
 7359SOL     OW22975   4.516   2.494   6.090
 7359SOL    HW122976   4.580   2.533   6.156
 7359SOL    HW222977   4.474   2.568   6.037
 7360SOL     OW22978   2.148   3.520   5.558
 7360SOL    HW122979   2.156   3.437   5.613
 7360SOL    HW222980   2.237   3.539   5.514
 7361SOL     OW22981   5.256   0.310   2.672
 7361SOL    HW122982   5.241   0.406   2.696
 7361SOL    HW222983   5.319   0.305   2.594
 7362SOL     OW22984   3.601   5.558   6.261
 7362SOL    HW122985   3.666   5.623   6.222
 7362SOL    HW222986   3.513   5.604   6.275
 7363SOL     OW22987   4.470   0.853   1.427
 7363SOL    HW122988   4.437   0.884   1.338
 7363SOL    HW222989   4.439   0.915   1.498
 7364SOL     OW22990   4.359   0.115   1.841
 7364SOL    HW122991   4.262   0.122   1.820
 7364SOL    HW222992   4.372   0.110   1.940
 7365SOL     OW22993   6.621   5.700   2.700
 7365SOL    HW122994   6.604   5.646   2.618
 7365SOL    HW222995   6.697   5.659   2.751
 7366SOL     OW22996   1.934   0.232   4.741
 7366SOL    HW122997   1.974   0.210   4.652
 7366SOL    HW222998   1.982   0.181   4.812
 7367SOL     OW22999   4.591   2.323   0.371
 7367SOL    HW123000   4.555   2.335   0.464
 7367SOL    HW223001   4.691   2.327   0.373
 7368SOL     OW23002   3.480   3.048   2.964
 7368SOL    HW123003   3.394   3.090   2.935
 7368SOL    HW223004   3.549   3.061   2.893
 7369SOL     OW23005   3.447   2.525   1.203
 7369SOL    HW123006   3.510   2.550   1.129
 7369SOL    HW223007   3.464   2.584   1.282
 7370SOL     OW23008   2.278   2.410   5.239
 7370SOL    HW123009   2.278   2.456   5.327
 7370SOL    HW223010   2.372   2.390   5.211
 7371SOL     OW23011   3.312   6.437   4.117
 7371SOL    HW123012   3.262   6.492   4.184
 7371SOL    HW223013   3.253   6.417   4.039
 7372SOL     OW23014   4.071   0.003   5.040
 7372SOL    HW123015   4.086   6.942   5.003
 7372SOL    HW223016   3.999   0.000   5.109
 7373SOL     OW23017   5.016   1.770   5.349
 7373SOL    HW123018   4.947   1.791   5.418
 7373SOL    HW223019   5.015   1.672   5.330
 7374SOL     OW23020   1.322   1.869   4.905
 7374SOL    HW123021   1.315   1.814   4.823
 7374SOL    HW223022   1.405   1.846   4.955
 7375SOL     OW23023   1.992   3.045   2.174
 7375SOL    HW123024   2.033   3.118   2.119
 7375SOL    HW223025   2.051   2.964   2.171
 7376SOL     OW23026   1.178   3.364   1.329
 7376SOL    HW123027   1.110   3.302   1.369
 7376SOL    HW223028   1.132   3.444   1.292
 7377SOL     OW23029   3.959   5.187   0.609
 7377SOL    HW123030   3.941   5.184   0.708
 7377SOL    HW223031   3.898   5.253   0.566
 7378SOL     OW23032   1.838   0.066   4.131
 7378SOL    HW123033   1.761   0.126   4.153
 7378SOL    HW223034   1.852   0.064   4.032
 7379SOL     OW23035   2.924   0.479   1.872
 7379SOL    HW123036   3.023   0.493   1.882
 7379SOL    HW223037   2.908   0.398   1.816
 7380SOL     OW23038   6.365   4.128   3.729
 7380SOL    HW123039   6.309   4.176   3.662
 7380SOL    HW223040   6.461   4.155   3.718
 7381SOL     OW23041   3.897   2.737   0.945
 7381SOL    HW123042   3.837   2.657   0.950
 7381SOL    HW223043   3.915   2.771   1.037
 7382SOL     OW23044   6.187   2.142   5.854
 7382SOL    HW123045   6.216   2.200   5.930
 7382SOL    HW223046   6.118   2.077   5.887
 7383SOL     OW23047   1.847   6.129   2.133
 7383SOL    HW123048   1.835   6.207   2.194
 7383SOL    HW223049   1.803   6.148   2.045
 7384SOL     OW23050   6.670   6.809   1.327
 7384SOL    HW123051   6.666   6.865   1.410
 7384SOL    HW223052   6.674   6.869   1.247
 7385SOL     OW23053   3.022   5.248   2.774
 7385SOL    HW123054   2.993   5.152   2.769
 7385SOL    HW223055   3.122   5.252   2.776
 7386SOL     OW23056   6.961   3.130   6.257
 7386SOL    HW123057   6.970   3.143   6.356
 7386SOL    HW223058   7.007   3.046   6.229
 7387SOL     OW23059   6.154   5.251   5.856
 7387SOL    HW123060   6.167   5.310   5.935
 7387SOL    HW223061   6.090   5.177   5.878
 7388SOL     OW23062   1.018   5.736   2.574
 7388SOL    HW123063   0.987   5.776   2.661
 7388SOL    HW223064   1.054   5.644   2.591
 7389SOL     OW23065   0.252   3.040   0.324
 7389SOL    HW123066   0.243   3.117   0.387
 7389SOL    HW223067   0.251   3.073   0.230
 7390SOL     OW23068   3.109   1.851   2.077
 7390SOL    HW123069   3.084   1.810   2.165
 7390SOL    HW223070   3.089   1.785   2.004
 7391SOL     OW23071   3.830   3.650   2.805
 7391SOL    HW123072   3.780   3.675   2.722
 7391SOL    HW223073   3.928   3.661   2.790
 7392SOL     OW23074   3.774   6.313   6.860
 7392SOL    HW123075   3.682   6.292   6.894
 7392SOL    HW223076   3.817   6.229   6.828
 7393SOL     OW23077   7.001   4.697   3.583
 7393SOL    HW123078   6.957   4.763   3.522
 7393SOL    HW223079   0.070   4.699   3.568
 7394SOL     OW23080   2.128   2.803   6.404
 7394SOL    HW123081   2.162   2.810   6.310
 7394SOL    HW223082   2.029   2.790   6.403
 7395SOL     OW23083   2.156   3.338   1.385
 7395SOL    HW123084   2.113   3.270   1.445
 7395SOL    HW223085   2.216   3.397   1.439
 7396SOL     OW23086   2.445   5.889   1.714
 7396SOL    HW123087   2.519   5.862   1.775
 7396SOL    HW223088   2.362   5.906   1.766
 7397SOL     OW23089   4.897   3.750   4.565
 7397SOL    HW123090   4.994   3.725   4.562
 7397SOL    HW223091   4.863   3.739   4.658
 7398SOL     OW23092   1.628   4.776   3.386
 7398SOL    HW123093   1.635   4.810   3.480
 7398SOL    HW223094   1.602   4.850   3.325
 7399SOL     OW23095   6.168   3.168   4.395
 7399SOL    HW123096   6.169   3.158   4.296
 7399SOL    HW223097   6.089   3.222   4.423
 7400SOL     OW23098   5.410   2.282   5.090
 7400SOL    HW123099   5.388   2.190   5.059
 7400SOL    HW223100   5.416   2.344   5.011
 7401SOL     OW23101   1.811   2.915   3.108
 7401SOL    HW123102   1.881   2.970   3.153
 7401SOL    HW223103   1.790   2.953   3.018
 7402SOL     OW23104   2.454   5.266   5.563
 7402SOL    HW123105   2.487   5.180   5.524
 7402SOL    HW223106   2.372   5.248   5.619
 7403SOL     OW23107   2.264   2.977   3.380
 7403SOL    HW123108   2.349   2.939   3.344
 7403SOL    HW223109   2.197   2.904   3.393
 7404SOL     OW23110   3.334   4.145   1.402
 7404SOL    HW123111   3.357   4.242   1.414
 7404SOL    HW223112   3.341   4.098   1.490
 7405SOL     OW23113   2.864   5.465   5.431
 7405SOL    HW123114   2.790   5.422   5.379
 7405SOL    HW223115   2.921   5.520   5.369
 7406SOL     OW23116   0.144   1.416   5.391
 7406SOL    HW123117   0.067   1.478   5.380
 7406SOL    HW223118   0.190   1.403   5.303
 7407SOL     OW23119   0.932   6.269   6.524
 7407SOL    HW123120   0.877   6.350   6.502
 7407SOL    HW223121   0.883   6.187   6.494
 7408SOL     OW23122   3.397   4.442   5.319
 7408SOL    HW123123   3.312   4.403   5.355
 7408SOL    HW223124   3.441   4.497   5.390
 7409SOL     OW23125   5.428   4.172   0.251
 7409SOL    HW123126   5.344   4.133   0.214
 7409SOL    HW223127   5.501   4.167   0.182
 7410SOL     OW23128   0.168   0.822   0.324
 7410SOL    HW123129   0.071   0.805   0.343
 7410SOL    HW223130   0.214   0.852   0.408
 7411SOL     OW23131   1.211   1.741   5.995
 7411SOL    HW123132   1.222   1.701   5.904
 7411SOL    HW223133   1.271   1.821   6.002
 7412SOL     OW23134   4.078   0.051   0.342
 7412SOL    HW123135   4.066   0.016   0.249
 7412SOL    HW223136   3.990   0.082   0.378
 7413SOL     OW23137   5.024   4.677   3.081
 7413SOL    HW123138   5.118   4.680   3.114
 7413SOL    HW223139   5.018   4.721   2.991
 7414SOL     OW23140   1.782   2.319   4.417
 7414SOL    HW123141   1.687   2.326   4.449
 7414SOL    HW223142   1.792   2.370   4.332
 7415SOL     OW23143   3.484   6.620   6.784
 7415SOL    HW123144   3.439   6.541   6.742
 7415SOL    HW223145   3.438   6.704   6.754
 7416SOL     OW23146   1.611   1.409   2.572
 7416SOL    HW123147   1.511   1.408   2.574
 7416SOL    HW223148   1.646   1.419   2.665
 7417SOL     OW23149   1.353   2.295   3.678
 7417SOL    HW123150   1.258   2.327   3.688
 7417SOL    HW223151   1.389   2.328   3.590
 7418SOL     OW23152   1.756   4.839   6.477
 7418SOL    HW123153   1.720   4.746   6.482
 7418SOL    HW223154   1.856   4.836   6.467
 7419SOL     OW23155   6.425   3.821   3.622
 7419SOL    HW123156   6.415   3.843   3.525
 7419SOL    HW223157   6.427   3.907   3.674
 7420SOL     OW23158   0.035   5.902   1.868
 7420SOL    HW123159   0.034   5.925   1.966
 7420SOL    HW223160   0.096   5.825   1.852
 7421SOL     OW23161   4.935   3.570   1.296
 7421SOL    HW123162   4.852   3.549   1.245
 7421SOL    HW223163   4.986   3.641   1.248
 7422SOL     OW23164   6.315   3.357   1.992
 7422SOL    HW123165   6.317   3.446   1.946
 7422SOL    HW223166   6.271   3.290   1.934
 7423SOL     OW23167   5.585   1.846   5.658
 7423SOL    HW123168   5.541   1.789   5.589
 7423SOL    HW223169   5.587   1.797   5.745
 7424SOL     OW23170   6.569   1.055   4.968
 7424SOL    HW123171   6.628   1.024   4.894
 7424SOL    HW223172   6.496   0.988   4.983
 7425SOL     OW23173   5.290   0.055   0.416
 7425SOL    HW123174   5.307   7.029   0.335
 7425SOL    HW223175   5.335   0.014   0.495
 7426SOL     OW23176   3.105   2.632   5.893
 7426SOL    HW123177   3.165   2.589   5.826
 7426SOL    HW223178   3.015   2.588   5.890
 7427SOL     OW23179   3.745   1.472   4.118
 7427SOL    HW123180   3.830   1.510   4.155
 7427SOL    HW223181   3.704   1.538   4.055
 7428SOL     OW23182   4.028   6.411   5.884
 7428SOL    HW123183   3.947   6.385   5.936
 7428SOL    HW223184   4.013   6.500   5.840
 7429SOL     OW23185   1.134   6.614   3.086
 7429SOL    HW123186   1.164   6.619   2.991
 7429SOL    HW223187   1.213   6.628   3.146
 7430SOL     OW23188   6.565   4.414   2.448
 7430SOL    HW123189   6.621   4.343   2.406
 7430SOL    HW223190   6.478   4.376   2.478
 7431SOL     OW23191   2.022   2.596   4.505
 7431SOL    HW123192   1.961   2.583   4.426
 7431SOL    HW223193   2.043   2.507   4.545
 7432SOL     OW23194   1.730   0.718   3.534
 7432SOL    HW123195   1.697   0.648   3.470
 7432SOL    HW223196   1.682   0.804   3.516
 7433SOL     OW23197   2.907   6.543   6.998
 7433SOL    HW123198   2.985   6.510   0.021
 7433SOL    HW223199   2.906   6.500   6.908
 7434SOL     OW23200   4.781   6.129   6.006
 7434SOL    HW123201   4.763   6.051   6.065
 7434SOL    HW223202   4.757   6.213   6.053
 7435SOL     OW23203   5.022   6.262   1.741
 7435SOL    HW123204   4.990   6.313   1.821
 7435SOL    HW223205   5.115   6.289   1.718
 7436SOL     OW23206   4.878   4.304   6.274
 7436SOL    HW123207   4.836   4.230   6.327
 7436SOL    HW223208   4.946   4.350   6.330
 7437SOL     OW23209   3.050   5.323   1.110
 7437SOL    HW123210   3.080   5.401   1.054
 7437SOL    HW223211   3.015   5.357   1.197
 7438SOL     OW23212   1.987   0.636   0.761
 7438SOL    HW123213   1.950   0.608   0.673
 7438SOL    HW223214   1.913   0.671   0.819
 7439SOL     OW23215   2.057   5.308   6.006
 7439SOL    HW123216   2.015   5.249   6.074
 7439SOL    HW223217   2.107   5.381   6.052
 7440SOL     OW23218   5.094   3.217   4.028
 7440SOL    HW123219   5.156   3.278   4.077
 7440SOL    HW223220   5.044   3.161   4.094
 7441SOL     OW23221   5.606   6.693   2.463
 7441SOL    HW123222   5.611   6.768   2.528
 7441SOL    HW223223   5.511   6.666   2.451
 7442SOL     OW23224   5.989   1.170   6.523
 7442SOL    HW123225   6.056   1.183   6.449
 7442SOL    HW223226   6.014   1.228   6.601
 7443SOL     OW23227   7.027   5.683   2.120
 7443SOL    HW123228   7.017   5.585   2.100
 7443SOL    HW223229   0.094   5.706   2.128
 7444SOL     OW23230   6.968   0.644   6.013
 7444SOL    HW123231   6.936   0.582   6.084
 7444SOL    HW223232   6.908   0.638   5.933
 7445SOL     OW23233   3.753   0.153   1.939
 7445SOL    HW123234   3.714   0.065   1.967
 7445SOL    HW223235   3.782   0.147   1.843
 7446SOL     OW23236   5.257   2.913   0.613
 7446SOL    HW123237   5.165   2.952   0.610
 7446SOL    HW223238   5.306   2.951   0.692
 7447SOL     OW23239   0.373   4.246   0.293
 7447SOL    HW123240   0.291   4.223   0.240
 7447SOL    HW223241   0.348   4.308   0.367
 7448SOL     OW23242   5.490   6.102   6.487
 7448SOL    HW123243   5.487   6.178   6.551
 7448SOL    HW223244   5.582   6.063   6.484
 7449SOL     OW23245   0.445   4.673   0.340
 7449SOL    HW123246   0.386   4.610   0.390
 7449SOL    HW223247   0.518   4.622   0.294
 7450SOL     OW23248   4.995   2.129   5.878
 7450SOL    HW123249   5.033   2.128   5.971
 7450SOL    HW223250   5.068   2.114   5.812
 7451SOL     OW23251   5.873   5.874   2.021
 7451SOL    HW123252   5.903   5.878   2.117
 7451SOL    HW223253   5.774   5.864   2.017
 7452SOL     OW23254   5.838   6.466   5.157
 7452SOL    HW123255   5.849   6.561   5.188
 7452SOL    HW223256   5.752   6.457   5.108
 7453SOL     OW23257   5.352   5.796   6.601
 7453SOL    HW123258   5.293   5.876   6.604
 7453SOL    HW223259   5.398   5.785   6.689
 7454SOL     OW23260   3.179   1.961   0.787
 7454SOL    HW123261   3.194   2.059   0.770
 7454SOL    HW223262   3.162   1.948   0.885
 7455SOL     OW23263   6.361   2.940   2.693
 7455SOL    HW123264   6.414   2.857   2.709
 7455SOL    HW223265   6.416   3.020   2.720
 7456SOL     OW23266   2.566   2.441   4.981
 7456SOL    HW123267   2.481   2.492   4.972
 7456SOL    HW223268   2.605   2.456   5.072
 7457SOL     OW23269   2.200   0.051   3.812
 7457SOL    HW123270   2.269   0.033   3.742
 7457SOL    HW223271   2.134   0.117   3.777
 7458SOL     OW23272   1.336   6.859   4.575
 7458SOL    HW123273   1.411   6.807   4.615
 7458SOL    HW223274   1.250   6.832   4.619
 7459SOL     OW23275   6.687   1.328   2.740
 7459SOL    HW123276   6.746   1.274   2.682
 7459SOL    HW223277   6.674   1.282   2.828
 7460SOL     OW23278   1.585   6.746   0.181
 7460SOL    HW123279   1.527   6.825   0.160
 7460SOL    HW223280   1.534   6.662   0.162
 7461SOL     OW23281   6.944   6.365   5.791
 7461SOL    HW123282   6.938   6.429   5.714
 7461SOL    HW223283   7.015   6.297   5.774
 7462SOL     OW23284   0.887   5.538   1.186
 7462SOL    HW123285   0.873   5.618   1.245
 7462SOL    HW223286   0.985   5.526   1.168
 7463SOL     OW23287   3.588   4.928   0.460
 7463SOL    HW123288   3.548   4.857   0.402
 7463SOL    HW223289   3.676   4.956   0.422
 7464SOL     OW23290   0.484   5.559   4.484
 7464SOL    HW123291   0.535   5.607   4.413
 7464SOL    HW223292   0.520   5.466   4.494
 7465SOL     OW23293   2.367   5.074   0.070
 7465SOL    HW123294   2.373   5.065   7.000
 7465SOL    HW223295   2.375   5.170   0.095
 7466SOL     OW23296   0.431   0.512   5.455
 7466SOL    HW123297   0.421   0.510   5.355
 7466SOL    HW223298   0.464   0.423   5.486
 7467SOL     OW23299   0.310   2.755   5.913
 7467SOL    HW123300   0.338   2.733   6.006
 7467SOL    HW223301   0.363   2.833   5.880
 7468SOL     OW23302   5.773   2.742   4.970
 7468SOL    HW123303   5.675   2.751   4.986
 7468SOL    HW223304   5.790   2.741   4.871
 7469SOL     OW23305   6.694   1.805   0.682
 7469SOL    HW123306   6.780   1.783   0.637
 7469SOL    HW223307   6.652   1.722   0.718
 7470SOL     OW23308   5.966   3.706   3.410
 7470SOL    HW123309   5.944   3.629   3.350
 7470SOL    HW223310   5.965   3.676   3.505
 7471SOL     OW23311   5.737   5.770   6.057
 7471SOL    HW123312   5.710   5.674   6.058
 7471SOL    HW223313   5.655   5.828   6.058
 7472SOL     OW23314   6.777   0.086   5.470
 7472SOL    HW123315   6.843   0.151   5.507
 7472SOL    HW223316   6.790   0.078   5.371
 7473SOL     OW23317   4.617   0.009   3.780
 7473SOL    HW123318   4.667   0.068   3.844
 7473SOL    HW223319   4.534   0.056   3.751
 7474SOL     OW23320   5.586   2.314   6.520
 7474SOL    HW123321   5.636   2.255   6.582
 7474SOL    HW223322   5.547   2.391   6.570
 7475SOL     OW23323   4.592   2.002   2.125
 7475SOL    HW123324   4.606   1.921   2.181
 7475SOL    HW223325   4.569   1.974   2.032
 7476SOL     OW23326   2.202   2.025   2.852
 7476SOL    HW123327   2.122   1.990   2.901
 7476SOL    HW223328   2.224   2.116   2.885
 7477SOL     OW23329   0.516   3.973   5.047
 7477SOL    HW123330   0.463   4.035   4.989
 7477SOL    HW223331   0.507   3.879   5.013
 7478SOL     OW23332   6.082   2.214   4.957
 7478SOL    HW123333   6.167   2.256   4.924
 7478SOL    HW223334   6.097   2.179   5.049
 7479SOL     OW23335   5.530   3.287   0.064
 7479SOL    HW123336   5.588   3.363   0.094
 7479SOL    HW223337   5.493   3.239   0.144
 7480SOL     OW23338   2.991   5.013   2.465
 7480SOL    HW123339   2.999   5.112   2.464
 7480SOL    HW223340   3.014   4.976   2.375
 7481SOL     OW23341   6.297   4.303   6.379
 7481SOL    HW123342   6.368   4.258   6.324
 7481SOL    HW223343   6.338   4.339   6.463
 7482SOL     OW23344   4.123   2.205   2.542
 7482SOL    HW123345   4.029   2.176   2.522
 7482SOL    HW223346   4.161   2.252   2.462
 7483SOL     OW23347   4.581   2.257   5.114
 7483SOL    HW123348   4.667   2.209   5.099
 7483SOL    HW223349   4.515   2.231   5.044
 7484SOL     OW23350   2.439   6.434   5.016
 7484SOL    HW123351   2.431   6.509   4.951
 7484SOL    HW223352   2.359   6.375   5.008
 7485SOL     OW23353   2.587   6.951   3.936
 7485SOL    HW123354   2.653   6.996   3.995
 7485SOL    HW223355   2.584   6.853   3.958
 7486SOL     OW23356   0.520   6.255   0.324
 7486SOL    HW123357   0.472   6.169   0.342
 7486SOL    HW223358   0.618   6.243   0.338
 7487SOL     OW23359   4.833   0.333   3.679
 7487SOL    HW123360   4.909   0.268   3.681
 7487SOL    HW223361   4.770   0.309   3.605
 7488SOL     OW23362   0.773   6.126   4.050
 7488SOL    HW123363   0.835   6.159   3.979
 7488SOL    HW223364   0.693   6.084   4.007
 7489SOL     OW23365   6.142   3.790   0.160
 7489SOL    HW123366   6.094   3.714   0.204
 7489SOL    HW223367   6.236   3.795   0.194
 7490SOL     OW23368   1.515   2.583   2.591
 7490SOL    HW123369   1.510   2.498   2.645
 7490SOL    HW223370   1.454   2.575   2.512
 7491SOL     OW23371   4.660   3.226   1.098
 7491SOL    HW123372   4.738   3.183   1.052
 7491SOL    HW223373   4.628   3.166   1.172
 7492SOL     OW23374   1.810   0.822   3.978
 7492SOL    HW123375   1.843   0.772   4.058
 7492SOL    HW223376   1.715   0.848   3.991
 7493SOL     OW23377   6.482   3.723   5.699
 7493SOL    HW123378   6.566   3.764   5.664
 7493SOL    HW223379   6.485   3.624   5.685
 7494SOL     OW23380   6.069   0.770   2.652
 7494SOL    HW123381   6.045   0.775   2.555
 7494SOL    HW223382   6.029   0.688   2.692
 7495SOL     OW23383   2.247   2.798   4.845
 7495SOL    HW123384   2.292   2.881   4.880
 7495SOL    HW223385   2.150   2.802   4.866
 7496SOL     OW23386   6.145   3.771   3.208
 7496SOL    HW123387   6.149   3.698   3.139
 7496SOL    HW223388   6.087   3.742   3.284
 7497SOL     OW23389   1.208   6.542   0.708
 7497SOL    HW123390   1.258   6.503   0.631
 7497SOL    HW223391   1.119   6.575   0.677
 7498SOL     OW23392   3.512   0.435   3.117
 7498SOL    HW123393   3.544   0.409   3.026
 7498SOL    HW223394   3.489   0.532   3.118
 7499SOL     OW23395   4.056   2.063   4.082
 7499SOL    HW123396   4.134   2.123   4.097
 7499SOL    HW223397   3.976   2.117   4.054
 7500SOL     OW23398   4.242   6.909   3.678
 7500SOL    HW123399   4.187   6.844   3.626
 7500SOL    HW223400   4.222   7.002   3.647
 7501SOL     OW23401   5.542   2.718   4.227
 7501SOL    HW123402   5.467   2.753   4.171
 7501SOL    HW223403   5.623   2.705   4.170
 7502SOL     OW23404   3.516   0.394   4.712
 7502SOL    HW123405   3.593   0.333   4.730
 7502SOL    HW223406   3.549   0.480   4.674
 7503SOL     OW23407   1.500   5.988   0.958
 7503SOL    HW123408   1.577   5.950   1.010
 7503SOL    HW223409   1.462   6.067   1.006
 7504SOL     OW23410   0.306   6.093   2.545
 7504SOL    HW123411   0.257   6.162   2.491
 7504SOL    HW223412   0.261   6.004   2.534
 7505SOL     OW23413   0.130   0.898   5.125
 7505SOL    HW123414   0.145   0.967   5.054
 7505SOL    HW223415   0.035   0.903   5.156
 7506SOL     OW23416   3.173   1.903   3.202
 7506SOL    HW123417   3.086   1.903   3.152
 7506SOL    HW223418   3.184   1.989   3.251
 7507SOL     OW23419   6.602   3.270   4.644
 7507SOL    HW123420   6.653   3.189   4.675
 7507SOL    HW223421   6.504   3.252   4.653
 7508SOL     OW23422   1.558   5.971   0.088
 7508SOL    HW123423   1.647   5.982   0.044
 7508SOL    HW223424   1.559   6.016   0.178
 7509SOL     OW23425   5.117   4.023   6.992
 7509SOL    HW123426   5.154   4.091   0.025
 7509SOL    HW223427   5.178   3.944   6.988
 7510SOL     OW23428   4.111   3.376   4.055
 7510SOL    HW123429   4.103   3.332   3.965
 7510SOL    HW223430   4.026   3.424   4.076
 7511SOL     OW23431   3.635   5.685   2.705
 7511SOL    HW123432   3.598   5.663   2.795
 7511SOL    HW223433   3.670   5.602   2.662
 7512SOL     OW23434   2.913   0.307   6.990
 7512SOL    HW123435   2.838   0.242   7.002
 7512SOL    HW223436   2.905   0.380   0.029
 7513SOL     OW23437   2.205   2.733   3.620
 7513SOL    HW123438   2.139   2.809   3.612
 7513SOL    HW223439   2.197   2.692   3.710
 7514SOL     OW23440   2.229   4.535   3.341
 7514SOL    HW123441   2.324   4.540   3.309
 7514SOL    HW223442   2.167   4.540   3.262
 7515SOL     OW23443   6.999   4.262   5.319
 7515SOL    HW123444   0.032   4.286   5.246
 7515SOL    HW223445   0.020   4.239   5.402
 7516SOL     OW23446   1.106   5.514   5.640
 7516SOL    HW123447   1.031   5.472   5.588
 7516SOL    HW223448   1.189   5.513   5.585
 7517SOL     OW23449   1.291   2.698   0.133
 7517SOL    HW123450   1.374   2.667   0.179
 7517SOL    HW223451   1.222   2.625   0.137
 7518SOL     OW23452   4.899   3.036   4.201
 7518SOL    HW123453   4.887   3.076   4.292
 7518SOL    HW223454   4.814   2.992   4.173
 7519SOL     OW23455   4.679   7.028   4.670
 7519SOL    HW123456   4.641   6.936   4.672
 7519SOL    HW223457   4.607   0.065   4.691
 7520SOL     OW23458   1.759   1.533   1.944
 7520SOL    HW123459   1.731   1.451   1.994
 7520SOL    HW223460   1.820   1.588   2.001
 7521SOL     OW23461   5.379   1.510   4.713
 7521SOL    HW123462   5.350   1.592   4.762
 7521SOL    HW223463   5.383   1.530   4.615
 7522SOL     OW23464   1.289   6.616   3.978
 7522SOL    HW123465   1.200   6.609   4.023
 7522SOL    HW223466   1.296   6.704   3.931
 7523SOL     OW23467   5.402   1.115   6.150
 7523SOL    HW123468   5.363   1.031   6.113
 7523SOL    HW223469   5.349   1.144   6.230
 7524SOL     OW23470   0.006   2.790   4.196
 7524SOL    HW123471   0.039   2.860   4.132
 7524SOL    HW223472   0.041   2.700   4.169
 7525SOL     OW23473   4.688   6.519   6.607
 7525SOL    HW123474   4.717   6.461   6.683
 7525SOL    HW223475   4.608   6.572   6.633
 7526SOL     OW23476   1.999   3.501   1.876
 7526SOL    HW123477   2.003   3.465   1.783
 7526SOL    HW223478   2.091   3.503   1.915
 7527SOL     OW23479   4.142   5.835   3.712
 7527SOL    HW123480   4.215   5.807   3.650
 7527SOL    HW223481   4.179   5.851   3.803
 7528SOL     OW23482   5.612   2.180   6.978
 7528SOL    HW123483   5.523   2.148   7.009
 7528SOL    HW223484   5.680   2.165   0.021
 7529SOL     OW23485   5.938   1.889   3.482
 7529SOL    HW123486   5.892   1.836   3.410
 7529SOL    HW223487   6.012   1.942   3.440
 7530SOL     OW23488   0.131   1.472   2.292
 7530SOL    HW123489   0.046   1.438   2.252
 7530SOL    HW223490   0.123   1.474   2.392
 7531SOL     OW23491   4.500   2.554   3.644
 7531SOL    HW123492   4.490   2.542   3.545
 7531SOL    HW223493   4.437   2.492   3.691
 7532SOL     OW23494   5.169   6.021   6.562
 7532SOL    HW123495   5.244   6.041   6.626
 7532SOL    HW223496   5.159   6.098   6.499
 7533SOL     OW23497   4.465   3.212   1.727
 7533SOL    HW123498   4.533   3.168   1.785
 7533SOL    HW223499   4.511   3.261   1.653
 7534SOL     OW23500   5.264   6.733   4.570
 7534SOL    HW123501   5.341   6.674   4.595
 7534SOL    HW223502   5.198   6.734   4.645
 7535SOL     OW23503   1.075   6.600   4.506
 7535SOL    HW123504   0.990   6.568   4.547
 7535SOL    HW223505   1.056   6.663   4.431
 7536SOL     OW23506   5.342   5.891   4.392
 7536SOL    HW123507   5.330   5.936   4.304
 7536SOL    HW223508   5.408   5.941   4.447
 7537SOL     OW23509   2.492   5.730   2.092
 7537SOL    HW123510   2.513   5.634   2.075
 7537SOL    HW223511   2.464   5.741   2.188
 7538SOL     OW23512   0.942   3.358   1.558
 7538SOL    HW123513   0.965   3.453   1.539
 7538SOL    HW223514   0.940   3.306   1.472
 7539SOL     OW23515   1.641   5.264   3.768
 7539SOL    HW123516   1.643   5.175   3.812
 7539SOL    HW223517   1.689   5.331   3.825
 7540SOL     OW23518   4.889   5.639   4.248
 7540SOL    HW123519   4.961   5.708   4.253
 7540SOL    HW223520   4.828   5.661   4.172
 7541SOL     OW23521   0.940   3.871   6.590
 7541SOL    HW123522   0.996   3.889   6.509
 7541SOL    HW223523   0.951   3.946   6.655
 7542SOL     OW23524   6.109   6.169   5.672
 7542SOL    HW123525   6.075   6.223   5.749
 7542SOL    HW223526   6.143   6.081   5.705
 7543SOL     OW23527   2.713   0.601   5.346
 7543SOL    HW123528   2.780   0.654   5.295
 7543SOL    HW223529   2.636   0.660   5.372
 7544SOL     OW23530   6.772   2.641   4.029
 7544SOL    HW123531   6.690   2.694   4.008
 7544SOL    HW223532   6.838   2.698   4.078
 7545SOL     OW23533   0.590   5.889   6.682
 7545SOL    HW123534   0.630   5.980   6.668
 7545SOL    HW223535   0.623   5.827   6.611
 7546SOL     OW23536   3.386   2.883   1.828
 7546SOL    HW123537   3.289   2.891   1.849
 7546SOL    HW223538   3.398   2.829   1.745
 7547SOL     OW23539   4.761   0.624   1.870
 7547SOL    HW123540   4.795   0.717   1.855
 7547SOL    HW223541   4.667   0.628   1.904
 7548SOL     OW23542   4.502   2.329   6.684
 7548SOL    HW123543   4.534   2.279   6.604
 7548SOL    HW223544   4.405   2.308   6.700
 7549SOL     OW23545   4.357   2.545   5.747
 7549SOL    HW123546   4.374   2.457   5.790
 7549SOL    HW223547   4.438   2.572   5.694
 7550SOL     OW23548   1.686   4.264   4.219
 7550SOL    HW123549   1.721   4.332   4.155
 7550SOL    HW223550   1.763   4.223   4.268
 7551SOL     OW23551   4.924   2.231   5.323
 7551SOL    HW123552   4.840   2.200   5.368
 7551SOL    HW223553   4.993   2.252   5.392
 7552SOL     OW23554   2.423   5.911   4.013
 7552SOL    HW123555   2.363   5.984   4.046
 7552SOL    HW223556   2.420   5.833   4.076
 7553SOL     OW23557   5.884   5.851   5.807
 7553SOL    HW123558   5.800   5.825   5.853
 7553SOL    HW223559   5.896   5.795   5.725
 7554SOL     OW23560   5.317   1.264   0.244
 7554SOL    HW123561   5.330   1.361   0.266
 7554SOL    HW223562   5.365   1.209   0.313
 7555SOL     OW23563   2.982   6.635   6.601
 7555SOL    HW123564   2.925   6.611   6.522
 7555SOL    HW223565   2.969   6.568   6.674
 7556SOL     OW23566   1.162   1.286   0.554
 7556SOL    HW123567   1.236   1.285   0.487
 7556SOL    HW223568   1.138   1.380   0.577
 7557SOL     OW23569   5.110   0.023   7.015
 7557SOL    HW123570   5.143   0.055   0.074
 7557SOL    HW223571   5.116   6.953   7.011
 7558SOL     OW23572   1.067   2.685   4.374
 7558SOL    HW123573   1.089   2.782   4.385
 7558SOL    HW223574   0.984   2.663   4.425
 7559SOL     OW23575   3.460   2.063   4.891
 7559SOL    HW123576   3.376   2.057   4.945
 7559SOL    HW223577   3.513   1.979   4.901
 7560SOL     OW23578   6.675   0.343   6.453
 7560SOL    HW123579   6.668   0.399   6.536
 7560SOL    HW223580   6.631   0.255   6.469
 7561SOL     OW23581   5.139   2.096   5.658
 7561SOL    HW123582   5.130   2.183   5.611
 7561SOL    HW223583   5.229   2.057   5.640
 7562SOL     OW23584   1.078   5.401   4.851
 7562SOL    HW123585   0.995   5.438   4.809
 7562SOL    HW223586   1.150   5.470   4.848
 7563SOL     OW23587   2.832   6.642   2.455
 7563SOL    HW123588   2.784   6.655   2.368
 7563SOL    HW223589   2.790   6.702   2.524
 7564SOL     OW23590   4.314   0.683   5.010
 7564SOL    HW123591   4.288   0.587   5.004
 7564SOL    HW223592   4.258   0.737   4.947
 7565SOL     OW23593   5.528   3.757   6.261
 7565SOL    HW123594   5.549   3.855   6.261
 7565SOL    HW223595   5.467   3.735   6.337
 7566SOL     OW23596   5.018   4.849   2.160
 7566SOL    HW123597   4.971   4.841   2.249
 7566SOL    HW223598   4.953   4.830   2.087
 7567SOL     OW23599   0.364   1.122   4.214
 7567SOL    HW123600   0.302   1.200   4.223
 7567SOL    HW223601   0.316   1.039   4.241
 7568SOL     OW23602   5.961   5.093   1.934
 7568SOL    HW123603   5.958   5.110   1.835
 7568SOL    HW223604   6.001   5.172   1.980
 7569SOL     OW23605   3.864   4.741   6.568
 7569SOL    HW123606   3.861   4.682   6.487
 7569SOL    HW223607   3.859   4.837   6.539
 7570SOL     OW23608   6.966   3.054   2.932
 7570SOL    HW123609   6.950   3.063   2.834
 7570SOL    HW223610   7.011   3.136   2.967
 7571SOL     OW23611   5.716   3.394   2.878
 7571SOL    HW123612   5.730   3.395   2.779
 7571SOL    HW223613   5.805   3.399   2.924
 7572SOL     OW23614   4.905   6.474   2.706
 7572SOL    HW123615   4.967   6.468   2.783
 7572SOL    HW223616   4.848   6.556   2.715
 7573SOL     OW23617   5.969   6.949   5.638
 7573SOL    HW123618   6.041   6.994   5.691
 7573SOL    HW223619   5.984   6.850   5.639
 7574SOL     OW23620   6.481   0.731   3.810
 7574SOL    HW123621   6.499   0.657   3.746
 7574SOL    HW223622   6.523   0.816   3.777
 7575SOL     OW23623   6.170   6.761   0.845
 7575SOL    HW123624   6.145   6.679   0.896
 7575SOL    HW223625   6.204   6.735   0.754
 7576SOL     OW23626   5.558   2.970   0.768
 7576SOL    HW123627   5.512   3.056   0.745
 7576SOL    HW223628   5.498   2.915   0.827
 7577SOL     OW23629   0.409   0.139   0.651
 7577SOL    HW123630   0.333   0.111   0.593
 7577SOL    HW223631   0.374   0.168   0.740
 7578SOL     OW23632   0.573   5.116   3.196
 7578SOL    HW123633   0.628   5.190   3.157
 7578SOL    HW223634   0.634   5.044   3.230
 7579SOL     OW23635   6.641   1.856   1.498
 7579SOL    HW123636   6.688   1.915   1.433
 7579SOL    HW223637   6.674   1.762   1.488
 7580SOL     OW23638   1.860   4.495   3.299
 7580SOL    HW123639   1.892   4.579   3.255
 7580SOL    HW223640   1.771   4.470   3.260
 7581SOL     OW23641   0.620   1.088   1.506
 7581SOL    HW123642   0.625   1.042   1.595
 7581SOL    HW223643   0.712   1.117   1.478
 7582SOL     OW23644   4.314   1.650   4.107
 7582SOL    HW123645   4.406   1.630   4.072
 7582SOL    HW223646   4.246   1.607   4.048
 7583SOL     OW23647   4.895   3.520   3.611
 7583SOL    HW123648   4.809   3.566   3.634
 7583SOL    HW223649   4.914   3.449   3.678
 7584SOL     OW23650   1.525   1.027   2.593
 7584SOL    HW123651   1.491   1.038   2.500
 7584SOL    HW223652   1.610   0.974   2.591
 7585SOL     OW23653   0.978   2.326   6.347
 7585SOL    HW123654   0.914   2.352   6.275
 7585SOL    HW223655   1.072   2.329   6.312
 7586SOL     OW23656   1.381   0.828   2.085
 7586SOL    HW123657   1.440   0.908   2.073
 7586SOL    HW223658   1.353   0.821   2.181
 7587SOL     OW23659   3.426   0.978   0.755
 7587SOL    HW123660   3.378   1.058   0.790
 7587SOL    HW223661   3.360   0.916   0.712
 7588SOL     OW23662   1.003   3.239   4.606
 7588SOL    HW123663   1.034   3.169   4.670
 7588SOL    HW223664   1.033   3.329   4.638
 7589SOL     OW23665   0.624   0.548   2.757
 7589SOL    HW123666   0.646   0.478   2.824
 7589SOL    HW223667   0.616   0.506   2.666
 7590SOL     OW23668   0.544   1.564   0.223
 7590SOL    HW123669   0.629   1.570   0.172
 7590SOL    HW223670   0.563   1.558   0.321
 7591SOL     OW23671   4.159   3.177   6.789
 7591SOL    HW123672   4.229   3.134   6.846
 7591SOL    HW223673   4.150   3.126   6.704
 7592SOL     OW23674   6.461   5.204   4.938
 7592SOL    HW123675   6.471   5.289   4.989
 7592SOL    HW223676   6.384   5.152   4.973
 7593SOL     OW23677   6.978   1.935   5.407
 7593SOL    HW123678   6.889   1.979   5.391
 7593SOL    HW223679   6.964   1.849   5.457
 7594SOL     OW23680   0.088   4.101   1.037
 7594SOL    HW123681   0.135   4.020   1.070
 7594SOL    HW223682   0.072   4.094   0.939
 7595SOL     OW23683   6.151   2.881   5.968
 7595SOL    HW123684   6.095   2.914   6.044
 7595SOL    HW223685   6.123   2.928   5.884
 7596SOL     OW23686   3.020   0.397   5.212
 7596SOL    HW123687   2.988   0.445   5.294
 7596SOL    HW223688   3.102   0.442   5.177
 7597SOL     OW23689   2.085   5.880   2.689
 7597SOL    HW123690   2.055   5.935   2.768
 7597SOL    HW223691   2.057   5.926   2.605
 7598SOL     OW23692   5.960   0.755   2.403
 7598SOL    HW123693   5.929   0.665   2.373
 7598SOL    HW223694   5.885   0.820   2.395
 7599SOL     OW23695   4.035   3.313   0.749
 7599SOL    HW123696   4.098   3.330   0.674
 7599SOL    HW223697   3.977   3.394   0.763
 7600SOL     OW23698   1.446   1.079   3.667
 7600SOL    HW123699   1.426   1.102   3.762
 7600SOL    HW223700   1.361   1.058   3.619
 7601SOL     OW23701   3.983   5.265   2.125
 7601SOL    HW123702   4.056   5.254   2.192
 7601SOL    HW223703   3.905   5.208   2.151
 7602SOL     OW23704   0.482   2.182   0.452
 7602SOL    HW123705   0.436   2.104   0.409
 7602SOL    HW223706   0.435   2.206   0.537
 7603SOL     OW23707   2.534   7.017   5.940
 7603SOL    HW123708   2.527   6.917   5.946
 7603SOL    HW223709   2.475   0.021   5.867
 7604SOL     OW23710   1.400   2.100   5.045
 7604SOL    HW123711   1.364   2.191   5.024
 7604SOL    HW223712   1.338   2.030   5.010
 7605SOL     OW23713   2.119   0.260   6.763
 7605SOL    HW123714   2.030   0.247   6.805
 7605SOL    HW223715   2.108   0.273   6.664
 7606SOL     OW23716   6.164   1.360   4.297
 7606SOL    HW123717   6.087   1.352   4.234
 7606SOL    HW223718   6.202   1.452   4.293
 7607SOL     OW23719   2.950   6.082   0.044
 7607SOL    HW123720   2.853   6.067   0.060
 7607SOL    HW223721   2.987   6.143   0.115
 7608SOL     OW23722   5.110   2.572   6.331
 7608SOL    HW123723   5.089   2.606   6.423
 7608SOL    HW223724   5.199   2.609   6.302
 7609SOL     OW23725   0.372   2.967   3.885
 7609SOL    HW123726   0.396   3.012   3.971
 7609SOL    HW223727   0.433   2.888   3.872
 7610SOL     OW23728   3.455   5.088   6.416
 7610SOL    HW123729   3.474   5.040   6.501
 7610SOL    HW223730   3.504   5.044   6.341
 7611SOL     OW23731   4.878   2.943   1.244
 7611SOL    HW123732   4.894   3.040   1.230
 7611SOL    HW223733   4.824   2.907   1.168
 7612SOL     OW23734   3.425   2.137   3.167
 7612SOL    HW123735   3.522   2.135   3.193
 7612SOL    HW223736   3.414   2.092   3.078
 7613SOL     OW23737   1.521   1.857   2.202
 7613SOL    HW123738   1.543   1.769   2.160
 7613SOL    HW223739   1.512   1.844   2.301
 7614SOL     OW23740   5.027   2.966   0.883
 7614SOL    HW123741   5.001   2.882   0.930
 7614SOL    HW223742   5.115   2.998   0.919
 7615SOL     OW23743   5.412   3.432   5.083
 7615SOL    HW123744   5.340   3.417   5.151
 7615SOL    HW223745   5.457   3.346   5.063
 7616SOL     OW23746   5.744   6.623   3.472
 7616SOL    HW123747   5.839   6.593   3.473
 7616SOL    HW223748   5.740   6.717   3.436
 7617SOL     OW23749   5.080   5.057   3.159
 7617SOL    HW123750   5.161   5.036   3.215
 7617SOL    HW223751   5.024   5.124   3.206
 7618SOL     OW23752   2.597   2.154   0.260
 7618SOL    HW123753   2.564   2.088   0.192
 7618SOL    HW223754   2.632   2.235   0.212
 7619SOL     OW23755   0.691   2.200   4.532
 7619SOL    HW123756   0.767   2.265   4.524
 7619SOL    HW223757   0.693   2.137   4.454
 7620SOL     OW23758   3.423   4.568   0.859
 7620SOL    HW123759   3.454   4.592   0.951
 7620SOL    HW223760   3.459   4.635   0.793
 7621SOL     OW23761   0.297   5.488   0.911
 7621SOL    HW123762   0.316   5.404   0.859
 7621SOL    HW223763   0.322   5.568   0.856
 7622SOL     OW23764   4.484   4.511   0.595
 7622SOL    HW123765   4.580   4.491   0.576
 7622SOL    HW223766   4.439   4.542   0.511
 7623SOL     OW23767   4.223   4.679   1.443
 7623SOL    HW123768   4.224   4.603   1.378
 7623SOL    HW223769   4.136   4.680   1.492
 7624SOL     OW23770   0.312   2.229   1.902
 7624SOL    HW123771   0.267   2.208   1.989
 7624SOL    HW223772   0.402   2.185   1.900
 7625SOL     OW23773   5.041   1.692   0.314
 7625SOL    HW123774   4.979   1.770   0.308
 7625SOL    HW223775   5.061   1.673   0.411
 7626SOL     OW23776   6.035   0.560   5.542
 7626SOL    HW123777   6.079   0.586   5.457
 7626SOL    HW223778   5.940   0.591   5.542
 7627SOL     OW23779   3.710   2.180   0.153
 7627SOL    HW123780   3.800   2.173   0.109
 7627SOL    HW223781   3.670   2.089   0.162
 7628SOL     OW23782   3.301   2.279   0.954
 7628SOL    HW123783   3.272   2.368   0.921
 7628SOL    HW223784   3.285   2.273   1.052
 7629SOL     OW23785   5.532   3.385   3.582
 7629SOL    HW123786   5.597   3.460   3.593
 7629SOL    HW223787   5.578   3.298   3.599
 7630SOL     OW23788   1.372   0.524   5.146
 7630SOL    HW123789   1.472   0.518   5.153
 7630SOL    HW223790   1.341   0.479   5.062
 7631SOL     OW23791   2.235   6.760   4.671
 7631SOL    HW123792   2.190   6.753   4.582
 7631SOL    HW223793   2.321   6.811   4.662
 7632SOL     OW23794   4.696   5.816   1.082
 7632SOL    HW123795   4.654   5.881   1.019
 7632SOL    HW223796   4.781   5.781   1.042
 7633SOL     OW23797   5.424   0.427   1.012
 7633SOL    HW123798   5.503   0.367   1.029
 7633SOL    HW223799   5.362   0.383   0.947
 7634SOL     OW23800   1.583   1.937   0.888
 7634SOL    HW123801   1.487   1.963   0.875
 7634SOL    HW223802   1.637   2.019   0.909
 7635SOL     OW23803   2.727   4.933   4.996
 7635SOL    HW123804   2.784   4.887   5.064
 7635SOL    HW223805   2.697   4.867   4.928
 7636SOL     OW23806   1.050   4.986   4.545
 7636SOL    HW123807   1.013   5.079   4.546
 7636SOL    HW223808   1.146   4.988   4.573
 7637SOL     OW23809   0.444   6.487   4.233
 7637SOL    HW123810   0.367   6.469   4.171
 7637SOL    HW223811   0.527   6.445   4.197
 7638SOL     OW23812   0.645   5.163   1.816
 7638SOL    HW123813   0.643   5.250   1.767
 7638SOL    HW223814   0.555   5.146   1.857
 7639SOL     OW23815   0.796   1.202   0.201
 7639SOL    HW123816   0.770   1.205   0.298
 7639SOL    HW223817   0.714   1.212   0.144
 7640SOL     OW23818   3.169   1.233   6.730
 7640SOL    HW123819   3.186   1.281   6.644
 7640SOL    HW223820   3.192   1.293   6.807
 7641SOL     OW23821   6.601   4.077   2.998
 7641SOL    HW123822   6.583   4.117   2.908
 7641SOL    HW223823   6.537   4.002   3.014
 7642SOL     OW23824   5.658   1.323   3.395
 7642SOL    HW123825   5.604   1.336   3.312
 7642SOL    HW223826   5.727   1.395   3.401
 7643SOL     OW23827   5.172   2.747   2.957
 7643SOL    HW123828   5.194   2.671   3.018
 7643SOL    HW223829   5.252   2.806   2.947
 7644SOL     OW23830   4.843   3.428   1.766
 7644SOL    HW123831   4.882   3.495   1.828
 7644SOL    HW223832   4.867   3.336   1.797
 7645SOL     OW23833   3.390   4.026   5.888
 7645SOL    HW123834   3.445   3.946   5.913
 7645SOL    HW223835   3.429   4.108   5.929
 7646SOL     OW23836   1.290   3.036   2.801
 7646SOL    HW123837   1.378   2.994   2.779
 7646SOL    HW223838   1.246   2.983   2.873
 7647SOL     OW23839   6.903   3.006   5.023
 7647SOL    HW123840   6.904   3.065   5.103
 7647SOL    HW223841   6.818   2.954   5.021
 7648SOL     OW23842   2.009   2.219   3.268
 7648SOL    HW123843   1.939   2.278   3.309
 7648SOL    HW223844   2.084   2.206   3.333
 7649SOL     OW23845   6.733   1.038   4.498
 7649SOL    HW123846   6.719   1.107   4.427
 7649SOL    HW223847   6.773   0.956   4.458
 7650SOL     OW23848   4.097   0.959   1.410
 7650SOL    HW123849   4.051   1.043   1.380
 7650SOL    HW223850   4.105   0.958   1.509
 7651SOL     OW23851   2.552   4.927   4.380
 7651SOL    HW123852   2.568   4.948   4.283
 7651SOL    HW223853   2.609   4.988   4.436
 7652SOL     OW23854   6.168   1.648   4.485
 7652SOL    HW123855   6.161   1.574   4.553
 7652SOL    HW223856   6.154   1.736   4.530
 7653SOL     OW23857   0.655   1.731   6.715
 7653SOL    HW123858   0.695   1.784   6.790
 7653SOL    HW223859   0.568   1.772   6.688
 7654SOL     OW23860   6.137   3.478   5.117
 7654SOL    HW123861   6.213   3.455   5.179
 7654SOL    HW223862   6.082   3.551   5.158
 7655SOL     OW23863   3.078   0.580   3.571
 7655SOL    HW123864   3.136   0.636   3.511
 7655SOL    HW223865   3.136   0.519   3.625
 7656SOL     OW23866   6.856   3.912   6.276
 7656SOL    HW123867   6.883   3.857   6.355
 7656SOL    HW223868   6.937   3.939   6.225
 7657SOL     OW23869   1.302   4.170   4.741
 7657SOL    HW123870   1.346   4.127   4.820
 7657SOL    HW223871   1.271   4.100   4.677
 7658SOL     OW23872   2.696   0.619   0.574
 7658SOL    HW123873   2.689   0.634   0.475
 7658SOL    HW223874   2.610   0.582   0.608
 7659SOL     OW23875   4.499   4.169   5.350
 7659SOL    HW123876   4.557   4.181   5.431
 7659SOL    HW223877   4.550   4.197   5.268
 7660SOL     OW23878   6.899   5.140   4.580
 7660SOL    HW123879   6.925   5.237   4.581
 7660SOL    HW223880   6.875   5.111   4.672
 7661SOL     OW23881   4.596   1.899   6.057
 7661SOL    HW123882   4.594   1.974   5.991
 7661SOL    HW223883   4.593   1.812   6.009
 7662SOL     OW23884   1.452   1.687   1.971
 7662SOL    HW123885   1.368   1.634   1.983
 7662SOL    HW223886   1.431   1.785   1.979
 7663SOL     OW23887   5.885   5.504   5.736
 7663SOL    HW123888   5.827   5.495   5.655
 7663SOL    HW223889   5.951   5.429   5.738
 7664SOL     OW23890   4.122   1.188   2.958
 7664SOL    HW123891   4.124   1.181   2.858
 7664SOL    HW223892   4.040   1.144   2.993
 7665SOL     OW23893   4.263   2.277   4.074
 7665SOL    HW123894   4.233   2.293   3.980
 7665SOL    HW223895   4.354   2.234   4.073
 7666SOL     OW23896   5.829   5.733   3.826
 7666SOL    HW123897   5.797   5.659   3.885
 7666SOL    HW223898   5.874   5.803   3.880
 7667SOL     OW23899   5.135   6.340   2.510
 7667SOL    HW123900   5.094   6.417   2.558
 7667SOL    HW223901   5.219   6.312   2.557
 7668SOL     OW23902   2.209   5.143   0.695
 7668SOL    HW123903   2.308   5.140   0.704
 7668SOL    HW223904   2.166   5.125   0.784
 7669SOL     OW23905   3.513   6.401   6.272
 7669SOL    HW123906   3.534   6.490   6.231
 7669SOL    HW223907   3.439   6.410   6.338
 7670SOL     OW23908   0.383   6.432   0.087
 7670SOL    HW123909   0.396   6.357   0.152
 7670SOL    HW223910   0.287   6.460   0.087
 7671SOL     OW23911   5.382   0.257   2.273
 7671SOL    HW123912   5.458   0.306   2.230
 7671SOL    HW223913   5.316   0.323   2.310
 7672SOL     OW23914   5.504   4.591   3.060
 7672SOL    HW123915   5.574   4.653   3.095
 7672SOL    HW223916   5.423   4.643   3.034
 7673SOL     OW23917   1.291   5.861   3.634
 7673SOL    HW123918   1.328   5.769   3.636
 7673SOL    HW223919   1.355   5.924   3.678
 7674SOL     OW23920   3.773   0.264   4.651
 7674SOL    HW123921   3.762   0.167   4.628
 7674SOL    HW223922   3.789   0.316   4.567
 7675SOL     OW23923   3.618   6.562   3.076
 7675SOL    HW123924   3.550   6.495   3.106
 7675SOL    HW223925   3.709   6.532   3.106
 7676SOL     OW23926   3.128   3.220   5.848
 7676SOL    HW123927   3.135   3.121   5.838
 7676SOL    HW223928   3.108   3.261   5.758
 7677SOL     OW23929   6.348   4.584   1.481
 7677SOL    HW123930   6.278   4.614   1.545
 7677SOL    HW223931   6.436   4.579   1.528
 7678SOL     OW23932   1.564   2.034   5.650
 7678SOL    HW123933   1.531   2.103   5.586
 7678SOL    HW223934   1.487   1.985   5.691
 7679SOL     OW23935   2.416   5.377   5.166
 7679SOL    HW123936   2.417   5.475   5.186
 7679SOL    HW223937   2.334   5.355   5.113
 7680SOL     OW23938   1.693   0.485   5.197
 7680SOL    HW123939   1.654   0.576   5.206
 7680SOL    HW223940   1.774   0.477   5.256
 7681SOL     OW23941   3.199   2.780   6.137
 7681SOL    HW123942   3.161   2.708   6.079
 7681SOL    HW223943   3.280   2.746   6.184
 7682SOL     OW23944   2.899   1.668   2.690
 7682SOL    HW123945   2.999   1.664   2.691
 7682SOL    HW223946   2.869   1.753   2.734
 7683SOL     OW23947   0.070   1.157   4.504
 7683SOL    HW123948   0.067   1.113   4.594
 7683SOL    HW223949   0.000   1.228   4.498
 7684SOL     OW23950   4.171   2.650   1.640
 7684SOL    HW123951   4.089   2.595   1.659
 7684SOL    HW223952   4.159   2.741   1.680
 7685SOL     OW23953   3.481   0.651   0.325
 7685SOL    HW123954   3.558   0.687   0.377
 7685SOL    HW223955   3.437   0.726   0.275
 7686SOL     OW23956   4.525   0.244   4.622
 7686SOL    HW123957   4.551   0.341   4.628
 7686SOL    HW223958   4.432   0.236   4.586
 7687SOL     OW23959   5.676   5.094   4.497
 7687SOL    HW123960   5.695   4.999   4.474
 7687SOL    HW223961   5.706   5.153   4.422
 7688SOL     OW23962   0.711   5.134   6.242
 7688SOL    HW123963   0.618   5.166   6.255
 7688SOL    HW223964   0.776   5.202   6.276
 7689SOL     OW23965   4.289   0.584   1.692
 7689SOL    HW123966   4.303   0.572   1.593
 7689SOL    HW223967   4.334   0.668   1.722
 7690SOL     OW23968   6.094   5.240   0.375
 7690SOL    HW123969   6.062   5.290   0.294
 7690SOL    HW223970   6.037   5.264   0.454
 7691SOL     OW23971   4.116   4.734   3.394
 7691SOL    HW123972   4.065   4.790   3.460
 7691SOL    HW223973   4.182   4.677   3.443
 7692SOL     OW23974   1.275   6.632   2.154
 7692SOL    HW123975   1.314   6.611   2.064
 7692SOL    HW223976   1.185   6.673   2.143
 7693SOL     OW23977   2.603   0.951   0.829
 7693SOL    HW123978   2.572   0.996   0.745
 7693SOL    HW223979   2.699   0.923   0.818
 7694SOL     OW23980   5.784   2.721   4.688
 7694SOL    HW123981   5.848   2.792   4.658
 7694SOL    HW223982   5.705   2.720   4.626
 7695SOL     OW23983   6.540   0.574   3.095
 7695SOL    HW123984   6.467   0.579   3.027
 7695SOL    HW223985   6.530   0.491   3.150
 7696SOL     OW23986   0.483   2.353   6.312
 7696SOL    HW123987   0.498   2.429   6.375
 7696SOL    HW223988   0.545   2.362   6.233
 7697SOL     OW23989   3.692   6.828   2.966
 7697SOL    HW123990   3.722   6.894   2.897
 7697SOL    HW223991   3.711   6.864   3.058
 7698SOL     OW23992   6.172   2.229   6.592
 7698SOL    HW123993   6.211   2.144   6.629
 7698SOL    HW223994   6.236   2.304   6.608
 7699SOL     OW23995   3.114   5.508   7.022
 7699SOL    HW123996   3.203   5.542   0.021
 7699SOL    HW223997   3.056   5.585   6.995
 7700SOL     OW23998   4.673   6.069   2.724
 7700SOL    HW123999   4.634   6.123   2.799
 7700SOL    HW224000   4.683   5.974   2.754
 7701SOL     OW24001   0.388   2.683   6.154
 7701SOL    HW124002   0.412   2.748   6.226
 7701SOL    HW224003   0.306   2.633   6.180
 7702SOL     OW24004   4.668   6.936   5.519
 7702SOL    HW124005   4.705   6.889   5.600
 7702SOL    HW224006   4.599   7.002   5.548
 7703SOL     OW24007   6.718   0.110   4.454
 7703SOL    HW124008   6.707   0.042   4.382
 7703SOL    HW224009   6.680   0.197   4.424
 7704SOL     OW24010   6.393   1.371   3.963
 7704SOL    HW124011   6.394   1.380   3.864
 7704SOL    HW224012   6.303   1.396   3.998
 7705SOL     OW24013   2.165   4.902   0.467
 7705SOL    HW124014   2.233   4.910   0.540
 7705SOL    HW224015   2.094   4.838   0.495
 7706SOL     OW24016   3.710   2.971   2.770
 7706SOL    HW124017   3.760   2.961   2.684
 7706SOL    HW224018   3.775   2.986   2.845
 7707SOL     OW24019   6.681   5.939   0.508
 7707SOL    HW124020   6.643   5.976   0.593
 7707SOL    HW224021   6.697   5.841   0.519
 7708SOL     OW24022   2.558   6.719   4.058
 7708SOL    HW124023   2.508   6.780   4.119
 7708SOL    HW224024   2.612   6.655   4.112
 7709SOL     OW24025   6.631   4.582   0.893
 7709SOL    HW124026   6.649   4.607   0.798
 7709SOL    HW224027   6.637   4.663   0.952
 7710SOL     OW24028   1.883   3.425   0.661
 7710SOL    HW124029   1.904   3.328   0.647
 7710SOL    HW224030   1.912   3.452   0.753
 7711SOL     OW24031   6.551   4.518   5.597
 7711SOL    HW124032   6.558   4.616   5.578
 7711SOL    HW224033   6.539   4.504   5.695
 7712SOL     OW24034   6.679   4.782   5.979
 7712SOL    HW124035   6.766   4.832   5.976
 7712SOL    HW224036   6.603   4.847   5.980
 7713SOL     OW24037   1.794   4.905   0.608
 7713SOL    HW124038   1.702   4.873   0.631
 7713SOL    HW224039   1.817   4.985   0.664
 7714SOL     OW24040   6.648   0.587   4.265
 7714SOL    HW124041   6.719   0.648   4.301
 7714SOL    HW224042   6.665   0.572   4.167
 7715SOL     OW24043   1.855   2.558   6.447
 7715SOL    HW124044   1.946   2.551   6.488
 7715SOL    HW224045   1.793   2.604   6.512
 7716SOL     OW24046   0.721   6.082   6.493
 7716SOL    HW124047   0.732   5.997   6.442
 7716SOL    HW224048   0.646   6.135   6.454
 7717SOL     OW24049   1.433   2.040   6.458
 7717SOL    HW124050   1.404   2.136   6.467
 7717SOL    HW224051   1.523   2.037   6.416
 7718SOL     OW24052   1.482   4.194   2.581
 7718SOL    HW124053   1.578   4.218   2.592
 7718SOL    HW224054   1.466   4.161   2.488
 7719SOL     OW24055   1.623   3.829   4.913
 7719SOL    HW124056   1.628   3.922   4.950
 7719SOL    HW224057   1.528   3.798   4.915
 7720SOL     OW24058   6.191   1.900   6.260
 7720SOL    HW124059   6.289   1.894   6.281
 7720SOL    HW224060   6.142   1.939   6.337
 7721SOL     OW24061   1.465   0.451   2.783
 7721SOL    HW124062   1.458   0.379   2.852
 7721SOL    HW224063   1.528   0.423   2.711
 7722SOL     OW24064   2.138   5.080   4.161
 7722SOL    HW124065   2.067   5.148   4.138
 7722SOL    HW224066   2.202   5.120   4.226
 7723SOL     OW24067   5.047   3.161   6.825
 7723SOL    HW124068   5.076   3.209   6.908
 7723SOL    HW224069   4.964   3.204   6.789
 7724SOL     OW24070   2.823   4.118   1.551
 7724SOL    HW124071   2.843   4.145   1.457
 7724SOL    HW224072   2.770   4.033   1.550
 7725SOL     OW24073   5.853   2.541   2.468
 7725SOL    HW124074   5.946   2.532   2.433
 7725SOL    HW224075   5.839   2.632   2.505
 7726SOL     OW24076   0.800   3.249   5.946
 7726SOL    HW124077   0.810   3.348   5.952
 7726SOL    HW224078   0.856   3.206   6.017
 7727SOL     OW24079   4.942   2.667   2.215
 7727SOL    HW124080   4.868   2.731   2.235
 7727SOL    HW224081   4.904   2.581   2.181
 7728SOL     OW24082   2.363   3.012   5.453
 7728SOL    HW124083   2.394   3.033   5.360
 7728SOL    HW224084   2.302   2.933   5.450
 7729SOL     OW24085   6.077   2.015   2.807
 7729SOL    HW124086   6.109   1.934   2.856
 7729SOL    HW224087   6.120   2.019   2.717
 7730SOL     OW24088   5.734   4.749   5.470
 7730SOL    HW124089   5.740   4.841   5.508
 7730SOL    HW224090   5.647   4.707   5.497
 7731SOL     OW24091   5.960   0.287   0.806
 7731SOL    HW124092   6.014   0.203   0.813
 7731SOL    HW224093   6.015   0.359   0.764
 7732SOL     OW24094   4.890   0.515   6.415
 7732SOL    HW124095   4.849   0.523   6.506
 7732SOL    HW224096   4.846   0.441   6.365
 7733SOL     OW24097   6.357   5.820   2.432
 7733SOL    HW124098   6.264   5.841   2.460
 7733SOL    HW224099   6.382   5.728   2.463
 7734SOL     OW24100   2.809   4.264   5.603
 7734SOL    HW124101   2.712   4.266   5.625
 7734SOL    HW224102   2.822   4.233   5.509
 7735SOL     OW24103   6.279   6.274   0.383
 7735SOL    HW124104   6.258   6.305   0.476
 7735SOL    HW224105   6.343   6.197   0.387
 7736SOL     OW24106   2.915   3.127   0.942
 7736SOL    HW124107   3.012   3.152   0.940
 7736SOL    HW224108   2.888   3.108   1.037
 7737SOL     OW24109   4.314   5.567   0.866
 7737SOL    HW124110   4.318   5.525   0.957
 7737SOL    HW224111   4.406   5.573   0.828
 7738SOL     OW24112   2.668   6.130   6.732
 7738SOL    HW124113   2.650   6.054   6.795
 7738SOL    HW224114   2.640   6.216   6.775
 7739SOL     OW24115   1.356   3.122   1.961
 7739SOL    HW124116   1.290   3.073   1.904
 7739SOL    HW224117   1.445   3.077   1.956
 7740SOL     OW24118   1.070   0.735   3.529
 7740SOL    HW124119   1.094   0.759   3.435
 7740SOL    HW224120   1.148   0.690   3.572
 7741SOL     OW24121   1.882   4.837   6.067
 7741SOL    HW124122   1.926   4.764   6.119
 7741SOL    HW224123   1.927   4.847   5.979
 7742SOL     OW24124   3.674   1.868   4.234
 7742SOL    HW124125   3.634   1.950   4.193
 7742SOL    HW224126   3.669   1.793   4.168
 7743SOL     OW24127   5.251   1.119   6.787
 7743SOL    HW124128   5.187   1.164   6.725
 7743SOL    HW224129   5.208   1.104   6.875
 7744SOL     OW24130   0.797   6.033   4.722
 7744SOL    HW124131   0.828   6.117   4.766
 7744SOL    HW224132   0.776   5.964   4.791
 7745SOL     OW24133   1.766   6.422   0.067
 7745SOL    HW124134   1.845   6.482   0.060
 7745SOL    HW224135   1.795   6.331   0.097
 7746SOL     OW24136   0.752   6.045   1.059
 7746SOL    HW124137   0.828   5.995   1.017
 7746SOL    HW224138   0.701   5.983   1.119
 7747SOL     OW24139   0.007   6.410   0.808
 7747SOL    HW124140   0.080   6.464   0.849
 7747SOL    HW224141   6.995   6.461   0.733
 7748SOL     OW24142   3.893   2.885   5.958
 7748SOL    HW124143   3.966   2.922   5.901
 7748SOL    HW224144   3.933   2.825   6.027
 7749SOL     OW24145   3.809   3.597   3.591
 7749SOL    HW124146   3.883   3.530   3.588
 7749SOL    HW224147   3.819   3.655   3.672
 7750SOL     OW24148   5.682   4.857   6.286
 7750SOL    HW124149   5.707   4.943   6.331
 7750SOL    HW224150   5.636   4.877   6.200
 7751SOL     OW24151   6.714   1.565   4.517
 7751SOL    HW124152   6.641   1.530   4.458
 7751SOL    HW224153   6.692   1.659   4.544
 7752SOL     OW24154   5.851   5.328   5.329
 7752SOL    HW124155   5.898   5.406   5.287
 7752SOL    HW224156   5.799   5.360   5.409
 7753SOL     OW24157   2.541   0.289   4.050
 7753SOL    HW124158   2.513   0.194   4.042
 7753SOL    HW224159   2.637   0.294   4.076
 7754SOL     OW24160   5.850   0.385   1.432
 7754SOL    HW124161   5.784   0.437   1.485
 7754SOL    HW224162   5.847   0.289   1.459
 7755SOL     OW24163   0.312   6.236   5.621
 7755SOL    HW124164   0.340   6.306   5.687
 7755SOL    HW224165   0.369   6.242   5.539
 7756SOL     OW24166   2.782   4.820   2.518
 7756SOL    HW124167   2.859   4.884   2.523
 7756SOL    HW224168   2.726   4.842   2.438
 7757SOL     OW24169   4.727   6.297   5.501
 7757SOL    HW124170   4.704   6.245   5.419
 7757SOL    HW224171   4.664   6.272   5.575
 7758SOL     OW24172   2.276   2.841   6.174
 7758SOL    HW124173   2.227   2.812   6.092
 7758SOL    HW224174   2.360   2.888   6.148
 7759SOL     OW24175   2.147   0.695   4.427
 7759SOL    HW124176   2.079   0.657   4.490
 7759SOL    HW224177   2.107   0.773   4.379
 7760SOL     OW24178   5.543   3.211   2.035
 7760SOL    HW124179   5.450   3.193   2.068
 7760SOL    HW224180   5.558   3.163   1.949
 7761SOL     OW24181   3.130   6.850   6.274
 7761SOL    HW124182   3.075   6.931   6.292
 7761SOL    HW224183   3.167   6.814   6.359
 7762SOL     OW24184   4.444   1.297   0.237
 7762SOL    HW124185   4.414   1.356   0.312
 7762SOL    HW224186   4.403   1.330   0.151
 7763SOL     OW24187   1.188   2.106   0.998
 7763SOL    HW124188   1.096   2.078   1.025
 7763SOL    HW224189   1.204   2.201   1.027
 7764SOL     OW24190   3.923   3.358   2.492
 7764SOL    HW124191   3.998   3.364   2.558
 7764SOL    HW224192   3.844   3.314   2.536
 7765SOL     OW24193   6.197   3.462   3.473
 7765SOL    HW124194   6.287   3.469   3.430
 7765SOL    HW224195   6.183   3.540   3.535
 7766SOL     OW24196   5.945   1.612   0.285
 7766SOL    HW124197   5.855   1.646   0.310
 7766SOL    HW224198   5.935   1.537   0.218
 7767SOL     OW24199   3.863   6.450   3.707
 7767SOL    HW124200   3.893   6.415   3.618
 7767SOL    HW224201   3.764   6.441   3.716
 7768SOL     OW24202   3.388   4.933   2.493
 7768SOL    HW124203   3.336   4.934   2.578
 7768SOL    HW224204   3.332   4.893   2.420
 7769SOL     OW24205   4.646   1.908   1.187
 7769SOL    HW124206   4.628   1.860   1.100
 7769SOL    HW224207   4.560   1.940   1.226
 7770SOL     OW24208   2.886   5.011   1.831
 7770SOL    HW124209   2.939   4.960   1.899
 7770SOL    HW224210   2.934   5.096   1.808
 7771SOL     OW24211   2.478   2.031   4.716
 7771SOL    HW124212   2.436   2.096   4.653
 7771SOL    HW224213   2.504   2.078   4.800
 7772SOL     OW24214   5.005   1.106   4.257
 7772SOL    HW124215   5.021   1.138   4.164
 7772SOL    HW224216   4.951   1.174   4.307
 7773SOL     OW24217   3.785   4.230   6.070
 7773SOL    HW124218   3.849   4.174   6.018
 7773SOL    HW224219   3.757   4.181   6.152
 7774SOL     OW24220   5.258   1.185   6.389
 7774SOL    HW124221   5.234   1.282   6.392
 7774SOL    HW224222   5.186   1.132   6.433
 7775SOL     OW24223   3.585   6.759   3.301
 7775SOL    HW124224   3.613   6.855   3.301
 7775SOL    HW224225   3.572   6.727   3.207
 7776SOL     OW24226   3.721   3.624   6.116
 7776SOL    HW124227   3.634   3.588   6.083
 7776SOL    HW224228   3.707   3.713   6.159
 7777SOL     OW24229   1.951   0.986   6.258
 7777SOL    HW124230   1.953   0.942   6.168
 7777SOL    HW224231   2.017   1.060   6.259
 7778SOL     OW24232   5.826   0.530   0.704
 7778SOL    HW124233   5.910   0.527   0.758
 7778SOL    HW224234   5.829   0.458   0.634
 7779SOL     OW24235   3.192   2.527   0.888
 7779SOL    HW124236   3.264   2.594   0.870
 7779SOL    HW224237   3.109   2.575   0.917
 7780SOL     OW24238   1.060   6.371   4.363
 7780SOL    HW124239   1.049   6.452   4.421
 7780SOL    HW224240   1.069   6.399   4.267
 7781SOL     OW24241   1.521   3.706   5.755
 7781SOL    HW124242   1.512   3.635   5.685
 7781SOL    HW224243   1.610   3.697   5.800
 7782SOL     OW24244   2.202   4.006   6.343
 7782SOL    HW124245   2.300   4.010   6.325
 7782SOL    HW224246   2.155   3.963   6.266
 7783SOL     OW24247   2.468   6.562   6.644
 7783SOL    HW124248   2.538   6.620   6.602
 7783SOL    HW224249   2.399   6.538   6.575
 7784SOL     OW24250   1.235   3.151   0.069
 7784SOL    HW124251   1.301   3.214   0.112
 7784SOL    HW224252   1.148   3.157   0.118
 7785SOL     OW24253   2.282   6.811   3.784
 7785SOL    HW124254   2.319   6.719   3.796
 7785SOL    HW224255   2.346   6.865   3.730
 7786SOL     OW24256   3.062   4.760   5.318
 7786SOL    HW124257   3.160   4.777   5.309
 7786SOL    HW224258   3.035   4.684   5.259
 7787SOL     OW24259   2.134   2.957   5.160
 7787SOL    HW124260   2.227   2.972   5.128
 7787SOL    HW224261   2.087   3.045   5.169
 7788SOL     OW24262   1.679   1.828   1.642
 7788SOL    HW124263   1.612   1.900   1.662
 7788SOL    HW224264   1.728   1.851   1.558
 7789SOL     OW24265   2.759   0.295   1.120
 7789SOL    HW124266   2.676   0.348   1.138
 7789SOL    HW224267   2.757   0.260   1.026
 7790SOL     OW24268   6.714   4.267   3.128
 7790SOL    HW124269   6.690   4.194   3.064
 7790SOL    HW224270   6.664   4.254   3.214
 7791SOL     OW24271   2.597   5.919   4.429
 7791SOL    HW124272   2.642   5.996   4.386
 7791SOL    HW224273   2.576   5.941   4.524
 7792SOL     OW24274   1.505   5.721   6.348
 7792SOL    HW124275   1.441   5.698   6.420
 7792SOL    HW224276   1.594   5.678   6.368
 7793SOL     OW24277   1.439   1.098   5.334
 7793SOL    HW124278   1.442   1.000   5.314
 7793SOL    HW224279   1.446   1.150   5.250
 7794SOL     OW24280   4.774   4.981   4.385
 7794SOL    HW124281   4.817   4.895   4.356
 7794SOL    HW224282   4.832   5.027   4.452
 7795SOL     OW24283   1.738   4.315   5.587
 7795SOL    HW124284   1.726   4.414   5.584
 7795SOL    HW224285   1.827   4.290   5.548
 7796SOL     OW24286   4.034   3.858   3.721
 7796SOL    HW124287   4.079   3.946   3.731
 7796SOL    HW224288   4.033   3.810   3.810
 7797SOL     OW24289   0.785   6.154   3.287
 7797SOL    HW124290   0.819   6.127   3.197
 7797SOL    HW224291   0.790   6.075   3.349
 7798SOL     OW24292   2.951   5.530   0.225
 7798SOL    HW124293   2.852   5.517   0.220
 7798SOL    HW224294   2.993   5.504   0.138
 7799SOL     OW24295   7.013   5.944   1.520
 7799SOL    HW124296   6.948   5.960   1.594
 7799SOL    HW224297   0.013   5.848   1.521
 7800SOL     OW24298   0.585   4.828   1.521
 7800SOL    HW124299   0.542   4.850   1.434
 7800SOL    HW224300   0.684   4.830   1.512
 7801SOL     OW24301   2.515   1.278   0.346
 7801SOL    HW124302   2.581   1.210   0.377
 7801SOL    HW224303   2.516   1.356   0.408
 7802SOL     OW24304   6.240   2.768   1.836
 7802SOL    HW124305   6.321   2.757   1.894
 7802SOL    HW224306   6.158   2.774   1.893
 7803SOL     OW24307   4.524   3.451   5.728
 7803SOL    HW124308   4.562   3.358   5.721
 7803SOL    HW224309   4.547   3.490   5.817
 7804SOL     OW24310   5.905   1.344   4.528
 7804SOL    HW124311   5.890   1.441   4.508
 7804SOL    HW224312   6.003   1.325   4.524
 7805SOL     OW24313   5.316   1.865   1.472
 7805SOL    HW124314   5.351   1.939   1.414
 7805SOL    HW224315   5.221   1.885   1.497
 7806SOL     OW24316   5.335   2.722   5.764
 7806SOL    HW124317   5.389   2.697   5.844
 7806SOL    HW224318   5.248   2.761   5.794
 7807SOL     OW24319   0.261   4.631   6.006
 7807SOL    HW124320   0.164   4.624   6.028
 7807SOL    HW224321   0.271   4.676   5.917
 7808SOL     OW24322   0.754   1.618   5.169
 7808SOL    HW124323   0.846   1.579   5.173
 7808SOL    HW224324   0.697   1.576   5.240
 7809SOL     OW24325   2.406   5.629   4.661
 7809SOL    HW124326   2.459   5.555   4.621
 7809SOL    HW224327   2.360   5.681   4.589
 7810SOL     OW24328   3.065   0.833   5.586
 7810SOL    HW124329   3.130   0.870   5.519
 7810SOL    HW224330   2.972   0.849   5.554
 7811SOL     OW24331   6.130   4.673   4.017
 7811SOL    HW124332   6.084   4.733   3.951
 7811SOL    HW224333   6.063   4.615   4.062
 7812SOL     OW24334   1.315   1.826   4.451
 7812SOL    HW124335   1.235   1.783   4.492
 7812SOL    HW224336   1.311   1.816   4.351
 7813SOL     OW24337   5.232   3.054   6.653
 7813SOL    HW124338   5.149   3.034   6.704
 7813SOL    HW224339   5.261   3.148   6.672
 7814SOL     OW24340   6.916   2.504   3.567
 7814SOL    HW124341   6.834   2.500   3.510
 7814SOL    HW224342   6.960   2.414   3.568
 7815SOL     OW24343   4.937   1.232   6.842
 7815SOL    HW124344   4.899   1.194   6.926
 7815SOL    HW224345   4.906   1.326   6.831
 7816SOL     OW24346   0.765   3.511   6.012
 7816SOL    HW124347   0.716   3.585   5.966
 7816SOL    HW224348   0.839   3.549   6.068
 7817SOL     OW24349   6.038   3.900   4.366
 7817SOL    HW124350   5.948   3.856   4.363
 7817SOL    HW224351   6.085   3.887   4.279
 7818SOL     OW24352   5.858   0.106   1.462
 7818SOL    HW124353   5.951   0.078   1.442
 7818SOL    HW224354   5.834   0.079   1.555
 7819SOL     OW24355   0.245   2.964   1.359
 7819SOL    HW124356   0.271   2.882   1.411
 7819SOL    HW224357   0.273   3.046   1.409
 7820SOL     OW24358   1.950   2.105   5.285
 7820SOL    HW124359   1.985   2.162   5.212
 7820SOL    HW224360   1.899   2.028   5.246
 7821SOL     OW24361   4.163   5.812   0.862
 7821SOL    HW124362   4.236   5.746   0.845
 7821SOL    HW224363   4.123   5.795   0.952
 7822SOL     OW24364   0.777   6.642   5.369
 7822SOL    HW124365   0.683   6.606   5.371
 7822SOL    HW224366   0.821   6.622   5.457
 7823SOL     OW24367   2.178   4.202   4.415
 7823SOL    HW124368   2.232   4.285   4.428
 7823SOL    HW224369   2.174   4.180   4.317
 7824SOL     OW24370   6.954   2.523   5.394
 7824SOL    HW124371   6.956   2.623   5.403
 7824SOL    HW224372   6.870   2.488   5.436
 7825SOL     OW24373   2.347   2.983   6.804
 7825SOL    HW124374   2.409   2.917   6.762
 7825SOL    HW224375   2.272   3.003   6.742
 7826SOL     OW24376   6.934   2.114   0.150
 7826SOL    HW124377   6.888   2.189   0.198
 7826SOL    HW224378   0.001   2.114   0.173
 7827SOL     OW24379   0.472   5.559   2.968
 7827SOL    HW124380   0.468   5.572   3.067
 7827SOL    HW224381   0.496   5.646   2.924
 7828SOL     OW24382   0.091   3.738   6.602
 7828SOL    HW124383   0.158   3.791   6.550
 7828SOL    HW224384   0.009   3.724   6.547
 7829SOL     OW24385   3.236   3.028   1.470
 7829SOL    HW124386   3.196   3.039   1.561
 7829SOL    HW224387   3.229   2.933   1.441
 7830SOL     OW24388   3.291   5.599   5.019
 7830SOL    HW124389   3.313   5.503   5.039
 7830SOL    HW224390   3.234   5.603   4.938
 7831SOL     OW24391   1.992   1.463   1.123
 7831SOL    HW124392   1.963   1.499   1.034
 7831SOL    HW224393   2.046   1.531   1.172
 7832SOL     OW24394   5.199   0.522   4.556
 7832SOL    HW124395   5.120   0.565   4.514
 7832SOL    HW224396   5.222   0.570   4.641
 7833SOL     OW24397   1.535   0.373   3.942
 7833SOL    HW124398   1.493   0.444   3.999
 7833SOL    HW224399   1.577   0.303   4.001
 7834SOL     OW24400   6.337   1.953   4.045
 7834SOL    HW124401   6.302   2.023   3.983
 7834SOL    HW224402   6.268   1.934   4.115
 7835SOL     OW24403   3.868   1.847   5.524
 7835SOL    HW124404   3.805   1.855   5.600
 7835SOL    HW224405   3.945   1.788   5.550
 7836SOL     OW24406   3.980   4.290   5.232
 7836SOL    HW124407   4.072   4.257   5.256
 7836SOL    HW224408   3.938   4.226   5.167
 7837SOL     OW24409   5.846   6.749   0.368
 7837SOL    HW124410   5.906   6.698   0.431
 7837SOL    HW224411   5.894   6.764   0.282
 7838SOL     OW24412   5.498   5.323   1.305
 7838SOL    HW124413   5.507   5.403   1.365
 7838SOL    HW224414   5.509   5.240   1.358
 7839SOL     OW24415   6.511   4.540   4.927
 7839SOL    HW124416   6.553   4.512   5.014
 7839SOL    HW224417   6.441   4.609   4.946
 7840SOL     OW24418   1.288   4.058   3.904
 7840SOL    HW124419   1.293   4.054   4.004
 7840SOL    HW224420   1.369   4.014   3.865
 7841SOL     OW24421   4.943   1.560   6.498
 7841SOL    HW124422   4.921   1.605   6.584
 7841SOL    HW224423   4.895   1.607   6.423
 7842SOL     OW24424   2.254   1.639   2.564
 7842SOL    HW124425   2.345   1.619   2.601
 7842SOL    HW224426   2.228   1.733   2.588
 7843SOL     OW24427   6.710   6.687   4.151
 7843SOL    HW124428   6.807   6.701   4.171
 7843SOL    HW224429   6.701   6.616   4.081
 7844SOL     OW24430   3.867   1.261   2.512
 7844SOL    HW124431   3.871   1.314   2.597
 7844SOL    HW224432   3.774   1.261   2.477
 7845SOL     OW24433   5.968   1.882   1.785
 7845SOL    HW124434   5.877   1.840   1.784
 7845SOL    HW224435   5.962   1.974   1.823
 7846SOL     OW24436   1.636   2.845   0.385
 7846SOL    HW124437   1.735   2.836   0.375
 7846SOL    HW224438   1.615   2.921   0.447
 7847SOL     OW24439   5.862   2.305   3.623
 7847SOL    HW124440   5.945   2.286   3.676
 7847SOL    HW224441   5.781   2.289   3.680
 7848SOL     OW24442   2.822   4.534   0.938
 7848SOL    HW124443   2.845   4.439   0.959
 7848SOL    HW224444   2.793   4.541   0.842
 7849SOL     OW24445   5.474   3.006   5.789
 7849SOL    HW124446   5.459   2.988   5.886
 7849SOL    HW224447   5.399   3.061   5.753
 7850SOL     OW24448   6.903   1.459   3.345
 7850SOL    HW124449   6.921   1.520   3.422
 7850SOL    HW224450   6.857   1.377   3.378
 7851SOL     OW24451   1.111   3.945   1.452
 7851SOL    HW124452   1.094   3.881   1.376
 7851SOL    HW224453   1.109   3.894   1.538
 7852SOL     OW24454   3.271   1.526   0.380
 7852SOL    HW124455   3.322   1.597   0.429
 7852SOL    HW224456   3.184   1.563   0.349
 7853SOL     OW24457   3.948   3.186   1.670
 7853SOL    HW124458   3.958   3.238   1.754
 7853SOL    HW224459   4.032   3.134   1.653
 7854SOL     OW24460   4.281   1.781   6.023
 7854SOL    HW124461   4.358   1.841   6.003
 7854SOL    HW224462   4.315   1.697   6.065
 7855SOL     OW24463   5.034   6.475   4.356
 7855SOL    HW124464   4.972   6.474   4.434
 7855SOL    HW224465   5.054   6.570   4.331
 7856SOL     OW24466   1.818   4.602   4.941
 7856SOL    HW124467   1.890   4.542   4.975
 7856SOL    HW224468   1.733   4.550   4.931
 7857SOL     OW24469   5.171   4.102   0.240
 7857SOL    HW124470   5.171   4.046   0.323
 7857SOL    HW224471   5.091   4.161   0.240
 7858SOL     OW24472   6.958   5.369   5.915
 7858SOL    HW124473   7.000   5.431   5.982
 7858SOL    HW224474   6.998   5.278   5.924
 7859SOL     OW24475   4.922   3.334   6.296
 7859SOL    HW124476   4.953   3.259   6.238
 7859SOL    HW224477   5.002   3.377   6.340
 7860SOL     OW24478   3.180   1.178   4.489
 7860SOL    HW124479   3.145   1.084   4.490
 7860SOL    HW224480   3.199   1.205   4.394
 7861SOL     OW24481   2.815   5.613   1.803
 7861SOL    HW124482   2.844   5.604   1.707
 7861SOL    HW224483   2.874   5.557   1.861
 7862SOL     OW24484   3.145   5.653   1.907
 7862SOL    HW124485   3.079   5.712   1.954
 7862SOL    HW224486   3.231   5.654   1.957
 7863SOL     OW24487   0.047   4.428   3.451
 7863SOL    HW124488   0.063   4.360   3.523
 7863SOL    HW224489   0.031   4.517   3.491
 7864SOL     OW24490   1.985   6.175   6.154
 7864SOL    HW124491   2.018   6.265   6.125
 7864SOL    HW224492   1.909   6.186   6.218
 7865SOL     OW24493   5.910   5.983   3.933
 7865SOL    HW124494   5.960   5.968   4.018
 7865SOL    HW224495   5.850   6.063   3.944
 7866SOL     OW24496   2.013   0.567   5.777
 7866SOL    HW124497   2.059   0.546   5.863
 7866SOL    HW224498   1.969   0.657   5.784
 7867SOL     OW24499   5.638   0.351   4.084
 7867SOL    HW124500   5.594   0.435   4.053
 7867SOL    HW224501   5.570   0.292   4.128
 7868SOL     OW24502   3.966   6.176   0.752
 7868SOL    HW124503   3.936   6.268   0.728
 7868SOL    HW224504   3.946   6.159   0.848
 7869SOL     OW24505   5.538   4.585   5.822
 7869SOL    HW124506   5.546   4.681   5.850
 7869SOL    HW224507   5.556   4.577   5.724
 7870SOL     OW24508   4.452   6.546   5.182
 7870SOL    HW124509   4.416   6.569   5.273
 7870SOL    HW224510   4.457   6.628   5.126
 7871SOL     OW24511   5.162   1.141   2.260
 7871SOL    HW124512   5.067   1.147   2.292
 7871SOL    HW224513   5.183   1.221   2.204
 7872SOL     OW24514   1.613   5.093   2.679
 7872SOL    HW124515   1.707   5.059   2.681
 7872SOL    HW224516   1.612   5.191   2.696
 7873SOL     OW24517   6.960   1.334   0.786
 7873SOL    HW124518   6.909   1.418   0.767
 7873SOL    HW224519   6.960   1.277   0.703
 7874SOL     OW24520   5.617   2.452   1.089
 7874SOL    HW124521   5.630   2.355   1.108
 7874SOL    HW224522   5.613   2.503   1.175
 7875SOL     OW24523   3.988   3.846   7.009
 7875SOL    HW124524   4.031   3.792   6.937
 7875SOL    HW224525   4.001   3.800   0.067
 7876SOL     OW24526   0.747   6.771   2.503
 7876SOL    HW124527   0.728   6.806   2.595
 7876SOL    HW224528   0.664   6.775   2.448
 7877SOL     OW24529   6.355   1.795   2.627
 7877SOL    HW124530   6.396   1.704   2.629
 7877SOL    HW224531   6.332   1.822   2.721
 7878SOL     OW24532   4.829   4.130   3.492
 7878SOL    HW124533   4.775   4.214   3.480
 7878SOL    HW224534   4.845   4.088   3.403
 7879SOL     OW24535   3.046   5.302   3.526
 7879SOL    HW124536   3.122   5.287   3.463
 7879SOL    HW224537   3.067   5.380   3.585
 7880SOL     OW24538   2.474   3.823   1.519
 7880SOL    HW124539   2.413   3.903   1.515
 7880SOL    HW224540   2.437   3.758   1.585
 7881SOL     OW24541   5.180   4.096   4.392
 7881SOL    HW124542   5.153   4.089   4.488
 7881SOL    HW224543   5.116   4.156   4.344
 7882SOL     OW24544   2.491   3.716   1.255
 7882SOL    HW124545   2.473   3.618   1.258
 7882SOL    HW224546   2.497   3.751   1.348
 7883SOL     OW24547   0.314   0.774   5.487
 7883SOL    HW124548   0.233   0.749   5.540
 7883SOL    HW224549   0.367   0.692   5.465
 7884SOL     OW24550   0.532   2.890   4.422
 7884SOL    HW124551   0.555   2.905   4.325
 7884SOL    HW224552   0.501   2.796   4.434
 7885SOL     OW24553   6.149   5.464   0.652
 7885SOL    HW124554   6.107   5.490   0.739
 7885SOL    HW224555   6.141   5.365   0.639
 7886SOL     OW24556   4.787   5.787   0.681
 7886SOL    HW124557   4.722   5.762   0.609
 7886SOL    HW224558   4.795   5.887   0.685
 7887SOL     OW24559   4.301   1.723   6.906
 7887SOL    HW124560   4.301   1.686   6.813
 7887SOL    HW224561   4.388   1.704   6.950
 7888SOL     OW24562   4.916   0.578   4.689
 7888SOL    HW124563   4.920   0.668   4.731
 7888SOL    HW224564   4.962   0.580   4.600
 7889SOL     OW24565   0.410   5.789   2.366
 7889SOL    HW124566   0.471   5.712   2.347
 7889SOL    HW224567   0.383   5.787   2.462
 7890SOL     OW24568   2.118   3.906   2.089
 7890SOL    HW124569   2.148   4.002   2.095
 7890SOL    HW224570   2.019   3.902   2.101
 7891SOL     OW24571   2.668   4.738   2.172
 7891SOL    HW124572   2.701   4.679   2.097
 7891SOL    HW224573   2.604   4.805   2.135
 7892SOL     OW24574   1.791   2.576   5.528
 7892SOL    HW124575   1.709   2.535   5.490
 7892SOL    HW224576   1.819   2.654   5.471
 7893SOL     OW24577   5.657   6.805   0.822
 7893SOL    HW124578   5.713   6.805   0.905
 7893SOL    HW224579   5.696   6.868   0.755
 7894SOL     OW24580   2.007   6.064   2.479
 7894SOL    HW124581   1.976   5.981   2.434
 7894SOL    HW224582   2.101   6.084   2.451
 7895SOL     OW24583   6.120   1.174   5.004
 7895SOL    HW124584   6.213   1.149   5.033
 7895SOL    HW224585   6.084   1.245   5.065
 7896SOL     OW24586   5.100   3.925   5.480
 7896SOL    HW124587   5.026   3.954   5.419
 7896SOL    HW224588   5.183   3.978   5.459
 7897SOL     OW24589   2.093   3.835   6.539
 7897SOL    HW124590   2.117   3.908   6.475
 7897SOL    HW224591   2.145   3.846   6.624
 7898SOL     OW24592   4.401   2.075   3.915
 7898SOL    HW124593   4.338   2.004   3.886
 7898SOL    HW224594   4.420   2.066   4.012
 7899SOL     OW24595   5.714   2.414   1.902
 7899SOL    HW124596   5.751   2.322   1.917
 7899SOL    HW224597   5.623   2.421   1.942
 7900SOL     OW24598   1.758   5.529   0.888
 7900SOL    HW124599   1.844   5.490   0.854
 7900SOL    HW224600   1.777   5.615   0.935
 7901SOL     OW24601   5.954   6.505   6.240
 7901SOL    HW124602   5.890   6.484   6.314
 7901SOL    HW224603   5.904   6.548   6.165
 7902SOL     OW24604   4.567   4.517   1.084
 7902SOL    HW124605   4.473   4.486   1.102
 7902SOL    HW224606   4.565   4.610   1.048
 7903SOL     OW24607   6.819   1.692   0.280
 7903SOL    HW124608   6.858   1.718   0.192
 7903SOL    HW224609   6.794   1.595   0.278
 7904SOL     OW24610   0.047   1.707   2.791
 7904SOL    HW124611   6.990   1.722   2.743
 7904SOL    HW224612   0.084   1.795   2.821
 7905SOL     OW24613   3.798   1.572   1.421
 7905SOL    HW124614   3.841   1.602   1.336
 7905SOL    HW224615   3.857   1.595   1.498
 7906SOL     OW24616   5.981   5.967   6.671
 7906SOL    HW124617   6.023   6.046   6.716
 7906SOL    HW224618   6.030   5.884   6.699
 7907SOL     OW24619   6.487   2.356   3.940
 7907SOL    HW124620   6.551   2.390   3.871
 7907SOL    HW224621   6.417   2.300   3.896
 7908SOL     OW24622   0.206   1.355   3.749
 7908SOL    HW124623   0.196   1.432   3.685
 7908SOL    HW224624   0.278   1.377   3.815
 7909SOL     OW24625   4.829   4.072   4.478
 7909SOL    HW124626   4.764   4.001   4.454
 7909SOL    HW224627   4.855   4.062   4.574
 7910SOL     OW24628   4.331   3.433   6.135
 7910SOL    HW124629   4.298   3.522   6.168
 7910SOL    HW224630   4.422   3.444   6.095
 7911SOL     OW24631   6.670   4.661   0.622
 7911SOL    HW124632   6.769   4.651   0.628
 7911SOL    HW224633   6.645   4.680   0.527
 7912SOL     OW24634   6.015   4.642   6.137
 7912SOL    HW124635   5.973   4.732   6.138
 7912SOL    HW224636   6.115   4.652   6.131
 7913SOL     OW24637   6.995   5.183   6.696
 7913SOL    HW124638   6.934   5.237   6.639
 7913SOL    HW224639   0.019   5.121   6.639
 7914SOL     OW24640   5.946   4.259   0.877
 7914SOL    HW124641   5.923   4.353   0.900
 7914SOL    HW224642   5.962   4.252   0.779
 7915SOL     OW24643   4.499   1.790   3.353
 7915SOL    HW124644   4.544   1.850   3.419
 7915SOL    HW224645   4.500   1.834   3.263
 7916SOL     OW24646   5.481   3.003   5.310
 7916SOL    HW124647   5.442   2.938   5.375
 7916SOL    HW224648   5.422   3.009   5.230
 7917SOL     OW24649   4.141   3.745   4.752
 7917SOL    HW124650   4.108   3.653   4.774
 7917SOL    HW224651   4.217   3.768   4.812
 7918SOL     OW24652   6.301   1.475   2.103
 7918SOL    HW124653   6.240   1.454   2.179
 7918SOL    HW224654   6.247   1.482   2.019
 7919SOL     OW24655   5.654   5.082   2.280
 7919SOL    HW124656   5.700   5.050   2.197
 7919SOL    HW224657   5.592   5.011   2.314
 7920SOL     OW24658   0.469   4.891   1.293
 7920SOL    HW124659   0.377   4.864   1.268
 7920SOL    HW224660   0.472   4.990   1.311
 7921SOL     OW24661   2.820   6.650   1.690
 7921SOL    HW124662   2.828   6.552   1.705
 7921SOL    HW224663   2.780   6.667   1.599
 7922SOL     OW24664   0.641   5.336   6.609
 7922SOL    HW124665   0.646   5.379   6.699
 7922SOL    HW224666   0.597   5.247   6.617
 7923SOL     OW24667   1.452   1.284   3.405
 7923SOL    HW124668   1.428   1.198   3.449
 7923SOL    HW224669   1.503   1.342   3.469
 7924SOL     OW24670   3.327   6.984   3.909
 7924SOL    HW124671   3.251   6.934   3.952
 7924SOL    HW224672   3.391   6.918   3.869
 7925SOL     OW24673   6.351   1.636   6.197
 7925SOL    HW124674   6.310   1.560   6.248
 7925SOL    HW224675   6.281   1.706   6.182
 7926SOL     OW24676   2.686   0.830   3.001
 7926SOL    HW124677   2.618   0.897   2.974
 7926SOL    HW224678   2.648   0.770   3.072
 7927SOL     OW24679   4.163   5.333   5.322
 7927SOL    HW124680   4.160   5.433   5.322
 7927SOL    HW224681   4.159   5.300   5.417
 7928SOL     OW24682   1.997   5.146   3.246
 7928SOL    HW124683   1.954   5.140   3.336
 7928SOL    HW224684   1.943   5.093   3.180
 7929SOL     OW24685   4.058   3.714   4.469
 7929SOL    HW124686   4.100   3.634   4.427
 7929SOL    HW224687   4.089   3.722   4.564
 7930SOL     OW24688   4.202   5.195   3.431
 7930SOL    HW124689   4.235   5.186   3.525
 7930SOL    HW224690   4.247   5.128   3.372
 7931SOL     OW24691   2.165   2.310   0.272
 7931SOL    HW124692   2.197   2.346   0.184
 7931SOL    HW224693   2.237   2.256   0.314
 7932SOL     OW24694   2.173   0.117   0.076
 7932SOL    HW124695   2.137   0.051   0.010
 7932SOL    HW224696   2.232   0.070   0.141
 7933SOL     OW24697   1.079   0.217   6.890
 7933SOL    HW124698   1.042   0.220   6.983
 7933SOL    HW224699   1.126   0.130   6.877
 7934SOL     OW24700   2.795   3.738   0.487
 7934SOL    HW124701   2.793   3.645   0.452
 7934SOL    HW224702   2.796   3.736   0.587
 7935SOL     OW24703   5.002   6.105   1.130
 7935SOL    HW124704   4.967   6.185   1.179
 7935SOL    HW224705   4.975   6.109   1.034
 7936SOL     OW24706   4.086   6.278   3.270
 7936SOL    HW124707   4.012   6.308   3.209
 7936SOL    HW224708   4.174   6.298   3.229
 7937SOL     OW24709   6.084   6.521   5.386
 7937SOL    HW124710   6.032   6.450   5.433
 7937SOL    HW224711   6.058   6.524   5.290
 7938SOL     OW24712   4.085   5.246   4.849
 7938SOL    HW124713   4.064   5.204   4.761
 7938SOL    HW224714   4.007   5.236   4.911
 7939SOL     OW24715   0.669   1.401   5.686
 7939SOL    HW124716   0.599   1.332   5.665
 7939SOL    HW224717   0.659   1.431   5.781
 7940SOL     OW24718   1.950   5.399   1.279
 7940SOL    HW124719   1.858   5.360   1.278
 7940SOL    HW224720   1.952   5.479   1.340
 7941SOL     OW24721   0.287   1.170   0.601
 7941SOL    HW124722   0.316   1.189   0.507
 7941SOL    HW224723   0.272   1.256   0.649
 7942SOL     OW24724   0.394   6.841   1.981
 7942SOL    HW124725   0.477   6.804   2.023
 7942SOL    HW224726   0.316   6.824   2.042
 7943SOL     OW24727   5.408   2.283   0.777
 7943SOL    HW124728   5.450   2.360   0.825
 7943SOL    HW224729   5.469   2.203   0.783
 7944SOL     OW24730   0.533   3.335   1.105
 7944SOL    HW124731   0.449   3.363   1.057
 7944SOL    HW224732   0.511   3.262   1.170
 7945SOL     OW24733   5.288   6.702   2.835
 7945SOL    HW124734   5.206   6.644   2.827
 7945SOL    HW224735   5.370   6.647   2.821
 7946SOL     OW24736   1.542   2.305   6.214
 7946SOL    HW124737   1.567   2.333   6.306
 7946SOL    HW224738   1.444   2.288   6.209
 7947SOL     OW24739   3.872   2.822   6.257
 7947SOL    HW124740   3.962   2.822   6.299
 7947SOL    HW224741   3.857   2.908   6.209
 7948SOL     OW24742   6.707   0.001   0.506
 7948SOL    HW124743   6.646   0.080   0.512
 7948SOL    HW224744   6.695   6.985   0.418
 7949SOL     OW24745   5.091   4.841   3.894
 7949SOL    HW124746   5.062   4.879   3.806
 7949SOL    HW224747   5.130   4.914   3.950
 7950SOL     OW24748   4.291   4.734   3.923
 7950SOL    HW124749   4.234   4.739   4.005
 7950SOL    HW224750   4.238   4.766   3.844
 7951SOL     OW24751   3.027   3.477   0.632
 7951SOL    HW124752   3.053   3.466   0.728
 7951SOL    HW224753   3.016   3.387   0.589
 7952SOL     OW24754   6.752   2.631   0.111
 7952SOL    HW124755   6.729   2.728   0.115
 7952SOL    HW224756   6.821   2.610   0.180
 7953SOL     OW24757   2.433   2.499   3.192
 7953SOL    HW124758   2.490   2.485   3.111
 7953SOL    HW224759   2.462   2.437   3.264
 7954SOL     OW24760   4.789   5.031   5.229
 7954SOL    HW124761   4.853   5.102   5.256
 7954SOL    HW224762   4.789   5.021   5.130
 7955SOL     OW24763   6.877   6.522   7.004
 7955SOL    HW124764   6.937   6.448   6.974
 7955SOL    HW224765   6.813   6.546   6.931
 7956SOL     OW24766   6.887   5.973   3.560
 7956SOL    HW124767   6.793   5.942   3.576
 7956SOL    HW224768   6.913   6.039   3.630
 7957SOL     OW24769   1.284   1.979   0.477
 7957SOL    HW124770   1.185   1.963   0.481
 7957SOL    HW224771   1.321   1.983   0.570
 7958SOL     OW24772   3.214   5.336   4.214
 7958SOL    HW124773   3.258   5.322   4.302
 7958SOL    HW224774   3.284   5.344   4.143
 7959SOL     OW24775   5.936   4.755   0.477
 7959SOL    HW124776   6.017   4.696   0.469
 7959SOL    HW224777   5.880   4.725   0.554
 7960SOL     OW24778   3.296   0.855   0.999
 7960SOL    HW124779   3.354   0.836   0.919
 7960SOL    HW224780   3.328   0.938   1.044
 7961SOL     OW24781   1.134   6.043   5.865
 7961SOL    HW124782   1.158   5.957   5.819
 7961SOL    HW224783   1.216   6.079   5.910
 7962SOL     OW24784   2.391   1.006   1.611
 7962SOL    HW124785   2.449   0.953   1.549
 7962SOL    HW224786   2.313   1.043   1.561
 7963SOL     OW24787   0.497   0.955   5.829
 7963SOL    HW124788   0.560   1.030   5.851
 7963SOL    HW224789   0.404   0.983   5.850
 7964SOL     OW24790   5.285   5.269   3.280
 7964SOL    HW124791   5.242   5.268   3.370
 7964SOL    HW224792   5.339   5.185   3.268
 7965SOL     OW24793   4.784   2.381   0.890
 7965SOL    HW124794   4.880   2.387   0.915
 7965SOL    HW224795   4.771   2.307   0.823
 7966SOL     OW24796   1.377   5.417   3.926
 7966SOL    HW124797   1.292   5.424   3.873
 7966SOL    HW224798   1.358   5.438   4.022
 7967SOL     OW24799   3.473   5.830   2.526
 7967SOL    HW124800   3.376   5.809   2.518
 7967SOL    HW224801   3.508   5.799   2.614
 7968SOL     OW24802   2.171   2.413   4.015
 7968SOL    HW124803   2.121   2.326   4.012
 7968SOL    HW224804   2.180   2.442   4.110
 7969SOL     OW24805   4.187   0.871   3.340
 7969SOL    HW124806   4.270   0.884   3.394
 7969SOL    HW224807   4.211   0.855   3.244
 7970SOL     OW24808   6.929   4.014   2.896
 7970SOL    HW124809   6.911   4.091   2.835
 7970SOL    HW224810   6.899   4.037   2.989
 7971SOL     OW24811   2.953   0.951   2.307
 7971SOL    HW124812   2.884   0.935   2.236
 7971SOL    HW224813   3.039   0.979   2.265
 7972SOL     OW24814   0.111   4.595   1.331
 7972SOL    HW124815   0.115   4.519   1.266
 7972SOL    HW224816   0.019   4.599   1.371
 7973SOL     OW24817   4.941   3.577   3.911
 7973SOL    HW124818   4.928   3.632   3.993
 7973SOL    HW224819   4.948   3.637   3.831
 7974SOL     OW24820   5.346   0.334   4.378
 7974SOL    HW124821   5.257   0.327   4.333
 7974SOL    HW224822   5.334   0.374   4.469
 7975SOL     OW24823   3.759   0.523   4.782
 7975SOL    HW124824   3.809   0.466   4.717
 7975SOL    HW224825   3.795   0.616   4.779
 7976SOL     OW24826   0.679   6.264   4.931
 7976SOL    HW124827   0.628   6.233   5.011
 7976SOL    HW224828   0.616   6.276   4.854
 7977SOL     OW24829   4.844   5.998   2.039
 7977SOL    HW124830   4.824   5.902   2.058
 7977SOL    HW224831   4.827   6.018   1.942
 7978SOL     OW24832   4.544   3.553   5.969
 7978SOL    HW124833   4.626   3.566   6.026
 7978SOL    HW224834   4.510   3.643   5.939
 7979SOL     OW24835   2.742   0.371   4.487
 7979SOL    HW124836   2.643   0.356   4.497
 7979SOL    HW224837   2.761   0.408   4.396
 7980SOL     OW24838   3.505   6.056   0.309
 7980SOL    HW124839   3.522   6.107   0.393
 7980SOL    HW224840   3.581   5.993   0.292
 7981SOL     OW24841   1.096   4.909   2.146
 7981SOL    HW124842   1.188   4.882   2.115
 7981SOL    HW224843   1.076   5.001   2.113
 7982SOL     OW24844   6.526   2.364   0.563
 7982SOL    HW124845   6.442   2.353   0.510
 7982SOL    HW224846   6.578   2.278   0.561
 7983SOL     OW24847   5.657   2.013   2.552
 7983SOL    HW124848   5.673   1.923   2.592
 7983SOL    HW224849   5.566   2.016   2.511
 7984SOL     OW24850   0.953   2.183   2.244
 7984SOL    HW124851   0.860   2.187   2.282
 7984SOL    HW224852   1.006   2.261   2.277
 7985SOL     OW24853   1.373   0.784   2.356
 7985SOL    HW124854   1.453   0.759   2.410
 7985SOL    HW224855   1.295   0.796   2.417
 7986SOL     OW24856   3.800   1.424   6.343
 7986SOL    HW124857   3.877   1.365   6.318
 7986SOL    HW224858   3.753   1.385   6.422
 7987SOL     OW24859   0.490   2.631   5.339
 7987SOL    HW124860   0.563   2.562   5.334
 7987SOL    HW224861   0.505   2.688   5.419
 7988SOL     OW24862   2.756   2.386   4.494
 7988SOL    HW124863   2.730   2.365   4.588
 7988SOL    HW224864   2.855   2.391   4.487
 7989SOL     OW24865   3.367   2.429   5.436
 7989SOL    HW124866   3.329   2.356   5.494
 7989SOL    HW224867   3.332   2.420   5.343
 7990SOL     OW24868   0.883   3.159   4.253
 7990SOL    HW124869   0.831   3.195   4.331
 7990SOL    HW224870   0.959   3.103   4.287
 7991SOL     OW24871   0.139   2.605   5.731
 7991SOL    HW124872   0.196   2.666   5.785
 7991SOL    HW224873   0.186   2.580   5.646
 7992SOL     OW24874   1.806   0.178   0.846
 7992SOL    HW124875   1.787   0.105   0.911
 7992SOL    HW224876   1.796   0.266   0.891
 7993SOL     OW24877   1.862   5.654   6.749
 7993SOL    HW124878   1.776   5.699   6.770
 7993SOL    HW224879   1.937   5.719   6.757
 7994SOL     OW24880   4.706   0.586   4.096
 7994SOL    HW124881   4.693   0.583   3.997
 7994SOL    HW224882   4.685   0.497   4.136
 7995SOL     OW24883   3.594   5.220   3.606
 7995SOL    HW124884   3.581   5.258   3.515
 7995SOL    HW224885   3.648   5.136   3.600
 7996SOL     OW24886   3.421   0.159   4.552
 7996SOL    HW124887   3.467   0.226   4.610
 7996SOL    HW224888   3.443   0.066   4.583
 7997SOL     OW24889   6.253   2.204   1.018
 7997SOL    HW124890   6.220   2.295   0.996
 7997SOL    HW224891   6.245   2.188   1.116
 7998SOL     OW24892   5.618   4.909   0.538
 7998SOL    HW124893   5.582   5.002   0.526
 7998SOL    HW224894   5.567   4.862   0.610
 7999SOL     OW24895   1.643   0.218   5.253
 7999SOL    HW124896   1.693   0.304   5.241
 7999SOL    HW224897   1.575   0.208   5.180
 8000SOL     OW24898   6.152   0.506   5.965
 8000SOL    HW124899   6.068   0.557   5.949
 8000SOL    HW224900   6.201   0.496   5.878
 8001SOL     OW24901   1.338   6.525   1.916
 8001SOL    HW124902   1.258   6.489   1.868
 8001SOL    HW224903   1.350   6.622   1.892
 8002SOL     OW24904   6.936   3.653   5.068
 8002SOL    HW124905   6.934   3.728   5.003
 8002SOL    HW224906   0.001   3.629   5.089
 8003SOL     OW24907   3.115   5.197   3.251
 8003SOL    HW124908   3.059   5.120   3.280
 8003SOL    HW224909   3.208   5.185   3.287
 8004SOL     OW24910   1.942   4.193   3.057
 8004SOL    HW124911   1.893   4.157   3.136
 8004SOL    HW224912   2.005   4.265   3.086
 8005SOL     OW24913   3.116   0.563   2.440
 8005SOL    HW124914   3.085   0.476   2.401
 8005SOL    HW224915   3.037   0.615   2.472
 8006SOL     OW24916   2.737   5.732   0.435
 8006SOL    HW124917   2.731   5.691   0.526
 8006SOL    HW224918   2.790   5.672   0.375
 8007SOL     OW24919   0.457   0.363   4.061
 8007SOL    HW124920   0.417   0.301   3.994
 8007SOL    HW224921   0.551   0.335   4.081
 8008SOL     OW24922   5.893   6.571   6.875
 8008SOL    HW124923   5.979   6.568   6.823
 8008SOL    HW224924   5.819   6.600   6.815
 8009SOL     OW24925   6.972   0.695   3.324
 8009SOL    HW124926   6.880   0.731   3.307
 8009SOL    HW224927   6.965   0.611   3.378
 8010SOL     OW24928   2.537   1.993   0.046
 8010SOL    HW124929   2.457   2.020   7.022
 8010SOL    HW224930   2.556   1.896   0.032
 8011SOL     OW24931   2.606   2.325   1.195
 8011SOL    HW124932   2.619   2.350   1.291
 8011SOL    HW224933   2.652   2.392   1.137
 8012SOL     OW24934   1.948   6.845   1.325
 8012SOL    HW124935   1.957   6.828   1.227
 8012SOL    HW224936   1.859   6.887   1.344
 8013SOL     OW24937   5.972   5.164   4.063
 8013SOL    HW124938   5.951   5.259   4.040
 8013SOL    HW224939   6.023   5.162   4.149
 8014SOL     OW24940   1.672   6.282   6.521
 8014SOL    HW124941   1.695   6.278   6.619
 8014SOL    HW224942   1.612   6.360   6.504
 8015SOL     OW24943   2.669   2.816   0.971
 8015SOL    HW124944   2.574   2.845   0.957
 8015SOL    HW224945   2.710   2.793   0.883
 8016SOL     OW24946   4.516   0.040   0.619
 8016SOL    HW124947   4.602   0.001   0.650
 8016SOL    HW224948   4.521   0.057   0.521
 8017SOL     OW24949   6.755   4.508   5.360
 8017SOL    HW124950   6.691   4.531   5.433
 8017SOL    HW224951   6.706   4.469   5.282
 8018SOL     OW24952   4.320   1.675   5.679
 8018SOL    HW124953   4.262   1.695   5.758
 8018SOL    HW224954   4.395   1.741   5.675
 8019SOL     OW24955   1.774   5.499   0.453
 8019SOL    HW124956   1.870   5.500   0.482
 8019SOL    HW224957   1.760   5.426   0.386
 8020SOL     OW24958   5.704   5.955   6.499
 8020SOL    HW124959   5.636   5.894   6.539
 8020SOL    HW224960   5.790   5.948   6.550
 8021SOL     OW24961   1.049   1.842   1.617
 8021SOL    HW124962   1.132   1.804   1.657
 8021SOL    HW224963   1.039   1.809   1.523
 8022SOL     OW24964   4.887   0.245   3.303
 8022SOL    HW124965   4.954   0.175   3.279
 8022SOL    HW224966   4.800   0.224   3.258
 8023SOL     OW24967   6.094   5.971   2.450
 8023SOL    HW124968   6.170   6.004   2.395
 8023SOL    HW224969   6.075   6.035   2.524
 8024SOL     OW24970   4.246   5.568   6.096
 8024SOL    HW124971   4.250   5.667   6.113
 8024SOL    HW224972   4.229   5.552   5.999
 8025SOL     OW24973   3.588   6.123   6.634
 8025SOL    HW124974   3.517   6.150   6.699
 8025SOL    HW224975   3.673   6.104   6.683
 8026SOL     OW24976   1.534   3.491   6.768
 8026SOL    HW124977   1.535   3.588   6.791
 8026SOL    HW224978   1.560   3.438   6.849
 8027SOL     OW24979   4.431   1.869   5.196
 8027SOL    HW124980   4.411   1.832   5.287
 8027SOL    HW224981   4.530   1.872   5.182
 8028SOL     OW24982   4.692   5.174   5.932
 8028SOL    HW124983   4.681   5.254   5.991
 8028SOL    HW224984   4.770   5.188   5.870
 8029SOL     OW24985   4.319   4.753   6.870
 8029SOL    HW124986   4.267   4.678   6.912
 8029SOL    HW224987   4.391   4.715   6.813
 8030SOL     OW24988   5.524   4.570   5.538
 8030SOL    HW124989   5.524   4.480   5.495
 8030SOL    HW224990   5.431   4.592   5.568
 8031SOL     OW24991   4.515   5.338   1.653
 8031SOL    HW124992   4.506   5.422   1.707
 8031SOL    HW224993   4.611   5.316   1.642
 8032SOL     OW24994   5.891   4.252   5.026
 8032SOL    HW124995   5.808   4.201   5.004
 8032SOL    HW224996   5.926   4.296   4.943
 8033SOL     OW24997   5.365   2.522   0.021
 8033SOL    HW124998   5.367   2.602   6.990
 8033SOL    HW224999   5.412   2.544   0.106
 8034SOL     OW25000   5.072   6.580   5.231
 8034SOL    HW125001   5.160   6.615   5.201
 8034SOL    HW225002   4.999   6.618   5.173
 8035SOL     OW25003   5.843   6.114   6.014
 8035SOL    HW125004   5.859   6.041   5.947
 8035SOL    HW225005   5.873   6.083   6.105
 8036SOL     OW25006   2.254   3.917   1.854
 8036SOL    HW125007   2.214   3.902   1.944
 8036SOL    HW225008   2.295   4.008   1.850
 8037SOL     OW25009   2.277   3.092   0.841
 8037SOL    HW125010   2.208   3.084   0.913
 8037SOL    HW225011   2.300   3.189   0.828
 8038SOL     OW25012   7.009   1.903   3.389
 8038SOL    HW125013   0.010   1.876   3.297
 8038SOL    HW225014   6.912   1.883   3.399
 8039SOL     OW25015   2.447   0.333   2.667
 8039SOL    HW125016   2.404   0.423   2.665
 8039SOL    HW225017   2.546   0.343   2.670
 8040SOL     OW25018   0.398   5.418   1.165
 8040SOL    HW125019   0.496   5.424   1.186
 8040SOL    HW225020   0.382   5.444   1.070
 8041SOL     OW25021   3.909   1.184   1.349
 8041SOL    HW125022   3.926   1.261   1.287
 8041SOL    HW225023   3.820   1.143   1.327
 8042SOL     OW25024   3.395   2.917   2.339
 8042SOL    HW125025   3.460   2.928   2.415
 8042SOL    HW225026   3.440   2.869   2.264
 8043SOL     OW25027   2.658   0.539   0.943
 8043SOL    HW125028   2.680   0.456   0.892
 8043SOL    HW225029   2.742   0.582   0.975
 8044SOL     OW25030   3.103   3.125   1.690
 8044SOL    HW125031   3.073   3.043   1.739
 8044SOL    HW225032   3.028   3.162   1.636
 8045SOL     OW25033   6.202   1.766   2.877
 8045SOL    HW125034   6.198   1.686   2.818
 8045SOL    HW225035   6.169   1.742   2.968
 8046SOL     OW25036   5.500   4.362   5.365
 8046SOL    HW125037   5.584   4.347   5.312
 8046SOL    HW225038   5.422   4.366   5.303
 8047SOL     OW25039   3.468   5.759   4.694
 8047SOL    HW125040   3.526   5.841   4.699
 8047SOL    HW225041   3.375   5.786   4.670
 8048SOL     OW25042   6.362   0.475   5.406
 8048SOL    HW125043   6.444   0.457   5.352
 8048SOL    HW225044   6.318   0.558   5.373
 8049SOL     OW25045   0.850   6.745   1.275
 8049SOL    HW125046   0.804   6.744   1.364
 8049SOL    HW225047   0.925   6.811   1.276
 8050SOL     OW25048   1.776   3.789   0.939
 8050SOL    HW125049   1.710   3.826   0.873
 8050SOL    HW225050   1.784   3.690   0.926
 8051SOL     OW25051   4.334   0.824   3.098
 8051SOL    HW125052   4.325   0.831   2.999
 8051SOL    HW225053   4.398   0.751   3.121
 8052SOL     OW25054   3.165   1.827   2.395
 8052SOL    HW125055   3.151   1.733   2.426
 8052SOL    HW225056   3.147   1.890   2.470
 8053SOL     OW25057   3.952   3.964   2.912
 8053SOL    HW125058   3.977   4.060   2.910
 8053SOL    HW225059   3.976   3.925   3.001
 8054SOL     OW25060   4.637   6.548   4.292
 8054SOL    HW125061   4.697   6.617   4.333
 8054SOL    HW225062   4.640   6.556   4.193
 8055SOL     OW25063   1.029   6.922   5.941
 8055SOL    HW125064   0.932   6.936   5.959
 8055SOL    HW225065   1.083   6.980   6.002
 8056SOL     OW25066   4.845   1.507   2.947
 8056SOL    HW125067   4.839   1.600   2.984
 8056SOL    HW225068   4.834   1.441   3.021
 8057SOL     OW25069   3.106   6.945   3.053
 8057SOL    HW125070   3.093   0.013   3.071
 8057SOL    HW225071   3.190   6.931   3.001
 8058SOL     OW25072   2.509   0.470   2.394
 8058SOL    HW125073   2.512   0.545   2.461
 8058SOL    HW225074   2.420   0.423   2.400
 8059SOL     OW25075   2.989   2.216   4.841
 8059SOL    HW125076   3.058   2.246   4.907
 8059SOL    HW225077   3.028   2.221   4.748
 8060SOL     OW25078   0.168   0.921   4.674
 8060SOL    HW125079   0.091   0.873   4.716
 8060SOL    HW225080   0.219   0.857   4.616
 8061SOL     OW25081   6.232   5.572   2.705
 8061SOL    HW125082   6.270   5.547   2.794
 8061SOL    HW225083   6.307   5.589   2.640
 8062SOL     OW25084   1.363   3.869   4.576
 8062SOL    HW125085   1.448   3.858   4.525
 8062SOL    HW225086   1.321   3.956   4.551
 8063SOL     OW25087   3.213   3.419   6.785
 8063SOL    HW125088   3.176   3.339   6.738
 8063SOL    HW225089   3.202   3.409   6.883
 8064SOL     OW25090   0.116   3.950   0.070
 8064SOL    HW125091   0.136   3.855   0.045
 8064SOL    HW225092   0.196   4.007   0.051
 8065SOL     OW25093   4.754   6.803   4.431
 8065SOL    HW125094   4.813   6.793   4.511
 8065SOL    HW225095   4.660   6.820   4.460
 8066SOL     OW25096   1.836   1.452   0.710
 8066SOL    HW125097   1.867   1.502   0.791
 8066SOL    HW225098   1.814   1.516   0.637
 8067SOL     OW25099   4.205   3.145   1.627
 8067SOL    HW125100   4.296   3.164   1.663
 8067SOL    HW225101   4.213   3.111   1.533
 8068SOL     OW25102   0.558   4.546   4.686
 8068SOL    HW125103   0.507   4.573   4.604
 8068SOL    HW225104   0.654   4.572   4.676
 8069SOL     OW25105   1.549   6.301   0.741
 8069SOL    HW125106   1.586   6.294   0.833
 8069SOL    HW225107   1.449   6.310   0.746
 8070SOL     OW25108   3.594   6.099   1.845
 8070SOL    HW125109   3.616   6.002   1.854
 8070SOL    HW225110   3.515   6.120   1.903
 8071SOL     OW25111   3.811   6.439   5.509
 8071SOL    HW125112   3.747   6.408   5.438
 8071SOL    HW225113   3.897   6.390   5.500
 8072SOL     OW25114   4.483   1.633   0.606
 8072SOL    HW125115   4.546   1.702   0.570
 8072SOL    HW225116   4.520   1.593   0.689
 8073SOL     OW25117   4.766   6.863   6.289
 8073SOL    HW125118   4.760   6.763   6.294
 8073SOL    HW225119   4.674   6.902   6.283
 8074SOL     OW25120   3.339   3.704   0.286
 8074SOL    HW125121   3.386   3.739   0.367
 8074SOL    HW225122   3.268   3.640   0.314
 8075SOL     OW25123   6.879   1.244   2.519
 8075SOL    HW125124   6.930   1.159   2.530
 8075SOL    HW225125   6.935   1.321   2.549
 8076SOL     OW25126   5.446   2.516   4.931
 8076SOL    HW125127   5.531   2.509   4.880
 8076SOL    HW225128   5.369   2.492   4.871
 8077SOL     OW25129   1.239   0.202   1.632
 8077SOL    HW125130   1.174   0.204   1.556
 8077SOL    HW225131   1.241   0.291   1.676
 8078SOL     OW25132   6.631   2.565   0.704
 8078SOL    HW125133   6.589   2.546   0.792
 8078SOL    HW225134   6.592   2.505   0.634
 8079SOL     OW25135   6.768   2.076   3.212
 8079SOL    HW125136   6.800   2.151   3.270
 8079SOL    HW225137   6.841   2.051   3.148
 8080SOL     OW25138   2.377   3.718   0.222
 8080SOL    HW125139   2.457   3.717   0.162
 8080SOL    HW225140   2.397   3.664   0.304
 8081SOL     OW25141   5.916   0.808   5.244
 8081SOL    HW125142   5.910   0.746   5.322
 8081SOL    HW225143   5.912   0.755   5.159
 8082SOL     OW25144   6.375   2.426   3.373
 8082SOL    HW125145   6.435   2.403   3.449
 8082SOL    HW225146   6.356   2.344   3.319
 8083SOL     OW25147   4.931   2.875   2.787
 8083SOL    HW125148   5.027   2.880   2.815
 8083SOL    HW225149   4.873   2.905   2.863
 8084SOL     OW25150   6.510   6.558   1.299
 8084SOL    HW125151   6.585   6.622   1.315
 8084SOL    HW225152   6.424   6.608   1.290
 8085SOL     OW25153   5.276   0.259   0.842
 8085SOL    HW125154   5.285   0.260   0.743
 8085SOL    HW225155   5.284   0.165   0.875
 8086SOL     OW25156   3.991   0.151   4.790
 8086SOL    HW125157   3.915   0.196   4.742
 8086SOL    HW225158   3.954   0.088   4.858
 8087SOL     OW25159   2.754   2.545   1.062
 8087SOL    HW125160   2.791   2.610   1.127
 8087SOL    HW225161   2.756   2.585   0.970
 8088SOL     OW25162   5.537   0.894   2.147
 8088SOL    HW125163   5.550   0.908   2.049
 8088SOL    HW225164   5.621   0.915   2.196
 8089SOL     OW25165   4.859   2.726   0.650
 8089SOL    HW125166   4.938   2.710   0.591
 8089SOL    HW225167   4.878   2.689   0.741
 8090SOL     OW25168   5.145   1.824   6.632
 8090SOL    HW125169   5.220   1.801   6.695
 8090SOL    HW225170   5.169   1.906   6.580
 8091SOL     OW25171   3.239   4.293   6.984
 8091SOL    HW125172   3.235   4.296   6.884
 8091SOL    HW225173   3.182   4.217   7.017
 8092SOL     OW25174   1.291   0.907   4.917
 8092SOL    HW125175   1.311   0.943   4.826
 8092SOL    HW225176   1.205   0.856   4.915
 8093SOL     OW25177   5.857   5.755   1.445
 8093SOL    HW125178   5.874   5.845   1.484
 8093SOL    HW225179   5.880   5.755   1.348
 8094SOL     OW25180   1.487   4.175   6.655
 8094SOL    HW125181   1.558   4.114   6.619
 8094SOL    HW225182   1.440   4.131   6.731
 8095SOL     OW25183   5.545   3.381   4.326
 8095SOL    HW125184   5.481   3.304   4.324
 8095SOL    HW225185   5.638   3.347   4.318
 8096SOL     OW25186   3.254   5.564   1.616
 8096SOL    HW125187   3.197   5.588   1.694
 8096SOL    HW225188   3.242   5.468   1.593
 8097SOL     OW25189   5.175   1.106   3.773
 8097SOL    HW125190   5.247   1.091   3.705
 8097SOL    HW225191   5.132   1.195   3.758
 8098SOL     OW25192   2.966   6.103   4.111
 8098SOL    HW125193   2.898   6.079   4.180
 8098SOL    HW225194   2.935   6.072   4.021
 8099SOL     OW25195   5.177   6.360   4.683
 8099SOL    HW125196   5.269   6.399   4.685
 8099SOL    HW225197   5.144   6.348   4.777
 8100SOL     OW25198   6.950   6.910   0.545
 8100SOL    HW125199   6.952   6.813   0.524
 8100SOL    HW225200   6.856   6.943   0.544
 8101SOL     OW25201   1.554   6.560   4.083
 8101SOL    HW125202   1.609   6.480   4.059
 8101SOL    HW225203   1.469   6.560   4.031
 8102SOL     OW25204   0.043   5.151   6.060
 8102SOL    HW125205   7.019   5.068   6.045
 8102SOL    HW225206   0.075   5.153   6.155
 8103SOL     OW25207   3.651   1.790   1.986
 8103SOL    HW125208   3.685   1.800   2.080
 8103SOL    HW225209   3.699   1.715   1.941
 8104SOL     OW25210   3.027   6.840   5.650
 8104SOL    HW125211   3.088   6.918   5.639
 8104SOL    HW225212   2.943   6.870   5.697
 8105SOL     OW25213   2.472   2.140   3.561
 8105SOL    HW125214   2.446   2.076   3.633
 8105SOL    HW225215   2.495   2.228   3.602
 8106SOL     OW25216   1.127   4.222   3.770
 8106SOL    HW125217   1.037   4.228   3.813
 8106SOL    HW225218   1.176   4.143   3.807
 8107SOL     OW25219   2.033   6.246   5.895
 8107SOL    HW125220   2.045   6.179   5.968
 8107SOL    HW225221   1.959   6.309   5.919
 8108SOL     OW25222   0.310   3.716   4.577
 8108SOL    HW125223   0.338   3.626   4.545
 8108SOL    HW225224   0.229   3.708   4.634
 8109SOL     OW25225   1.804   4.649   5.354
 8109SOL    HW125226   1.856   4.734   5.361
 8109SOL    HW225227   1.744   4.653   5.274
 8110SOL     OW25228   2.100   6.528   0.710
 8110SOL    HW125229   2.164   6.604   0.707
 8110SOL    HW225230   2.102   6.479   0.623
 8111SOL     OW25231   2.874   5.924   4.711
 8111SOL    HW125232   2.894   5.860   4.785
 8111SOL    HW225233   2.931   5.903   4.632
 8112SOL     OW25234   2.692   0.408   5.580
 8112SOL    HW125235   2.759   0.333   5.584
 8112SOL    HW225236   2.702   0.457   5.494
 8113SOL     OW25237   3.788   2.463   0.217
 8113SOL    HW125238   3.733   2.380   0.206
 8113SOL    HW225239   3.778   2.521   0.136
 8114SOL     OW25240   2.353   2.797   2.633
 8114SOL    HW125241   2.421   2.749   2.578
 8114SOL    HW225242   2.349   2.893   2.605
 8115SOL     OW25243   3.300   1.512   1.387
 8115SOL    HW125244   3.399   1.500   1.378
 8115SOL    HW225245   3.254   1.425   1.367
 8116SOL     OW25246   6.009   6.881   5.072
 8116SOL    HW125247   5.969   6.971   5.086
 8116SOL    HW225248   5.994   6.824   5.154
 8117SOL     OW25249   1.300   1.664   4.712
 8117SOL    HW125250   1.270   1.594   4.777
 8117SOL    HW225251   1.233   1.670   4.638
 8118SOL     OW25252   1.296   4.316   5.579
 8118SOL    HW125253   1.391   4.293   5.599
 8118SOL    HW225254   1.247   4.234   5.550
 8119SOL     OW25255   0.712   5.820   3.151
 8119SOL    HW125256   0.683   5.889   3.085
 8119SOL    HW225257   0.651   5.741   3.146
 8120SOL     OW25258   4.145   4.596   0.744
 8120SOL    HW125259   4.194   4.683   0.738
 8120SOL    HW225260   4.105   4.586   0.835
 8121SOL     OW25261   0.091   0.066   2.922
 8121SOL    HW125262   0.173   0.089   2.974
 8121SOL    HW225263   0.014   0.119   2.957
 8122SOL     OW25264   0.238   6.062   1.799
 8122SOL    HW125265   0.148   6.034   1.832
 8122SOL    HW225266   0.262   6.009   1.718
 8123SOL     OW25267   1.336   6.694   6.586
 8123SOL    HW125268   1.372   6.762   6.522
 8123SOL    HW225269   1.248   6.725   6.623
 8124SOL     OW25270   1.579   5.276   1.547
 8124SOL    HW125271   1.483   5.266   1.577
 8124SOL    HW225272   1.622   5.186   1.548
 8125SOL     OW25273   6.134   4.330   3.012
 8125SOL    HW125274   6.098   4.280   2.933
 8125SOL    HW225275   6.087   4.299   3.094
 8126SOL     OW25276   5.928   4.223   2.835
 8126SOL    HW125277   5.938   4.300   2.773
 8126SOL    HW225278   5.851   4.239   2.896
 8127SOL     OW25279   1.969   5.001   0.283
 8127SOL    HW125280   1.900   4.928   0.280
 8127SOL    HW225281   1.967   5.052   0.196
 8128SOL     OW25282   3.157   2.946   5.804
 8128SOL    HW125283   3.239   2.965   5.750
 8128SOL    HW225284   3.182   2.889   5.882
 8129SOL     OW25285   5.774   0.897   6.688
 8129SOL    HW125286   5.849   0.871   6.627
 8129SOL    HW225287   5.764   0.996   6.689
 8130SOL     OW25288   1.002   5.316   6.702
 8130SOL    HW125289   1.042   5.276   6.619
 8130SOL    HW225290   1.012   5.415   6.699
 8131SOL     OW25291   3.326   0.464   0.443
 8131SOL    HW125292   3.372   0.383   0.408
 8131SOL    HW225293   3.376   0.546   0.414
 8132SOL     OW25294   5.721   5.286   4.321
 8132SOL    HW125295   5.706   5.287   4.222
 8132SOL    HW225296   5.785   5.358   4.346
 8133SOL     OW25297   2.810   5.231   3.409
 8133SOL    HW125298   2.899   5.260   3.445
 8133SOL    HW225299   2.744   5.305   3.423
 8134SOL     OW25300   2.185   2.626   3.872
 8134SOL    HW125301   2.263   2.676   3.909
 8134SOL    HW225302   2.173   2.541   3.922
 8135SOL     OW25303   3.764   5.412   2.389
 8135SOL    HW125304   3.723   5.416   2.481
 8135SOL    HW225305   3.748   5.498   2.342
 8136SOL     OW25306   4.155   5.625   2.707
 8136SOL    HW125307   4.076   5.584   2.752
 8136SOL    HW225308   4.144   5.618   2.608
 8137SOL     OW25309   2.180   3.985   4.748
 8137SOL    HW125310   2.147   4.078   4.727
 8137SOL    HW225311   2.245   3.989   4.823
 8138SOL     OW25312   5.587   1.738   2.665
 8138SOL    HW125313   5.524   1.705   2.594
 8138SOL    HW225314   5.631   1.660   2.709
 8139SOL     OW25315   1.749   3.182   3.260
 8139SOL    HW125316   1.824   3.116   3.266
 8139SOL    HW225317   1.755   3.245   3.338
 8140SOL     OW25318   5.401   0.121   0.044
 8140SOL    HW125319   5.469   0.099   7.004
 8140SOL    HW225320   5.352   0.037   0.071
 8141SOL     OW25321   4.596   1.642   5.932
 8141SOL    HW125322   4.690   1.656   5.963
 8141SOL    HW225323   4.596   1.584   5.850
 8142SOL     OW25324   1.906   6.220   0.172
 8142SOL    HW125325   1.888   6.186   0.264
 8142SOL    HW225326   1.952   6.150   0.118
 8143SOL     OW25327   5.292   4.519   0.776
 8143SOL    HW125328   5.264   4.532   0.680
 8143SOL    HW225329   5.220   4.553   0.836
 8144SOL     OW25330   0.125   4.944   5.837
 8144SOL    HW125331   0.175   5.021   5.876
 8144SOL    HW225332   0.190   4.878   5.799
 8145SOL     OW25333   5.894   5.940   0.110
 8145SOL    HW125334   5.925   5.849   0.136
 8145SOL    HW225335   5.961   6.008   0.138
 8146SOL     OW25336   5.864   0.303   4.715
 8146SOL    HW125337   5.889   0.217   4.760
 8146SOL    HW225338   5.824   0.365   4.783
 8147SOL     OW25339   1.004   0.719   5.942
 8147SOL    HW125340   1.085   0.767   5.909
 8147SOL    HW225341   0.954   0.778   6.006
 8148SOL     OW25342   4.108   4.860   6.997
 8148SOL    HW125343   4.190   4.822   6.953
 8148SOL    HW225344   4.119   4.959   7.008
 8149SOL     OW25345   1.377   6.714   4.278
 8149SOL    HW125346   1.433   6.642   4.237
 8149SOL    HW225347   1.288   6.677   4.304
 8150SOL     OW25348   1.079   3.175   0.479
 8150SOL    HW125349   1.144   3.243   0.513
 8150SOL    HW225350   1.002   3.167   0.543
 8151SOL     OW25351   6.386   4.437   4.163
 8151SOL    HW125352   6.385   4.520   4.107
 8151SOL    HW225353   6.403   4.357   4.106
 8152SOL     OW25354   4.572   2.233   3.457
 8152SOL    HW125355   4.625   2.259   3.377
 8152SOL    HW225356   4.632   2.192   3.525
 8153SOL     OW25357   0.359   1.568   4.050
 8153SOL    HW125358   0.276   1.602   4.004
 8153SOL    HW225359   0.396   1.639   4.109
 8154SOL     OW25360   2.293   1.738   3.498
 8154SOL    HW125361   2.244   1.670   3.553
 8154SOL    HW225362   2.390   1.712   3.494
 8155SOL     OW25363   1.482   4.550   1.691
 8155SOL    HW125364   1.572   4.591   1.694
 8155SOL    HW225365   1.417   4.614   1.650
 8156SOL     OW25366   5.734   4.996   2.032
 8156SOL    HW125367   5.824   5.020   1.998
 8156SOL    HW225368   5.723   4.897   2.031
 8157SOL     OW25369   6.904   2.829   6.700
 8157SOL    HW125370   6.885   2.734   6.724
 8157SOL    HW225371   6.918   2.836   6.601
 8158SOL     OW25372   5.534   4.618   6.204
 8158SOL    HW125373   5.590   4.690   6.244
 8158SOL    HW225374   5.452   4.658   6.162
 8159SOL     OW25375   3.466   5.695   5.699
 8159SOL    HW125376   3.445   5.743   5.784
 8159SOL    HW225377   3.523   5.753   5.641
 8160SOL     OW25378   5.111   1.205   3.339
 8160SOL    HW125379   5.039   1.136   3.328
 8160SOL    HW225380   5.179   1.171   3.404
 8161SOL     OW25381   6.014   3.161   0.814
 8161SOL    HW125382   6.112   3.150   0.796
 8161SOL    HW225383   5.978   3.076   0.852
 8162SOL     OW25384   0.269   4.995   6.661
 8162SOL    HW125385   0.205   5.063   6.696
 8162SOL    HW225386   0.257   4.909   6.711
 8163SOL     OW25387   4.559   4.691   5.239
 8163SOL    HW125388   4.555   4.640   5.325
 8163SOL    HW225389   4.654   4.714   5.218
 8164SOL     OW25390   5.865   1.245   0.347
 8164SOL    HW125391   5.922   1.184   0.402
 8164SOL    HW225392   5.793   1.283   0.404
 8165SOL     OW25393   6.695   2.185   6.257
 8165SOL    HW125394   6.765   2.256   6.263
 8165SOL    HW225395   6.643   2.181   6.342
 8166SOL     OW25396   1.509   2.342   4.466
 8166SOL    HW125397   1.442   2.349   4.393
 8166SOL    HW225398   1.462   2.331   4.554
 8167SOL     OW25399   6.496   1.672   4.302
 8167SOL    HW125400   6.432   1.687   4.227
 8167SOL    HW225401   6.487   1.578   4.335
 8168SOL     OW25402   2.646   0.634   1.395
 8168SOL    HW125403   2.557   0.602   1.363
 8168SOL    HW225404   2.711   0.557   1.395
 8169SOL     OW25405   5.119   2.248   0.750
 8169SOL    HW125406   5.096   2.308   0.826
 8169SOL    HW225407   5.216   2.258   0.727
 8170SOL     OW25408   6.364   4.237   2.246
 8170SOL    HW125409   6.406   4.207   2.331
 8170SOL    HW225410   6.434   4.246   2.175
 8171SOL     OW25411   1.752   1.246   0.238
 8171SOL    HW125412   1.827   1.226   0.174
 8171SOL    HW225413   1.755   1.180   0.313
 8172SOL     OW25414   0.836   2.746   1.748
 8172SOL    HW125415   0.744   2.745   1.788
 8172SOL    HW225416   0.904   2.758   1.821
 8173SOL     OW25417   5.461   2.337   2.005
 8173SOL    HW125418   5.411   2.369   2.086
 8173SOL    HW225419   5.396   2.307   1.935
 8174SOL     OW25420   1.991   5.595   2.673
 8174SOL    HW125421   1.892   5.579   2.670
 8174SOL    HW225422   2.009   5.684   2.715
 8175SOL     OW25423   0.497   2.631   4.464
 8175SOL    HW125424   0.554   2.586   4.532
 8175SOL    HW225425   0.408   2.653   4.504
 8176SOL     OW25426   1.604   4.764   0.977
 8176SOL    HW125427   1.511   4.751   1.012
 8176SOL    HW225428   1.628   4.688   0.917
 8177SOL     OW25429   3.632   1.497   2.783
 8177SOL    HW125430   3.729   1.520   2.770
 8177SOL    HW225431   3.613   1.409   2.740
 8178SOL     OW25432   2.197   6.485   1.344
 8178SOL    HW125433   2.265   6.555   1.323
 8178SOL    HW225434   2.123   6.489   1.276
 8179SOL     OW25435   5.458   0.878   3.715
 8179SOL    HW125436   5.366   0.889   3.754
 8179SOL    HW225437   5.517   0.952   3.747
 8180SOL     OW25438   5.537   6.824   6.893
 8180SOL    HW125439   5.447   6.787   6.868
 8180SOL    HW225440   5.559   6.900   6.832
 8181SOL     OW25441   1.063   1.438   1.354
 8181SOL    HW125442   1.151   1.409   1.391
 8181SOL    HW225443   1.036   1.375   1.281
 8182SOL     OW25444   3.271   3.686   4.919
 8182SOL    HW125445   3.322   3.644   4.843
 8182SOL    HW225446   3.329   3.754   4.965
 8183SOL     OW25447   6.273   0.353   4.814
 8183SOL    HW125448   6.254   0.257   4.790
 8183SOL    HW225449   6.325   0.356   4.899
 8184SOL     OW25450   0.974   7.026   0.100
 8184SOL    HW125451   1.071   7.000   0.105
 8184SOL    HW225452   0.949   0.046   0.183
 8185SOL     OW25453   1.024   0.427   0.736
 8185SOL    HW125454   1.018   0.493   0.811
 8185SOL    HW225455   1.080   0.349   0.764
 8186SOL     OW25456   0.977   4.906   6.498
 8186SOL    HW125457   0.959   4.884   6.593
 8186SOL    HW225458   1.042   4.840   6.460
 8187SOL     OW25459   1.378   1.552   5.019
 8187SOL    HW125460   1.359   1.617   5.093
 8187SOL    HW225461   1.441   1.481   5.052
 8188SOL     OW25462   3.650   2.127   3.718
 8188SOL    HW125463   3.673   2.128   3.621
 8188SOL    HW225464   3.551   2.127   3.729
 8189SOL     OW25465   4.752   4.536   3.769
 8189SOL    HW125466   4.701   4.607   3.817
 8189SOL    HW225467   4.816   4.579   3.704
 8190SOL     OW25468   5.509   3.228   2.883
 8190SOL    HW125469   5.506   3.180   2.795
 8190SOL    HW225470   5.577   3.301   2.879
 8191SOL     OW25471   4.406   5.088   1.782
 8191SOL    HW125472   4.401   5.142   1.698
 8191SOL    HW225473   4.484   5.026   1.777
 8192SOL     OW25474   1.876   5.108   3.512
 8192SOL    HW125475   1.778   5.110   3.532
 8192SOL    HW225476   1.922   5.048   3.577
 8193SOL     OW25477   6.841   4.950   5.326
 8193SOL    HW125478   6.835   4.859   5.284
 8193SOL    HW225479   6.800   5.018   5.264
 8194SOL     OW25480   4.373   6.865   1.836
 8194SOL    HW125481   4.347   6.959   1.857
 8194SOL    HW225482   4.454   6.864   1.778
 8195SOL     OW25483   5.726   0.110   3.623
 8195SOL    HW125484   5.734   0.027   3.679
 8195SOL    HW225485   5.811   0.123   3.571
 8196SOL     OW25486   4.729   0.933   0.027
 8196SOL    HW125487   4.774   1.014   0.064
 8196SOL    HW225488   4.665   0.897   0.094
 8197SOL     OW25489   5.009   1.527   1.527
 8197SOL    HW125490   5.051   1.588   1.595
 8197SOL    HW225491   4.909   1.534   1.533
 8198SOL     OW25492   2.431   6.880   1.495
 8198SOL    HW125493   2.345   6.829   1.503
 8198SOL    HW225494   2.443   6.938   1.575
 8199SOL     OW25495   5.112   2.828   5.929
 8199SOL    HW125496   5.056   2.856   5.851
 8199SOL    HW225497   5.053   2.790   6.000
 8200SOL     OW25498   5.621   3.742   0.862
 8200SOL    HW125499   5.694   3.705   0.806
 8200SOL    HW225500   5.539   3.756   0.806
 8201SOL     OW25501   0.011   0.496   5.343
 8201SOL    HW125502   0.090   0.435   5.338
 8201SOL    HW225503   0.024   0.562   5.416
 8202SOL     OW25504   0.093   6.466   2.086
 8202SOL    HW125505   0.106   6.501   1.993
 8202SOL    HW225506   0.178   6.424   2.117
 8203SOL     OW25507   1.942   3.170   0.607
 8203SOL    HW125508   2.041   3.179   0.603
 8203SOL    HW225509   1.918   3.073   0.606
 8204SOL     OW25510   4.678   3.491   1.230
 8204SOL    HW125511   4.677   3.394   1.205
 8204SOL    HW225512   4.620   3.542   1.166
 8205SOL     OW25513   0.716   2.730   0.582
 8205SOL    HW125514   0.810   2.758   0.597
 8205SOL    HW225515   0.697   2.724   0.484
 8206SOL     OW25516   4.111   1.417   0.342
 8206SOL    HW125517   4.060   1.481   0.283
 8206SOL    HW225518   4.207   1.443   0.343
 8207SOL     OW25519   3.555   2.933   4.341
 8207SOL    HW125520   3.482   2.999   4.322
 8207SOL    HW225521   3.552   2.908   4.438
 8208SOL     OW25522   0.913   1.052   0.846
 8208SOL    HW125523   0.985   1.121   0.850
 8208SOL    HW225524   0.825   1.094   0.868
 8209SOL     OW25525   6.302   0.948   5.345
 8209SOL    HW125526   6.377   0.991   5.396
 8209SOL    HW225527   6.214   0.982   5.379
 8210SOL     OW25528   1.914   2.810   0.336
 8210SOL    HW125529   1.999   2.803   0.388
 8210SOL    HW225530   1.917   2.749   0.257
 8211SOL     OW25531   3.287   3.772   1.236
 8211SOL    HW125532   3.244   3.745   1.323
 8211SOL    HW225533   3.219   3.766   1.163
 8212SOL     OW25534   1.677   2.473   2.896
 8212SOL    HW125535   1.706   2.518   2.811
 8212SOL    HW225536   1.578   2.458   2.894
 8213SOL     OW25537   0.679   5.224   1.432
 8213SOL    HW125538   0.622   5.268   1.501
 8213SOL    HW225539   0.730   5.148   1.473
 8214SOL     OW25540   5.561   4.446   3.721
 8214SOL    HW125541   5.520   4.532   3.752
 8214SOL    HW225542   5.518   4.369   3.769
 8215SOL     OW25543   3.584   4.934   4.753
 8215SOL    HW125544   3.678   4.921   4.784
 8215SOL    HW225545   3.520   4.903   4.824
 8216SOL     OW25546   5.318   4.595   3.909
 8216SOL    HW125547   5.290   4.583   3.814
 8216SOL    HW225548   5.236   4.601   3.967
 8217SOL     OW25549   1.585   5.493   0.675
 8217SOL    HW125550   1.621   5.519   0.765
 8217SOL    HW225551   1.652   5.515   0.605
 8218SOL     OW25552   0.814   1.958   6.856
 8218SOL    HW125553   0.860   2.031   6.907
 8218SOL    HW225554   0.751   1.909   6.917
 8219SOL     OW25555   4.465   1.943   0.140
 8219SOL    HW125556   4.379   1.956   0.191
 8219SOL    HW225557   4.510   1.860   0.171
 8220SOL     OW25558   3.659   3.345   2.801
 8220SOL    HW125559   3.646   3.294   2.887
 8220SOL    HW225560   3.703   3.432   2.821
 8221SOL     OW25561   4.553   6.335   3.939
 8221SOL    HW125562   4.480   6.268   3.956
 8221SOL    HW225563   4.637   6.305   3.984
 8222SOL     OW25564   5.531   2.067   2.114
 8222SOL    HW125565   5.499   2.068   2.208
 8222SOL    HW225566   5.498   2.148   2.066
 8223SOL     OW25567   0.667   4.463   5.717
 8223SOL    HW125568   0.623   4.479   5.628
 8223SOL    HW225569   0.609   4.402   5.771
 8224SOL     OW25570   1.287   2.554   3.413
 8224SOL    HW125571   1.261   2.571   3.508
 8224SOL    HW225572   1.254   2.628   3.355
 8225SOL     OW25573   4.615   0.974   6.832
 8225SOL    HW125574   4.665   0.963   6.918
 8225SOL    HW225575   4.517   0.967   6.849
 8226SOL     OW25576   5.178   0.478   1.634
 8226SOL    HW125577   5.234   0.437   1.707
 8226SOL    HW225578   5.199   0.432   1.548
 8227SOL     OW25579   6.526   2.838   4.062
 8227SOL    HW125580   6.509   2.800   4.153
 8227SOL    HW225581   6.540   2.937   4.069
 8228SOL     OW25582   0.383   2.470   5.147
 8228SOL    HW125583   0.393   2.541   5.217
 8228SOL    HW225584   0.473   2.443   5.114
 8229SOL     OW25585   2.692   5.501   0.213
 8229SOL    HW125586   2.655   5.594   0.207
 8229SOL    HW225587   2.670   5.451   0.130
 8230SOL     OW25588   5.398   0.181   5.314
 8230SOL    HW125589   5.407   0.157   5.218
 8230SOL    HW225590   5.382   0.098   5.368
 8231SOL     OW25591   4.936   5.829   1.674
 8231SOL    HW125592   4.997   5.846   1.597
 8231SOL    HW225593   4.885   5.913   1.695
 8232SOL     OW25594   4.365   1.541   0.381
 8232SOL    HW125595   4.412   1.555   0.468
 8232SOL    HW225596   4.372   1.623   0.325
 8233SOL     OW25597   0.527   5.391   5.976
 8233SOL    HW125598   0.562   5.478   5.941
 8233SOL    HW225599   0.488   5.339   5.900
 8234SOL     OW25600   3.018   2.820   0.196
 8234SOL    HW125601   3.096   2.850   0.250
 8234SOL    HW225602   2.941   2.882   0.211
 8235SOL     OW25603   2.866   3.666   0.771
 8235SOL    HW125604   2.933   3.614   0.719
 8235SOL    HW225605   2.800   3.604   0.813
 8236SOL     OW25606   6.963   3.578   6.831
 8236SOL    HW125607   6.887   3.617   6.780
 8236SOL    HW225608   0.018   3.626   6.807
 8237SOL     OW25609   4.780   5.683   5.348
 8237SOL    HW125610   4.801   5.758   5.410
 8237SOL    HW225611   4.861   5.624   5.338
 8238SOL     OW25612   1.546   3.984   0.048
 8238SOL    HW125613   1.639   4.016   0.029
 8238SOL    HW225614   1.526   3.994   0.146
 8239SOL     OW25615   6.137   1.950   5.497
 8239SOL    HW125616   6.052   1.953   5.549
 8239SOL    HW225617   6.118   1.920   5.403
 8240SOL     OW25618   3.394   3.695   2.693
 8240SOL    HW125619   3.386   3.759   2.769
 8240SOL    HW225620   3.324   3.717   2.624
 8241SOL     OW25621   2.954   6.477   1.157
 8241SOL    HW125622   3.021   6.534   1.109
 8241SOL    HW225623   2.954   6.500   1.254
 8242SOL     OW25624   0.866   4.340   5.579
 8242SOL    HW125625   0.828   4.249   5.567
 8242SOL    HW225626   0.795   4.401   5.615
 8243SOL     OW25627   0.697   3.066   5.777
 8243SOL    HW125628   0.730   3.089   5.686
 8243SOL    HW225629   0.719   3.140   5.841
 8244SOL     OW25630   0.372   0.048   4.029
 8244SOL    HW125631   0.404   6.992   4.067
 8244SOL    HW225632   0.354   0.037   3.931
 8245SOL     OW25633   4.526   1.527   2.029
 8245SOL    HW125634   4.484   1.569   1.950
 8245SOL    HW225635   4.461   1.464   2.073
 8246SOL     OW25636   6.426   4.219   5.737
 8246SOL    HW125637   6.429   4.265   5.825
 8246SOL    HW225638   6.380   4.131   5.746
 8247SOL     OW25639   0.918   0.935   1.390
 8247SOL    HW125640   0.907   0.960   1.294
 8247SOL    HW225641   0.979   1.001   1.435
 8248SOL     OW25642   6.236   4.537   3.490
 8248SOL    HW125643   6.231   4.617   3.431
 8248SOL    HW225644   6.275   4.562   3.579
 8249SOL     OW25645   1.817   4.359   4.464
 8249SOL    HW125646   1.838   4.264   4.443
 8249SOL    HW225647   1.902   4.412   4.471
 8250SOL     OW25648   3.443   4.119   3.228
 8250SOL    HW125649   3.492   4.042   3.188
 8250SOL    HW225650   3.346   4.115   3.201
 8251SOL     OW25651   5.423   2.007   4.989
 8251SOL    HW125652   5.412   1.920   5.036
 8251SOL    HW225653   5.521   2.028   4.981
 8252SOL     OW25654   3.197   3.614   6.232
 8252SOL    HW125655   3.280   3.558   6.236
 8252SOL    HW225656   3.121   3.559   6.198
 8253SOL     OW25657   3.818   2.884   5.402
 8253SOL    HW125658   3.738   2.875   5.343
 8253SOL    HW225659   3.851   2.978   5.400
 8254SOL     OW25660   4.280   4.761   4.840
 8254SOL    HW125661   4.333   4.839   4.808
 8254SOL    HW225662   4.292   4.684   4.777
 8255SOL     OW25663   4.142   6.153   4.139
 8255SOL    HW125664   4.077   6.177   4.067
 8255SOL    HW225665   4.105   6.182   4.228
 8256SOL     OW25666   6.495   0.369   3.248
 8256SOL    HW125667   6.498   0.270   3.238
 8256SOL    HW225668   6.437   0.393   3.326
 8257SOL     OW25669   6.021   4.912   3.167
 8257SOL    HW125670   5.923   4.907   3.182
 8257SOL    HW225671   6.048   4.842   3.101
 8258SOL     OW25672   4.574   1.540   0.848
 8258SOL    HW125673   4.668   1.516   0.875
 8258SOL    HW225674   4.557   1.636   0.872
 8259SOL     OW25675   4.349   1.261   3.497
 8259SOL    HW125676   4.256   1.230   3.518
 8259SOL    HW225677   4.351   1.297   3.404
 8260SOL     OW25678   2.288   6.596   1.914
 8260SOL    HW125679   2.209   6.637   1.868
 8260SOL    HW225680   2.334   6.665   1.970
 8261SOL     OW25681   5.435   0.789   1.562
 8261SOL    HW125682   5.346   0.767   1.522
 8261SOL    HW225683   5.422   0.835   1.650
 8262SOL     OW25684   1.285   2.344   1.426
 8262SOL    HW125685   1.362   2.296   1.467
 8262SOL    HW225686   1.201   2.318   1.474
 8263SOL     OW25687   0.118   1.690   0.896
 8263SOL    HW125688   0.025   1.653   0.893
 8263SOL    HW225689   0.177   1.630   0.950
 8264SOL     OW25690   1.157   5.435   2.220
 8264SOL    HW125691   1.194   5.367   2.282
 8264SOL    HW225692   1.068   5.466   2.253
 8265SOL     OW25693   1.472   0.010   1.355
 8265SOL    HW125694   1.455   6.949   1.316
 8265SOL    HW225695   1.524   0.065   1.290
 8266SOL     OW25696   2.006   6.788   2.600
 8266SOL    HW125697   1.932   6.750   2.545
 8266SOL    HW225698   2.084   6.811   2.542
 8267SOL     OW25699   1.976   3.772   1.273
 8267SOL    HW125700   2.007   3.732   1.360
 8267SOL    HW225701   1.924   3.855   1.292
 8268SOL     OW25702   2.036   6.454   6.145
 8268SOL    HW125703   2.008   6.472   6.239
 8268SOL    HW225704   2.128   6.491   6.129
 8269SOL     OW25705   5.908   1.485   1.105
 8269SOL    HW125706   5.865   1.516   1.190
 8269SOL    HW225707   5.998   1.446   1.125
 8270SOL     OW25708   2.385   6.833   4.252
 8270SOL    HW125709   2.429   6.917   4.282
 8270SOL    HW225710   2.287   6.838   4.271
 8271SOL     OW25711   6.739   0.872   2.857
 8271SOL    HW125712   6.742   0.836   2.950
 8271SOL    HW225713   6.711   0.800   2.794
 8272SOL     OW25714   4.809   0.824   1.597
 8272SOL    HW125715   4.774   0.787   1.511
 8272SOL    HW225716   4.889   0.770   1.626
 8273SOL     OW25717   1.975   6.411   1.187
 8273SOL    HW125718   1.882   6.403   1.221
 8273SOL    HW225719   1.977   6.393   1.089
 8274SOL     OW25720   4.464   4.859   2.807
 8274SOL    HW125721   4.386   4.870   2.745
 8274SOL    HW225722   4.476   4.762   2.828
 8275SOL     OW25723   4.265   1.699   6.553
 8275SOL    HW125724   4.243   1.789   6.515
 8275SOL    HW225725   4.357   1.700   6.592
 8276SOL     OW25726   0.997   1.889   3.990
 8276SOL    HW125727   0.934   1.852   3.922
 8276SOL    HW225728   0.951   1.962   4.041
 8277SOL     OW25729   0.163   0.898   6.446
 8277SOL    HW125730   0.244   0.857   6.487
 8277SOL    HW225731   0.185   0.929   6.353
 8278SOL     OW25732   2.355   2.074   6.859
 8278SOL    HW125733   2.300   2.002   6.901
 8278SOL    HW225734   2.333   2.080   6.761
 8279SOL     OW25735   0.599   6.402   4.708
 8279SOL    HW125736   0.680   6.436   4.757
 8279SOL    HW225737   0.582   6.461   4.628
 8280SOL     OW25738   2.729   3.319   6.961
 8280SOL    HW125739   2.643   3.269   6.956
 8280SOL    HW225740   2.710   3.418   6.957
 8281SOL     OW25741   0.904   5.591   1.618
 8281SOL    HW125742   0.986   5.647   1.619
 8281SOL    HW225743   0.923   5.504   1.572
 8282SOL     OW25744   5.668   3.261   6.424
 8282SOL    HW125745   5.587   3.270   6.482
 8282SOL    HW225746   5.677   3.165   6.395
 8283SOL     OW25747   1.194   4.727   6.414
 8283SOL    HW125748   1.154   4.688   6.331
 8283SOL    HW225749   1.282   4.769   6.392
 8284SOL     OW25750   0.464   4.066   1.528
 8284SOL    HW125751   0.468   4.150   1.583
 8284SOL    HW225752   0.394   4.075   1.458
 8285SOL     OW25753   3.983   3.114   5.159
 8285SOL    HW125754   3.946   3.204   5.180
 8285SOL    HW225755   4.059   3.094   5.221
 8286SOL     OW25756   5.423   2.875   6.228
 8286SOL    HW125757   5.401   2.882   6.325
 8286SOL    HW225758   5.472   2.790   6.211
 8287SOL     OW25759   1.425   5.780   4.887
 8287SOL    HW125760   1.484   5.807   4.810
 8287SOL    HW225761   1.345   5.732   4.852
 8288SOL     OW25762   2.702   2.196   3.132
 8288SOL    HW125763   2.702   2.270   3.065
 8288SOL    HW225764   2.790   2.147   3.128
 8289SOL     OW25765   0.517   7.003   0.974
 8289SOL    HW125766   0.433   6.971   1.016
 8289SOL    HW225767   0.557   0.047   1.029
 8290SOL     OW25768   6.426   1.374   7.003
 8290SOL    HW125769   6.350   1.368   0.037
 8290SOL    HW225770   6.493   1.302   7.024
 8291SOL     OW25771   5.221   6.758   6.804
 8291SOL    HW125772   5.263   6.723   6.720
 8291SOL    HW225773   5.123   6.767   6.791
 8292SOL     OW25774   2.684   6.483   0.461
 8292SOL    HW125775   2.707   6.386   0.454
 8292SOL    HW225776   2.708   6.528   0.375
 8293SOL     OW25777   3.947   6.672   0.015
 8293SOL    HW125778   3.995   6.589   7.016
 8293SOL    HW225779   3.894   6.708   6.968
 8294SOL     OW25780   5.638   3.582   5.450
 8294SOL    HW125781   5.621   3.644   5.526
 8294SOL    HW225782   5.706   3.622   5.388
 8295SOL     OW25783   5.622   4.990   1.795
 8295SOL    HW125784   5.536   4.941   1.813
 8295SOL    HW225785   5.658   5.027   1.880
 8296SOL     OW25786   1.497   6.595   5.912
 8296SOL    HW125787   1.566   6.663   5.886
 8296SOL    HW225788   1.465   6.614   6.005
 8297SOL     OW25789   6.140   2.710   3.213
 8297SOL    HW125790   6.133   2.744   3.119
 8297SOL    HW225791   6.115   2.614   3.216
 8298SOL     OW25792   5.829   1.451   1.505
 8298SOL    HW125793   5.839   1.476   1.601
 8298SOL    HW225794   5.795   1.530   1.453
 8299SOL     OW25795   0.022   2.427   2.108
 8299SOL    HW125796   7.029   2.496   2.176
 8299SOL    HW225797   7.007   2.448   2.021
 8300SOL     OW25798   0.487   5.384   5.477
 8300SOL    HW125799   0.493   5.377   5.377
 8300SOL    HW225800   0.558   5.328   5.519
 8301SOL     OW25801   4.173   1.747   1.726
 8301SOL    HW125802   4.133   1.754   1.817
 8301SOL    HW225803   4.208   1.837   1.699
 8302SOL     OW25804   6.160   5.849   6.052
 8302SOL    HW125805   6.092   5.807   5.993
 8302SOL    HW225806   6.173   5.945   6.025
 8303SOL     OW25807   7.015   0.363   4.317
 8303SOL    HW125808   0.031   0.452   4.324
 8303SOL    HW225809   6.994   0.330   4.409
 8304SOL     OW25810   1.573   3.731   6.938
 8304SOL    HW125811   1.662   3.727   6.892
 8304SOL    HW225812   1.558   3.823   6.974
 8305SOL     OW25813   3.512   5.071   4.242
 8305SOL    HW125814   3.477   5.045   4.332
 8305SOL    HW225815   3.595   5.125   4.252
 8306SOL     OW25816   0.310   3.276   4.879
 8306SOL    HW125817   0.283   3.202   4.940
 8306SOL    HW225818   0.318   3.241   4.786
 8307SOL     OW25819   4.043   5.263   1.871
 8307SOL    HW125820   4.041   5.242   1.969
 8307SOL    HW225821   3.950   5.266   1.835
 8308SOL     OW25822   4.499   6.616   1.417
 8308SOL    HW125823   4.580   6.586   1.366
 8308SOL    HW225824   4.516   6.607   1.515
 8309SOL     OW25825   5.654   5.435   3.187
 8309SOL    HW125826   5.625   5.344   3.218
 8309SOL    HW225827   5.573   5.491   3.170
 8310SOL     OW25828   1.035   4.587   0.778
 8310SOL    HW125829   0.937   4.589   0.759
 8310SOL    HW225830   1.079   4.519   0.721
 8311SOL     OW25831   0.315   1.213   5.882
 8311SOL    HW125832   0.361   1.234   5.796
 8311SOL    HW225833   0.250   1.138   5.867
 8312SOL     OW25834   5.026   6.139   1.482
 8312SOL    HW125835   4.957   6.185   1.427
 8312SOL    HW225836   5.038   6.187   1.569
 8313SOL     OW25837   4.108   1.782   2.494
 8313SOL    HW125838   4.109   1.746   2.588
 8313SOL    HW225839   4.197   1.821   2.472
 8314SOL     OW25840   5.065   6.487   0.928
 8314SOL    HW125841   5.113   6.498   0.841
 8314SOL    HW225842   4.974   6.528   0.921
 8315SOL     OW25843   3.941   2.923   0.759
 8315SOL    HW125844   3.913   2.850   0.821
 8315SOL    HW225845   3.930   2.892   0.665
 8316SOL     OW25846   0.484   3.095   1.227
 8316SOL    HW125847   0.555   3.025   1.241
 8316SOL    HW225848   0.398   3.050   1.205
 8317SOL     OW25849   2.058   3.159   2.421
 8317SOL    HW125850   2.033   3.101   2.343
 8317SOL    HW225851   2.116   3.233   2.389
 8318SOL     OW25852   4.719   1.920   5.065
 8318SOL    HW125853   4.790   1.979   5.024
 8318SOL    HW225854   4.681   1.861   4.994
 8319SOL     OW25855   2.892   2.310   5.755
 8319SOL    HW125856   2.854   2.223   5.789
 8319SOL    HW225857   2.973   2.292   5.700
 8320SOL     OW25858   3.562   5.071   0.930
 8320SOL    HW125859   3.482   5.012   0.942
 8320SOL    HW225860   3.626   5.058   1.005
 8321SOL     OW25861   0.304   1.177   6.345
 8321SOL    HW125862   0.384   1.122   6.321
 8321SOL    HW225863   0.323   1.226   6.430
 8322SOL     OW25864   6.870   0.259   0.200
 8322SOL    HW125865   6.886   0.352   0.235
 8322SOL    HW225866   6.955   0.206   0.205
 8323SOL     OW25867   6.981   6.917   2.714
 8323SOL    HW125868   7.019   6.973   2.788
 8323SOL    HW225869   0.026   6.870   2.667
 8324SOL     OW25870   6.661   0.354   2.580
 8324SOL    HW125871   6.697   0.263   2.603
 8324SOL    HW225872   6.570   0.345   2.541
 8325SOL     OW25873   3.640   2.927   4.603
 8325SOL    HW125874   3.738   2.905   4.600
 8325SOL    HW225875   3.617   2.965   4.692
 8326SOL     OW25876   4.407   3.217   5.348
 8326SOL    HW125877   4.418   3.315   5.363
 8326SOL    HW225878   4.324   3.200   5.295
 8327SOL     OW25879   4.723   2.161   5.983
 8327SOL    HW125880   4.807   2.177   5.931
 8327SOL    HW225881   4.664   2.241   5.977
 8328SOL     OW25882   2.653   3.897   5.951
 8328SOL    HW125883   2.555   3.883   5.938
 8328SOL    HW225884   2.693   3.818   5.997
 8329SOL     OW25885   0.103   3.312   5.529
 8329SOL    HW125886   0.173   3.338   5.463
 8329SOL    HW225887   0.137   3.238   5.587
 8330SOL     OW25888   1.976   0.313   0.416
 8330SOL    HW125889   1.905   0.361   0.468
 8330SOL    HW225890   2.064   0.357   0.431
 8331SOL     OW25891   3.040   6.894   1.181
 8331SOL    HW125892   3.116   6.958   1.171
 8331SOL    HW225893   2.961   6.927   1.130
 8332SOL     OW25894   4.389   5.074   2.630
 8332SOL    HW125895   4.406   4.990   2.578
 8332SOL    HW225896   4.292   5.080   2.653
 8333SOL     OW25897   0.161   5.970   0.099
 8333SOL    HW125898   0.078   6.011   0.061
 8333SOL    HW225899   0.241   6.008   0.052
 8334SOL     OW25900   5.976   1.252   4.069
 8334SOL    HW125901   6.053   1.192   4.089
 8334SOL    HW225902   5.943   1.235   3.976
 8335SOL     OW25903   6.482   5.409   5.715
 8335SOL    HW125904   6.568   5.407   5.767
 8335SOL    HW225905   6.440   5.319   5.718
 8336SOL     OW25906   0.018   0.925   2.437
 8336SOL    HW125907   6.953   0.892   2.436
 8336SOL    HW225908   0.078   0.852   2.470
 8337SOL     OW25909   0.448   6.787   3.736
 8337SOL    HW125910   0.397   6.872   3.724
 8337SOL    HW225911   0.474   6.751   3.646
 8338SOL     OW25912   2.263   4.830   1.784
 8338SOL    HW125913   2.333   4.886   1.830
 8338SOL    HW225914   2.184   4.819   1.845
 8339SOL     OW25915   5.929   1.272   1.946
 8339SOL    HW125916   5.858   1.332   1.909
 8339SOL    HW225917   6.009   1.273   1.886
 8340SOL     OW25918   5.083   3.711   0.948
 8340SOL    HW125919   5.060   3.804   0.919
 8340SOL    HW225920   5.045   3.645   0.884
 8341SOL     OW25921   2.202   6.086   0.153
 8341SOL    HW125922   2.160   6.081   0.244
 8341SOL    HW225923   2.229   5.994   0.124
 8342SOL     OW25924   3.530   6.637   1.744
 8342SOL    HW125925   3.563   6.567   1.808
 8342SOL    HW225926   3.496   6.593   1.662
 8343SOL     OW25927   1.439   4.998   6.074
 8343SOL    HW125928   1.502   4.962   6.142
 8343SOL    HW225929   1.345   4.973   6.099
 8344SOL     OW25930   4.737   6.527   5.813
 8344SOL    HW125931   4.824   6.488   5.840
 8344SOL    HW225932   4.738   6.547   5.715
 8345SOL     OW25933   5.420   1.752   3.344
 8345SOL    HW125934   5.371   1.701   3.415
 8345SOL    HW225935   5.372   1.838   3.326
 8346SOL     OW25936   2.284   4.759   0.143
 8346SOL    HW125937   2.187   4.739   0.149
 8346SOL    HW225938   2.325   4.702   0.071
 8347SOL     OW25939   2.761   6.833   4.755
 8347SOL    HW125940   2.776   6.912   4.815
 8347SOL    HW225941   2.785   6.857   4.661
 8348SOL     OW25942   1.797   0.045   1.369
 8348SOL    HW125943   1.809   0.132   1.323
 8348SOL    HW225944   1.723   0.052   1.436
 8349SOL     OW25945   5.973   4.018   0.577
 8349SOL    HW125946   5.899   4.069   0.621
 8349SOL    HW225947   5.980   4.045   0.481
 8350SOL     OW25948   5.234   0.657   4.775
 8350SOL    HW125949   5.174   0.735   4.791
 8350SOL    HW225950   5.320   0.689   4.734
 8351SOL     OW25951   3.765   5.049   4.933
 8351SOL    HW125952   3.848   4.995   4.924
 8351SOL    HW225953   3.787   5.146   4.922
 8352SOL     OW25954   6.735   0.090   1.862
 8352SOL    HW125955   6.774   7.028   1.857
 8352SOL    HW225956   6.777   0.140   1.938
 8353SOL     OW25957   5.389   3.567   2.297
 8353SOL    HW125958   5.299   3.602   2.323
 8353SOL    HW225959   5.447   3.562   2.379
 8354SOL     OW25960   3.480   1.210   6.776
 8354SOL    HW125961   3.562   1.174   6.820
 8354SOL    HW225962   3.399   1.167   6.816
 8355SOL     OW25963   2.764   0.986   6.642
 8355SOL    HW125964   2.766   0.937   6.554
 8355SOL    HW225965   2.669   1.010   6.664
 8356SOL     OW25966   0.869   6.375   0.575
 8356SOL    HW125967   0.926   6.445   0.618
 8356SOL    HW225968   0.776   6.381   0.611
 8357SOL     OW25969   3.953   5.781   5.834
 8357SOL    HW125970   3.898   5.846   5.887
 8357SOL    HW225971   4.007   5.725   5.896
 8358SOL     OW25972   2.085   2.884   5.563
 8358SOL    HW125973   2.008   2.829   5.531
 8358SOL    HW225974   2.101   2.866   5.660
 8359SOL     OW25975   3.647   5.965   4.419
 8359SOL    HW125976   3.680   5.977   4.326
 8359SOL    HW225977   3.714   5.913   4.472
 8360SOL     OW25978   3.402   6.956   2.601
 8360SOL    HW125979   3.418   6.891   2.675
 8360SOL    HW225980   3.320   6.930   2.550
 8361SOL     OW25981   1.584   1.048   1.984
 8361SOL    HW125982   1.609   1.113   2.056
 8361SOL    HW225983   1.663   0.990   1.963
 8362SOL     OW25984   2.648   2.540   0.242
 8362SOL    HW125985   2.719   2.602   0.208
 8362SOL    HW225986   2.630   2.469   0.173
 8363SOL     OW25987   0.899   2.607   0.355
 8363SOL    HW125988   0.983   2.597   0.303
 8363SOL    HW225989   0.825   2.556   0.310
 8364SOL     OW25990   0.484   3.497   2.830
 8364SOL    HW125991   0.550   3.434   2.789
 8364SOL    HW225992   0.423   3.532   2.758
 8365SOL     OW25993   1.343   4.370   1.261
 8365SOL    HW125994   1.361   4.400   1.355
 8365SOL    HW225995   1.357   4.271   1.254
 8366SOL     OW25996   4.518   5.957   2.316
 8366SOL    HW125997   4.425   5.995   2.313
 8366SOL    HW225998   4.527   5.886   2.246
 8367SOL     OW25999   4.406   6.126   4.040
 8367SOL    HW126000   4.469   6.111   4.116
 8367SOL    HW226001   4.313   6.134   4.075
 8368SOL     OW26002   3.001   6.140   6.312
 8368SOL    HW126003   3.063   6.187   6.249
 8368SOL    HW226004   2.938   6.082   6.261
 8369SOL     OW26005   1.837   1.350   6.553
 8369SOL    HW126006   1.864   1.279   6.618
 8369SOL    HW226007   1.806   1.307   6.468
 8370SOL     OW26008   2.839   2.553   5.853
 8370SOL    HW126009   2.846   2.457   5.826
 8370SOL    HW226010   2.792   2.559   5.941
 8371SOL     OW26011   1.407   3.984   0.726
 8371SOL    HW126012   1.343   3.927   0.674
 8371SOL    HW226013   1.379   4.080   0.720
 8372SOL     OW26014   1.130   6.349   2.916
 8372SOL    HW126015   1.125   6.253   2.945
 8372SOL    HW226016   1.050   6.398   2.950
 8373SOL     OW26017   1.050   6.916   5.010
 8373SOL    HW126018   1.126   6.911   4.946
 8373SOL    HW226019   1.067   6.989   5.077
 8374SOL     OW26020   0.087   1.063   6.738
 8374SOL    HW126021   0.071   1.058   6.639
 8374SOL    HW226022   0.166   1.122   6.755
 8375SOL     OW26023   3.469   5.942   5.878
 8375SOL    HW126024   3.384   5.956   5.930
 8375SOL    HW226025   3.514   6.030   5.863
 8376SOL     OW26026   2.548   0.512   4.715
 8376SOL    HW126027   2.520   0.434   4.660
 8376SOL    HW226028   2.569   0.589   4.655
 8377SOL     OW26029   6.210   5.640   1.823
 8377SOL    HW126030   6.226   5.736   1.844
 8377SOL    HW226031   6.114   5.628   1.796
 8378SOL     OW26032   5.378   4.157   3.265
 8378SOL    HW126033   5.392   4.149   3.363
 8378SOL    HW226034   5.285   4.131   3.241
 8379SOL     OW26035   6.863   2.856   1.144
 8379SOL    HW126036   6.920   2.789   1.096
 8379SOL    HW226037   6.922   2.928   1.183
 8380SOL     OW26038   6.580   0.871   1.965
 8380SOL    HW126039   6.523   0.950   1.988
 8380SOL    HW226040   6.547   0.831   1.879
 8381SOL     OW26041   0.744   5.081   4.721
 8381SOL    HW126042   0.667   5.053   4.664
 8381SOL    HW226043   0.787   5.163   4.682
 8382SOL     OW26044   1.574   1.529   2.193
 8382SOL    HW126045   1.594   1.552   2.098
 8382SOL    HW226046   1.655   1.544   2.249
 8383SOL     OW26047   2.786   1.892   6.608
 8383SOL    HW126048   2.775   1.875   6.510
 8383SOL    HW226049   2.732   1.972   6.634
 8384SOL     OW26050   7.018   7.025   0.933
 8384SOL    HW126051   6.986   7.028   1.028
 8384SOL    HW226052   0.008   6.930   0.908
 8385SOL     OW26053   6.058   2.409   1.908
 8385SOL    HW126054   6.077   2.385   2.003
 8385SOL    HW226055   6.134   2.379   1.851
 8386SOL     OW26056   1.095   4.126   2.381
 8386SOL    HW126057   1.099   4.077   2.468
 8386SOL    HW226058   1.017   4.094   2.327
 8387SOL     OW26059   1.261   1.345   1.122
 8387SOL    HW126060   1.321   1.266   1.109
 8387SOL    HW226061   1.211   1.335   1.207
 8388SOL     OW26062   2.198   5.878   1.808
 8388SOL    HW126063   2.179   5.974   1.786
 8388SOL    HW226064   2.120   5.822   1.781
 8389SOL     OW26065   5.304   3.576   2.037
 8389SOL    HW126066   5.348   3.571   2.127
 8389SOL    HW226067   5.252   3.492   2.020
 8390SOL     OW26068   3.709   1.867   6.339
 8390SOL    HW126069   3.774   1.846   6.266
 8390SOL    HW226070   3.655   1.786   6.361
 8391SOL     OW26071   5.898   6.790   0.976
 8391SOL    HW126072   5.984   6.822   0.937
 8391SOL    HW226073   5.873   6.702   0.935
 8392SOL     OW26074   6.445   3.540   3.683
 8392SOL    HW126075   6.415   3.636   3.683
 8392SOL    HW226076   6.404   3.493   3.605
 8393SOL     OW26077   5.519   0.362   2.527
 8393SOL    HW126078   5.486   0.285   2.473
 8393SOL    HW226079   5.618   0.353   2.541
 8394SOL     OW26080   6.219   3.551   1.825
 8394SOL    HW126081   6.156   3.627   1.814
 8394SOL    HW226082   6.310   3.578   1.793
 8395SOL     OW26083   2.310   0.364   5.386
 8395SOL    HW126084   2.403   0.334   5.409
 8395SOL    HW226085   2.258   0.379   5.470
 8396SOL     OW26086   4.070   4.782   4.127
 8396SOL    HW126087   4.120   4.812   4.208
 8396SOL    HW226088   4.049   4.685   4.135
 8397SOL     OW26089   0.152   1.675   3.910
 8397SOL    HW126090   0.165   1.672   3.810
 8397SOL    HW226091   0.088   1.748   3.933
 8398SOL     OW26092   4.894   1.843   6.408
 8398SOL    HW126093   4.930   1.807   6.493
 8398SOL    HW226094   4.802   1.807   6.392
 8399SOL     OW26095   7.014   6.244   6.668
 8399SOL    HW126096   6.963   6.163   6.638
 8399SOL    HW226097   0.032   6.284   6.589
 8400SOL     OW26098   1.471   2.757   4.163
 8400SOL    HW126099   1.525   2.705   4.230
 8400SOL    HW226100   1.485   2.855   4.179
 8401SOL     OW26101   2.170   0.173   5.222
 8401SOL    HW126102   2.190   0.244   5.290
 8401SOL    HW226103   2.164   0.084   5.268
 8402SOL     OW26104   4.875   0.872   6.443
 8402SOL    HW126105   4.856   0.773   6.444
 8402SOL    HW226106   4.885   0.905   6.536
 8403SOL     OW26107   0.018   4.648   4.048
 8403SOL    HW126108   6.990   4.635   3.967
 8403SOL    HW226109   7.001   4.706   4.114
 8404SOL     OW26110   3.086   1.253   6.031
 8404SOL    HW126111   3.101   1.348   6.003
 8404SOL    HW226112   3.037   1.204   5.958
 8405SOL     OW26113   3.947   1.634   6.027
 8405SOL    HW126114   4.020   1.575   5.994
 8405SOL    HW226115   3.864   1.580   6.042
 8406SOL     OW26116   4.987   0.344   0.452
 8406SOL    HW126117   5.039   0.429   0.447
 8406SOL    HW226118   4.975   0.319   0.548
 8407SOL     OW26119   4.304   6.085   3.414
 8407SOL    HW126120   4.324   6.000   3.463
 8407SOL    HW226121   4.327   6.073   3.317
 8408SOL     OW26122   5.551   6.439   0.575
 8408SOL    HW126123   5.615   6.448   0.499
 8408SOL    HW226124   5.511   6.528   0.596
 8409SOL     OW26125   4.643   2.419   1.905
 8409SOL    HW126126   4.705   2.497   1.905
 8409SOL    HW226127   4.549   2.451   1.890
 8410SOL     OW26128   6.342   1.527   1.565
 8410SOL    HW126129   6.401   1.491   1.637
 8410SOL    HW226130   6.278   1.593   1.604
 8411SOL     OW26131   0.464   6.180   1.808
 8411SOL    HW126132   0.517   6.167   1.724
 8411SOL    HW226133   0.371   6.145   1.794
 8412SOL     OW26134   3.553   3.157   0.854
 8412SOL    HW126135   3.524   3.100   0.931
 8412SOL    HW226136   3.573   3.249   0.886
 8413SOL     OW26137   4.163   5.765   6.556
 8413SOL    HW126138   4.201   5.815   6.634
 8413SOL    HW226139   4.215   5.785   6.474
 8414SOL     OW26140   2.044   1.562   2.770
 8414SOL    HW126141   2.121   1.577   2.708
 8414SOL    HW226142   1.966   1.617   2.741
 8415SOL     OW26143   3.215   0.198   3.851
 8415SOL    HW126144   3.278   0.125   3.874
 8415SOL    HW226145   3.166   0.175   3.767
 8416SOL     OW26146   5.559   1.742   4.876
 8416SOL    HW126147   5.467   1.773   4.850
 8416SOL    HW226148   5.561   1.724   4.975
 8417SOL     OW26149   1.662   3.206   5.418
 8417SOL    HW126150   1.693   3.174   5.508
 8417SOL    HW226151   1.707   3.152   5.346
 8418SOL     OW26152   0.933   5.468   2.336
 8418SOL    HW126153   0.943   5.434   2.429
 8418SOL    HW226154   0.896   5.561   2.337
 8419SOL     OW26155   5.763   0.904   3.180
 8419SOL    HW126156   5.762   0.929   3.277
 8419SOL    HW226157   5.782   0.986   3.125
 8420SOL     OW26158   3.433   6.870   2.243
 8420SOL    HW126159   3.383   6.849   2.159
 8420SOL    HW226160   3.433   6.791   2.303
 8421SOL     OW26161   3.062   6.117   6.805
 8421SOL    HW126162   3.021   6.065   6.730
 8421SOL    HW226163   3.025   6.086   6.892
 8422SOL     OW26164   4.565   2.578   2.399
 8422SOL    HW126165   4.615   2.503   2.356
 8422SOL    HW226166   4.591   2.665   2.358
 8423SOL     OW26167   4.728   4.512   5.646
 8423SOL    HW126168   4.751   4.430   5.697
 8423SOL    HW226169   4.754   4.593   5.700
 8424SOL     OW26170   2.159   0.486   3.628
 8424SOL    HW126171   2.162   0.493   3.728
 8424SOL    HW226172   2.103   0.560   3.591
 8425SOL     OW26173   3.485   3.879   3.537
 8425SOL    HW126174   3.439   3.940   3.473
 8425SOL    HW226175   3.478   3.917   3.630
 8426SOL     OW26176   3.638   3.255   2.540
 8426SOL    HW126177   3.635   3.346   2.500
 8426SOL    HW226178   3.634   3.262   2.640
 8427SOL     OW26179   2.958   3.825   3.271
 8427SOL    HW126180   3.057   3.833   3.275
 8427SOL    HW226181   2.917   3.915   3.254
 8428SOL     OW26182   0.118   0.126   1.141
 8428SOL    HW126183   0.182   0.145   1.216
 8428SOL    HW226184   0.024   0.144   1.173
 8429SOL     OW26185   1.732   5.815   6.169
 8429SOL    HW126186   1.807   5.861   6.121
 8429SOL    HW226187   1.662   5.882   6.193
 8430SOL     OW26188   4.046   4.920   4.917
 8430SOL    HW126189   4.100   4.872   4.848
 8430SOL    HW226190   4.070   4.886   5.008
 8431SOL     OW26191   3.105   3.964   6.509
 8431SOL    HW126192   3.045   3.893   6.472
 8431SOL    HW226193   3.138   4.022   6.434
 8432SOL     OW26194   6.673   5.434   6.613
 8432SOL    HW126195   6.662   5.335   6.601
 8432SOL    HW226196   6.645   5.459   6.706
 8433SOL     OW26197   4.285   2.606   1.022
 8433SOL    HW126198   4.379   2.640   1.023
 8433SOL    HW226199   4.237   2.642   0.943
 8434SOL     OW26200   2.186   5.332   4.677
 8434SOL    HW126201   2.258   5.300   4.615
 8434SOL    HW226202   2.203   5.297   4.769
 8435SOL     OW26203   5.468   0.831   2.892
 8435SOL    HW126204   5.393   0.896   2.882
 8435SOL    HW226205   5.550   0.867   2.849
 8436SOL     OW26206   2.819   6.261   3.572
 8436SOL    HW126207   2.857   6.190   3.512
 8436SOL    HW226208   2.754   6.316   3.521
 8437SOL     OW26209   2.093   3.178   2.728
 8437SOL    HW126210   2.027   3.153   2.657
 8437SOL    HW226211   2.152   3.100   2.748
 8438SOL     OW26212   1.851   3.845   2.967
 8438SOL    HW126213   1.780   3.900   3.011
 8438SOL    HW226214   1.929   3.835   3.029
 8439SOL     OW26215   6.310   5.468   4.063
 8439SOL    HW126216   6.311   5.368   4.071
 8439SOL    HW226217   6.370   5.507   4.133
 8440SOL     OW26218   2.305   1.697   3.913
 8440SOL    HW126219   2.267   1.655   3.831
 8440SOL    HW226220   2.231   1.729   3.972
 8441SOL     OW26221   5.583   5.651   5.300
 8441SOL    HW126222   5.532   5.609   5.225
 8441SOL    HW226223   5.612   5.743   5.273
 8442SOL     OW26224   3.803   1.064   5.147
 8442SOL    HW126225   3.816   1.132   5.075
 8442SOL    HW226226   3.890   1.050   5.195
 8443SOL     OW26227   1.432   4.845   3.838
 8443SOL    HW126228   1.439   4.866   3.936
 8443SOL    HW226229   1.465   4.753   3.821
 8444SOL     OW26230   4.353   6.791   3.200
 8444SOL    HW126231   4.297   6.870   3.175
 8444SOL    HW226232   4.309   6.740   3.274
 8445SOL     OW26233   2.402   0.461   6.791
 8445SOL    HW126234   2.353   0.545   6.817
 8445SOL    HW226235   2.359   0.383   6.836
 8446SOL     OW26236   6.954   6.405   5.129
 8446SOL    HW126237   6.987   6.325   5.079
 8446SOL    HW226238   7.029   6.470   5.140
 8447SOL     OW26239   4.379   1.781   2.361
 8447SOL    HW126240   4.394   1.872   2.397
 8447SOL    HW226241   4.444   1.717   2.402
 8448SOL     OW26242   4.825   6.140   3.768
 8448SOL    HW126243   4.868   6.125   3.857
 8448SOL    HW226244   4.811   6.238   3.753
 8449SOL     OW26245   1.705   3.327   3.514
 8449SOL    HW126246   1.627   3.296   3.569
 8449SOL    HW226247   1.729   3.420   3.541
 8450SOL     OW26248   0.467   0.697   6.986
 8450SOL    HW126249   0.512   0.621   6.940
 8450SOL    HW226250   0.492   0.698   0.053
 8451SOL     OW26251   3.621   1.214   1.210
 8451SOL    HW126252   3.623   1.142   1.280
 8451SOL    HW226253   3.691   1.194   1.140
 8452SOL     OW26254   5.520   1.921   4.399
 8452SOL    HW126255   5.439   1.929   4.458
 8452SOL    HW226256   5.490   1.902   4.306
 8453SOL     OW26257   0.630   5.469   6.953
 8453SOL    HW126258   0.674   5.554   6.925
 8453SOL    HW226259   0.664   5.442   0.013
 8454SOL     OW26260   0.678   4.287   0.173
 8454SOL    HW126261   0.589   4.282   0.218
 8454SOL    HW226262   0.695   4.381   0.144
 8455SOL     OW26263   0.849   0.238   2.645
 8455SOL    HW126264   0.873   0.265   2.738
 8455SOL    HW226265   0.932   0.223   2.591
 8456SOL     OW26266   5.080   0.527   3.535
 8456SOL    HW126267   5.060   0.429   3.545
 8456SOL    HW226268   5.178   0.541   3.539
 8457SOL     OW26269   6.388   6.772   4.766
 8457SOL    HW126270   6.303   6.746   4.721
 8457SOL    HW226271   6.433   6.691   4.804
 8458SOL     OW26272   0.663   0.101   0.527
 8458SOL    HW126273   0.685   0.198   0.518
 8458SOL    HW226274   0.577   0.091   0.578
 8459SOL     OW26275   1.497   5.680   3.331
 8459SOL    HW126276   1.437   5.719   3.261
 8459SOL    HW226277   1.581   5.734   3.337
 8460SOL     OW26278   4.218   3.994   5.269
 8460SOL    HW126279   4.301   3.947   5.299
 8460SOL    HW226280   4.219   4.088   5.302
 8461SOL     OW26281   0.013   3.083   4.798
 8461SOL    HW126282   7.006   3.071   4.890
 8461SOL    HW226283   6.995   3.157   4.752
 8462SOL     OW26284   3.010   1.422   1.215
 8462SOL    HW126285   2.940   1.453   1.280
 8462SOL    HW226286   3.000   1.471   1.129
 8463SOL     OW26287   6.248   6.993   2.048
 8463SOL    HW126288   6.294   6.908   2.074
 8463SOL    HW226289   6.149   6.979   2.052
 8464SOL     OW26290   5.813   3.283   4.250
 8464SOL    HW126291   5.820   3.380   4.226
 8464SOL    HW226292   5.839   3.227   4.171
 8465SOL     OW26293   1.523   1.844   0.441
 8465SOL    HW126294   1.595   1.911   0.455
 8465SOL    HW226295   1.434   1.890   0.449
 8466SOL     OW26296   1.051   5.587   3.197
 8466SOL    HW126297   1.109   5.565   3.275
 8466SOL    HW226298   1.020   5.682   3.203
 8467SOL     OW26299   2.285   5.784   0.961
 8467SOL    HW126300   2.253   5.842   1.036
 8467SOL    HW226301   2.334   5.705   0.998
 8468SOL     OW26302   4.103   2.390   0.638
 8468SOL    HW126303   4.043   2.466   0.616
 8468SOL    HW226304   4.073   2.346   0.723
 8469SOL     OW26305   3.308   3.114   6.891
 8469SOL    HW126306   3.352   3.156   6.970
 8469SOL    HW226307   3.297   3.016   6.907
 8470SOL     OW26308   1.749   2.753   1.132
 8470SOL    HW126309   1.714   2.761   1.226
 8470SOL    HW226310   1.848   2.741   1.135
 8471SOL     OW26311   2.951   0.644   4.092
 8471SOL    HW126312   2.891   0.722   4.076
 8471SOL    HW226313   3.023   0.642   4.022
 8472SOL     OW26314   0.684   6.872   4.547
 8472SOL    HW126315   0.584   6.871   4.557
 8472SOL    HW226316   0.709   6.929   4.470
 8473SOL     OW26317   0.106   5.950   0.473
 8473SOL    HW126318   0.064   5.988   0.555
 8473SOL    HW226319   0.071   5.858   0.457
 8474SOL     OW26320   2.985   2.892   1.782
 8474SOL    HW126321   3.043   2.904   1.863
 8474SOL    HW226322   2.955   2.797   1.776
 8475SOL     OW26323   5.569   1.506   2.821
 8475SOL    HW126324   5.581   1.456   2.736
 8475SOL    HW226325   5.472   1.518   2.841
 8476SOL     OW26326   5.531   0.016   1.857
 8476SOL    HW126327   5.503   6.950   1.867
 8476SOL    HW226328   5.606   0.035   1.921
 8477SOL     OW26329   2.993   6.571   1.438
 8477SOL    HW126330   2.978   6.669   1.435
 8477SOL    HW226331   2.905   6.523   1.447
 8478SOL     OW26332   1.800   0.674   5.483
 8478SOL    HW126333   1.720   0.691   5.426
 8478SOL    HW226334   1.854   0.599   5.443
 8479SOL     OW26335   6.079   1.138   0.458
 8479SOL    HW126336   6.139   1.207   0.417
 8479SOL    HW226337   6.127   1.091   0.531
 8480SOL     OW26338   3.723   0.325   1.367
 8480SOL    HW126339   3.781   0.252   1.329
 8480SOL    HW226340   3.708   0.395   1.298
 8481SOL     OW26341   3.828   1.473   4.461
 8481SOL    HW126342   3.899   1.512   4.520
 8481SOL    HW226343   3.803   1.540   4.391
 8482SOL     OW26344   1.792   0.305   2.033
 8482SOL    HW126345   1.792   0.306   2.133
 8482SOL    HW226346   1.829   0.218   2.001
 8483SOL     OW26347   3.146   5.823   2.252
 8483SOL    HW126348   3.120   5.780   2.338
 8483SOL    HW226349   3.213   5.896   2.270
 8484SOL     OW26350   0.453   4.598   3.885
 8484SOL    HW126351   0.513   4.594   3.964
 8484SOL    HW226352   0.444   4.507   3.845
 8485SOL     OW26353   2.379   4.190   0.234
 8485SOL    HW126354   2.414   4.193   0.327
 8485SOL    HW226355   2.328   4.274   0.215
 8486SOL     OW26356   5.213   1.031   2.552
 8486SOL    HW126357   5.287   1.065   2.494
 8486SOL    HW226358   5.155   0.968   2.500
 8487SOL     OW26359   5.055   0.077   1.649
 8487SOL    HW126360   5.141   0.115   1.683
 8487SOL    HW226361   4.985   0.149   1.650
 8488SOL     OW26362   5.303   4.660   4.262
 8488SOL    HW126363   5.234   4.598   4.223
 8488SOL    HW226364   5.309   4.742   4.206
 8489SOL     OW26365   5.846   4.642   1.434
 8489SOL    HW126366   5.896   4.662   1.350
 8489SOL    HW226367   5.807   4.550   1.428
 8490SOL     OW26368   4.351   5.595   2.884
 8490SOL    HW126369   4.292   5.608   2.805
 8490SOL    HW226370   4.406   5.677   2.900
 8491SOL     OW26371   2.269   0.566   2.131
 8491SOL    HW126372   2.192   0.593   2.073
 8491SOL    HW226373   2.267   0.619   2.216
 8492SOL     OW26374   5.402   3.304   5.377
 8492SOL    HW126375   5.388   3.215   5.334
 8492SOL    HW226376   5.336   3.370   5.341
 8493SOL     OW26377   4.219   2.242   7.022
 8493SOL    HW126378   4.235   2.147   6.996
 8493SOL    HW226379   4.260   2.261   0.081
 8494SOL     OW26380   2.461   5.801   6.784
 8494SOL    HW126381   2.559   5.785   6.793
 8494SOL    HW226382   2.414   5.715   6.765
 8495SOL     OW26383   6.531   2.787   0.319
 8495SOL    HW126384   6.465   2.853   0.282
 8495SOL    HW226385   6.610   2.835   0.355
 8496SOL     OW26386   0.631   2.106   3.405
 8496SOL    HW126387   0.534   2.083   3.406
 8496SOL    HW226388   0.669   2.098   3.497
 8497SOL     OW26389   5.508   5.388   4.481
 8497SOL    HW126390   5.414   5.369   4.453
 8497SOL    HW226391   5.571   5.351   4.413
 8498SOL     OW26392   0.333   0.201   1.271
 8498SOL    HW126393   0.340   0.238   1.364
 8498SOL    HW226394   0.424   0.197   1.230
 8499SOL     OW26395   3.136   5.022   6.554
 8499SOL    HW126396   3.202   5.026   6.479
 8499SOL    HW226397   3.177   4.975   6.632
 8500SOL     OW26398   2.316   6.877   5.746
 8500SOL    HW126399   2.216   6.881   5.746
 8500SOL    HW226400   2.346   6.805   5.809
 8501SOL     OW26401   1.811   3.443   6.576
 8501SOL    HW126402   1.748   3.437   6.654
 8501SOL    HW226403   1.772   3.504   6.507
 8502SOL     OW26404   0.130   6.130   1.407
 8502SOL    HW126405   0.075   6.060   1.451
 8502SOL    HW226406   0.114   6.127   1.308
 8503SOL     OW26407   1.553   4.934   3.593
 8503SOL    HW126408   1.514   4.935   3.685
 8503SOL    HW226409   1.526   5.018   3.545
 8504SOL     OW26410   1.872   6.079   3.680
 8504SOL    HW126411   1.792   6.033   3.720
 8504SOL    HW226412   1.879   6.171   3.718
 8505SOL     OW26413   5.482   4.219   3.953
 8505SOL    HW126414   5.483   4.124   3.984
 8505SOL    HW226415   5.434   4.275   4.020
 8506SOL     OW26416   1.286   6.434   0.266
 8506SOL    HW126417   1.315   6.466   0.357
 8506SOL    HW226418   1.349   6.470   0.197
 8507SOL     OW26419   2.459   1.023   6.023
 8507SOL    HW126420   2.378   0.965   6.022
 8507SOL    HW226421   2.532   0.979   6.074
 8508SOL     OW26422   6.602   2.487   5.060
 8508SOL    HW126423   6.550   2.539   4.992
 8508SOL    HW226424   6.616   2.394   5.026
 8509SOL     OW26425   5.752   1.217   4.337
 8509SOL    HW126426   5.807   1.273   4.399
 8509SOL    HW226427   5.671   1.183   4.386
 8510SOL     OW26428   5.730   5.703   3.027
 8510SOL    HW126429   5.706   5.637   3.098
 8510SOL    HW226430   5.659   5.703   2.956
 8511SOL     OW26431   6.319   4.400   0.495
 8511SOL    HW126432   6.394   4.465   0.511
 8511SOL    HW226433   6.322   4.329   0.565
 8512SOL     OW26434   4.268   2.653   0.013
 8512SOL    HW126435   4.257   2.610   0.102
 8512SOL    HW226436   4.206   2.731   0.006
 8513SOL     OW26437   5.355   3.696   0.381
 8513SOL    HW126438   5.331   3.656   0.470
 8513SOL    HW226439   5.272   3.709   0.327
 8514SOL     OW26440   2.977   1.510   3.970
 8514SOL    HW126441   2.880   1.488   3.982
 8514SOL    HW226442   3.031   1.466   4.042
 8515SOL     OW26443   0.835   1.290   6.778
 8515SOL    HW126444   0.874   1.278   6.870
 8515SOL    HW226445   0.883   1.231   6.713
 8516SOL     OW26446   5.809   2.785   2.568
 8516SOL    HW126447   5.784   2.842   2.490
 8516SOL    HW226448   5.885   2.827   2.618
 8517SOL     OW26449   2.384   2.669   5.805
 8517SOL    HW126450   2.475   2.707   5.786
 8517SOL    HW226451   2.368   2.592   5.744
 8518SOL     OW26452   5.052   4.479   6.434
 8518SOL    HW126453   5.142   4.437   6.441
 8518SOL    HW226454   5.059   4.577   6.457
 8519SOL     OW26455   1.329   4.682   0.643
 8519SOL    HW126456   1.317   4.697   0.545
 8519SOL    HW226457   1.259   4.732   0.693
 8520SOL     OW26458   4.133   3.796   5.076
 8520SOL    HW126459   4.068   3.841   5.015
 8520SOL    HW226460   4.158   3.858   5.151
 8521SOL     OW26461   1.788   6.442   5.617
 8521SOL    HW126462   1.887   6.442   5.630
 8521SOL    HW226463   1.765   6.382   5.540
 8522SOL     OW26464   0.979   0.433   1.200
 8522SOL    HW126465   0.970   0.527   1.234
 8522SOL    HW226466   0.902   0.413   1.139
 8523SOL     OW26467   2.618   6.770   6.544
 8523SOL    HW126468   2.597   6.829   6.466
 8523SOL    HW226469   2.674   6.693   6.514
 8524SOL     OW26470   1.212   4.620   4.804
 8524SOL    HW126471   1.250   4.681   4.735
 8524SOL    HW226472   1.176   4.673   4.880
 8525SOL     OW26473   6.265   4.769   0.634
 8525SOL    HW126474   6.195   4.712   0.677
 8525SOL    HW226475   6.221   4.840   0.579
 8526SOL     OW26476   2.900   6.825   1.417
 8526SOL    HW126477   2.914   6.885   1.496
 8526SOL    HW226478   2.941   6.866   1.336
 8527SOL     OW26479   2.765   0.770   6.845
 8527SOL    HW126480   2.739   0.674   6.838
 8527SOL    HW226481   2.759   0.814   6.755
 8528SOL     OW26482   4.594   1.548   1.213
 8528SOL    HW126483   4.618   1.517   1.122
 8528SOL    HW226484   4.515   1.610   1.208
 8529SOL     OW26485   1.112   6.390   6.718
 8529SOL    HW126486   1.056   6.349   6.646
 8529SOL    HW226487   1.208   6.369   6.701
 8530SOL     OW26488   2.898   3.681   3.928
 8530SOL    HW126489   2.915   3.778   3.911
 8530SOL    HW226490   2.875   3.635   3.842
 8531SOL     OW26491   7.010   5.722   3.556
 8531SOL    HW126492   6.986   5.818   3.564
 8531SOL    HW226493   0.065   5.704   3.605
 8532SOL     OW26494   3.358   6.578   3.776
 8532SOL    HW126495   3.377   6.520   3.697
 8532SOL    HW226496   3.263   6.567   3.803
 8533SOL     OW26497   0.697   6.148   6.759
 8533SOL    HW126498   0.640   6.227   6.782
 8533SOL    HW226499   0.732   6.158   6.666
 8534SOL     OW26500   4.391   2.404   4.285
 8534SOL    HW126501   4.327   2.382   4.211
 8534SOL    HW226502   4.451   2.478   4.255
 8535SOL     OW26503   5.251   1.041   4.360
 8535SOL    HW126504   5.300   1.124   4.337
 8535SOL    HW226505   5.156   1.048   4.328
 8536SOL     OW26506   0.659   1.687   4.919
 8536SOL    HW126507   0.701   1.769   4.881
 8536SOL    HW226508   0.689   1.675   5.013
 8537SOL     OW26509   6.012   1.148   3.504
 8537SOL    HW126510   5.924   1.189   3.528
 8537SOL    HW226511   6.017   1.137   3.405
 8538SOL     OW26512   1.774   1.502   0.121
 8538SOL    HW126513   1.751   1.414   0.163
 8538SOL    HW226514   1.765   1.495   0.022
 8539SOL     OW26515   6.138   2.412   2.336
 8539SOL    HW126516   6.199   2.370   2.270
 8539SOL    HW226517   6.152   2.371   2.426
 8540SOL     OW26518   4.708   7.014   6.858
 8540SOL    HW126519   4.750   0.025   6.777
 8540SOL    HW226520   4.748   0.024   6.941
 8541SOL     OW26521   2.751   1.980   4.091
 8541SOL    HW126522   2.848   1.964   4.112
 8541SOL    HW226523   2.725   2.071   4.122
 8542SOL     OW26524   3.491   4.968   6.667
 8542SOL    HW126525   3.514   5.022   6.749
 8542SOL    HW226526   3.419   4.903   6.689
 8543SOL     OW26527   2.070   2.141   0.473
 8543SOL    HW126528   2.020   2.063   0.436
 8543SOL    HW226529   2.089   2.206   0.399
 8544SOL     OW26530   4.956   2.671   4.456
 8544SOL    HW126531   4.966   2.639   4.362
 8544SOL    HW226532   5.015   2.751   4.470
 8545SOL     OW26533   4.962   6.363   5.880
 8545SOL    HW126534   4.958   6.284   5.819
 8545SOL    HW226535   5.047   6.413   5.863
 8546SOL     OW26536   6.212   1.769   3.361
 8546SOL    HW126537   6.310   1.784   3.358
 8546SOL    HW226538   6.189   1.713   3.441
 8547SOL     OW26539   1.726   5.520   5.184
 8547SOL    HW126540   1.695   5.428   5.209
 8547SOL    HW226541   1.673   5.554   5.106
 8548SOL     OW26542   5.964   1.711   5.696
 8548SOL    HW126543   5.992   1.753   5.782
 8548SOL    HW226544   5.878   1.661   5.710
 8549SOL     OW26545   6.733   3.904   3.542
 8549SOL    HW126546   6.810   3.897   3.606
 8549SOL    HW226547   6.714   4.000   3.524
 8550SOL     OW26548   1.662   5.244   6.556
 8550SOL    HW126549   1.715   5.312   6.606
 8550SOL    HW226550   1.682   5.153   6.592
 8551SOL     OW26551   3.523   4.165   6.584
 8551SOL    HW126552   3.522   4.219   6.499
 8551SOL    HW226553   3.615   4.166   6.623
 8552SOL     OW26554   3.204   5.708   3.402
 8552SOL    HW126555   3.212   5.715   3.303
 8552SOL    HW226556   3.113   5.740   3.431
 8553SOL     OW26557   5.327   6.112   0.169
 8553SOL    HW126558   5.316   6.161   0.082
 8553SOL    HW226559   5.420   6.124   0.204
 8554SOL     OW26560   0.117   4.224   0.169
 8554SOL    HW126561   0.073   4.135   0.178
 8554SOL    HW226562   0.058   4.286   0.117
 8555SOL     OW26563   0.759   0.434   3.768
 8555SOL    HW126564   0.803   0.412   3.681
 8555SOL    HW226565   0.689   0.504   3.753
 8556SOL     OW26566   0.333   0.515   3.287
 8556SOL    HW126567   0.261   0.477   3.229
 8556SOL    HW226568   0.298   0.527   3.380
 8557SOL     OW26569   6.848   6.761   1.650
 8557SOL    HW126570   6.794   6.682   1.681
 8557SOL    HW226571   6.789   6.820   1.594
 8558SOL     OW26572   2.346   5.459   2.306
 8558SOL    HW126573   2.376   5.551   2.330
 8558SOL    HW226574   2.250   5.448   2.330
 8559SOL     OW26575   1.067   0.984   1.861
 8559SOL    HW126576   1.086   0.895   1.903
 8559SOL    HW226577   1.048   1.051   1.933
 8560SOL     OW26578   0.081   1.129   0.144
 8560SOL    HW126579   0.025   1.210   0.165
 8560SOL    HW226580   0.027   1.064   0.091
 8561SOL     OW26581   4.738   6.038   2.458
 8561SOL    HW126582   4.664   5.996   2.407
 8561SOL    HW226583   4.703   6.071   2.546
 8562SOL     OW26584   4.052   6.825   4.375
 8562SOL    HW126585   3.952   6.822   4.369
 8562SOL    HW226586   4.089   6.732   4.382
 8563SOL     OW26587   3.023   3.162   7.028
 8563SOL    HW126588   3.118   3.177   6.997
 8563SOL    HW226589   2.961   3.214   6.969
 8564SOL     OW26590   1.154   0.342   3.692
 8564SOL    HW126591   1.128   0.314   3.784
 8564SOL    HW226592   1.072   0.358   3.637
 8565SOL     OW26593   3.926   0.073   0.844
 8565SOL    HW126594   3.880   0.066   0.933
 8565SOL    HW226595   4.022   0.096   0.858
 8566SOL     OW26596   1.366   2.392   3.140
 8566SOL    HW126597   1.346   2.466   3.205
 8566SOL    HW226598   1.433   2.330   3.180
 8567SOL     OW26599   5.549   1.495   1.456
 8567SOL    HW126600   5.487   1.490   1.377
 8567SOL    HW226601   5.603   1.411   1.461
 8568SOL     OW26602   4.662   1.793   0.490
 8568SOL    HW126603   4.741   1.816   0.548
 8568SOL    HW226604   4.647   1.867   0.424
 8569SOL     OW26605   4.634   0.527   4.743
 8569SOL    HW126606   4.731   0.512   4.721
 8569SOL    HW226607   4.624   0.612   4.794
 8570SOL     OW26608   1.215   4.324   6.147
 8570SOL    HW126609   1.309   4.299   6.125
 8570SOL    HW226610   1.208   4.424   6.154
 8571SOL     OW26611   6.974   4.371   4.674
 8571SOL    HW126612   0.004   4.340   4.748
 8571SOL    HW226613   7.015   4.348   4.586
 8572SOL     OW26614   1.878   5.310   5.410
 8572SOL    HW126615   1.921   5.398   5.391
 8572SOL    HW226616   1.947   5.247   5.447
 8573SOL     OW26617   4.348   6.297   6.811
 8573SOL    HW126618   4.388   6.389   6.802
 8573SOL    HW226619   4.269   6.289   6.751
 8574SOL     OW26620   0.663   4.402   6.128
 8574SOL    HW126621   0.684   4.325   6.188
 8574SOL    HW226622   0.680   4.488   6.176
 8575SOL     OW26623   3.255   2.884   7.007
 8575SOL    HW126624   3.277   2.925   0.066
 8575SOL    HW226625   3.225   2.790   7.020
 8576SOL     OW26626   0.918   6.984   2.031
 8576SOL    HW126627   0.965   6.912   2.081
 8576SOL    HW226628   0.962   0.042   2.049
 8577SOL     OW26629   6.534   5.525   3.245
 8577SOL    HW126630   6.482   5.445   3.215
 8577SOL    HW226631   6.486   5.608   3.218
 8578SOL     OW26632   4.782   0.062   4.033
 8578SOL    HW126633   4.844   7.020   4.066
 8578SOL    HW226634   4.696   0.058   4.082
 8579SOL     OW26635   1.287   4.785   3.591
 8579SOL    HW126636   1.352   4.830   3.651
 8579SOL    HW226637   1.302   4.815   3.497
 8580SOL     OW26638   1.411   6.301   2.043
 8580SOL    HW126639   1.390   6.376   1.981
 8580SOL    HW226640   1.493   6.253   2.011
 8581SOL     OW26641   3.052   1.925   1.019
 8581SOL    HW126642   3.036   1.829   1.039
 8581SOL    HW226643   3.004   1.981   1.088
 8582SOL     OW26644   4.569   4.652   2.243
 8582SOL    HW126645   4.539   4.632   2.150
 8582SOL    HW226646   4.659   4.612   2.259
 8583SOL     OW26647   6.520   0.326   6.096
 8583SOL    HW126648   6.504   0.417   6.135
 8583SOL    HW226649   6.603   0.287   6.136
 8584SOL     OW26650   6.941   4.655   0.651
 8584SOL    HW126651   6.972   4.702   0.733
 8584SOL    HW226652   6.980   4.563   0.648
 8585SOL     OW26653   0.290   0.883   0.576
 8585SOL    HW126654   0.219   0.814   0.595
 8585SOL    HW226655   0.268   0.967   0.625
 8586SOL     OW26656   3.714   6.108   3.124
 8586SOL    HW126657   3.695   6.109   3.026
 8586SOL    HW226658   3.710   6.014   3.158
 8587SOL     OW26659   0.896   1.890   2.743
 8587SOL    HW126660   0.822   1.945   2.783
 8587SOL    HW226661   0.890   1.894   2.643
 8588SOL     OW26662   3.638   2.276   0.710
 8588SOL    HW126663   3.673   2.359   0.666
 8588SOL    HW226664   3.565   2.236   0.653
 8589SOL     OW26665   3.803   0.768   4.638
 8589SOL    HW126666   3.724   0.766   4.576
 8589SOL    HW226667   3.880   0.720   4.595
 8590SOL     OW26668   6.675   5.465   4.324
 8590SOL    HW126669   6.618   5.387   4.351
 8590SOL    HW226670   6.681   5.529   4.400
 8591SOL     OW26671   1.288   3.547   6.292
 8591SOL    HW126672   1.299   3.546   6.193
 8591SOL    HW226673   1.297   3.641   6.325
 8592SOL     OW26674   6.831   4.060   0.795
 8592SOL    HW126675   6.877   3.976   0.826
 8592SOL    HW226676   6.733   4.043   0.787
 8593SOL     OW26677   1.575   6.836   2.459
 8593SOL    HW126678   1.558   6.895   2.538
 8593SOL    HW226679   1.488   6.803   2.422
 8594SOL     OW26680   3.310   4.080   4.083
 8594SOL    HW126681   3.231   4.046   4.032
 8594SOL    HW226682   3.300   4.056   4.180
 8595SOL     OW26683   1.905   1.901   2.494
 8595SOL    HW126684   1.888   1.938   2.402
 8595SOL    HW226685   1.852   1.953   2.561
 8596SOL     OW26686   5.316   5.213   2.171
 8596SOL    HW126687   5.379   5.222   2.248
 8596SOL    HW226688   5.364   5.239   2.087
 8597SOL     OW26689   2.917   1.628   1.046
 8597SOL    HW126690   2.819   1.646   1.031
 8597SOL    HW226691   2.955   1.583   0.965
 8598SOL     OW26692   6.334   4.499   1.201
 8598SOL    HW126693   6.386   4.416   1.219
 8598SOL    HW226694   6.327   4.554   1.284
 8599SOL     OW26695   0.757   2.693   3.717
 8599SOL    HW126696   0.822   2.744   3.774
 8599SOL    HW226697   0.806   2.626   3.662
 8600SOL     OW26698   6.555   4.657   6.581
 8600SOL    HW126699   6.596   4.719   6.514
 8600SOL    HW226700   6.516   4.711   6.656
 8601SOL     OW26701   0.186   1.298   4.309
 8601SOL    HW126702   0.138   1.230   4.364
 8601SOL    HW226703   0.125   1.375   4.290
 8602SOL     OW26704   2.790   5.821   2.620
 8602SOL    HW126705   2.777   5.919   2.614
 8602SOL    HW226706   2.819   5.797   2.713
 8603SOL     OW26707   3.760   3.779   0.254
 8603SOL    HW126708   3.852   3.762   0.219
 8603SOL    HW226709   3.766   3.813   0.348
 8604SOL     OW26710   5.744   3.169   3.613
 8604SOL    HW126711   5.780   3.079   3.590
 8604SOL    HW226712   5.819   3.235   3.619
 8605SOL     OW26713   3.406   5.355   4.005
 8605SOL    HW126714   3.366   5.387   3.920
 8605SOL    HW226715   3.472   5.282   3.986
 8606SOL     OW26716   3.022   4.654   6.162
 8606SOL    HW126717   3.043   4.628   6.068
 8606SOL    HW226718   2.925   4.637   6.180
 8607SOL     OW26719   3.753   5.271   1.827
 8607SOL    HW126720   3.731   5.368   1.828
 8607SOL    HW226721   3.678   5.219   1.868
 8608SOL     OW26722   4.199   4.684   2.886
 8608SOL    HW126723   4.177   4.748   2.813
 8608SOL    HW226724   4.293   4.651   2.874
 8609SOL     OW26725   3.699   0.102   5.112
 8609SOL    HW126726   3.638   0.088   5.190
 8609SOL    HW226727   3.719   0.200   5.103
 8610SOL     OW26728   1.129   6.963   3.458
 8610SOL    HW126729   1.170   6.965   3.367
 8610SOL    HW226730   1.079   6.878   3.470
 8611SOL     OW26731   1.193   2.100   4.623
 8611SOL    HW126732   1.116   2.051   4.582
 8611SOL    HW226733   1.197   2.193   4.586
 8612SOL     OW26734   3.111   3.211   6.625
 8612SOL    HW126735   3.031   3.226   6.567
 8612SOL    HW226736   3.105   3.121   6.668
 8613SOL     OW26737   1.683   1.560   1.134
 8613SOL    HW126738   1.743   1.481   1.117
 8613SOL    HW226739   1.646   1.593   1.048
 8614SOL     OW26740   0.607   3.669   3.022
 8614SOL    HW126741   0.656   3.604   3.080
 8614SOL    HW226742   0.582   3.623   2.936
 8615SOL     OW26743   4.186   2.046   5.701
 8615SOL    HW126744   4.141   1.972   5.753
 8615SOL    HW226745   4.213   2.012   5.611
 8616SOL     OW26746   1.062   4.909   0.188
 8616SOL    HW126747   1.001   4.853   0.243
 8616SOL    HW226748   1.088   4.990   0.240
 8617SOL     OW26749   6.501   2.096   0.496
 8617SOL    HW126750   6.570   2.026   0.481
 8617SOL    HW226751   6.442   2.070   0.572
 8618SOL     OW26752   4.637   6.572   2.643
 8618SOL    HW126753   4.643   6.669   2.665
 8618SOL    HW226754   4.713   6.547   2.583
 8619SOL     OW26755   4.524   5.145   7.001
 8619SOL    HW126756   4.426   5.168   6.998
 8619SOL    HW226757   4.534   5.046   7.006
 8620SOL     OW26758   5.716   6.685   2.782
 8620SOL    HW126759   5.628   6.638   2.784
 8620SOL    HW226760   5.703   6.779   2.751
 8621SOL     OW26761   6.187   1.083   4.121
 8621SOL    HW126762   6.191   0.989   4.088
 8621SOL    HW226763   6.223   1.086   4.215
 8622SOL     OW26764   4.749   4.797   0.141
 8622SOL    HW126765   4.761   4.698   0.128
 8622SOL    HW226766   4.733   4.815   0.238
 8623SOL     OW26767   0.844   3.907   2.757
 8623SOL    HW126768   0.744   3.904   2.744
 8623SOL    HW226769   0.879   3.814   2.768
 8624SOL     OW26770   1.321   4.134   3.506
 8624SOL    HW126771   1.244   4.078   3.475
 8624SOL    HW226772   1.379   4.080   3.567
 8625SOL     OW26773   4.501   0.785   4.818
 8625SOL    HW126774   4.430   0.821   4.757
 8625SOL    HW226775   4.459   0.755   4.904
 8626SOL     OW26776   3.314   3.702   3.989
 8626SOL    HW126777   3.300   3.682   4.086
 8626SOL    HW226778   3.330   3.617   3.940
 8627SOL     OW26779   1.232   0.928   1.359
 8627SOL    HW126780   1.251   0.839   1.399
 8627SOL    HW226781   1.208   0.993   1.431
 8628SOL     OW26782   6.440   0.993   0.140
 8628SOL    HW126783   6.474   1.056   0.070
 8628SOL    HW226784   6.370   0.934   0.099
 8629SOL     OW26785   1.083   5.297   4.034
 8629SOL    HW126786   1.103   5.385   3.992
 8629SOL    HW226787   1.005   5.255   3.987
 8630SOL     OW26788   5.698   3.589   3.955
 8630SOL    HW126789   5.601   3.564   3.945
 8630SOL    HW226790   5.706   3.688   3.967
 8631SOL     OW26791   4.167   5.653   5.553
 8631SOL    HW126792   4.165   5.747   5.585
 8631SOL    HW226793   4.212   5.648   5.464
 8632SOL     OW26794   3.793   0.174   3.627
 8632SOL    HW126795   3.855   0.222   3.566
 8632SOL    HW226796   3.718   0.134   3.574
 8633SOL     OW26797   5.626   1.074   3.833
 8633SOL    HW126798   5.599   1.083   3.929
 8633SOL    HW226799   5.606   1.159   3.785
 8634SOL     OW26800   6.401   3.998   1.640
 8634SOL    HW126801   6.361   4.090   1.631
 8634SOL    HW226802   6.338   3.932   1.600
 8635SOL     OW26803   6.244   3.813   6.034
 8635SOL    HW126804   6.245   3.903   5.990
 8635SOL    HW226805   6.153   3.773   6.025
 8636SOL     OW26806   6.119   5.566   0.388
 8636SOL    HW126807   6.060   5.643   0.412
 8636SOL    HW226808   6.131   5.507   0.468
 8637SOL     OW26809   1.843   0.848   0.446
 8637SOL    HW126810   1.943   0.851   0.452
 8637SOL    HW226811   1.816   0.797   0.365
 8638SOL     OW26812   1.945   4.443   6.988
 8638SOL    HW126813   1.989   4.391   6.914
 8638SOL    HW226814   2.012   4.506   7.028
 8639SOL     OW26815   5.094   2.930   2.182
 8639SOL    HW126816   5.067   2.849   2.234
 8639SOL    HW226817   5.070   2.918   2.086
 8640SOL     OW26818   4.376   3.899   0.875
 8640SOL    HW126819   4.322   3.886   0.959
 8640SOL    HW226820   4.468   3.930   0.899
 8641SOL     OW26821   0.377   4.209   3.249
 8641SOL    HW126822   0.414   4.116   3.246
 8641SOL    HW226823   0.436   4.267   3.306
 8642SOL     OW26824   4.820   0.937   2.232
 8642SOL    HW126825   4.739   0.879   2.242
 8642SOL    HW226826   4.853   0.932   2.138
 8643SOL     OW26827   4.268   0.348   6.601
 8643SOL    HW126828   4.330   0.370   6.526
 8643SOL    HW226829   4.274   0.418   6.672
 8644SOL     OW26830   5.723   2.321   5.125
 8644SOL    HW126831   5.651   2.367   5.178
 8644SOL    HW226832   5.771   2.388   5.068
 8645SOL     OW26833   6.509   4.049   0.760
 8645SOL    HW126834   6.477   3.976   0.699
 8645SOL    HW226835   6.518   4.012   0.853
 8646SOL     OW26836   4.802   1.037   0.844
 8646SOL    HW126837   4.732   1.051   0.914
 8646SOL    HW226838   4.765   0.980   0.770
 8647SOL     OW26839   3.619   5.038   0.147
 8647SOL    HW126840   3.534   4.994   0.174
 8647SOL    HW226841   3.696   4.984   0.182
 8648SOL     OW26842   5.632   0.664   4.362
 8648SOL    HW126843   5.550   0.721   4.355
 8648SOL    HW226844   5.685   0.670   4.278
 8649SOL     OW26845   6.351   3.932   5.794
 8649SOL    HW126846   6.256   3.915   5.770
 8649SOL    HW226847   6.411   3.869   5.744
 8650SOL     OW26848   1.760   5.039   4.445
 8650SOL    HW126849   1.721   4.957   4.486
 8650SOL    HW226850   1.839   5.068   4.499
 8651SOL     OW26851   3.983   1.189   0.231
 8651SOL    HW126852   4.023   1.251   0.298
 8651SOL    HW226853   3.883   1.199   0.232
 8652SOL     OW26854   1.983   4.113   3.872
 8652SOL    HW126855   1.929   4.037   3.837
 8652SOL    HW226856   1.949   4.199   3.833
 8653SOL     OW26857   6.942   2.262   5.953
 8653SOL    HW126858   6.973   2.254   6.048
 8653SOL    HW226859   7.008   2.316   5.901
 8654SOL     OW26860   0.071   6.362   3.057
 8654SOL    HW126861   0.115   6.300   2.992
 8654SOL    HW226862   7.002   6.362   3.041
 8655SOL     OW26863   6.082   6.894   3.869
 8655SOL    HW126864   6.120   6.985   3.890
 8655SOL    HW226865   5.984   6.902   3.854
 8656SOL     OW26866   6.372   0.964   1.272
 8656SOL    HW126867   6.299   1.032   1.270
 8656SOL    HW226868   6.342   0.881   1.226
 8657SOL     OW26869   5.066   5.219   6.238
 8657SOL    HW126870   5.044   5.143   6.177
 8657SOL    HW226871   4.984   5.244   6.291
 8658SOL     OW26872   5.171   4.920   6.975
 8658SOL    HW126873   5.175   4.973   6.890
 8658SOL    HW226874   5.094   4.856   6.972
 8659SOL     OW26875   4.471   0.720   3.507
 8659SOL    HW126876   4.478   0.791   3.577
 8659SOL    HW226877   4.559   0.672   3.500
 8660SOL     OW26878   6.129   4.372   6.935
 8660SOL    HW126879   6.218   4.335   6.910
 8660SOL    HW226880   6.058   4.305   6.914
 8661SOL     OW26881   6.027   3.729   1.752
 8661SOL    HW126882   5.956   3.668   1.716
 8661SOL    HW226883   5.984   3.805   1.801
 8662SOL     OW26884   5.739   6.472   1.361
 8662SOL    HW126885   5.660   6.532   1.355
 8662SOL    HW226886   5.781   6.481   1.451
 8663SOL     OW26887   2.193   5.364   0.893
 8663SOL    HW126888   2.272   5.376   0.833
 8663SOL    HW226889   2.182   5.267   0.915
 8664SOL     OW26890   4.727   5.402   6.623
 8664SOL    HW126891   4.713   5.497   6.651
 8664SOL    HW226892   4.824   5.386   6.603
 8665SOL     OW26893   4.922   5.795   5.554
 8665SOL    HW126894   4.868   5.777   5.636
 8665SOL    HW226895   4.944   5.893   5.550
 8666SOL     OW26896   4.705   1.900   5.319
 8666SOL    HW126897   4.728   1.890   5.223
 8666SOL    HW226898   4.748   1.983   5.355
 8667SOL     OW26899   5.099   1.567   3.220
 8667SOL    HW126900   5.154   1.622   3.157
 8667SOL    HW226901   5.132   1.580   3.313
 8668SOL     OW26902   5.376   2.430   4.132
 8668SOL    HW126903   5.326   2.495   4.189
 8668SOL    HW226904   5.317   2.352   4.111
 8669SOL     OW26905   3.925   0.933   6.269
 8669SOL    HW126906   3.859   0.883   6.213
 8669SOL    HW226907   3.938   1.025   6.232
 8670SOL     OW26908   3.615   5.636   4.920
 8670SOL    HW126909   3.536   5.648   4.859
 8670SOL    HW226910   3.583   5.610   5.011
 8671SOL     OW26911   5.983   0.363   3.822
 8671SOL    HW126912   6.029   0.413   3.895
 8671SOL    HW226913   5.953   0.273   3.856
 8672SOL     OW26914   2.785   5.499   4.516
 8672SOL    HW126915   2.853   5.432   4.488
 8672SOL    HW226916   2.793   5.581   4.461
 8673SOL     OW26917   0.673   2.310   6.958
 8673SOL    HW126918   0.688   2.223   7.004
 8673SOL    HW226919   0.600   2.301   6.891
 8674SOL     OW26920   0.051   6.457   2.700
 8674SOL    HW126921   0.110   6.402   2.759
 8674SOL    HW226922   6.986   6.429   2.712
 8675SOL     OW26923   2.689   2.149   4.337
 8675SOL    HW126924   2.708   2.240   4.372
 8675SOL    HW226925   2.771   2.092   4.347
 8676SOL     OW26926   3.277   0.640   3.026
 8676SOL    HW126927   3.258   0.608   2.933
 8676SOL    HW226928   3.224   0.722   3.045
 8677SOL     OW26929   2.450   5.692   6.389
 8677SOL    HW126930   2.516   5.648   6.327
 8677SOL    HW226931   2.440   5.636   6.471
 8678SOL     OW26932   0.797   0.360   0.377
 8678SOL    HW126933   0.748   0.404   0.301
 8678SOL    HW226934   0.858   0.426   0.420
 8679SOL     OW26935   5.807   1.813   4.727
 8679SOL    HW126936   5.715   1.782   4.752
 8679SOL    HW226937   5.834   1.889   4.786
 8680SOL     OW26938   1.830   4.072   1.134
 8680SOL    HW126939   1.918   4.043   1.171
 8680SOL    HW226940   1.838   4.087   1.035
 8681SOL     OW26941   4.765   4.484   6.948
 8681SOL    HW126942   4.808   4.462   6.861
 8681SOL    HW226943   4.833   4.485   7.020
 8682SOL     OW26944   3.233   6.452   3.159
 8682SOL    HW126945   3.258   6.513   3.235
 8682SOL    HW226946   3.224   6.506   3.075
 8683SOL     OW26947   1.331   3.106   1.653
 8683SOL    HW126948   1.246   3.080   1.700
 8683SOL    HW226949   1.328   3.204   1.633
 8684SOL     OW26950   6.513   2.748   4.691
 8684SOL    HW126951   6.593   2.738   4.751
 8684SOL    HW226952   6.518   2.835   4.642
 8685SOL     OW26953   1.308   2.044   6.031
 8685SOL    HW126954   1.310   2.118   5.964
 8685SOL    HW226955   1.397   1.999   6.034
 8686SOL     OW26956   6.750   2.309   2.156
 8686SOL    HW126957   6.765   2.393   2.209
 8686SOL    HW226958   6.833   2.253   2.160
 8687SOL     OW26959   3.662   6.338   2.759
 8687SOL    HW126960   3.693   6.432   2.771
 8687SOL    HW226961   3.565   6.331   2.782
 8688SOL     OW26962   2.475   6.772   0.999
 8688SOL    HW126963   2.547   6.767   1.068
 8688SOL    HW226964   2.443   6.680   0.976
 8689SOL     OW26965   3.974   5.895   6.962
 8689SOL    HW126966   3.954   5.812   6.910
 8689SOL    HW226967   3.961   5.878   0.029
 8690SOL     OW26968   1.306   1.656   4.193
 8690SOL    HW126969   1.334   1.711   4.115
 8690SOL    HW226970   1.214   1.620   4.177
 8691SOL     OW26971   4.526   2.574   6.444
 8691SOL    HW126972   4.486   2.531   6.525
 8691SOL    HW226973   4.479   2.660   6.425
 8692SOL     OW26974   3.232   2.124   3.342
 8692SOL    HW126975   3.299   2.109   3.270
 8692SOL    HW226976   3.159   2.183   3.308
 8693SOL     OW26977   5.602   2.545   0.615
 8693SOL    HW126978   5.550   2.544   0.700
 8693SOL    HW226979   5.609   2.452   0.579
 8694SOL     OW26980   5.205   0.460   6.518
 8694SOL    HW126981   5.268   0.521   6.469
 8694SOL    HW226982   5.111   0.484   6.495
 8695SOL     OW26983   4.632   2.786   6.102
 8695SOL    HW126984   4.536   2.783   6.075
 8695SOL    HW226985   4.659   2.698   6.141
 8696SOL     OW26986   3.515   5.778   0.971
 8696SOL    HW126987   3.614   5.764   0.969
 8696SOL    HW226988   3.481   5.790   0.878
 8697SOL     OW26989   6.485   3.652   6.958
 8697SOL    HW126990   6.394   3.612   6.956
 8697SOL    HW226991   6.545   3.598   7.017
 8698SOL     OW26992   5.243   5.787   4.021
 8698SOL    HW126993   5.339   5.801   3.997
 8698SOL    HW226994   5.222   5.689   4.012
 8699SOL     OW26995   1.179   2.679   5.460
 8699SOL    HW126996   1.138   2.749   5.401
 8699SOL    HW226997   1.153   2.695   5.555
 8700SOL     OW26998   2.303   0.938   4.840
 8700SOL    HW126999   2.369   0.995   4.793
 8700SOL    HW227000   2.347   0.853   4.870
 8701SOL     OW27001   0.692   1.119   5.918
 8701SOL    HW127002   0.771   1.114   5.858
 8701SOL    HW227003   0.665   1.214   5.932
 8702SOL     OW27004   5.255   4.359   0.081
 8702SOL    HW127005   5.239   4.455   0.106
 8702SOL    HW227006   5.233   4.301   0.160
 8703SOL     OW27007   3.361   5.813   1.514
 8703SOL    HW127008   3.315   5.724   1.507
 8703SOL    HW227009   3.318   5.878   1.451
 8704SOL     OW27010   6.473   4.159   2.489
 8704SOL    HW127011   6.414   4.080   2.505
 8704SOL    HW227012   6.553   4.152   2.548
 8705SOL     OW27013   4.864   0.953   6.694
 8705SOL    HW127014   4.770   0.945   6.730
 8705SOL    HW227015   4.928   0.919   6.762
 8706SOL     OW27016   4.680   1.889   6.698
 8706SOL    HW127017   4.630   1.910   6.782
 8706SOL    HW227018   4.657   1.956   6.627
 8707SOL     OW27019   4.239   2.975   0.132
 8707SOL    HW127020   4.210   2.903   0.194
 8707SOL    HW227021   4.162   3.035   0.111
 8708SOL     OW27022   3.657   0.547   2.408
 8708SOL    HW127023   3.558   0.538   2.401
 8708SOL    HW227024   3.698   0.540   2.317
 8709SOL     OW27025   6.887   4.489   6.794
 8709SOL    HW127026   6.866   4.570   6.848
 8709SOL    HW227027   6.981   4.494   6.760
 8710SOL     OW27028   1.635   3.087   2.936
 8710SOL    HW127029   1.582   3.129   2.863
 8710SOL    HW227030   1.589   3.101   3.024
 8711SOL     OW27031   0.438   6.934   2.800
 8711SOL    HW127032   0.392   6.904   2.884
 8711SOL    HW227033   0.395   7.017   2.766
 8712SOL     OW27034   3.485   2.087   3.463
 8712SOL    HW127035   3.441   2.012   3.414
 8712SOL    HW227036   3.424   2.165   3.468
 8713SOL     OW27037   0.139   3.905   3.576
 8713SOL    HW127038   0.163   3.849   3.497
 8713SOL    HW227039   0.185   3.994   3.569
 8714SOL     OW27040   0.888   0.603   5.719
 8714SOL    HW127041   0.916   0.658   5.798
 8714SOL    HW227042   0.826   0.656   5.662
 8715SOL     OW27043   5.801   0.845   0.862
 8715SOL    HW127044   5.713   0.802   0.840
 8715SOL    HW227045   5.825   0.826   0.957
 8716SOL     OW27046   0.831   1.743   1.262
 8716SOL    HW127047   0.848   1.681   1.186
 8716SOL    HW227048   0.919   1.768   1.304
 8717SOL     OW27049   3.991   3.647   2.386
 8717SOL    HW127050   3.982   3.713   2.460
 8717SOL    HW227051   4.051   3.572   2.416
 8718SOL     OW27052   0.237   2.714   5.019
 8718SOL    HW127053   0.255   2.621   5.051
 8718SOL    HW227054   0.154   2.715   4.963
 8719SOL     OW27055   1.266   0.875   5.588
 8719SOL    HW127056   1.179   0.831   5.609
 8719SOL    HW227057   1.272   0.962   5.636
 8720SOL     OW27058   6.387   4.724   5.314
 8720SOL    HW127059   6.324   4.722   5.392
 8720SOL    HW227060   6.349   4.780   5.241
 8721SOL     OW27061   5.982   2.651   4.295
 8721SOL    HW127062   6.003   2.609   4.383
 8721SOL    HW227063   6.022   2.597   4.222
 8722SOL     OW27064   3.764   1.256   0.802
 8722SOL    HW127065   3.740   1.257   0.705
 8722SOL    HW227066   3.726   1.337   0.846
 8723SOL     OW27067   6.036   5.570   0.890
 8723SOL    HW127068   5.967   5.539   0.955
 8723SOL    HW227069   6.010   5.660   0.854
 8724SOL     OW27070   6.202   0.062   5.738
 8724SOL    HW127071   6.148   0.119   5.799
 8724SOL    HW227072   6.271   0.119   5.692
 8725SOL     OW27073   1.894   0.595   6.956
 8725SOL    HW127074   1.957   0.576   0.002
 8725SOL    HW227075   1.847   0.511   6.930
 8726SOL     OW27076   6.089   6.982   1.399
 8726SOL    HW127077   6.047   6.908   1.346
 8726SOL    HW227078   6.148   0.007   1.339
 8727SOL     OW27079   6.471   6.337   2.243
 8727SOL    HW127080   6.436   6.367   2.154
 8727SOL    HW227081   6.394   6.321   2.305
 8728SOL     OW27082   3.441   0.345   5.222
 8728SOL    HW127083   3.539   0.339   5.243
 8728SOL    HW227084   3.418   0.440   5.199
 8729SOL     OW27085   4.532   5.399   2.689
 8729SOL    HW127086   4.568   5.308   2.668
 8729SOL    HW227087   4.438   5.391   2.722
 8730SOL     OW27088   0.036   5.697   2.388
 8730SOL    HW127089   6.976   5.740   2.387
 8730SOL    HW227090   0.064   5.675   2.294
 8731SOL     OW27091   1.615   2.021   3.455
 8731SOL    HW127092   1.568   1.933   3.449
 8731SOL    HW227093   1.565   2.089   3.401
 8732SOL     OW27094   5.270   4.395   1.874
 8732SOL    HW127095   5.177   4.409   1.840
 8732SOL    HW227096   5.309   4.482   1.902
 8733SOL     OW27097   1.057   6.109   3.022
 8733SOL    HW127098   1.007   6.044   3.080
 8733SOL    HW227099   1.152   6.079   3.014
 8734SOL     OW27100   1.091   4.811   1.559
 8734SOL    HW127101   1.172   4.867   1.578
 8734SOL    HW227102   1.063   4.764   1.643
 8735SOL     OW27103   1.042   1.797   6.793
 8735SOL    HW127104   0.965   1.859   6.808
 8735SOL    HW227105   1.041   1.765   6.699
 8736SOL     OW27106   0.910   6.747   0.285
 8736SOL    HW127107   0.860   6.832   0.305
 8736SOL    HW227108   0.871   6.704   0.203
 8737SOL     OW27109   4.192   6.311   6.090
 8737SOL    HW127110   4.139   6.347   6.014
 8737SOL    HW227111   4.134   6.305   6.172
 8738SOL     OW27112   1.189   3.753   4.750
 8738SOL    HW127113   1.137   3.668   4.741
 8738SOL    HW227114   1.242   3.768   4.667
 8739SOL     OW27115   6.829   4.409   5.941
 8739SOL    HW127116   6.869   4.437   6.028
 8739SOL    HW227117   6.802   4.312   5.946
 8740SOL     OW27118   3.795   0.687   5.581
 8740SOL    HW127119   3.745   0.743   5.646
 8740SOL    HW227120   3.782   0.723   5.489
 8741SOL     OW27121   1.569   2.090   1.832
 8741SOL    HW127122   1.487   2.147   1.820
 8741SOL    HW227123   1.611   2.111   1.920
 8742SOL     OW27124   5.009   5.891   1.397
 8742SOL    HW127125   5.000   5.976   1.450
 8742SOL    HW227126   4.918   5.859   1.371
 8743SOL     OW27127   2.116   5.391   2.494
 8743SOL    HW127128   2.135   5.299   2.526
 8743SOL    HW227129   2.058   5.438   2.560
 8744SOL     OW27130   4.153   2.765   6.119
 8744SOL    HW127131   4.249   2.764   6.091
 8744SOL    HW227132   4.143   2.818   6.203
 8745SOL     OW27133   5.651   2.003   5.273
 8745SOL    HW127134   5.694   1.913   5.284
 8745SOL    HW227135   5.643   2.024   5.175
 8746SOL     OW27136   4.348   4.499   5.815
 8746SOL    HW127137   4.344   4.493   5.715
 8746SOL    HW227138   4.279   4.439   5.854
 8747SOL     OW27139   1.037   2.713   3.525
 8747SOL    HW127140   0.973   2.714   3.449
 8747SOL    HW227141   1.020   2.634   3.583
 8748SOL     OW27142   0.475   0.501   0.343
 8748SOL    HW127143   0.460   0.496   0.442
 8748SOL    HW227144   0.413   0.437   0.297
 8749SOL     OW27145   3.124   0.789   4.314
 8749SOL    HW127146   3.098   0.724   4.243
 8749SOL    HW227147   3.191   0.747   4.375
 8750SOL     OW27148   2.256   2.645   5.431
 8750SOL    HW127149   2.334   2.697   5.399
 8750SOL    HW227150   2.176   2.667   5.376
 8751SOL     OW27151   0.162   0.470   2.097
 8751SOL    HW127152   0.186   0.373   2.090
 8751SOL    HW227153   0.155   0.510   2.006
 8752SOL     OW27154   2.435   4.519   6.775
 8752SOL    HW127155   2.461   4.485   6.684
 8752SOL    HW227156   2.516   4.527   6.832
 8753SOL     OW27157   4.948   1.806   4.465
 8753SOL    HW127158   4.903   1.832   4.379
 8753SOL    HW227159   4.947   1.706   4.474
 8754SOL     OW27160   0.634   1.970   5.832
 8754SOL    HW127161   0.591   1.884   5.860
 8754SOL    HW227162   0.602   2.044   5.891
 8755SOL     OW27163   2.475   1.452   6.767
 8755SOL    HW127164   2.543   1.520   6.743
 8755SOL    HW227165   2.521   1.368   6.796
 8756SOL     OW27166   2.165   3.158   3.581
 8756SOL    HW127167   2.212   3.155   3.669
 8756SOL    HW227168   2.217   3.106   3.513
 8757SOL     OW27169   5.054   6.330   5.310
 8757SOL    HW127170   5.031   6.421   5.276
 8757SOL    HW227171   5.102   6.339   5.398
 8758SOL     OW27172   5.664   6.213   1.938
 8758SOL    HW127173   5.597   6.145   1.968
 8758SOL    HW227174   5.751   6.196   1.984
 8759SOL     OW27175   4.697   1.114   6.012
 8759SOL    HW127176   4.780   1.148   6.056
 8759SOL    HW227177   4.722   1.058   5.933
 8760SOL     OW27178   1.728   1.810   4.414
 8760SOL    HW127179   1.781   1.792   4.330
 8760SOL    HW227180   1.714   1.724   4.464
 8761SOL     OW27181   5.325   0.268   0.590
 8761SOL    HW127182   5.312   0.197   0.521
 8761SOL    HW227183   5.417   0.259   0.630
 8762SOL     OW27184   1.470   3.524   2.686
 8762SOL    HW127185   1.549   3.551   2.631
 8762SOL    HW227186   1.427   3.443   2.644
 8763SOL     OW27187   6.457   5.987   5.407
 8763SOL    HW127188   6.473   6.065   5.467
 8763SOL    HW227189   6.527   5.917   5.424
 8764SOL     OW27190   5.353   1.944   3.559
 8764SOL    HW127191   5.347   1.975   3.654
 8764SOL    HW227192   5.443   1.966   3.523
 8765SOL     OW27193   5.481   6.705   4.800
 8765SOL    HW127194   5.432   6.788   4.827
 8765SOL    HW227195   5.537   6.724   4.720
 8766SOL     OW27196   2.956   4.812   3.657
 8766SOL    HW127197   2.914   4.762   3.733
 8766SOL    HW227198   2.977   4.905   3.686
 8767SOL     OW27199   4.585   0.796   2.829
 8767SOL    HW127200   4.646   0.723   2.861
 8767SOL    HW227201   4.617   0.884   2.864
 8768SOL     OW27202   2.001   3.030   0.122
 8768SOL    HW127203   1.947   3.100   0.076
 8768SOL    HW227204   1.951   2.995   0.201
 8769SOL     OW27205   0.225   6.923   5.155
 8769SOL    HW127206   0.154   6.871   5.106
 8769SOL    HW227207   0.266   6.989   5.093
 8770SOL     OW27208   5.198   4.129   1.830
 8770SOL    HW127209   5.240   4.219   1.819
 8770SOL    HW227210   5.113   4.138   1.882
 8771SOL     OW27211   1.781   1.677   6.841
 8771SOL    HW127212   1.735   1.630   6.765
 8771SOL    HW227213   1.713   1.721   6.899
 8772SOL     OW27214   6.473   1.081   6.773
 8772SOL    HW127215   6.382   1.108   6.804
 8772SOL    HW227216   6.475   0.982   6.760
 8773SOL     OW27217   3.936   2.035   3.367
 8773SOL    HW127218   3.973   2.051   3.458
 8773SOL    HW227219   3.928   1.937   3.350
 8774SOL     OW27220   1.185   1.450   0.831
 8774SOL    HW127221   1.202   1.546   0.809
 8774SOL    HW227222   1.267   1.397   0.809
 8775SOL     OW27223   5.657   6.873   3.394
 8775SOL    HW127224   5.630   6.822   3.312
 8775SOL    HW227225   5.576   6.900   3.445
 8776SOL     OW27226   3.544   3.268   5.002
 8776SOL    HW127227   3.482   3.335   5.042
 8776SOL    HW227228   3.636   3.308   4.996
 8777SOL     OW27229   6.565   4.568   1.614
 8777SOL    HW127230   6.594   4.473   1.606
 8777SOL    HW227231   6.562   4.595   1.710
 8778SOL     OW27232   0.368   2.072   3.381
 8778SOL    HW127233   0.349   2.111   3.291
 8778SOL    HW227234   0.295   2.007   3.405
 8779SOL     OW27235   1.760   4.115   1.941
 8779SOL    HW127236   1.786   4.119   1.844
 8779SOL    HW227237   1.662   4.133   1.950
 8780SOL     OW27238   1.632   5.884   4.101
 8780SOL    HW127239   1.538   5.916   4.103
 8780SOL    HW227240   1.690   5.950   4.150
 8781SOL     OW27241   0.653   1.414   2.937
 8781SOL    HW127242   0.666   1.489   3.003
 8781SOL    HW227243   0.742   1.374   2.915
 8782SOL     OW27244   4.958   1.156   2.468
 8782SOL    HW127245   4.870   1.177   2.510
 8782SOL    HW227246   5.020   1.118   2.536
 8783SOL     OW27247   6.128   3.881   3.840
 8783SOL    HW127248   6.041   3.931   3.835
 8783SOL    HW227249   6.202   3.941   3.811
 8784SOL     OW27250   5.486   4.815   5.291
 8784SOL    HW127251   5.430   4.747   5.243
 8784SOL    HW227252   5.579   4.813   5.255
 8785SOL     OW27253   5.570   4.022   6.761
 8785SOL    HW127254   5.586   4.120   6.768
 8785SOL    HW227255   5.623   3.985   6.685
 8786SOL     OW27256   1.538   6.536   6.791
 8786SOL    HW127257   1.489   6.622   6.811
 8786SOL    HW227258   1.636   6.553   6.793
 8787SOL     OW27259   1.846   3.421   2.136
 8787SOL    HW127260   1.911   3.416   2.212
 8787SOL    HW227261   1.853   3.512   2.093
 8788SOL     OW27262   6.746   2.101   5.275
 8788SOL    HW127263   6.801   2.176   5.238
 8788SOL    HW227264   6.711   2.125   5.366
 8789SOL     OW27265   6.769   0.491   6.219
 8789SOL    HW127266   6.702   0.566   6.225
 8789SOL    HW227267   6.772   0.443   6.307
 8790SOL     OW27268   6.779   1.815   6.915
 8790SOL    HW127269   6.864   1.827   6.968
 8790SOL    HW227270   6.746   1.721   6.927
 8791SOL     OW27271   5.321   7.021   5.677
 8791SOL    HW127272   5.297   7.007   5.580
 8791SOL    HW227273   5.413   0.030   5.683
 8792SOL     OW27274   4.280   0.153   3.280
 8792SOL    HW127275   4.221   0.098   3.339
 8792SOL    HW227276   4.272   0.250   3.303
 8793SOL     OW27277   2.678   5.831   3.917
 8793SOL    HW127278   2.658   5.744   3.963
 8793SOL    HW227279   2.593   5.883   3.905
 8794SOL     OW27280   3.027   6.649   2.739
 8794SOL    HW127281   2.989   6.586   2.671
 8794SOL    HW227282   3.053   6.735   2.694
 8795SOL     OW27283   1.672   6.640   5.471
 8795SOL    HW127284   1.728   6.571   5.517
 8795SOL    HW227285   1.609   6.594   5.408
 8796SOL     OW27286   4.198   1.532   5.279
 8796SOL    HW127287   4.288   1.524   5.322
 8796SOL    HW227288   4.187   1.457   5.213
 8797SOL     OW27289   1.359   6.645   6.196
 8797SOL    HW127290   1.266   6.675   6.216
 8797SOL    HW227291   1.368   6.548   6.218
 8798SOL     OW27292   5.878   3.662   5.225
 8798SOL    HW127293   5.825   3.586   5.187
 8798SOL    HW227294   5.833   3.748   5.203
 8799SOL     OW27295   2.474   4.520   3.231
 8799SOL    HW127296   2.483   4.447   3.163
 8799SOL    HW227297   2.545   4.588   3.216
 8800SOL     OW27298   4.202   4.071   5.827
 8800SOL    HW127299   4.214   3.982   5.783
 8800SOL    HW227300   4.260   4.077   5.908
 8801SOL     OW27301   2.149   1.277   4.229
 8801SOL    HW127302   2.051   1.285   4.217
 8801SOL    HW227303   2.188   1.366   4.254
 8802SOL     OW27304   1.381   6.668   2.386
 8802SOL    HW127305   1.321   6.684   2.464
 8802SOL    HW227306   1.329   6.675   2.301
 8803SOL     OW27307   2.182   5.355   6.870
 8803SOL    HW127308   2.128   5.389   6.793
 8803SOL    HW227309   2.273   5.331   6.839
 8804SOL     OW27310   3.874   0.800   1.774
 8804SOL    HW127311   3.881   0.700   1.777
 8804SOL    HW227312   3.835   0.828   1.686
 8805SOL     OW27313   1.349   0.151   3.244
 8805SOL    HW127314   1.275   0.084   3.245
 8805SOL    HW227315   1.339   0.213   3.322
 8806SOL     OW27316   1.171   5.347   0.567
 8806SOL    HW127317   1.073   5.360   0.547
 8806SOL    HW227318   1.181   5.309   0.659
 8807SOL     OW27319   6.350   5.686   6.120
 8807SOL    HW127320   6.275   5.742   6.084
 8807SOL    HW227321   6.351   5.598   6.074
 8808SOL     OW27322   5.426   1.162   0.610
 8808SOL    HW127323   5.445   1.106   0.691
 8808SOL    HW227324   5.433   1.105   0.528
 8809SOL     OW27325   5.571   3.624   1.787
 8809SOL    HW127326   5.553   3.585   1.878
 8809SOL    HW227327   5.590   3.550   1.723
 8810SOL     OW27328   5.390   1.765   4.170
 8810SOL    HW127329   5.389   1.677   4.122
 8810SOL    HW227330   5.317   1.823   4.136
 8811SOL     OW27331   2.080   1.803   4.111
 8811SOL    HW127332   2.148   1.856   4.162
 8811SOL    HW227333   2.049   1.726   4.166
 8812SOL     OW27334   0.650   0.810   0.560
 8812SOL    HW127335   0.567   0.781   0.512
 8812SOL    HW227336   0.712   0.855   0.497
 8813SOL     OW27337   0.731   5.935   1.438
 8813SOL    HW127338   0.784   5.863   1.481
 8813SOL    HW227339   0.683   5.898   1.358
 8814SOL     OW27340   0.201   0.532   6.671
 8814SOL    HW127341   0.184   0.628   6.649
 8814SOL    HW227342   0.273   0.496   6.611
 8815SOL     OW27343   6.817   5.392   1.515
 8815SOL    HW127344   6.738   5.453   1.526
 8815SOL    HW227345   6.877   5.429   1.444
 8816SOL     OW27346   1.060   6.213   0.901
 8816SOL    HW127347   1.125   6.152   0.856
 8816SOL    HW227348   1.099   6.246   0.987
 8817SOL     OW27349   1.168   6.186   5.105
 8817SOL    HW127350   1.242   6.247   5.078
 8817SOL    HW227351   1.205   6.106   5.153
 8818SOL     OW27352   0.172   3.928   3.846
 8818SOL    HW127353   0.181   3.915   3.748
 8818SOL    HW227354   0.253   3.974   3.882
 8819SOL     OW27355   4.350   6.666   4.298
 8819SOL    HW127356   4.448   6.678   4.308
 8819SOL    HW227357   4.319   6.712   4.214
 8820SOL     OW27358   1.692   2.747   4.515
 8820SOL    HW127359   1.624   2.799   4.565
 8820SOL    HW227360   1.647   2.689   4.447
 8821SOL     OW27361   2.055   0.332   6.190
 8821SOL    HW127362   2.089   0.388   6.115
 8821SOL    HW227363   2.057   0.385   6.275
 8822SOL     OW27364   0.681   0.456   3.018
 8822SOL    HW127365   0.610   0.394   3.051
 8822SOL    HW227366   0.665   0.548   3.054
 8823SOL     OW27367   2.009   0.039   0.750
 8823SOL    HW127368   2.076   0.031   0.824
 8823SOL    HW227369   1.937   0.102   0.777
 8824SOL     OW27370   2.735   4.038   1.056
 8824SOL    HW127371   2.794   3.992   0.989
 8824SOL    HW227372   2.652   3.984   1.069
 8825SOL     OW27373   1.919   1.061   2.039
 8825SOL    HW127374   2.011   1.023   2.027
 8825SOL    HW227375   1.851   0.990   2.017
 8826SOL     OW27376   5.959   1.947   0.428
 8826SOL    HW127377   5.994   2.013   0.361
 8826SOL    HW227378   5.951   1.857   0.385
 8827SOL     OW27379   2.541   1.607   3.401
 8827SOL    HW127380   2.619   1.653   3.443
 8827SOL    HW227381   2.562   1.588   3.305
 8828SOL     OW27382   3.308   5.826   3.917
 8828SOL    HW127383   3.367   5.850   3.839
 8828SOL    HW227384   3.299   5.905   3.977
 8829SOL     OW27385   0.233   3.024   6.881
 8829SOL    HW127386   0.217   2.935   6.839
 8829SOL    HW227387   0.303   3.073   6.829
 8830SOL     OW27388   0.607   1.295   0.018
 8830SOL    HW127389   0.604   1.373   6.985
 8830SOL    HW227390   0.534   1.231   7.026
 8831SOL     OW27391   5.798   0.800   2.904
 8831SOL    HW127392   5.736   0.768   2.976
 8831SOL    HW227393   5.840   0.722   2.859
 8832SOL     OW27394   0.528   6.824   2.279
 8832SOL    HW127395   0.598   6.853   2.214
 8832SOL    HW227396   0.518   6.724   2.275
 8833SOL     OW27397   2.266   5.841   4.529
 8833SOL    HW127398   2.265   5.932   4.570
 8833SOL    HW227399   2.172   5.809   4.516
 8834SOL     OW27400   5.950   3.301   4.494
 8834SOL    HW127401   5.888   3.292   4.572
 8834SOL    HW227402   5.896   3.318   4.411
 8835SOL     OW27403   6.682   6.861   5.583
 8835SOL    HW127404   6.709   6.952   5.552
 8835SOL    HW227405   6.749   6.827   5.649
 8836SOL     OW27406   4.127   0.813   0.594
 8836SOL    HW127407   4.183   0.893   0.571
 8836SOL    HW227408   4.176   0.755   0.659
 8837SOL     OW27409   0.811   0.979   1.756
 8837SOL    HW127410   0.744   1.020   1.817
 8837SOL    HW227411   0.904   0.998   1.790
 8838SOL     OW27412   2.508   5.072   3.210
 8838SOL    HW127413   2.509   5.141   3.138
 8838SOL    HW227414   2.417   5.069   3.252
 8839SOL     OW27415   6.271   6.240   3.316
 8839SOL    HW127416   6.247   6.218   3.411
 8839SOL    HW227417   6.202   6.302   3.278
 8840SOL     OW27418   5.962   2.056   2.286
 8840SOL    HW127419   5.949   2.064   2.188
 8840SOL    HW227420   5.964   1.959   2.312
 8841SOL     OW27421   1.004   1.762   5.530
 8841SOL    HW127422   0.955   1.816   5.598
 8841SOL    HW227423   1.045   1.822   5.462
 8842SOL     OW27424   2.542   2.636   1.414
 8842SOL    HW127425   2.537   2.681   1.503
 8842SOL    HW227426   2.612   2.565   1.417
 8843SOL     OW27427   1.336   3.207   4.960
 8843SOL    HW127428   1.428   3.188   4.994
 8843SOL    HW227429   1.342   3.253   4.871
 8844SOL     OW27430   5.675   1.351   6.306
 8844SOL    HW127431   5.751   1.360   6.242
 8844SOL    HW227432   5.655   1.255   6.321
 8845SOL     OW27433   4.549   4.054   0.117
 8845SOL    HW127434   4.455   4.054   0.152
 8845SOL    HW227435   4.574   4.147   0.090
 8846SOL     OW27436   1.893   4.923   4.238
 8846SOL    HW127437   1.987   4.957   4.242
 8846SOL    HW227438   1.835   4.977   4.300
 8847SOL     OW27439   2.799   0.460   3.038
 8847SOL    HW127440   2.823   0.533   3.102
 8847SOL    HW227441   2.809   0.371   3.083
 8848SOL     OW27442   2.096   0.793   1.731
 8848SOL    HW127443   2.063   0.880   1.695
 8848SOL    HW227444   2.166   0.756   1.670
 8849SOL     OW27445   1.495   6.181   2.432
 8849SOL    HW127446   1.479   6.090   2.392
 8849SOL    HW227447   1.469   6.251   2.365
 8850SOL     OW27448   3.045   1.924   6.867
 8850SOL    HW127449   2.976   1.913   6.939
 8850SOL    HW227450   3.002   1.912   6.778
 8851SOL     OW27451   1.706   4.597   2.303
 8851SOL    HW127452   1.620   4.636   2.334
 8851SOL    HW227453   1.724   4.512   2.353
 8852SOL     OW27454   1.351   1.731   5.245
 8852SOL    HW127455   1.282   1.710   5.314
 8852SOL    HW227456   1.373   1.828   5.248
 8853SOL     OW27457   3.465   0.946   1.662
 8853SOL    HW127458   3.532   0.955   1.736
 8853SOL    HW227459   3.414   0.861   1.674
 8854SOL     OW27460   1.687   2.853   4.956
 8854SOL    HW127461   1.638   2.827   4.873
 8854SOL    HW227462   1.775   2.804   4.959
 8855SOL     OW27463   5.928   5.069   1.671
 8855SOL    HW127464   5.959   5.079   1.576
 8855SOL    HW227465   5.867   4.990   1.678
 8856SOL     OW27466   6.959   5.565   6.118
 8856SOL    HW127467   6.963   5.664   6.135
 8856SOL    HW227468   7.022   5.518   6.180
 8857SOL     OW27469   6.217   1.412   5.152
 8857SOL    HW127470   6.309   1.374   5.142
 8857SOL    HW227471   6.216   1.506   5.118
 8858SOL     OW27472   6.039   4.988   5.483
 8858SOL    HW127473   6.107   5.048   5.525
 8858SOL    HW227474   5.951   5.002   5.527
 8859SOL     OW27475   0.708   1.001   3.796
 8859SOL    HW127476   0.688   1.088   3.840
 8859SOL    HW227477   0.779   1.014   3.727
 8860SOL     OW27478   6.932   2.530   1.351
 8860SOL    HW127479   6.967   2.609   1.301
 8860SOL    HW227480   7.008   2.478   1.389
 8861SOL     OW27481   4.330   1.769   1.392
 8861SOL    HW127482   4.355   1.675   1.371
 8861SOL    HW227483   4.253   1.797   1.336
 8862SOL     OW27484   4.676   5.620   5.120
 8862SOL    HW127485   4.661   5.521   5.121
 8862SOL    HW227486   4.721   5.648   5.205
 8863SOL     OW27487   2.108   4.753   3.551
 8863SOL    HW127488   2.186   4.759   3.613
 8863SOL    HW227489   2.073   4.659   3.551
 8864SOL     OW27490   5.169   2.593   6.721
 8864SOL    HW127491   5.107   2.529   6.676
 8864SOL    HW227492   5.123   2.680   6.736
 8865SOL     OW27493   3.036   1.605   6.289
 8865SOL    HW127494   2.947   1.572   6.318
 8865SOL    HW227495   3.056   1.693   6.334
 8866SOL     OW27496   5.793   6.320   2.310
 8866SOL    HW127497   5.823   6.249   2.246
 8866SOL    HW227498   5.868   6.385   2.324
 8867SOL     OW27499   6.445   3.327   2.520
 8867SOL    HW127500   6.396   3.300   2.436
 8867SOL    HW227501   6.486   3.417   2.507
 8868SOL     OW27502   0.153   3.544   3.042
 8868SOL    HW127503   0.225   3.612   3.058
 8868SOL    HW227504   0.075   3.588   2.996
 8869SOL     OW27505   3.620   5.768   4.002
 8869SOL    HW127506   3.593   5.673   4.018
 8869SOL    HW227507   3.539   5.824   3.985
 8870SOL     OW27508   1.625   0.031   1.572
 8870SOL    HW127509   1.586   0.092   1.642
 8870SOL    HW227510   1.554   0.004   1.508
 8871SOL     OW27511   1.416   0.710   2.667
 8871SOL    HW127512   1.414   0.614   2.694
 8871SOL    HW227513   1.324   0.739   2.641
 8872SOL     OW27514   0.561   4.287   5.902
 8872SOL    HW127515   0.465   4.313   5.913
 8872SOL    HW227516   0.609   4.299   5.989
 8873SOL     OW27517   1.574   0.256   1.849
 8873SOL    HW127518   1.625   0.178   1.886
 8873SOL    HW227519   1.604   0.340   1.893
 8874SOL     OW27520   2.048   5.469   0.501
 8874SOL    HW127521   2.049   5.369   0.512
 8874SOL    HW227522   2.110   5.495   0.427
 8875SOL     OW27523   0.101   2.888   3.468
 8875SOL    HW127524   0.042   2.948   3.414
 8875SOL    HW227525   0.125   2.933   3.554
 8876SOL     OW27526   3.502   0.282   5.932
 8876SOL    HW127527   3.577   0.347   5.941
 8876SOL    HW227528   3.468   0.258   6.023
 8877SOL     OW27529   1.669   3.786   1.189
 8877SOL    HW127530   1.709   3.793   1.098
 8877SOL    HW227531   1.710   3.708   1.237
 8878SOL     OW27532   4.062   4.991   0.865
 8878SOL    HW127533   3.992   4.926   0.837
 8878SOL    HW227534   4.020   5.078   0.888
 8879SOL     OW27535   6.140   4.826   2.905
 8879SOL    HW127536   6.167   4.779   2.821
 8879SOL    HW227537   6.121   4.922   2.886
 8880SOL     OW27538   4.736   6.661   3.380
 8880SOL    HW127539   4.811   6.682   3.443
 8880SOL    HW227540   4.713   6.742   3.327
 8881SOL     OW27541   3.799   4.850   3.843
 8881SOL    HW127542   3.706   4.879   3.866
 8881SOL    HW227543   3.863   4.894   3.905
 8882SOL     OW27544   3.905   0.636   0.857
 8882SOL    HW127545   3.934   0.725   0.893
 8882SOL    HW227546   3.809   0.622   0.878
 8883SOL     OW27547   0.078   6.738   5.684
 8883SOL    HW127548   0.038   6.824   5.717
 8883SOL    HW227549   0.004   6.676   5.656
 8884SOL     OW27550   5.546   3.754   4.455
 8884SOL    HW127551   5.555   3.669   4.508
 8884SOL    HW227552   5.508   3.732   4.365
 8885SOL     OW27553   5.715   5.511   0.406
 8885SOL    HW127554   5.727   5.415   0.434
 8885SOL    HW227555   5.724   5.518   0.307
 8886SOL     OW27556   2.718   5.950   0.069
 8886SOL    HW127557   2.728   5.856   0.035
 8886SOL    HW227558   2.652   5.952   0.144
 8887SOL     OW27559   4.577   1.079   0.998
 8887SOL    HW127560   4.623   1.152   1.048
 8887SOL    HW227561   4.541   1.011   1.063
 8888SOL     OW27562   1.800   1.751   3.631
 8888SOL    HW127563   1.853   1.748   3.546
 8888SOL    HW227564   1.862   1.746   3.709
 8889SOL     OW27565   6.705   6.668   6.799
 8889SOL    HW127566   6.776   6.732   6.769
 8889SOL    HW227567   6.673   6.615   6.721
 8890SOL     OW27568   0.057   0.110   0.131
 8890SOL    HW127569   0.012   0.053   0.063
 8890SOL    HW227570   0.113   0.179   0.086
 8891SOL     OW27571   5.951   4.673   6.425
 8891SOL    HW127572   5.862   4.707   6.393
 8891SOL    HW227573   5.971   4.585   6.381
 8892SOL     OW27574   3.191   4.898   3.454
 8892SOL    HW127575   3.138   4.847   3.521
 8892SOL    HW227576   3.135   4.915   3.373
 8893SOL     OW27577   1.068   5.483   4.360
 8893SOL    HW127578   1.051   5.386   4.342
 8893SOL    HW227579   1.155   5.509   4.319
 8894SOL     OW27580   4.322   2.837   0.459
 8894SOL    HW127581   4.408   2.829   0.408
 8894SOL    HW227582   4.326   2.780   0.541
 8895SOL     OW27583   0.640   3.661   0.785
 8895SOL    HW127584   0.725   3.619   0.817
 8895SOL    HW227585   0.646   3.678   0.686
 8896SOL     OW27586   0.291   2.235   4.244
 8896SOL    HW127587   0.232   2.298   4.294
 8896SOL    HW227588   0.386   2.267   4.251
 8897SOL     OW27589   1.561   4.034   3.867
 8897SOL    HW127590   1.556   3.992   3.776
 8897SOL    HW227591   1.598   4.126   3.859
 8898SOL     OW27592   5.077   3.618   2.679
 8898SOL    HW127593   5.107   3.661   2.594
 8898SOL    HW227594   5.150   3.558   2.713
 8899SOL     OW27595   0.587   3.991   6.152
 8899SOL    HW127596   0.503   4.045   6.156
 8899SOL    HW227597   0.565   3.897   6.127
 8900SOL     OW27598   5.626   2.049   3.565
 8900SOL    HW127599   5.625   2.099   3.652
 8900SOL    HW227600   5.712   2.066   3.518
 8901SOL     OW27601   0.600   2.464   3.804
 8901SOL    HW127602   0.649   2.541   3.763
 8901SOL    HW227603   0.506   2.491   3.826
 8902SOL     OW27604   1.141   4.379   6.990
 8902SOL    HW127605   1.141   4.290   6.943
 8902SOL    HW227606   1.137   4.364   0.059
 8903SOL     OW27607   1.449   0.817   4.549
 8903SOL    HW127608   1.386   0.754   4.594
 8903SOL    HW227609   1.502   0.867   4.617
 8904SOL     OW27610   0.977   1.038   2.625
 8904SOL    HW127611   0.906   1.044   2.695
 8904SOL    HW227612   0.946   1.086   2.543
 8905SOL     OW27613   1.219   3.484   2.058
 8905SOL    HW127614   1.220   3.393   2.099
 8905SOL    HW227615   1.312   3.519   2.051
 8906SOL     OW27616   0.119   0.174   0.785
 8906SOL    HW127617   0.196   0.184   0.847
 8906SOL    HW227618   0.056   0.105   0.822
 8907SOL     OW27619   3.333   2.836   5.145
 8907SOL    HW127620   3.273   2.760   5.168
 8907SOL    HW227621   3.283   2.904   5.092
 8908SOL     OW27622   1.325   5.915   0.427
 8908SOL    HW127623   1.331   5.841   0.494
 8908SOL    HW227624   1.262   5.888   0.353
 8909SOL     OW27625   2.367   1.682   6.506
 8909SOL    HW127626   2.399   1.616   6.438
 8909SOL    HW227627   2.276   1.656   6.538
 8910SOL     OW27628   1.108   3.081   4.804
 8910SOL    HW127629   1.181   3.123   4.858
 8910SOL    HW227630   1.052   3.023   4.864
 8911SOL     OW27631   5.225   1.941   3.855
 8911SOL    HW127632   5.276   1.987   3.928
 8911SOL    HW227633   5.130   1.970   3.859
 8912SOL     OW27634   4.028   3.845   5.394
 8912SOL    HW127635   3.935   3.874   5.370
 8912SOL    HW227636   4.094   3.909   5.354
 8913SOL     OW27637   4.985   5.521   0.198
 8913SOL    HW127638   5.010   5.612   0.231
 8913SOL    HW227639   5.067   5.473   0.169
 8914SOL     OW27640   5.117   6.303   4.939
 8914SOL    HW127641   5.140   6.206   4.946
 8914SOL    HW227642   5.062   6.330   5.018
 8915SOL     OW27643   0.428   1.344   3.909
 8915SOL    HW127644   0.416   1.259   3.961
 8915SOL    HW227645   0.413   1.422   3.970
 8916SOL     OW27646   5.609   1.446   6.559
 8916SOL    HW127647   5.671   1.438   6.481
 8916SOL    HW227648   5.535   1.380   6.550
 8917SOL     OW27649   5.958   1.667   0.910
 8917SOL    HW127650   5.911   1.595   0.961
 8917SOL    HW227651   5.957   1.646   0.813
 8918SOL     OW27652   1.711   5.021   1.641
 8918SOL    HW127653   1.776   5.048   1.712
 8918SOL    HW227654   1.761   5.006   1.555
 8919SOL     OW27655   5.849   4.250   6.476
 8919SOL    HW127656   5.854   4.293   6.386
 8919SOL    HW227657   5.912   4.295   6.539
 8920SOL     OW27658   0.264   1.285   6.636
 8920SOL    HW127659   0.170   1.282   6.602
 8920SOL    HW227660   0.278   1.372   6.684
 8921SOL     OW27661   1.513   2.940   1.111
 8921SOL    HW127662   1.599   2.890   1.108
 8921SOL    HW227663   1.460   2.921   1.028
 8922SOL     OW27664   3.952   0.303   3.460
 8922SOL    HW127665   3.898   0.266   3.385
 8922SOL    HW227666   4.042   0.331   3.426
 8923SOL     OW27667   1.807   2.131   5.776
 8923SOL    HW127668   1.872   2.177   5.716
 8923SOL    HW227669   1.728   2.101   5.723
 8924SOL     OW27670   5.485   4.912   4.677
 8924SOL    HW127671   5.488   5.012   4.677
 8924SOL    HW227672   5.525   4.877   4.591
 8925SOL     OW27673   1.352   1.156   2.772
 8925SOL    HW127674   1.401   1.109   2.698
 8925SOL    HW227675   1.318   1.244   2.738
 8926SOL     OW27676   6.742   3.822   5.675
 8926SOL    HW127677   6.800   3.830   5.594
 8926SOL    HW227678   6.762   3.896   5.739
 8927SOL     OW27679   6.536   1.992   5.479
 8927SOL    HW127680   6.520   1.927   5.405
 8927SOL    HW227681   6.529   1.946   5.567
 8928SOL     OW27682   2.483   0.114   5.090
 8928SOL    HW127683   2.392   0.113   5.130
 8928SOL    HW227684   2.550   0.084   5.158
 8929SOL     OW27685   6.363   2.252   4.902
 8929SOL    HW127686   6.332   2.243   4.808
 8929SOL    HW227687   6.347   2.346   4.934
 8930SOL     OW27688   1.113   4.009   3.342
 8930SOL    HW127689   1.051   3.931   3.330
 8930SOL    HW227690   1.179   4.011   3.267
 8931SOL     OW27691   3.550   3.226   1.755
 8931SOL    HW127692   3.588   3.152   1.699
 8931SOL    HW227693   3.454   3.240   1.729
 8932SOL     OW27694   0.660   2.188   3.076
 8932SOL    HW127695   0.671   2.279   3.036
 8932SOL    HW227696   0.598   2.192   3.154
 8933SOL     OW27697   3.480   2.698   6.174
 8933SOL    HW127698   3.500   2.697   6.076
 8933SOL    HW227699   3.525   2.777   6.216
 8934SOL     OW27700   3.635   5.196   3.867
 8934SOL    HW127701   3.607   5.105   3.895
 8934SOL    HW227702   3.632   5.203   3.767
 8935SOL     OW27703   6.947   5.357   0.915
 8935SOL    HW127704   6.973   5.298   0.839
 8935SOL    HW227705   6.850   5.344   0.936
 8936SOL     OW27706   2.066   3.833   0.507
 8936SOL    HW127707   2.044   3.878   0.420
 8936SOL    HW227708   2.166   3.832   0.518
 8937SOL     OW27709   0.045   6.903   5.354
 8937SOL    HW127710   0.133   6.884   5.311
 8937SOL    HW227711   0.059   6.968   5.430
 8938SOL     OW27712   6.488   4.980   1.833
 8938SOL    HW127713   6.568   4.959   1.889
 8938SOL    HW227714   6.437   5.056   1.874
 8939SOL     OW27715   4.921   1.966   4.679
 8939SOL    HW127716   4.951   1.914   4.599
 8939SOL    HW227717   4.978   1.942   4.757
 8940SOL     OW27718   6.515   0.477   3.637
 8940SOL    HW127719   6.491   0.385   3.669
 8940SOL    HW227720   6.596   0.472   3.578
 8941SOL     OW27721   5.433   2.147   5.327
 8941SOL    HW127722   5.508   2.081   5.316
 8941SOL    HW227723   5.429   2.206   5.246
 8942SOL     OW27724   0.400   2.916   5.478
 8942SOL    HW127725   0.344   2.966   5.543
 8942SOL    HW227726   0.341   2.874   5.408
 8943SOL     OW27727   5.308   3.707   1.118
 8943SOL    HW127728   5.364   3.632   1.082
 8943SOL    HW227729   5.220   3.709   1.070
 8944SOL     OW27730   5.444   5.715   6.885
 8944SOL    HW127731   5.345   5.706   6.902
 8944SOL    HW227732   5.483   5.778   6.952
 8945SOL     OW27733   2.758   0.453   5.097
 8945SOL    HW127734   2.858   0.443   5.098
 8945SOL    HW227735   2.727   0.481   5.187
 8946SOL     OW27736   3.226   1.755   4.956
 8946SOL    HW127737   3.149   1.721   4.902
 8946SOL    HW227738   3.231   1.855   4.948
 8947SOL     OW27739   3.253   3.706   5.773
 8947SOL    HW127740   3.222   3.650   5.696
 8947SOL    HW227741   3.224   3.663   5.858
 8948SOL     OW27742   5.336   4.715   3.303
 8948SOL    HW127743   5.334   4.779   3.380
 8948SOL    HW227744   5.347   4.622   3.338
 8949SOL     OW27745   1.929   6.850   6.805
 8949SOL    HW127746   2.017   6.806   6.821
 8949SOL    HW227747   1.864   6.823   6.877
 8950SOL     OW27748   5.032   2.873   5.423
 8950SOL    HW127749   5.068   2.789   5.463
 8950SOL    HW227750   4.934   2.864   5.408
 8951SOL     OW27751   1.598   2.901   5.502
 8951SOL    HW127752   1.551   2.814   5.486
 8951SOL    HW227753   1.695   2.891   5.479
 8952SOL     OW27754   1.204   1.033   2.996
 8952SOL    HW127755   1.256   1.046   2.912
 8952SOL    HW227756   1.263   0.992   3.066
 8953SOL     OW27757   1.833   3.445   6.991
 8953SOL    HW127758   1.831   3.527   6.934
 8953SOL    HW227759   1.867   3.469   0.053
 8954SOL     OW27760   0.490   6.164   6.402
 8954SOL    HW127761   0.433   6.247   6.402
 8954SOL    HW227762   0.456   6.100   6.333
 8955SOL     OW27763   0.256   4.126   3.515
 8955SOL    HW127764   0.275   4.158   3.422
 8955SOL    HW227765   0.297   4.189   3.581
 8956SOL     OW27766   0.580   1.011   6.165
 8956SOL    HW127767   0.576   1.080   6.093
 8956SOL    HW227768   0.572   0.920   6.125
 8957SOL     OW27769   2.712   4.793   1.817
 8957SOL    HW127770   2.744   4.717   1.874
 8957SOL    HW227771   2.772   4.872   1.830
 8958SOL     OW27772   0.784   6.989   4.308
 8958SOL    HW127773   0.851   0.001   4.369
 8958SOL    HW227774   0.822   6.905   4.270
 8959SOL     OW27775   0.954   5.039   0.922
 8959SOL    HW127776   0.927   5.093   1.002
 8959SOL    HW227777   0.873   4.999   0.879
 8960SOL     OW27778   4.570   5.711   2.464
 8960SOL    HW127779   4.533   5.791   2.512
 8960SOL    HW227780   4.644   5.672   2.519
 8961SOL     OW27781   1.452   1.341   4.602
 8961SOL    HW127782   1.382   1.280   4.639
 8961SOL    HW227783   1.439   1.434   4.638
 8962SOL     OW27784   5.658   6.934   2.648
 8962SOL    HW127785   5.624   6.991   2.723
 8962SOL    HW227786   5.756   6.952   2.633
 8963SOL     OW27787   5.311   6.999   4.492
 8963SOL    HW127788   5.283   6.920   4.546
 8963SOL    HW227789   5.237   7.025   4.430
 8964SOL     OW27790   5.178   5.421   2.268
 8964SOL    HW127791   5.255   5.478   2.296
 8964SOL    HW227792   5.212   5.336   2.227
 8965SOL     OW27793   1.354   5.584   0.885
 8965SOL    HW127794   1.423   5.578   0.956
 8965SOL    HW227795   1.347   5.497   0.836
 8966SOL     OW27796   1.437   2.656   6.167
 8966SOL    HW127797   1.525   2.659   6.214
 8966SOL    HW227798   1.409   2.749   6.142
 8967SOL     OW27799   3.807   6.662   1.838
 8967SOL    HW127800   3.744   6.739   1.824
 8967SOL    HW227801   3.757   6.576   1.826
 8968SOL     OW27802   5.431   5.719   1.749
 8968SOL    HW127803   5.483   5.772   1.682
 8968SOL    HW227804   5.487   5.644   1.783
 8969SOL     OW27805   6.059   0.895   3.097
 8969SOL    HW127806   6.009   0.965   3.147
 8969SOL    HW227807   5.995   0.826   3.064
 8970SOL     OW27808   3.009   2.358   1.259
 8970SOL    HW127809   3.013   2.458   1.259
 8970SOL    HW227810   3.102   2.322   1.255
 8971SOL     OW27811   3.666   6.303   2.423
 8971SOL    HW127812   3.724   6.323   2.502
 8971SOL    HW227813   3.621   6.214   2.437
 8972SOL     OW27814   4.963   6.287   6.703
 8972SOL    HW127815   5.010   6.203   6.675
 8972SOL    HW227816   4.990   6.362   6.642
 8973SOL     OW27817   1.258   4.604   1.435
 8973SOL    HW127818   1.200   4.567   1.363
 8973SOL    HW227819   1.207   4.673   1.488
 8974SOL     OW27820   1.208   4.299   6.420
 8974SOL    HW127821   1.299   4.334   6.444
 8974SOL    HW227822   1.201   4.288   6.321
 8975SOL     OW27823   2.764   0.153   0.260
 8975SOL    HW127824   2.718   0.168   0.173
 8975SOL    HW227825   2.701   0.176   0.335
 8976SOL     OW27826   1.421   5.449   4.604
 8976SOL    HW127827   1.410   5.387   4.526
 8976SOL    HW227828   1.516   5.446   4.635
 8977SOL     OW27829   6.078   1.202   6.135
 8977SOL    HW127830   6.063   1.248   6.223
 8977SOL    HW227831   6.167   1.229   6.099
 8978SOL     OW27832   6.090   6.112   0.188
 8978SOL    HW127833   6.148   6.048   0.239
 8978SOL    HW227834   6.132   6.202   0.188
 8979SOL     OW27835   1.900   3.855   4.922
 8979SOL    HW127836   1.812   3.809   4.922
 8979SOL    HW227837   1.933   3.865   5.016
 8980SOL     OW27838   2.980   3.782   5.504
 8980SOL    HW127839   2.980   3.863   5.563
 8980SOL    HW227840   3.071   3.769   5.465
 8981SOL     OW27841   3.664   1.659   5.416
 8981SOL    HW127842   3.747   1.707   5.444
 8981SOL    HW227843   3.682   1.605   5.334
 8982SOL     OW27844   2.035   3.552   0.134
 8982SOL    HW127845   2.119   3.521   0.089
 8982SOL    HW227846   2.043   3.539   0.233
 8983SOL     OW27847   3.567   6.173   6.976
 8983SOL    HW127848   3.486   6.186   6.919
 8983SOL    HW227849   3.583   6.076   6.990
 8984SOL     OW27850   2.087   6.326   3.016
 8984SOL    HW127851   2.095   6.391   2.940
 8984SOL    HW227852   2.050   6.240   2.982
 8985SOL     OW27853   3.146   2.444   0.644
 8985SOL    HW127854   3.148   2.474   0.739
 8985SOL    HW227855   3.142   2.524   0.584
 8986SOL     OW27856   3.253   5.038   2.755
 8986SOL    HW127857   3.161   5.016   2.787
 8986SOL    HW227858   3.313   5.053   2.834
 8987SOL     OW27859   4.794   6.298   3.088
 8987SOL    HW127860   4.825   6.223   3.029
 8987SOL    HW227861   4.872   6.336   3.137
 8988SOL     OW27862   0.803   5.953   3.471
 8988SOL    HW127863   0.840   5.971   3.562
 8988SOL    HW227864   0.758   5.864   3.471
 8989SOL     OW27865   4.625   3.157   6.206
 8989SOL    HW127866   4.668   3.108   6.282
 8989SOL    HW227867   4.697   3.196   6.148
 8990SOL     OW27868   0.578   5.125   3.598
 8990SOL    HW127869   0.545   5.134   3.692
 8990SOL    HW227870   0.588   5.029   3.575
 8991SOL     OW27871   1.464   3.166   4.611
 8991SOL    HW127872   1.535   3.214   4.559
 8991SOL    HW227873   1.405   3.233   4.656
 8992SOL     OW27874   4.932   1.288   0.800
 8992SOL    HW127875   4.916   1.190   0.812
 8992SOL    HW227876   4.938   1.309   0.703
 8993SOL     OW27877   4.141   3.108   6.515
 8993SOL    HW127878   4.042   3.106   6.502
 8993SOL    HW227879   4.182   3.169   6.448
 8994SOL     OW27880   1.711   4.511   4.671
 8994SOL    HW127881   1.756   4.466   4.594
 8994SOL    HW227882   1.643   4.449   4.711
 8995SOL     OW27883   6.147   1.611   1.371
 8995SOL    HW127884   6.199   1.546   1.428
 8995SOL    HW227885   6.161   1.588   1.275
 8996SOL     OW27886   5.262   4.001   5.921
 8996SOL    HW127887   5.322   4.055   5.980
 8996SOL    HW227888   5.317   3.944   5.861
 8997SOL     OW27889   4.631   0.783   6.030
 8997SOL    HW127890   4.608   0.855   6.095
 8997SOL    HW227891   4.554   0.719   6.023
 8998SOL     OW27892   6.119   3.636   3.666
 8998SOL    HW127893   6.128   3.730   3.700
 8998SOL    HW227894   6.077   3.579   3.736
 8999SOL     OW27895   4.960   6.987   6.415
 8999SOL    HW127896   5.033   6.918   6.415
 8999SOL    HW227897   4.878   6.949   6.371
 9000SOL     OW27898   1.462   3.357   1.860
 9000SOL    HW127899   1.445   3.266   1.898
 9000SOL    HW227900   1.387   3.383   1.800
 9001SOL     OW27901   0.002   5.154   1.879
 9001SOL    HW127902   0.086   5.107   1.853
 9001SOL    HW227903   0.010   5.186   1.974
 9002SOL     OW27904   1.464   5.002   5.396
 9002SOL    HW127905   1.445   5.099   5.379
 9002SOL    HW227906   1.384   4.948   5.372
 9003SOL     OW27907   4.942   3.187   1.205
 9003SOL    HW127908   4.939   3.217   1.301
 9003SOL    HW227909   4.987   3.257   1.150
 9004SOL     OW27910   4.506   4.743   0.929
 9004SOL    HW127911   4.421   4.790   0.906
 9004SOL    HW227912   4.575   4.810   0.955
 9005SOL     OW27913   5.766   1.531   5.759
 9005SOL    HW127914   5.828   1.475   5.815
 9005SOL    HW227915   5.729   1.606   5.814
 9006SOL     OW27916   2.579   6.392   1.208
 9006SOL    HW127917   2.538   6.450   1.278
 9006SOL    HW227918   2.513   6.376   1.135
 9007SOL     OW27919   2.762   1.161   1.869
 9007SOL    HW127920   2.721   1.200   1.952
 9007SOL    HW227921   2.790   1.235   1.808
 9008SOL     OW27922   0.481   4.794   2.909
 9008SOL    HW127923   0.460   4.868   2.973
 9008SOL    HW227924   0.580   4.789   2.895
 9009SOL     OW27925   3.677   5.489   1.189
 9009SOL    HW127926   3.755   5.494   1.126
 9009SOL    HW227927   3.688   5.556   1.262
 9010SOL     OW27928   2.476   6.359   4.278
 9010SOL    HW127929   2.546   6.420   4.242
 9010SOL    HW227930   2.444   6.393   4.366
 9011SOL     OW27931   3.759   1.253   1.669
 9011SOL    HW127932   3.719   1.162   1.671
 9011SOL    HW227933   3.687   1.321   1.682
 9012SOL     OW27934   2.283   5.844   0.348
 9012SOL    HW127935   2.189   5.824   0.377
 9012SOL    HW227936   2.334   5.883   0.425
 9013SOL     OW27937   0.748   0.397   4.865
 9013SOL    HW127938   0.762   0.480   4.920
 9013SOL    HW227939   0.766   0.316   4.921
 9014SOL     OW27940   6.210   2.878   1.200
 9014SOL    HW127941   6.228   2.964   1.152
 9014SOL    HW227942   6.113   2.870   1.220
 9015SOL     OW27943   4.715   2.664   1.530
 9015SOL    HW127944   4.684   2.690   1.622
 9015SOL    HW227945   4.638   2.628   1.478
 9016SOL     OW27946   5.813   4.959   6.756
 9016SOL    HW127947   5.715   4.967   6.736
 9016SOL    HW227948   5.844   5.038   6.808
 9017SOL     OW27949   3.994   0.858   4.222
 9017SOL    HW127950   3.939   0.775   4.218
 9017SOL    HW227951   4.072   0.850   4.159
 9018SOL     OW27952   3.733   3.760   6.486
 9018SOL    HW127953   3.790   3.830   6.530
 9018SOL    HW227954   3.648   3.750   6.538
 9019SOL     OW27955   1.072   4.012   2.632
 9019SOL    HW127956   0.986   3.977   2.670
 9019SOL    HW227957   1.139   4.020   2.706
 9020SOL     OW27958   6.934   4.311   0.837
 9020SOL    HW127959   6.870   4.358   0.898
 9020SOL    HW227960   6.901   4.218   0.818
 9021SOL     OW27961   6.669   0.988   3.549
 9021SOL    HW127962   6.719   1.064   3.509
 9021SOL    HW227963   6.671   0.995   3.649
 9022SOL     OW27964   3.730   1.561   0.122
 9022SOL    HW127965   3.666   1.504   0.071
 9022SOL    HW227966   3.779   1.621   0.059
 9023SOL     OW27967   4.282   3.569   1.584
 9023SOL    HW127968   4.267   3.509   1.662
 9023SOL    HW227969   4.311   3.659   1.617
 9024SOL     OW27970   1.297   4.592   5.207
 9024SOL    HW127971   1.314   4.494   5.196
 9024SOL    HW227972   1.221   4.619   5.148
 9025SOL     OW27973   6.504   5.989   0.742
 9025SOL    HW127974   6.519   5.890   0.742
 9025SOL    HW227975   6.536   6.028   0.828
 9026SOL     OW27976   3.122   2.205   0.518
 9026SOL    HW127977   3.028   2.170   0.523
 9026SOL    HW227978   3.127   2.296   0.558
 9027SOL     OW27979   0.868   3.627   3.539
 9027SOL    HW127980   0.802   3.568   3.585
 9027SOL    HW227981   0.952   3.576   3.522
 9028SOL     OW27982   4.084   2.742   5.403
 9028SOL    HW127983   4.088   2.667   5.338
 9028SOL    HW227984   3.991   2.778   5.407
 9029SOL     OW27985   4.207   0.466   4.885
 9029SOL    HW127986   4.139   0.530   4.922
 9029SOL    HW227987   4.196   0.377   4.929
 9030SOL     OW27988   1.870   2.597   4.265
 9030SOL    HW127989   1.849   2.534   4.190
 9030SOL    HW227990   1.910   2.681   4.228
 9031SOL     OW27991   4.062   6.889   4.664
 9031SOL    HW127992   4.107   6.960   4.718
 9031SOL    HW227993   4.095   6.894   4.569
 9032SOL     OW27994   4.654   3.918   0.940
 9032SOL    HW127995   4.716   3.839   0.935
 9032SOL    HW227996   4.668   3.965   1.027
 9033SOL     OW27997   0.696   4.509   2.569
 9033SOL    HW127998   0.699   4.526   2.668
 9033SOL    HW227999   0.603   4.526   2.536
 9034SOL     OW28000   3.355   6.243   4.339
 9034SOL    HW128001   3.261   6.211   4.343
 9034SOL    HW228002   3.371   6.288   4.251
 9035SOL     OW28003   1.610   5.822   6.844
 9035SOL    HW128004   1.671   5.898   6.863
 9035SOL    HW228005   1.599   5.767   6.927
 9036SOL     OW28006   1.512   3.985   5.736
 9036SOL    HW128007   1.492   3.888   5.732
 9036SOL    HW228008   1.562   4.005   5.820
 9037SOL     OW28009   1.070   2.996   4.395
 9037SOL    HW128010   1.009   3.024   4.469
 9037SOL    HW228011   1.157   3.045   4.403
 9038SOL     OW28012   4.349   3.439   0.128
 9038SOL    HW128013   4.276   3.477   0.072
 9038SOL    HW228014   4.361   3.495   0.210
 9039SOL     OW28015   2.965   4.647   0.131
 9039SOL    HW128016   3.014   4.594   0.061
 9039SOL    HW228017   2.878   4.679   0.094
 9040SOL     OW28018   3.055   2.139   2.221
 9040SOL    HW128019   3.017   2.203   2.155
 9040SOL    HW228020   3.034   2.045   2.193
 9041SOL     OW28021   1.086   2.531   1.104
 9041SOL    HW128022   1.012   2.495   1.047
 9041SOL    HW228023   1.050   2.558   1.193
 9042SOL     OW28024   3.830   6.461   4.902
 9042SOL    HW128025   3.794   6.387   4.958
 9042SOL    HW228026   3.775   6.470   4.819
 9043SOL     OW28027   2.118   1.216   6.322
 9043SOL    HW128028   2.179   1.228   6.244
 9043SOL    HW228029   2.145   1.278   6.396
 9044SOL     OW28030   0.543   1.038   6.650
 9044SOL    HW128031   0.600   1.078   6.722
 9044SOL    HW228032   0.469   1.102   6.627
 9045SOL     OW28033   4.160   0.532   3.038
 9045SOL    HW128034   4.126   0.438   3.034
 9045SOL    HW228035   4.085   0.596   3.028
 9046SOL     OW28036   3.977   3.837   2.611
 9046SOL    HW128037   3.934   3.900   2.676
 9046SOL    HW228038   4.026   3.766   2.662
 9047SOL     OW28039   1.432   4.099   4.966
 9047SOL    HW128040   1.529   4.124   4.976
 9047SOL    HW228041   1.411   4.023   5.028
 9048SOL     OW28042   5.990   2.914   6.447
 9048SOL    HW128043   5.988   2.901   6.546
 9048SOL    HW228044   6.037   3.000   6.426
 9049SOL     OW28045   3.571   6.400   5.338
 9049SOL    HW128046   3.486   6.348   5.326
 9049SOL    HW228047   3.551   6.484   5.388
 9050SOL     OW28048   0.612   3.846   1.181
 9050SOL    HW128049   0.529   3.883   1.222
 9050SOL    HW228050   0.609   3.746   1.183
 9051SOL     OW28051   2.407   0.251   1.609
 9051SOL    HW128052   2.366   0.226   1.697
 9051SOL    HW228053   2.336   0.250   1.538
 9052SOL     OW28054   2.169   3.327   4.129
 9052SOL    HW128055   2.164   3.255   4.198
 9052SOL    HW228056   2.176   3.285   4.038
 9053SOL     OW28057   2.312   1.146   0.762
 9053SOL    HW128058   2.274   1.195   0.841
 9053SOL    HW228059   2.287   1.195   0.679
 9054SOL     OW28060   2.399   5.781   4.282
 9054SOL    HW128061   2.344   5.787   4.365
 9054SOL    HW228062   2.494   5.802   4.303
 9055SOL     OW28063   6.356   4.306   4.873
 9055SOL    HW128064   6.404   4.238   4.819
 9055SOL    HW228065   6.412   4.389   4.881
 9056SOL     OW28066   6.890   1.869   2.388
 9056SOL    HW128067   6.978   1.839   2.424
 9056SOL    HW228068   6.816   1.828   2.443
 9057SOL     OW28069   4.407   1.958   4.436
 9057SOL    HW128070   4.373   2.032   4.494
 9057SOL    HW228071   4.373   1.870   4.470
 9058SOL     OW28072   1.400   0.735   6.952
 9058SOL    HW128073   1.325   0.730   6.887
 9058SOL    HW228074   1.364   0.759   0.013
 9059SOL     OW28075   1.149   2.599   2.799
 9059SOL    HW128076   1.119   2.508   2.771
 9059SOL    HW228077   1.076   2.665   2.781
 9060SOL     OW28078   5.710   3.090   4.889
 9060SOL    HW128079   5.774   3.141   4.831
 9060SOL    HW228080   5.761   3.027   4.946
 9061SOL     OW28081   4.002   5.346   2.483
 9061SOL    HW128082   4.045   5.437   2.484
 9061SOL    HW228083   3.911   5.353   2.442
 9062SOL     OW28084   1.254   5.258   1.574
 9062SOL    HW128085   1.264   5.164   1.608
 9062SOL    HW228086   1.243   5.320   1.652
 9063SOL     OW28087   2.825   1.310   3.751
 9063SOL    HW128088   2.923   1.309   3.730
 9063SOL    HW228089   2.812   1.340   3.845
 9064SOL     OW28090   6.428   3.471   6.687
 9064SOL    HW128091   6.382   3.560   6.696
 9064SOL    HW228092   6.496   3.476   6.613
 9065SOL     OW28093   3.669   0.274   0.424
 9065SOL    HW128094   3.708   0.183   0.409
 9065SOL    HW228095   3.631   0.309   0.339
 9066SOL     OW28096   5.816   0.341   0.520
 9066SOL    HW128097   5.789   0.364   0.427
 9066SOL    HW228098   5.878   0.263   0.520
 9067SOL     OW28099   1.983   0.351   3.132
 9067SOL    HW128100   2.068   0.397   3.106
 9067SOL    HW228101   1.957   0.377   3.225
 9068SOL     OW28102   0.961   6.167   4.923
 9068SOL    HW128103   1.013   6.179   5.008
 9068SOL    HW228104   0.869   6.205   4.936
 9069SOL     OW28105   1.422   2.917   6.509
 9069SOL    HW128106   1.516   2.949   6.493
 9069SOL    HW228107   1.358   2.974   6.458
 9070SOL     OW28108   1.897   3.811   4.494
 9070SOL    HW128109   1.981   3.866   4.496
 9070SOL    HW228110   1.868   3.791   4.587
 9071SOL     OW28111   6.480   6.560   0.555
 9071SOL    HW128112   6.507   6.467   0.583
 9071SOL    HW228113   6.529   6.627   0.611
 9072SOL     OW28114   6.998   3.403   0.664
 9072SOL    HW128115   0.016   3.340   0.603
 9072SOL    HW228116   6.966   3.482   0.611
 9073SOL     OW28117   2.299   0.635   1.622
 9073SOL    HW128118   2.398   0.632   1.622
 9073SOL    HW228119   2.262   0.542   1.631
 9074SOL     OW28120   1.508   0.015   2.635
 9074SOL    HW128121   1.580   0.050   2.695
 9074SOL    HW228122   1.421   0.056   2.659
 9075SOL     OW28123   6.792   0.599   2.284
 9075SOL    HW128124   6.753   0.629   2.371
 9075SOL    HW228125   6.796   0.676   2.221
 9076SOL     OW28126   6.975   1.331   6.073
 9076SOL    HW128127   7.012   1.386   6.148
 9076SOL    HW228128   6.986   1.234   6.095
 9077SOL     OW28129   4.281   6.762   2.637
 9077SOL    HW128130   4.279   6.687   2.703
 9077SOL    HW228131   4.374   6.773   2.602
 9078SOL     OW28132   3.801   3.382   4.928
 9078SOL    HW128133   3.824   3.329   4.846
 9078SOL    HW228134   3.779   3.476   4.901
 9079SOL     OW28135   3.230   6.941   4.175
 9079SOL    HW128136   3.263   7.021   4.224
 9079SOL    HW228137   3.132   6.931   4.189
 9080SOL     OW28138   5.367   2.790   6.904
 9080SOL    HW128139   5.292   2.845   6.867
 9080SOL    HW228140   5.410   2.839   6.980
 9081SOL     OW28141   5.310   6.248   2.883
 9081SOL    HW128142   5.297   6.229   2.785
 9081SOL    HW228143   5.407   6.248   2.905
 9082SOL     OW28144   2.635   0.494   3.524
 9082SOL    HW128145   2.538   0.483   3.503
 9082SOL    HW228146   2.646   0.555   3.602
 9083SOL     OW28147   4.915   4.603   5.349
 9083SOL    HW128148   4.929   4.698   5.377
 9083SOL    HW228149   4.957   4.542   5.416
 9084SOL     OW28150   3.229   3.761   3.114
 9084SOL    HW128151   3.201   3.718   3.029
 9084SOL    HW228152   3.307   3.712   3.152
 9085SOL     OW28153   2.462   1.358   0.988
 9085SOL    HW128154   2.551   1.394   1.015
 9085SOL    HW228155   2.459   1.259   1.005
 9086SOL     OW28156   0.545   3.920   0.882
 9086SOL    HW128157   0.609   3.852   0.848
 9086SOL    HW228158   0.562   3.935   0.980
 9087SOL     OW28159   5.010   3.415   2.371
 9087SOL    HW128160   4.985   3.375   2.283
 9087SOL    HW228161   4.972   3.360   2.445
 9088SOL     OW28162   6.864   0.572   6.722
 9088SOL    HW128163   6.929   0.513   6.770
 9088SOL    HW228164   6.912   0.651   6.683
 9089SOL     OW28165   4.814   0.002   5.767
 9089SOL    HW128166   4.904   0.045   5.769
 9089SOL    HW228167   4.800   6.980   5.852
 9090SOL     OW28168   5.491   0.138   5.034
 9090SOL    HW128169   5.560   0.208   5.053
 9090SOL    HW228170   5.401   0.181   5.025
 9091SOL     OW28171   3.541   4.390   0.141
 9091SOL    HW128172   3.609   4.372   0.212
 9091SOL    HW228173   3.528   4.307   0.087
 9092SOL     OW28174   0.189   1.849   6.940
 9092SOL    HW128175   0.161   1.842   6.844
 9092SOL    HW228176   0.192   1.945   6.966
 9093SOL     OW28177   1.510   6.948   5.363
 9093SOL    HW128178   1.509   7.016   5.289
 9093SOL    HW228179   1.467   6.987   5.444
 9094SOL     OW28180   0.423   2.976   1.778
 9094SOL    HW128181   0.452   3.057   1.727
 9094SOL    HW228182   0.363   3.004   1.853
 9095SOL     OW28183   5.483   5.720   5.530
 9095SOL    HW128184   5.533   5.686   5.450
 9095SOL    HW228185   5.415   5.787   5.500
 9096SOL     OW28186   6.547   5.098   3.015
 9096SOL    HW128187   6.550   5.053   2.925
 9096SOL    HW228188   6.637   5.089   3.058
 9097SOL     OW28189   0.597   2.789   5.718
 9097SOL    HW128190   0.654   2.752   5.644
 9097SOL    HW228191   0.627   2.882   5.739
 9098SOL     OW28192   1.592   2.598   4.324
 9098SOL    HW128193   1.685   2.577   4.295
 9098SOL    HW228194   1.559   2.526   4.385
 9099SOL     OW28195   2.186   3.379   6.086
 9099SOL    HW128196   2.246   3.346   6.013
 9099SOL    HW228197   2.242   3.405   6.165
 9100SOL     OW28198   1.403   4.339   2.241
 9100SOL    HW128199   1.321   4.285   2.221
 9100SOL    HW228200   1.412   4.412   2.173
 9101SOL     OW28201   2.534   1.341   2.018
 9101SOL    HW128202   2.489   1.255   1.996
 9101SOL    HW228203   2.505   1.412   1.954
 9102SOL     OW28204   4.488   6.227   2.852
 9102SOL    HW128205   4.467   6.282   2.771
 9102SOL    HW228206   4.403   6.186   2.886
 9103SOL     OW28207   6.690   1.544   6.942
 9103SOL    HW128208   6.595   1.536   6.974
 9103SOL    HW228209   6.738   1.458   6.961
 9104SOL     OW28210   6.910   0.887   0.053
 9104SOL    HW128211   6.973   0.829   0.106
 9104SOL    HW228212   6.825   0.899   0.105
 9105SOL     OW28213   1.859   0.137   6.175
 9105SOL    HW128214   1.931   0.205   6.187
 9105SOL    HW228215   1.784   0.155   6.239
 9106SOL     OW28216   0.551   4.824   6.643
 9106SOL    HW128217   0.471   4.776   6.607
 9106SOL    HW228218   0.617   4.839   6.569
 9107SOL     OW28219   2.490   0.933   6.640
 9107SOL    HW128220   2.424   0.968   6.706
 9107SOL    HW228221   2.463   0.842   6.610
 9108SOL     OW28222   5.492   5.346   5.596
 9108SOL    HW128223   5.443   5.405   5.659
 9108SOL    HW228224   5.445   5.344   5.508
 9109SOL     OW28225   5.403   2.439   2.291
 9109SOL    HW128226   5.429   2.373   2.361
 9109SOL    HW228227   5.467   2.517   2.293
 9110SOL     OW28228   1.895   5.676   4.991
 9110SOL    HW128229   1.825   5.611   4.959
 9110SOL    HW228230   1.976   5.626   5.022
 9111SOL     OW28231   4.692   2.602   5.268
 9111SOL    HW128232   4.597   2.571   5.268
 9111SOL    HW228233   4.713   2.647   5.182
 9112SOL     OW28234   2.088   5.221   2.233
 9112SOL    HW128235   2.043   5.274   2.161
 9112SOL    HW228236   2.094   5.276   2.316
 9113SOL     OW28237   4.752   2.118   3.620
 9113SOL    HW128238   4.733   2.119   3.718
 9113SOL    HW228239   4.800   2.033   3.597
 9114SOL     OW28240   1.061   6.348   4.734
 9114SOL    HW128241   1.039   6.257   4.769
 9114SOL    HW228242   1.156   6.370   4.758
 9115SOL     OW28243   5.554   4.857   3.817
 9115SOL    HW128244   5.480   4.913   3.778
 9115SOL    HW228245   5.638   4.874   3.767
 9116SOL     OW28246   0.735   6.942   3.562
 9116SOL    HW128247   0.792   6.891   3.497
 9116SOL    HW228248   0.775   6.937   3.653
 9117SOL     OW28249   4.038   1.192   6.986
 9117SOL    HW128250   4.025   1.167   0.052
 9117SOL    HW228251   4.045   1.292   6.978
 9118SOL     OW28252   5.770   4.530   0.305
 9118SOL    HW128253   5.806   4.480   0.226
 9118SOL    HW228254   5.843   4.583   0.347
 9119SOL     OW28255   3.467   6.684   1.002
 9119SOL    HW128256   3.559   6.647   1.019
 9119SOL    HW228257   3.437   6.657   0.910
 9120SOL     OW28258   5.676   2.656   5.815
 9120SOL    HW128259   5.659   2.561   5.839
 9120SOL    HW228260   5.663   2.668   5.716
 9121SOL     OW28261   3.192   0.396   5.569
 9121SOL    HW128262   3.145   0.331   5.510
 9121SOL    HW228263   3.273   0.353   5.609
 9122SOL     OW28264   2.279   4.725   2.120
 9122SOL    HW128265   2.320   4.656   2.180
 9122SOL    HW228266   2.299   4.817   2.156
 9123SOL     OW28267   0.906   0.952   3.580
 9123SOL    HW128268   0.926   0.855   3.567
 9123SOL    HW228269   0.990   1.003   3.596
 9124SOL     OW28270   3.220   5.307   1.563
 9124SOL    HW128271   3.305   5.285   1.611
 9124SOL    HW228272   3.217   5.257   1.477
 9125SOL     OW28273   4.023   6.455   0.297
 9125SOL    HW128274   4.011   6.407   0.210
 9125SOL    HW228275   4.065   6.393   0.363
 9126SOL     OW28276   3.982   5.136   0.333
 9126SOL    HW128277   3.910   5.072   0.308
 9126SOL    HW228278   3.980   5.151   0.432
 9127SOL     OW28279   0.236   3.875   5.247
 9127SOL    HW128280   0.282   3.897   5.334
 9127SOL    HW228281   0.259   3.945   5.179
 9128SOL     OW28282   5.726   3.513   4.864
 9128SOL    HW128283   5.628   3.524   4.880
 9128SOL    HW228284   5.774   3.598   4.885
 9129SOL     OW28285   1.472   1.563   0.666
 9129SOL    HW128286   1.492   1.607   0.754
 9129SOL    HW228287   1.475   1.464   0.677
 9130SOL     OW28288   2.687   4.134   5.321
 9130SOL    HW128289   2.600   4.122   5.272
 9130SOL    HW228290   2.727   4.044   5.340
 9131SOL     OW28291   5.891   2.462   0.992
 9131SOL    HW128292   5.813   2.459   1.055
 9131SOL    HW228293   5.869   2.411   0.909
 9132SOL     OW28294   0.711   3.852   3.725
 9132SOL    HW128295   0.667   3.938   3.699
 9132SOL    HW228296   0.758   3.814   3.645
 9133SOL     OW28297   4.684   0.406   0.952
 9133SOL    HW128298   4.590   0.374   0.963
 9133SOL    HW228299   4.684   0.506   0.949
 9134SOL     OW28300   4.631   5.305   0.654
 9134SOL    HW128301   4.583   5.383   0.695
 9134SOL    HW228302   4.689   5.262   0.723
 9135SOL     OW28303   0.587   6.082   2.489
 9135SOL    HW128304   0.607   6.150   2.419
 9135SOL    HW228305   0.495   6.096   2.524
 9136SOL     OW28306   6.665   4.785   6.337
 9136SOL    HW128307   6.652   4.712   6.270
 9136SOL    HW228308   6.727   4.854   6.299
 9137SOL     OW28309   4.712   6.334   6.812
 9137SOL    HW128310   4.808   6.315   6.788
 9137SOL    HW228311   4.693   6.294   6.902
 9138SOL     OW28312   2.881   3.490   1.075
 9138SOL    HW128313   2.903   3.586   1.095
 9138SOL    HW228314   2.965   3.435   1.082
 9139SOL     OW28315   0.051   0.469   1.468
 9139SOL    HW128316   0.033   0.439   1.562
 9139SOL    HW228317   6.995   0.473   1.417
 9140SOL     OW28318   0.670   4.086   2.538
 9140SOL    HW128319   0.617   4.011   2.576
 9140SOL    HW228320   0.744   4.111   2.601
 9141SOL     OW28321   6.746   5.767   5.929
 9141SOL    HW128322   6.709   5.746   6.020
 9141SOL    HW228323   6.767   5.682   5.881
 9142SOL     OW28324   0.931   3.800   3.304
 9142SOL    HW128325   0.935   3.755   3.393
 9142SOL    HW228326   0.837   3.831   3.286
 9143SOL     OW28327   6.737   3.297   2.296
 9143SOL    HW128328   6.723   3.396   2.303
 9143SOL    HW228329   6.656   3.254   2.257
 9144SOL     OW28330   2.592   4.399   5.349
 9144SOL    HW128331   2.599   4.444   5.260
 9144SOL    HW228332   2.638   4.310   5.345
 9145SOL     OW28333   1.061   6.454   5.925
 9145SOL    HW128334   1.110   6.515   5.863
 9145SOL    HW228335   1.054   6.363   5.884
 9146SOL     OW28336   6.081   3.025   2.857
 9146SOL    HW128337   6.172   3.024   2.899
 9146SOL    HW228338   6.089   3.003   2.760
 9147SOL     OW28339   4.781   0.185   4.446
 9147SOL    HW128340   4.736   0.120   4.507
 9147SOL    HW228341   4.842   0.136   4.384
 9148SOL     OW28342   6.498   6.774   1.839
 9148SOL    HW128343   6.519   6.706   1.769
 9148SOL    HW228344   6.581   6.796   1.890
 9149SOL     OW28345   6.980   3.292   1.143
 9149SOL    HW128346   0.001   3.313   1.060
 9149SOL    HW228347   6.995   3.365   1.210
 9150SOL     OW28348   2.894   2.873   0.793
 9150SOL    HW128349   2.899   2.965   0.830
 9150SOL    HW228350   2.877   2.878   0.694
 9151SOL     OW28351   1.895   3.145   3.576
 9151SOL    HW128352   1.836   3.226   3.577
 9151SOL    HW228353   1.991   3.174   3.581
 9152SOL     OW28354   2.280   4.271   3.461
 9152SOL    HW128355   2.192   4.226   3.445
 9152SOL    HW228356   2.280   4.360   3.416
 9153SOL     OW28357   6.877   3.306   6.868
 9153SOL    HW128358   6.926   3.393   6.872
 9153SOL    HW228359   6.782   3.322   6.839
 9154SOL     OW28360   5.860   4.549   3.200
 9154SOL    HW128361   5.804   4.628   3.222
 9154SOL    HW228362   5.884   4.550   3.103
 9155SOL     OW28363   0.670   6.286   3.054
 9155SOL    HW128364   0.672   6.240   3.143
 9155SOL    HW228365   0.756   6.336   3.041
 9156SOL     OW28366   6.708   3.668   6.764
 9156SOL    HW128367   6.689   3.760   6.728
 9156SOL    HW228368   6.651   3.652   6.845
 9157SOL     OW28369   2.202   4.980   6.104
 9157SOL    HW128370   2.229   4.885   6.089
 9157SOL    HW228371   2.192   4.996   6.202
 9158SOL     OW28372   6.781   3.493   4.671
 9158SOL    HW128373   6.755   3.572   4.616
 9158SOL    HW228374   6.714   3.420   4.658
 9159SOL     OW28375   3.843   1.248   3.737
 9159SOL    HW128376   3.794   1.335   3.731
 9159SOL    HW228377   3.830   1.208   3.827
 9160SOL     OW28378   0.009   4.413   0.609
 9160SOL    HW128379   7.012   4.376   0.698
 9160SOL    HW228380   0.010   4.340   0.541
 9161SOL     OW28381   6.120   4.090   1.506
 9161SOL    HW128382   6.184   4.157   1.469
 9161SOL    HW228383   6.135   4.001   1.462
 9162SOL     OW28384   4.718   1.955   1.734
 9162SOL    HW128385   4.708   2.041   1.685
 9162SOL    HW228386   4.627   1.919   1.756
 9163SOL     OW28387   1.735   2.641   3.169
 9163SOL    HW128388   1.688   2.654   3.082
 9163SOL    HW228389   1.791   2.722   3.188
 9164SOL     OW28390   2.004   0.759   6.736
 9164SOL    HW128391   1.945   0.702   6.793
 9164SOL    HW228392   1.963   0.768   6.645
 9165SOL     OW28393   5.394   1.862   5.877
 9165SOL    HW128394   5.407   1.883   5.974
 9165SOL    HW228395   5.365   1.945   5.829
 9166SOL     OW28396   5.175   5.446   1.684
 9166SOL    HW128397   5.270   5.417   1.668
 9166SOL    HW228398   5.160   5.457   1.782
 9167SOL     OW28399   1.657   1.195   4.522
 9167SOL    HW128400   1.683   1.122   4.586
 9167SOL    HW228401   1.595   1.258   4.568
 9168SOL     OW28402   6.437   6.097   4.273
 9168SOL    HW128403   6.448   5.998   4.262
 9168SOL    HW228404   6.362   6.115   4.337
 9169SOL     OW28405   6.274   6.339   0.656
 9169SOL    HW128406   6.331   6.419   0.643
 9169SOL    HW228407   6.248   6.332   0.752
 9170SOL     OW28408   1.385   1.170   5.606
 9170SOL    HW128409   1.444   1.250   5.617
 9170SOL    HW228410   1.404   1.126   5.518
 9171SOL     OW28411   3.550   4.798   0.725
 9171SOL    HW128412   3.472   4.844   0.767
 9171SOL    HW228413   3.562   4.832   0.632
 9172SOL     OW28414   4.680   1.552   4.399
 9172SOL    HW128415   4.656   1.625   4.463
 9172SOL    HW228416   4.596   1.514   4.359
 9173SOL     OW28417   5.432   3.170   3.965
 9173SOL    HW128418   5.526   3.153   3.937
 9173SOL    HW228419   5.375   3.180   3.883
 9174SOL     OW28420   7.002   4.617   0.131
 9174SOL    HW128421   7.016   4.708   0.091
 9174SOL    HW228422   0.046   4.557   0.102
 9175SOL     OW28423   1.825   6.529   6.780
 9175SOL    HW128424   1.845   6.597   6.851
 9175SOL    HW228425   1.910   6.487   6.749
 9176SOL     OW28426   2.167   1.583   2.294
 9176SOL    HW128427   2.209   1.626   2.374
 9176SOL    HW228428   2.102   1.513   2.324
 9177SOL     OW28429   0.827   3.736   3.937
 9177SOL    HW128430   0.778   3.745   3.850
 9177SOL    HW228431   0.922   3.763   3.924
 9178SOL     OW28432   1.837   6.328   0.463
 9178SOL    HW128433   1.790   6.350   0.378
 9178SOL    HW228434   1.927   6.372   0.464
 9179SOL     OW28435   3.974   5.930   5.586
 9179SOL    HW128436   3.960   5.876   5.669
 9179SOL    HW228437   3.956   5.873   5.506
 9180SOL     OW28438   0.164   0.966   4.331
 9180SOL    HW128439   0.118   1.025   4.396
 9180SOL    HW228440   0.188   0.879   4.375
 9181SOL     OW28441   3.907   1.850   4.023
 9181SOL    HW128442   3.924   1.784   4.096
 9181SOL    HW228443   3.975   1.924   4.028
 9182SOL     OW28444   1.972   1.276   2.728
 9182SOL    HW128445   2.034   1.354   2.728
 9182SOL    HW228446   1.894   1.296   2.787
 9183SOL     OW28447   6.579   2.920   5.818
 9183SOL    HW128448   6.675   2.907   5.793
 9183SOL    HW228449   6.566   3.013   5.853
 9184SOL     OW28450   3.404   3.053   1.093
 9184SOL    HW128451   3.348   2.971   1.103
 9184SOL    HW228452   3.388   3.113   1.172
 9185SOL     OW28453   1.405   0.442   6.830
 9185SOL    HW128454   1.455   0.526   6.850
 9185SOL    HW228455   1.306   0.460   6.835
 9186SOL     OW28456   5.765   1.184   6.676
 9186SOL    HW128457   5.677   1.216   6.641
 9186SOL    HW228458   5.836   1.201   6.609
 9187SOL     OW28459   4.860   1.826   0.901
 9187SOL    HW128460   4.777   1.775   0.923
 9187SOL    HW228461   4.864   1.842   0.803
 9188SOL     OW28462   1.052   0.608   1.510
 9188SOL    HW128463   0.979   0.618   1.578
 9188SOL    HW228464   1.017   0.634   1.420
 9189SOL     OW28465   4.052   1.325   4.046
 9189SOL    HW128466   4.020   1.259   4.114
 9189SOL    HW228467   4.136   1.290   4.003
 9190SOL     OW28468   6.179   3.259   5.474
 9190SOL    HW128469   6.193   3.336   5.412
 9190SOL    HW228470   6.229   3.275   5.559
 9191SOL     OW28471   5.569   6.082   0.274
 9191SOL    HW128472   5.634   6.152   0.245
 9191SOL    HW228473   5.527   6.109   0.361
 9192SOL     OW28474   6.329   4.815   4.665
 9192SOL    HW128475   6.378   4.871   4.732
 9192SOL    HW228476   6.388   4.740   4.635
 9193SOL     OW28477   3.437   3.195   3.615
 9193SOL    HW128478   3.378   3.266   3.652
 9193SOL    HW228479   3.382   3.116   3.589
 9194SOL     OW28480   3.082   5.610   2.517
 9194SOL    HW128481   2.982   5.605   2.506
 9194SOL    HW228482   3.112   5.540   2.582
 9195SOL     OW28483   6.594   3.335   2.816
 9195SOL    HW128484   6.501   3.370   2.801
 9195SOL    HW228485   6.598   3.287   2.903
 9196SOL     OW28486   4.615   0.327   3.478
 9196SOL    HW128487   4.621   0.281   3.389
 9196SOL    HW228488   4.604   0.425   3.464
 9197SOL     OW28489   3.403   3.391   6.205
 9197SOL    HW128490   3.466   3.317   6.185
 9197SOL    HW228491   3.343   3.406   6.127
 9198SOL     OW28492   5.490   2.762   5.005
 9198SOL    HW128493   5.404   2.807   5.029
 9198SOL    HW228494   5.473   2.665   4.989
 9199SOL     OW28495   1.371   4.051   6.890
 9199SOL    HW128496   1.420   4.041   6.977
 9199SOL    HW228497   1.274   4.066   6.909
 9200SOL     OW28498   6.231   0.605   0.058
 9200SOL    HW128499   6.290   0.528   0.083
 9200SOL    HW228500   6.185   0.585   7.001
 9201SOL     OW28501   1.451   4.142   2.964
 9201SOL    HW128502   1.515   4.207   2.923
 9201SOL    HW228503   1.405   4.091   2.892
 9202SOL     OW28504   3.110   5.093   4.473
 9202SOL    HW128505   3.128   5.020   4.407
 9202SOL    HW228506   3.075   5.052   4.558
 9203SOL     OW28507   5.480   0.417   5.913
 9203SOL    HW128508   5.519   0.379   5.828
 9203SOL    HW228509   5.536   0.389   5.991
 9204SOL     OW28510   4.737   4.260   2.152
 9204SOL    HW128511   4.757   4.166   2.177
 9204SOL    HW228512   4.661   4.262   2.087
 9205SOL     OW28513   5.292   2.909   2.710
 9205SOL    HW128514   5.345   2.964   2.646
 9205SOL    HW228515   5.217   2.964   2.747
 9206SOL     OW28516   0.519   0.082   3.589
 9206SOL    HW128517   0.587   0.010   3.593
 9206SOL    HW228518   0.563   0.168   3.563
 9207SOL     OW28519   4.256   6.830   0.524
 9207SOL    HW128520   4.199   6.899   0.568
 9207SOL    HW228521   4.202   6.780   0.456
 9208SOL     OW28522   5.087   4.431   2.283
 9208SOL    HW128523   5.010   4.397   2.337
 9208SOL    HW228524   5.063   4.428   2.186
 9209SOL     OW28525   4.279   1.292   2.601
 9209SOL    HW128526   4.367   1.270   2.644
 9209SOL    HW228527   4.217   1.215   2.612
 9210SOL     OW28528   1.502   0.411   1.154
 9210SOL    HW128529   1.421   0.396   1.097
 9210SOL    HW228530   1.542   0.323   1.177
 9211SOL     OW28531   5.195   1.023   0.030
 9211SOL    HW128532   5.146   0.978   0.105
 9211SOL    HW228533   5.294   1.020   0.049
 9212SOL     OW28534   5.824   3.746   4.938
 9212SOL    HW128535   5.777   3.776   5.022
 9212SOL    HW228536   5.893   3.813   4.913
 9213SOL     OW28537   6.130   6.888   2.835
 9213SOL    HW128538   6.226   6.914   2.842
 9213SOL    HW228539   6.104   6.836   2.917
 9214SOL     OW28540   2.067   2.286   5.097
 9214SOL    HW128541   2.121   2.344   5.158
 9214SOL    HW228542   2.128   2.239   5.033
 9215SOL     OW28543   1.043   3.200   3.137
 9215SOL    HW128544   0.989   3.259   3.078
 9215SOL    HW228545   1.118   3.252   3.178
 9216SOL     OW28546   2.433   5.875   4.846
 9216SOL    HW128547   2.483   5.936   4.784
 9216SOL    HW228548   2.416   5.788   4.800
 9217SOL     OW28549   4.504   0.865   6.464
 9217SOL    HW128550   4.600   0.853   6.490
 9217SOL    HW228551   4.497   0.932   6.390
 9218SOL     OW28552   5.709   5.558   6.522
 9218SOL    HW128553   5.803   5.572   6.552
 9218SOL    HW228554   5.647   5.611   6.580
 9219SOL     OW28555   3.693   2.952   5.640
 9219SOL    HW128556   3.737   2.945   5.551
 9219SOL    HW228557   3.617   3.017   5.634
 9220SOL     OW28558   1.287   6.284   3.341
 9220SOL    HW128559   1.334   6.343   3.275
 9220SOL    HW228560   1.347   6.207   3.365
 9221SOL     OW28561   2.472   0.876   0.382
 9221SOL    HW128562   2.442   0.845   0.472
 9221SOL    HW228563   2.488   0.975   0.384
 9222SOL     OW28564   1.289   3.641   3.264
 9222SOL    HW128565   1.278   3.720   3.324
 9222SOL    HW228566   1.364   3.658   3.200
 9223SOL     OW28567   0.755   3.733   4.812
 9223SOL    HW128568   0.827   3.801   4.826
 9223SOL    HW228569   0.701   3.757   4.732
 9224SOL     OW28570   1.874   4.473   4.043
 9224SOL    HW128571   1.950   4.439   4.099
 9224SOL    HW228572   1.833   4.552   4.087
 9225SOL     OW28573   4.941   6.589   7.000
 9225SOL    HW128574   4.845   6.564   7.009
 9225SOL    HW228575   4.988   6.523   6.942
 9226SOL     OW28576   0.863   1.007   1.139
 9226SOL    HW128577   0.932   0.995   1.067
 9226SOL    HW228578   0.772   0.990   1.101
 9227SOL     OW28579   2.476   5.550   0.742
 9227SOL    HW128580   2.568   5.536   0.707
 9227SOL    HW228581   2.480   5.610   0.822
 9228SOL     OW28582   2.909   2.975   5.545
 9228SOL    HW128583   2.912   2.890   5.599
 9228SOL    HW228584   2.855   3.044   5.595
 9229SOL     OW28585   0.663   4.772   0.119
 9229SOL    HW128586   0.588   4.828   0.151
 9229SOL    HW228587   0.653   4.755   0.020
 9230SOL     OW28588   4.603   1.756   4.813
 9230SOL    HW128589   4.587   1.779   4.717
 9230SOL    HW228590   4.516   1.756   4.863
 9231SOL     OW28591   6.838   5.737   3.959
 9231SOL    HW128592   6.839   5.686   3.874
 9231SOL    HW228593   6.925   5.725   4.007
 9232SOL     OW28594   1.498   4.961   1.854
 9232SOL    HW128595   1.555   4.921   1.925
 9232SOL    HW228596   1.556   5.000   1.782
 9233SOL     OW28597   0.531   6.658   0.356
 9233SOL    HW128598   0.476   6.584   0.395
 9233SOL    HW228599   0.472   6.719   0.303
 9234SOL     OW28600   2.194   4.409   0.251
 9234SOL    HW128601   2.106   4.368   0.279
 9234SOL    HW228602   2.227   4.469   0.324
 9235SOL     OW28603   2.048   2.175   3.959
 9235SOL    HW128604   2.094   2.118   3.891
 9235SOL    HW228605   2.058   2.134   4.050
 9236SOL     OW28606   2.450   3.338   6.712
 9236SOL    HW128607   2.480   3.283   6.790
 9236SOL    HW228608   2.425   3.429   6.743
 9237SOL     OW28609   5.680   4.788   3.169
 9237SOL    HW128610   5.628   4.795   3.254
 9237SOL    HW228611   5.682   4.877   3.123
 9238SOL     OW28612   1.851   2.807   5.343
 9238SOL    HW128613   1.806   2.743   5.281
 9238SOL    HW228614   1.949   2.806   5.327
 9239SOL     OW28615   0.630   4.778   6.888
 9239SOL    HW128616   0.573   4.786   6.807
 9239SOL    HW228617   0.674   4.866   6.907
 9240SOL     OW28618   4.435   2.406   2.813
 9240SOL    HW128619   4.497   2.432   2.886
 9240SOL    HW228620   4.480   2.419   2.724
 9241SOL     OW28621   5.564   0.128   0.921
 9241SOL    HW128622   5.656   0.150   0.955
 9241SOL    HW228623   5.509   0.089   0.994
 9242SOL     OW28624   1.756   2.336   0.468
 9242SOL    HW128625   1.806   2.350   0.554
 9242SOL    HW228626   1.699   2.416   0.449
 9243SOL     OW28627   0.943   0.577   0.021
 9243SOL    HW128628   0.984   0.487   0.020
 9243SOL    HW228629   0.844   0.569   0.032
 9244SOL     OW28630   4.071   6.330   5.488
 9244SOL    HW128631   4.090   6.255   5.424
 9244SOL    HW228632   4.135   6.325   5.564
 9245SOL     OW28633   0.850   4.152   2.919
 9245SOL    HW128634   0.884   4.064   2.885
 9245SOL    HW228635   0.847   4.218   2.843
 9246SOL     OW28636   6.187   0.702   5.335
 9246SOL    HW128637   6.211   0.673   5.243
 9246SOL    HW228638   6.218   0.795   5.350
 9247SOL     OW28639   3.706   6.533   3.441
 9247SOL    HW128640   3.658   6.605   3.392
 9247SOL    HW228641   3.656   6.447   3.431
 9248SOL     OW28642   2.561   1.272   5.816
 9248SOL    HW128643   2.475   1.278   5.766
 9248SOL    HW228644   2.551   1.209   5.893
 9249SOL     OW28645   3.616   5.257   1.312
 9249SOL    HW128646   3.684   5.193   1.275
 9249SOL    HW228647   3.637   5.349   1.279
 9250SOL     OW28648   0.537   2.731   4.061
 9250SOL    HW128649   0.560   2.828   4.047
 9250SOL    HW228650   0.610   2.687   4.113
 9251SOL     OW28651   3.278   2.802   1.350
 9251SOL    HW128652   3.374   2.786   1.373
 9251SOL    HW228653   3.264   2.787   1.252
 9252SOL     OW28654   4.997   1.842   6.046
 9252SOL    HW128655   4.974   1.904   6.121
 9252SOL    HW228656   5.073   1.881   5.993
 9253SOL     OW28657   1.025   5.303   5.234
 9253SOL    HW128658   0.990   5.225   5.180
 9253SOL    HW228659   1.125   5.301   5.234
 9254SOL     OW28660   6.989   5.200   2.854
 9254SOL    HW128661   7.024   5.157   2.771
 9254SOL    HW228662   6.958   5.129   2.917
 9255SOL     OW28663   6.574   4.188   0.431
 9255SOL    HW128664   6.550   4.166   0.526
 9255SOL    HW228665   6.560   4.285   0.415
 9256SOL     OW28666   1.742   6.390   1.768
 9256SOL    HW128667   1.816   6.407   1.703
 9256SOL    HW228668   1.657   6.375   1.717
 9257SOL     OW28669   6.467   6.041   3.963
 9257SOL    HW128670   6.403   5.965   3.955
 9257SOL    HW228671   6.456   6.086   4.051
 9258SOL     OW28672   3.511   4.927   1.194
 9258SOL    HW128673   3.437   4.931   1.127
 9258SOL    HW228674   3.477   4.887   1.279
 9259SOL     OW28675   2.059   1.697   6.497
 9259SOL    HW128676   2.049   1.797   6.503
 9259SOL    HW228677   1.971   1.655   6.479
 9260SOL     OW28678   5.984   3.962   4.938
 9260SOL    HW128679   5.989   4.005   5.028
 9260SOL    HW228680   6.071   3.974   4.890
 9261SOL     OW28681   3.540   2.513   1.630
 9261SOL    HW128682   3.485   2.591   1.659
 9261SOL    HW228683   3.603   2.488   1.704
 9262SOL     OW28684   6.190   5.811   3.979
 9262SOL    HW128685   6.195   5.888   3.914
 9262SOL    HW228686   6.120   5.747   3.947
 9263SOL     OW28687   1.471   3.690   4.016
 9263SOL    HW128688   1.446   3.721   3.924
 9263SOL    HW228689   1.570   3.690   4.025
 9264SOL     OW28690   4.509   3.802   0.358
 9264SOL    HW128691   4.589   3.838   0.308
 9264SOL    HW228692   4.471   3.724   0.308
 9265SOL     OW28693   5.286   1.832   0.313
 9265SOL    HW128694   5.328   1.769   0.247
 9265SOL    HW228695   5.194   1.801   0.335
 9266SOL     OW28696   0.407   4.241   1.229
 9266SOL    HW128697   0.441   4.275   1.141
 9266SOL    HW228698   0.464   4.275   1.303
 9267SOL     OW28699   6.968   0.776   4.762
 9267SOL    HW128700   0.008   0.745   4.827
 9267SOL    HW228701   6.928   0.696   4.717
 9268SOL     OW28702   0.690   6.813   2.061
 9268SOL    HW128703   0.760   6.741   2.067
 9268SOL    HW228704   0.734   6.898   2.033
 9269SOL     OW28705   4.239   0.638   1.044
 9269SOL    HW128706   4.220   0.732   1.014
 9269SOL    HW228707   4.156   0.597   1.082
 9270SOL     OW28708   1.506   0.717   5.875
 9270SOL    HW128709   1.483   0.644   5.939
 9270SOL    HW228710   1.571   0.780   5.918
 9271SOL     OW28711   1.484   0.033   4.788
 9271SOL    HW128712   1.549   0.003   4.718
 9271SOL    HW228713   1.391   0.008   4.761
 9272SOL     OW28714   6.478   6.950   6.295
 9272SOL    HW128715   6.427   7.017   6.241
 9272SOL    HW228716   6.428   6.863   6.297
 9273SOL     OW28717   4.522   4.979   4.510
 9273SOL    HW128718   4.619   4.981   4.486
 9273SOL    HW228719   4.495   4.885   4.533
 9274SOL     OW28720   1.316   2.872   6.959
 9274SOL    HW128721   1.322   2.793   7.020
 9274SOL    HW228722   1.276   2.949   7.009
 9275SOL     OW28723   0.128   0.500   0.277
 9275SOL    HW128724   0.193   0.428   0.251
 9275SOL    HW228725   0.125   0.569   0.205
 9276SOL     OW28726   2.838   5.118   0.172
 9276SOL    HW128727   2.917   5.166   0.134
 9276SOL    HW228728   2.839   5.125   0.271
 9277SOL     OW28729   5.238   5.912   1.725
 9277SOL    HW128730   5.295   5.833   1.748
 9277SOL    HW228731   5.142   5.889   1.740
 9278SOL     OW28732   0.514   0.834   4.744
 9278SOL    HW128733   0.597   0.883   4.716
 9278SOL    HW228734   0.434   0.881   4.706
 9279SOL     OW28735   4.836   6.223   1.323
 9279SOL    HW128736   4.774   6.161   1.274
 9279SOL    HW228737   4.822   6.317   1.290
 9280SOL     OW28738   1.727   0.300   3.073
 9280SOL    HW128739   1.671   0.382   3.063
 9280SOL    HW228740   1.823   0.326   3.083
 9281SOL     OW28741   2.831   4.994   6.945
 9281SOL    HW128742   2.859   5.058   6.873
 9281SOL    HW228743   2.867   5.025   0.003
 9282SOL     OW28744   2.874   6.607   4.722
 9282SOL    HW128745   2.965   6.620   4.760
 9282SOL    HW228746   2.824   6.694   4.725
 9283SOL     OW28747   4.692   6.128   6.596
 9283SOL    HW128748   4.775   6.124   6.651
 9283SOL    HW228749   4.620   6.176   6.647
 9284SOL     OW28750   3.425   3.920   4.984
 9284SOL    HW128751   3.355   3.972   4.935
 9284SOL    HW228752   3.503   3.980   5.004
 9285SOL     OW28753   0.019   4.503   2.640
 9285SOL    HW128754   0.088   4.539   2.703
 9285SOL    HW228755   6.995   4.579   2.603
 9286SOL     OW28756   4.778   5.788   1.340
 9286SOL    HW128757   4.762   5.701   1.387
 9286SOL    HW228758   4.756   5.778   1.243
 9287SOL     OW28759   3.663   4.875   6.319
 9287SOL    HW128760   3.611   4.837   6.396
 9287SOL    HW228761   3.754   4.901   6.350
 9288SOL     OW28762   4.249   2.214   2.796
 9288SOL    HW128763   4.199   2.212   2.710
 9288SOL    HW228764   4.316   2.288   2.795
 9289SOL     OW28765   4.830   6.103   7.029
 9289SOL    HW128766   4.790   6.143   0.082
 9289SOL    HW228767   4.918   6.062   0.022
 9290SOL     OW28768   5.096   0.347   4.270
 9290SOL    HW128769   5.082   0.356   4.171
 9290SOL    HW228770   5.028   0.403   4.318
 9291SOL     OW28771   1.329   4.724   5.962
 9291SOL    HW128772   1.360   4.793   5.897
 9291SOL    HW228773   1.391   4.645   5.958
 9292SOL     OW28774   1.824   1.604   6.390
 9292SOL    HW128775   1.842   1.505   6.394
 9292SOL    HW228776   1.740   1.624   6.440
 9293SOL     OW28777   5.356   3.096   4.717
 9293SOL    HW128778   5.357   3.186   4.761
 9293SOL    HW228779   5.309   3.031   4.775
 9294SOL     OW28780   4.378   0.976   6.931
 9294SOL    HW128781   4.339   1.063   6.901
 9294SOL    HW228782   4.307   0.921   6.976
 9295SOL     OW28783   0.569   1.481   5.424
 9295SOL    HW128784   0.519   1.567   5.437
 9295SOL    HW228785   0.604   1.449   5.513
 9296SOL     OW28786   1.320   4.733   0.378
 9296SOL    HW128787   1.333   4.688   0.290
 9296SOL    HW228788   1.387   4.807   0.388
 9297SOL     OW28789   6.099   6.126   2.669
 9297SOL    HW128790   6.074   6.219   2.643
 9297SOL    HW228791   6.029   6.089   2.731
 9298SOL     OW28792   1.166   5.695   6.012
 9298SOL    HW128793   1.087   5.662   6.063
 9298SOL    HW228794   1.135   5.729   5.923
 9299SOL     OW28795   2.051   2.457   4.886
 9299SOL    HW128796   2.055   2.416   4.977
 9299SOL    HW228797   2.012   2.391   4.821
 9300SOL     OW28798   1.473   5.465   5.809
 9300SOL    HW128799   1.474   5.431   5.903
 9300SOL    HW228800   1.466   5.565   5.809
 9301SOL     OW28801   6.954   3.853   4.889
 9301SOL    HW128802   6.989   3.922   4.953
 9301SOL    HW228803   6.926   3.898   4.804
 9302SOL     OW28804   1.933   3.750   5.222
 9302SOL    HW128805   2.010   3.779   5.166
 9302SOL    HW228806   1.952   3.660   5.261
 9303SOL     OW28807   2.438   4.823   0.629
 9303SOL    HW128808   2.463   4.908   0.677
 9303SOL    HW228809   2.453   4.745   0.689
 9304SOL     OW28810   4.860   5.352   0.459
 9304SOL    HW128811   4.798   5.311   0.526
 9304SOL    HW228812   4.818   5.345   0.368
 9305SOL     OW28813   2.182   1.881   1.395
 9305SOL    HW128814   2.121   1.934   1.336
 9305SOL    HW228815   2.273   1.922   1.395
 9306SOL     OW28816   6.773   5.530   4.881
 9306SOL    HW128817   6.715   5.449   4.874
 9306SOL    HW228818   6.859   5.506   4.926
 9307SOL     OW28819   2.527   3.139   1.695
 9307SOL    HW128820   2.543   3.155   1.598
 9307SOL    HW228821   2.602   3.086   1.733
 9308SOL     OW28822   2.103   3.645   2.226
 9308SOL    HW128823   2.129   3.731   2.181
 9308SOL    HW228824   2.108   3.571   2.160
 9309SOL     OW28825   5.223   5.499   5.940
 9309SOL    HW128826   5.301   5.528   5.884
 9309SOL    HW228827   5.184   5.579   5.987
 9310SOL     OW28828   5.671   6.093   6.947
 9310SOL    HW128829   5.647   6.171   6.889
 9310SOL    HW228830   5.747   6.119   7.007
 9311SOL     OW28831   4.473   3.402   1.461
 9311SOL    HW128832   4.498   3.448   1.375
 9311SOL    HW228833   4.378   3.424   1.484
 9312SOL     OW28834   0.502   2.468   1.961
 9312SOL    HW128835   0.576   2.413   1.922
 9312SOL    HW228836   0.414   2.428   1.934
 9313SOL     OW28837   0.457   6.491   2.580
 9313SOL    HW128838   0.485   6.444   2.663
 9313SOL    HW228839   0.438   6.587   2.600
 9314SOL     OW28840   4.781   3.214   0.089
 9314SOL    HW128841   4.842   3.216   0.009
 9314SOL    HW228842   4.799   3.132   0.142
 9315SOL     OW28843   5.653   1.019   6.073
 9315SOL    HW128844   5.560   1.025   6.111
 9315SOL    HW228845   5.720   1.022   6.147
 9316SOL     OW28846   4.265   0.708   5.414
 9316SOL    HW128847   4.265   0.737   5.510
 9316SOL    HW228848   4.359   0.688   5.385
 9317SOL     OW28849   3.965   6.271   3.510
 9317SOL    HW128850   3.894   6.202   3.500
 9317SOL    HW228851   4.018   6.277   3.425
 9318SOL     OW28852   4.835   6.593   1.361
 9318SOL    HW128853   4.842   6.512   1.420
 9318SOL    HW228854   4.827   6.563   1.266
 9319SOL     OW28855   2.533   3.854   6.843
 9319SOL    HW128856   2.552   3.827   6.937
 9319SOL    HW228857   2.585   3.936   6.820
 9320SOL     OW28858   6.442   6.445   6.823
 9320SOL    HW128859   6.535   6.467   6.851
 9320SOL    HW228860   6.392   6.406   6.900
 9321SOL     OW28861   0.558   3.843   4.626
 9321SOL    HW128862   0.571   3.930   4.578
 9321SOL    HW228863   0.460   3.821   4.629
 9322SOL     OW28864   6.000   3.637   5.726
 9322SOL    HW128865   6.001   3.538   5.739
 9322SOL    HW228866   5.929   3.661   5.659
 9323SOL     OW28867   1.299   2.533   4.688
 9323SOL    HW128868   1.391   2.511   4.720
 9323SOL    HW228869   1.270   2.619   4.729
 9324SOL     OW28870   0.470   4.358   1.690
 9324SOL    HW128871   0.379   4.381   1.654
 9324SOL    HW228872   0.527   4.441   1.690
 9325SOL     OW28873   1.064   5.067   2.761
 9325SOL    HW128874   1.135   5.137   2.761
 9325SOL    HW228875   1.002   5.081   2.839
 9326SOL     OW28876   4.225   4.553   1.055
 9326SOL    HW128877   4.168   4.635   1.062
 9326SOL    HW228878   4.251   4.522   1.146
 9327SOL     OW28879   4.547   7.013   4.135
 9327SOL    HW128880   4.538   6.939   4.203
 9327SOL    HW228881   4.457   0.004   4.097
 9328SOL     OW28882   2.602   6.775   4.483
 9328SOL    HW128883   2.694   6.783   4.445
 9328SOL    HW228884   2.535   6.801   4.414
 9329SOL     OW28885   0.250   5.523   6.547
 9329SOL    HW128886   0.256   5.556   6.642
 9329SOL    HW228887   0.336   5.541   6.500
 9330SOL     OW28888   5.905   5.463   6.811
 9330SOL    HW128889   5.901   5.533   6.739
 9330SOL    HW228890   6.000   5.450   6.840
 9331SOL     OW28891   1.529   2.892   4.716
 9331SOL    HW128892   1.438   2.849   4.717
 9331SOL    HW228893   1.519   2.990   4.695
 9332SOL     OW28894   4.680   5.493   1.026
 9332SOL    HW128895   4.754   5.502   1.093
 9332SOL    HW228896   4.692   5.562   0.954
 9333SOL     OW28897   3.856   4.826   0.793
 9333SOL    HW128898   3.775   4.866   0.835
 9333SOL    HW228899   3.842   4.817   0.694
 9334SOL     OW28900   5.666   6.228   5.629
 9334SOL    HW128901   5.640   6.132   5.624
 9334SOL    HW228902   5.690   6.252   5.723
 9335SOL     OW28903   1.736   3.068   1.507
 9335SOL    HW128904   1.816   3.106   1.461
 9335SOL    HW228905   1.679   3.143   1.543
 9336SOL     OW28906   6.415   6.868   5.374
 9336SOL    HW128907   6.477   6.873   5.453
 9336SOL    HW228908   6.436   6.786   5.321
 9337SOL     OW28909   2.394   0.702   6.555
 9337SOL    HW128910   2.335   0.687   6.476
 9337SOL    HW228911   2.345   0.675   6.638
 9338SOL     OW28912   5.921   6.816   0.097
 9338SOL    HW128913   5.911   6.783   0.003
 9338SOL    HW228914   5.841   6.869   0.122
 9339SOL     OW28915   6.421   4.303   5.461
 9339SOL    HW128916   6.470   4.363   5.524
 9339SOL    HW228917   6.456   4.210   5.469
 9340SOL     OW28918   4.268   5.717   2.067
 9340SOL    HW128919   4.270   5.761   1.977
 9340SOL    HW228920   4.345   5.751   2.122
 9341SOL     OW28921   5.228   3.674   6.856
 9341SOL    HW128922   5.287   3.744   6.816
 9341SOL    HW228923   5.135   3.709   6.862
 9342SOL     OW28924   2.777   0.485   4.243
 9342SOL    HW128925   2.839   0.551   4.200
 9342SOL    HW228926   2.684   0.522   4.243
 9343SOL     OW28927   5.040   4.494   1.493
 9343SOL    HW128928   5.138   4.487   1.473
 9343SOL    HW228929   4.989   4.430   1.436
 9344SOL     OW28930   5.667   5.861   4.803
 9344SOL    HW128931   5.585   5.832   4.853
 9344SOL    HW228932   5.743   5.800   4.826
 9345SOL     OW28933   0.267   6.567   1.397
 9345SOL    HW128934   0.290   6.662   1.376
 9345SOL    HW228935   0.254   6.517   1.311
 9346SOL     OW28936   5.925   6.421   1.158
 9346SOL    HW128937   5.867   6.405   1.077
 9346SOL    HW228938   5.867   6.432   1.238
 9347SOL     OW28939   3.685   5.314   0.881
 9347SOL    HW128940   3.621   5.388   0.857
 9347SOL    HW228941   3.633   5.231   0.904
 9348SOL     OW28942   1.743   5.873   1.533
 9348SOL    HW128943   1.806   5.944   1.499
 9348SOL    HW228944   1.703   5.825   1.455
 9349SOL     OW28945   6.362   5.427   1.755
 9349SOL    HW128946   6.299   5.499   1.783
 9349SOL    HW228947   6.366   5.423   1.656
 9350SOL     OW28948   6.862   0.749   5.462
 9350SOL    HW128949   6.943   0.808   5.463
 9350SOL    HW228950   6.784   0.801   5.427
 9351SOL     OW28951   3.357   1.749   6.490
 9351SOL    HW128952   3.274   1.794   6.525
 9351SOL    HW228953   3.430   1.757   6.557
 9352SOL     OW28954   3.510   2.087   6.410
 9352SOL    HW128955   3.452   2.060   6.487
 9352SOL    HW228956   3.577   2.015   6.393
 9353SOL     OW28957   1.582   3.458   1.079
 9353SOL    HW128958   1.651   3.503   1.136
 9353SOL    HW228959   1.513   3.415   1.137
 9354SOL     OW28960   4.817   2.113   1.348
 9354SOL    HW128961   4.750   2.076   1.284
 9354SOL    HW228962   4.786   2.201   1.383
 9355SOL     OW28963   6.577   6.800   3.418
 9355SOL    HW128964   6.560   6.838   3.509
 9355SOL    HW228965   6.512   6.840   3.353
 9356SOL     OW28966   4.193   4.687   2.353
 9356SOL    HW128967   4.178   4.589   2.359
 9356SOL    HW228968   4.191   4.715   2.257
 9357SOL     OW28969   2.892   2.742   1.226
 9357SOL    HW128970   2.962   2.711   1.291
 9357SOL    HW228971   2.813   2.778   1.277
 9358SOL     OW28972   6.517   4.542   2.214
 9358SOL    HW128973   6.538   4.510   2.306
 9358SOL    HW228974   6.418   4.549   2.203
 9359SOL     OW28975   6.819   4.074   5.795
 9359SOL    HW128976   6.774   4.144   5.740
 9359SOL    HW228977   6.781   4.074   5.887
 9360SOL     OW28978   2.183   0.902   6.512
 9360SOL    HW128979   2.084   0.888   6.502
 9360SOL    HW228980   2.223   0.917   6.421
 9361SOL     OW28981   2.656   6.182   2.207
 9361SOL    HW128982   2.629   6.223   2.294
 9361SOL    HW228983   2.583   6.196   2.140
 9362SOL     OW28984   2.240   1.326   2.529
 9362SOL    HW128985   2.283   1.413   2.553
 9362SOL    HW228986   2.154   1.344   2.481
 9363SOL     OW28987   3.382   6.293   2.806
 9363SOL    HW128988   3.326   6.358   2.754
 9363SOL    HW228989   3.326   6.251   2.878
 9364SOL     OW28990   4.530   3.236   0.017
 9364SOL    HW128991   4.617   3.197   0.049
 9364SOL    HW228992   4.506   3.315   0.073
 9365SOL     OW28993   2.442   1.900   5.125
 9365SOL    HW128994   2.428   1.920   5.222
 9365SOL    HW228995   2.445   1.985   5.073
 9366SOL     OW28996   3.060   1.879   0.241
 9366SOL    HW128997   3.114   1.962   0.253
 9366SOL    HW228998   3.015   1.855   0.327
 9367SOL     OW28999   6.691   5.358   2.857
 9367SOL    HW129000   6.715   5.280   2.914
 9367SOL    HW229001   6.711   5.443   2.906
 9368SOL     OW29002   2.985   1.979   1.783
 9368SOL    HW129003   3.077   2.013   1.763
 9368SOL    HW229004   2.986   1.879   1.787
 9369SOL     OW29005   0.181   2.093   5.048
 9369SOL    HW129006   0.213   2.104   5.142
 9369SOL    HW229007   0.135   2.005   5.039
 9370SOL     OW29008   6.487   0.757   2.368
 9370SOL    HW129009   6.424   0.772   2.444
 9370SOL    HW229010   6.435   0.750   2.283
 9371SOL     OW29011   0.434   6.436   0.504
 9371SOL    HW129012   0.480   6.441   0.593
 9371SOL    HW229013   0.459   6.350   0.459
 9372SOL     OW29014   5.739   6.641   4.037
 9372SOL    HW129015   5.673   6.566   4.041
 9372SOL    HW229016   5.699   6.718   3.989
 9373SOL     OW29017   4.218   1.864   3.078
 9373SOL    HW129018   4.136   1.897   3.031
 9373SOL    HW229019   4.291   1.933   3.070
 9374SOL     OW29020   5.365   2.657   0.512
 9374SOL    HW129021   5.439   2.593   0.533
 9374SOL    HW229022   5.361   2.728   0.582
 9375SOL     OW29023   0.285   1.248   2.781
 9375SOL    HW129024   0.352   1.235   2.854
 9375SOL    HW229025   0.208   1.185   2.794
 9376SOL     OW29026   2.792   4.018   0.580
 9376SOL    HW129027   2.716   4.066   0.537
 9376SOL    HW229028   2.789   3.921   0.554
 9377SOL     OW29029   6.451   5.697   3.815
 9377SOL    HW129030   6.482   5.647   3.734
 9377SOL    HW229031   6.503   5.667   3.895
 9378SOL     OW29032   2.260   0.343   6.989
 9378SOL    HW129033   2.225   0.284   0.032
 9378SOL    HW229034   2.210   0.326   6.905
 9379SOL     OW29035   4.907   4.997   3.766
 9379SOL    HW129036   4.840   4.960   3.830
 9379SOL    HW229037   4.876   5.087   3.734
 9380SOL     OW29038   6.150   6.748   6.039
 9380SOL    HW129039   6.181   6.806   5.964
 9380SOL    HW229040   6.225   6.735   6.104
 9381SOL     OW29041   2.642   2.342   5.637
 9381SOL    HW129042   2.605   2.427   5.599
 9381SOL    HW229043   2.742   2.350   5.644
 9382SOL     OW29044   4.006   1.382   2.270
 9382SOL    HW129045   3.956   1.342   2.346
 9382SOL    HW229046   4.009   1.481   2.280
 9383SOL     OW29047   3.752   6.321   4.398
 9383SOL    HW129048   3.679   6.377   4.361
 9383SOL    HW229049   3.713   6.240   4.442
 9384SOL     OW29050   5.432   6.358   2.585
 9384SOL    HW129051   5.425   6.418   2.505
 9384SOL    HW229052   5.493   6.282   2.564
 9385SOL     OW29053   4.173   1.020   3.759
 9385SOL    HW129054   4.107   0.970   3.815
 9385SOL    HW229055   4.126   1.070   3.687
 9386SOL     OW29056   3.119   6.392   5.738
 9386SOL    HW129057   3.189   6.337   5.692
 9386SOL    HW229058   3.029   6.368   5.702
 9387SOL     OW29059   3.135   6.568   1.688
 9387SOL    HW129060   3.197   6.490   1.687
 9387SOL    HW229061   3.084   6.572   1.602
 9388SOL     OW29062   0.277   0.182   3.083
 9388SOL    HW129063   0.359   0.236   3.065
 9388SOL    HW229064   0.242   0.203   3.174
 9389SOL     OW29065   2.131   0.925   5.707
 9389SOL    HW129066   2.077   0.941   5.625
 9389SOL    HW229067   2.228   0.929   5.685
 9390SOL     OW29068   3.286   5.488   2.639
 9390SOL    HW129069   3.292   5.538   2.725
 9390SOL    HW229070   3.305   5.550   2.563
 9391SOL     OW29071   1.162   1.657   5.727
 9391SOL    HW129072   1.123   1.704   5.647
 9391SOL    HW229073   1.168   1.559   5.708
 9392SOL     OW29074   1.772   6.818   4.823
 9392SOL    HW129075   1.820   6.857   4.744
 9392SOL    HW229076   1.685   6.779   4.793
 9393SOL     OW29077   3.699   2.137   5.384
 9393SOL    HW129078   3.713   2.185   5.470
 9393SOL    HW229079   3.602   2.116   5.372
 9394SOL     OW29080   6.398   2.663   2.996
 9394SOL    HW129081   6.480   2.666   2.939
 9394SOL    HW229082   6.351   2.576   2.983
 9395SOL     OW29083   2.735   3.179   0.550
 9395SOL    HW129084   2.711   3.178   0.647
 9395SOL    HW229085   2.701   3.095   0.507
 9396SOL     OW29086   6.275   6.826   5.794
 9396SOL    HW129087   6.298   6.921   5.774
 9396SOL    HW229088   6.266   6.775   5.709
 9397SOL     OW29089   2.149   0.564   0.061
 9397SOL    HW129090   2.178   0.493   7.027
 9397SOL    HW229091   2.225   0.588   0.122
 9398SOL     OW29092   2.548   1.403   0.093
 9398SOL    HW129093   2.546   1.354   0.180
 9398SOL    HW229094   2.627   1.464   0.090
 9399SOL     OW29095   6.534   1.455   6.133
 9399SOL    HW129096   6.609   1.450   6.199
 9399SOL    HW229097   6.487   1.543   6.141
 9400SOL     OW29098   5.323   3.387   1.457
 9400SOL    HW129099   5.384   3.368   1.534
 9400SOL    HW229100   5.253   3.452   1.485
 9401SOL     OW29101   3.009   6.109   3.671
 9401SOL    HW129102   2.944   6.183   3.655
 9401SOL    HW229103   2.964   6.036   3.724
 9402SOL     OW29104   2.673   5.077   6.456
 9402SOL    HW129105   2.736   5.037   6.390
 9402SOL    HW229106   2.579   5.064   6.424
 9403SOL     OW29107   5.482   1.264   3.666
 9403SOL    HW129108   5.573   1.277   3.626
 9403SOL    HW229109   5.450   1.350   3.706
 9404SOL     OW29110   0.692   5.199   6.907
 9404SOL    HW129111   0.719   5.294   6.890
 9404SOL    HW229112   0.630   5.169   6.834
 9405SOL     OW29113   6.119   6.634   1.669
 9405SOL    HW129114   6.135   6.614   1.765
 9405SOL    HW229115   6.122   6.732   1.653
 9406SOL     OW29116   6.926   2.305   5.208
 9406SOL    HW129117   7.015   2.273   5.176
 9406SOL    HW229118   6.935   2.398   5.245
 9407SOL     OW29119   3.487   5.915   3.748
 9407SOL    HW129120   3.552   5.989   3.761
 9407SOL    HW229121   3.486   5.889   3.651
 9408SOL     OW29122   3.904   1.689   7.004
 9408SOL    HW129123   3.976   1.685   0.044
 9408SOL    HW229124   3.906   1.778   6.959
 9409SOL     OW29125   5.505   3.800   3.775
 9409SOL    HW129126   5.438   3.759   3.837
 9409SOL    HW229127   5.459   3.829   3.691
 9410SOL     OW29128   4.271   6.051   2.267
 9410SOL    HW129129   4.256   6.103   2.351
 9410SOL    HW229130   4.200   6.075   2.201
 9411SOL     OW29131   4.557   5.619   0.753
 9411SOL    HW129132   4.647   5.615   0.710
 9411SOL    HW229133   4.519   5.711   0.744
 9412SOL     OW29134   0.660   2.849   0.972
 9412SOL    HW129135   0.604   2.913   0.921
 9412SOL    HW229136   0.712   2.792   0.908
 9413SOL     OW29137   4.554   5.927   5.393
 9413SOL    HW129138   4.488   5.894   5.325
 9413SOL    HW229139   4.579   5.852   5.455
 9414SOL     OW29140   3.190   1.696   2.700
 9414SOL    HW129141   3.192   1.788   2.659
 9414SOL    HW229142   3.282   1.669   2.725
 9415SOL     OW29143   1.864   6.355   2.309
 9415SOL    HW129144   1.823   6.375   2.398
 9415SOL    HW229145   1.859   6.436   2.251
 9416SOL     OW29146   1.284   1.747   1.714
 9416SOL    HW129147   1.299   1.760   1.812
 9416SOL    HW229148   1.323   1.660   1.685
 9417SOL     OW29149   2.456   5.910   5.579
 9417SOL    HW129150   2.508   5.966   5.514
 9417SOL    HW229151   2.404   5.969   5.640
 9418SOL     OW29152   1.985   5.387   1.660
 9418SOL    HW129153   2.047   5.402   1.737
 9418SOL    HW229154   2.015   5.306   1.610
 9419SOL     OW29155   2.772   6.475   4.939
 9419SOL    HW129156   2.792   6.525   4.855
 9419SOL    HW229157   2.711   6.529   4.997
 9420SOL     OW29158   6.450   1.396   4.733
 9420SOL    HW129159   6.526   1.407   4.798
 9420SOL    HW229160   6.414   1.303   4.740
 9421SOL     OW29161   1.575   4.635   5.169
 9421SOL    HW129162   1.561   4.562   5.102
 9421SOL    HW229163   1.491   4.648   5.221
 9422SOL     OW29164   5.730   0.062   2.189
 9422SOL    HW129165   5.822   0.080   2.224
 9422SOL    HW229166   5.672   0.028   2.264
 9423SOL     OW29167   4.088   1.200   3.556
 9423SOL    HW129168   4.052   1.193   3.464
 9423SOL    HW229169   4.020   1.241   3.616
 9424SOL     OW29170   4.410   0.441   5.712
 9424SOL    HW129171   4.507   0.451   5.688
 9424SOL    HW229172   4.386   0.344   5.713
 9425SOL     OW29173   0.803   3.697   5.186
 9425SOL    HW129174   0.781   3.607   5.149
 9425SOL    HW229175   0.871   3.741   5.128
 9426SOL     OW29176   2.957   0.914   7.023
 9426SOL    HW129177   2.920   0.825   6.992
 9426SOL    HW229178   2.923   0.986   6.962
 9427SOL     OW29179   2.774   5.145   5.212
 9427SOL    HW129180   2.741   5.057   5.178
 9427SOL    HW229181   2.829   5.132   5.294
 9428SOL     OW29182   5.856   0.175   2.896
 9428SOL    HW129183   5.937   0.227   2.926
 9428SOL    HW229184   5.803   0.149   2.977
 9429SOL     OW29185   1.231   4.191   1.776
 9429SOL    HW129186   1.219   4.106   1.828
 9429SOL    HW229187   1.263   4.170   1.684
 9430SOL     OW29188   6.683   6.645   2.017
 9430SOL    HW129189   6.740   6.583   2.071
 9430SOL    HW229190   6.738   6.722   1.985
 9431SOL     OW29191   6.318   3.717   6.679
 9431SOL    HW129192   6.366   3.804   6.690
 9431SOL    HW229193   6.228   3.724   6.722
 9432SOL     OW29194   5.935   0.156   3.477
 9432SOL    HW129195   5.994   0.075   3.482
 9432SOL    HW229196   5.989   0.237   3.502
 9433SOL     OW29197   3.160   4.977   5.135
 9433SOL    HW129198   3.172   5.060   5.190
 9433SOL    HW229199   3.093   4.918   5.179
 9434SOL     OW29200   5.756   3.810   2.794
 9434SOL    HW129201   5.690   3.763   2.852
 9434SOL    HW229202   5.839   3.830   2.848
 9435SOL     OW29203   1.942   1.578   4.236
 9435SOL    HW129204   1.883   1.548   4.311
 9435SOL    HW229205   1.893   1.567   4.149
 9436SOL     OW29206   2.014   3.906   0.745
 9436SOL    HW129207   1.917   3.918   0.764
 9436SOL    HW229208   2.026   3.879   0.649
 9437SOL     OW29209   1.220   5.310   3.060
 9437SOL    HW129210   1.129   5.323   3.020
 9437SOL    HW229211   1.287   5.364   3.009
 9438SOL     OW29212   0.198   6.321   2.442
 9438SOL    HW129213   0.229   6.346   2.350
 9438SOL    HW229214   0.261   6.360   2.509
 9439SOL     OW29215   0.000   3.549   1.827
 9439SOL    HW129216   0.092   3.532   1.791
 9439SOL    HW229217   6.968   3.570   1.752
 9440SOL     OW29218   4.884   6.503   4.577
 9440SOL    HW129219   4.949   6.445   4.627
 9440SOL    HW229220   4.903   6.599   4.598
 9441SOL     OW29221   1.938   5.233   4.965
 9441SOL    HW129222   1.945   5.141   5.002
 9441SOL    HW229223   1.938   5.299   5.041
 9442SOL     OW29224   0.009   2.137   6.902
 9442SOL    HW129225   0.070   2.211   6.931
 9442SOL    HW229226   6.970   2.121   6.973
 9443SOL     OW29227   1.966   4.818   1.142
 9443SOL    HW129228   1.929   4.726   1.148
 9443SOL    HW229229   1.923   4.866   1.065
 9444SOL     OW29230   0.837   2.871   7.013
 9444SOL    HW129231   0.754   2.821   0.007
 9444SOL    HW229232   0.885   2.898   0.067
 9445SOL     OW29233   5.179   3.821   2.154
 9445SOL    HW129234   5.262   3.781   2.116
 9445SOL    HW229235   5.114   3.842   2.081
 9446SOL     OW29236   6.477   5.919   2.689
 9446SOL    HW129237   6.437   5.928   2.598
 9446SOL    HW229238   6.520   5.829   2.699
 9447SOL     OW29239   5.258   3.761   1.802
 9447SOL    HW129240   5.199   3.839   1.822
 9447SOL    HW229241   5.266   3.703   1.883
 9448SOL     OW29242   5.619   6.262   5.960
 9448SOL    HW129243   5.706   6.212   5.961
 9448SOL    HW229244   5.586   6.273   6.054
 9449SOL     OW29245   6.368   5.463   5.100
 9449SOL    HW129246   6.386   5.546   5.154
 9449SOL    HW229247   6.273   5.462   5.071
 9450SOL     OW29248   2.300   4.984   4.417
 9450SOL    HW129249   2.389   4.972   4.374
 9450SOL    HW229250   2.251   4.897   4.419
 9451SOL     OW29251   5.364   5.680   6.329
 9451SOL    HW129252   5.385   5.742   6.404
 9451SOL    HW229253   5.319   5.598   6.366
 9452SOL     OW29254   2.520   3.549   0.971
 9452SOL    HW129255   2.479   3.635   0.940
 9452SOL    HW229256   2.534   3.552   1.070
 9453SOL     OW29257   2.073   4.775   3.278
 9453SOL    HW129258   2.087   4.744   3.372
 9453SOL    HW229259   2.096   4.872   3.271
 9454SOL     OW29260   1.459   4.210   6.317
 9454SOL    HW129261   1.471   4.169   6.407
 9454SOL    HW229262   1.529   4.280   6.302
 9455SOL     OW29263   3.547   1.722   2.930
 9455SOL    HW129264   3.600   1.680   3.004
 9455SOL    HW229265   3.560   1.670   2.846
 9456SOL     OW29266   0.943   3.875   0.804
 9456SOL    HW129267   0.942   3.775   0.811
 9456SOL    HW229268   0.883   3.904   0.730
 9457SOL     OW29269   2.058   3.510   6.710
 9457SOL    HW129270   1.972   3.486   6.666
 9457SOL    HW229271   2.041   3.580   6.780
 9458SOL     OW29272   6.910   4.958   5.975
 9458SOL    HW129273   6.840   5.000   5.917
 9458SOL    HW229274   6.982   4.919   5.918
 9459SOL     OW29275   5.834   5.356   2.066
 9459SOL    HW129276   5.866   5.436   2.117
 9459SOL    HW229277   5.874   5.357   1.974
 9460SOL     OW29278   0.492   2.739   4.869
 9460SOL    HW129279   0.474   2.664   4.805
 9460SOL    HW229280   0.415   2.749   4.932
 9461SOL     OW29281   0.618   1.233   3.248
 9461SOL    HW129282   0.683   1.260   3.318
 9461SOL    HW229283   0.668   1.205   3.166
 9462SOL     OW29284   1.536   3.219   2.736
 9462SOL    HW129285   1.455   3.253   2.689
 9462SOL    HW229286   1.616   3.273   2.708
 9463SOL     OW29287   6.815   1.097   0.891
 9463SOL    HW129288   6.816   1.197   0.892
 9463SOL    HW229289   6.889   1.064   0.833
 9464SOL     OW29290   5.752   6.279   6.379
 9464SOL    HW129291   5.815   6.212   6.340
 9464SOL    HW229292   5.803   6.339   6.441
 9465SOL     OW29293   6.922   1.112   3.097
 9465SOL    HW129294   6.830   1.101   3.058
 9465SOL    HW229295   6.960   1.200   3.069
 9466SOL     OW29296   2.738   3.199   5.621
 9466SOL    HW129297   2.675   3.201   5.544
 9466SOL    HW229298   2.687   3.200   5.707
 9467SOL     OW29299   1.907   2.363   1.907
 9467SOL    HW129300   1.809   2.348   1.913
 9467SOL    HW229301   1.955   2.287   1.951
 9468SOL     OW29302   6.366   2.997   6.101
 9468SOL    HW129303   6.419   3.057   6.041
 9468SOL    HW229304   6.303   2.942   6.045
 9469SOL     OW29305   6.475   5.831   1.876
 9469SOL    HW129306   6.426   5.900   1.821
 9469SOL    HW229307   6.481   5.863   1.970
 9470SOL     OW29308   4.765   3.257   6.788
 9470SOL    HW129309   4.772   3.335   6.849
 9470SOL    HW229310   4.740   3.288   6.696
 9471SOL     OW29311   6.621   2.699   5.371
 9471SOL    HW129312   6.570   2.783   5.390
 9471SOL    HW229313   6.675   2.710   5.288
 9472SOL     OW29314   6.345   4.509   4.437
 9472SOL    HW129315   6.434   4.530   4.476
 9472SOL    HW229316   6.353   4.493   4.339
 9473SOL     OW29317   3.215   6.383   6.192
 9473SOL    HW129318   3.240   6.412   6.284
 9473SOL    HW229319   3.250   6.291   6.176
 9474SOL     OW29320   5.747   4.186   2.050
 9474SOL    HW129321   5.701   4.235   1.976
 9474SOL    HW229322   5.680   4.133   2.101
 9475SOL     OW29323   3.149   3.357   1.198
 9475SOL    HW129324   3.235   3.342   1.247
 9475SOL    HW229325   3.105   3.269   1.181
 9476SOL     OW29326   3.958   3.450   5.434
 9476SOL    HW129327   3.927   3.450   5.339
 9476SOL    HW229328   4.043   3.502   5.441
 9477SOL     OW29329   1.522   2.636   1.008
 9477SOL    HW129330   1.605   2.624   1.062
 9477SOL    HW229331   1.516   2.564   0.939
 9478SOL     OW29332   5.150   4.242   5.402
 9478SOL    HW129333   5.066   4.198   5.367
 9478SOL    HW229334   5.126   4.304   5.476
 9479SOL     OW29335   5.851   5.352   6.351
 9479SOL    HW129336   5.882   5.339   6.257
 9479SOL    HW229337   5.802   5.439   6.359
 9480SOL     OW29338   4.411   4.205   6.801
 9480SOL    HW129339   4.435   4.211   6.704
 9480SOL    HW229340   4.439   4.116   6.836
 9481SOL     OW29341   0.086   3.857   1.716
 9481SOL    HW129342   0.107   3.817   1.805
 9481SOL    HW229343   0.127   3.948   1.710
 9482SOL     OW29344   5.283   0.729   3.287
 9482SOL    HW129345   5.203   0.701   3.235
 9482SOL    HW229346   5.302   0.661   3.358
 9483SOL     OW29347   1.548   1.677   0.904
 9483SOL    HW129348   1.467   1.653   0.957
 9483SOL    HW229349   1.562   1.776   0.906
 9484SOL     OW29350   5.941   1.180   3.826
 9484SOL    HW129351   6.012   1.113   3.843
 9484SOL    HW229352   5.863   1.136   3.782
 9485SOL     OW29353   1.221   0.777   1.878
 9485SOL    HW129354   1.289   0.777   1.951
 9485SOL    HW229355   1.180   0.686   1.870
 9486SOL     OW29356   2.302   5.732   0.632
 9486SOL    HW129357   2.264   5.753   0.722
 9486SOL    HW229358   2.385   5.677   0.642
 9487SOL     OW29359   3.717   4.136   3.708
 9487SOL    HW129360   3.795   4.135   3.646
 9487SOL    HW229361   3.634   4.163   3.659
 9488SOL     OW29362   1.920   6.042   1.418
 9488SOL    HW129363   1.989   5.971   1.406
 9488SOL    HW229364   1.959   6.117   1.472
 9489SOL     OW29365   4.040   4.308   1.148
 9489SOL    HW129366   3.995   4.224   1.179
 9489SOL    HW229367   4.137   4.288   1.130
 9490SOL     OW29368   5.025   0.435   0.858
 9490SOL    HW129369   5.097   0.367   0.847
 9490SOL    HW229370   4.946   0.409   0.803
 9491SOL     OW29371   6.552   4.935   4.335
 9491SOL    HW129372   6.611   4.867   4.379
 9491SOL    HW229373   6.461   4.897   4.324
 9492SOL     OW29374   3.214   3.782   2.154
 9492SOL    HW129375   3.126   3.805   2.193
 9492SOL    HW229376   3.258   3.865   2.119
 9493SOL     OW29377   4.953   5.265   3.278
 9493SOL    HW129378   4.955   5.356   3.319
 9493SOL    HW229379   4.857   5.236   3.269
 9494SOL     OW29380   4.670   3.406   0.235
 9494SOL    HW129381   4.711   3.330   0.185
 9494SOL    HW229382   4.622   3.372   0.315
 9495SOL     OW29383   6.296   2.181   3.842
 9495SOL    HW129384   6.306   2.085   3.814
 9495SOL    HW229385   6.200   2.207   3.835
 9496SOL     OW29386   5.485   4.020   6.309
 9496SOL    HW129387   5.464   4.070   6.225
 9496SOL    HW229388   5.412   4.036   6.376
 9497SOL     OW29389   4.998   4.630   0.984
 9497SOL    HW129390   4.967   4.595   1.072
 9497SOL    HW229391   5.073   4.694   0.997
 9498SOL     OW29392   3.904   6.656   5.240
 9498SOL    HW129393   3.893   6.629   5.335
 9498SOL    HW229394   3.994   6.626   5.207
 9499SOL     OW29395   2.500   4.224   5.699
 9499SOL    HW129396   2.418   4.167   5.707
 9499SOL    HW229397   2.473   4.318   5.676
 9500SOL     OW29398   4.576   6.225   1.699
 9500SOL    HW129399   4.600   6.322   1.705
 9500SOL    HW229400   4.583   6.194   1.605
 9501SOL     OW29401   3.592   1.566   4.787
 9501SOL    HW129402   3.552   1.643   4.836
 9501SOL    HW229403   3.675   1.596   4.740
 9502SOL     OW29404   6.583   2.394   4.653
 9502SOL    HW129405   6.646   2.348   4.590
 9502SOL    HW229406   6.491   2.392   4.615
 9503SOL     OW29407   0.533   1.089   1.794
 9503SOL    HW129408   0.588   1.155   1.846
 9503SOL    HW229409   0.437   1.117   1.798
 9504SOL     OW29410   7.015   2.595   0.801
 9504SOL    HW129411   6.968   2.551   0.878
 9504SOL    HW229412   6.962   2.583   0.717
 9505SOL     OW29413   6.249   3.488   3.054
 9505SOL    HW129414   6.279   3.428   2.979
 9505SOL    HW229415   6.329   3.532   3.094
 9506SOL     OW29416   0.274   3.163   0.077
 9506SOL    HW129417   0.206   3.234   0.094
 9506SOL    HW229418   0.257   3.120   7.018
 9507SOL     OW29419   1.734   1.081   4.295
 9507SOL    HW129420   1.772   1.164   4.255
 9507SOL    HW229421   1.663   1.105   4.362
 9508SOL     OW29422   5.524   1.882   0.423
 9508SOL    HW129423   5.428   1.861   0.401
 9508SOL    HW229424   5.540   1.869   0.520
 9509SOL     OW29425   1.491   6.587   5.241
 9509SOL    HW129426   1.470   6.681   5.213
 9509SOL    HW229427   1.443   6.523   5.182
 9510SOL     OW29428   6.678   4.024   2.126
 9510SOL    HW129429   6.765   4.014   2.078
 9510SOL    HW229430   6.604   4.028   2.059
 9511SOL     OW29431   0.750   2.401   0.256
 9511SOL    HW129432   0.657   2.418   0.226
 9511SOL    HW229433   0.810   2.392   0.177
 9512SOL     OW29434   6.942   1.955   3.881
 9512SOL    HW129435   0.009   1.980   3.886
 9512SOL    HW229436   6.890   2.007   3.949
 9513SOL     OW29437   2.072   4.281   4.643
 9513SOL    HW129438   1.993   4.228   4.672
 9513SOL    HW229439   2.097   4.256   4.549
 9514SOL     OW29440   1.823   3.811   6.530
 9514SOL    HW129441   1.920   3.803   6.511
 9514SOL    HW229442   1.772   3.749   6.470
 9515SOL     OW29443   1.319   6.310   6.995
 9515SOL    HW129444   1.232   6.359   6.989
 9515SOL    HW229445   1.388   6.367   0.010
 9516SOL     OW29446   4.997   3.496   4.267
 9516SOL    HW129447   4.943   3.440   4.203
 9516SOL    HW229448   4.971   3.473   4.361
 9517SOL     OW29449   0.979   5.337   1.535
 9517SOL    HW129450   0.990   5.242   1.564
 9517SOL    HW229451   1.056   5.364   1.479
 9518SOL     OW29452   0.933   3.001   5.589
 9518SOL    HW129453   1.027   3.001   5.556
 9518SOL    HW229454   0.932   2.974   5.686
 9519SOL     OW29455   2.863   3.516   2.947
 9519SOL    HW129456   2.871   3.464   2.862
 9519SOL    HW229457   2.767   3.533   2.967
 9520SOL     OW29458   6.729   0.943   4.770
 9520SOL    HW129459   6.814   0.892   4.779
 9520SOL    HW229460   6.729   0.992   4.682
 9521SOL     OW29461   3.334   5.837   1.788
 9521SOL    HW129462   3.246   5.801   1.820
 9521SOL    HW229463   3.338   5.833   1.688
 9522SOL     OW29464   4.241   5.064   2.091
 9522SOL    HW129465   4.216   5.101   2.181
 9522SOL    HW229466   4.327   5.014   2.099
 9523SOL     OW29467   2.481   5.163   4.641
 9523SOL    HW129468   2.472   5.152   4.740
 9523SOL    HW229469   2.431   5.089   4.595
 9524SOL     OW29470   1.093   3.725   1.244
 9524SOL    HW129471   1.192   3.735   1.253
 9524SOL    HW229472   1.060   3.787   1.172
 9525SOL     OW29473   1.703   2.476   5.889
 9525SOL    HW129474   1.708   2.391   5.941
 9525SOL    HW229475   1.740   2.460   5.797
 9526SOL     OW29476   5.732   5.185   0.437
 9526SOL    HW129477   5.755   5.091   0.413
 9526SOL    HW229478   5.633   5.196   0.437
 9527SOL     OW29479   2.760   0.015   4.121
 9527SOL    HW129480   2.840   6.985   4.115
 9527SOL    HW229481   2.789   0.107   4.144
 9528SOL     OW29482   5.870   0.925   1.143
 9528SOL    HW129483   5.854   0.844   1.200
 9528SOL    HW229484   5.834   1.006   1.189
 9529SOL     OW29485   5.924   3.227   1.383
 9529SOL    HW129486   5.864   3.305   1.363
 9529SOL    HW229487   5.908   3.195   1.476
 9530SOL     OW29488   1.576   5.828   4.660
 9530SOL    HW129489   1.518   5.778   4.595
 9530SOL    HW229490   1.618   5.906   4.615
 9531SOL     OW29491   4.533   4.677   3.145
 9531SOL    HW129492   4.564   4.645   3.055
 9531SOL    HW229493   4.434   4.689   3.143
 9532SOL     OW29494   6.212   4.878   1.753
 9532SOL    HW129495   6.295   4.933   1.758
 9532SOL    HW229496   6.174   4.882   1.661
 9533SOL     OW29497   1.110   5.736   4.523
 9533SOL    HW129498   1.067   5.655   4.483
 9533SOL    HW229499   1.052   5.815   4.507
 9534SOL     OW29500   6.234   4.765   4.399
 9534SOL    HW129501   6.266   4.671   4.392
 9534SOL    HW229502   6.240   4.795   4.494
 9535SOL     OW29503   1.837   1.488   5.851
 9535SOL    HW129504   1.852   1.390   5.868
 9535SOL    HW229505   1.889   1.516   5.770
 9536SOL     OW29506   3.361   3.015   4.736
 9536SOL    HW129507   3.366   2.915   4.734
 9536SOL    HW229508   3.430   3.051   4.800
 9537SOL     OW29509   2.284   1.951   4.232
 9537SOL    HW129510   2.343   1.999   4.167
 9537SOL    HW229511   2.340   1.911   4.305
 9538SOL     OW29512   3.933   1.122   4.203
 9538SOL    HW129513   3.841   1.154   4.180
 9538SOL    HW229514   3.929   1.025   4.226
 9539SOL     OW29515   3.285   2.941   4.064
 9539SOL    HW129516   3.195   2.935   4.019
 9539SOL    HW229517   3.276   2.992   4.149
 9540SOL     OW29518   4.937   5.184   4.146
 9540SOL    HW129519   4.845   5.159   4.117
 9540SOL    HW229520   4.985   5.103   4.179
 9541SOL     OW29521   0.683   0.914   5.374
 9541SOL    HW129522   0.665   1.012   5.378
 9541SOL    HW229523   0.704   0.880   5.466
 9542SOL     OW29524   5.806   4.968   4.173
 9542SOL    HW129525   5.866   5.000   4.100
 9542SOL    HW229526   5.844   4.884   4.213
 9543SOL     OW29527   3.302   0.137   6.064
 9543SOL    HW129528   3.238   0.123   6.140
 9543SOL    HW229529   3.386   0.086   6.081
 9544SOL     OW29530   4.764   3.977   3.841
 9544SOL    HW129531   4.701   4.050   3.814
 9544SOL    HW229532   4.800   3.932   3.759
 9545SOL     OW29533   0.888   5.067   1.791
 9545SOL    HW129534   0.884   4.995   1.860
 9545SOL    HW229535   0.803   5.121   1.795
 9546SOL     OW29536   2.968   1.919   6.144
 9546SOL    HW129537   3.052   1.940   6.094
 9546SOL    HW229538   2.889   1.936   6.084
 9547SOL     OW29539   3.419   5.646   4.353
 9547SOL    HW129540   3.406   5.745   4.356
 9547SOL    HW229541   3.474   5.618   4.431
 9548SOL     OW29542   0.899   5.425   5.446
 9548SOL    HW129543   0.848   5.355   5.495
 9548SOL    HW229544   0.934   5.388   5.361
 9549SOL     OW29545   3.823   0.768   2.494
 9549SOL    HW129546   3.768   0.689   2.465
 9549SOL    HW229547   3.789   0.800   2.583
 9550SOL     OW29548   6.184   2.563   1.242
 9550SOL    HW129549   6.184   2.522   1.151
 9550SOL    HW229550   6.120   2.640   1.244
 9551SOL     OW29551   5.882   2.976   6.119
 9551SOL    HW129552   5.840   2.996   6.031
 9551SOL    HW229553   5.819   3.001   6.193
 9552SOL     OW29554   2.312   0.676   6.307
 9552SOL    HW129555   2.386   0.649   6.244
 9552SOL    HW229556   2.288   0.772   6.292
 9553SOL     OW29557   5.095   1.654   0.603
 9553SOL    HW129558   5.164   1.721   0.628
 9553SOL    HW229559   5.132   1.562   0.613
 9554SOL     OW29560   2.280   6.527   3.703
 9554SOL    HW129561   2.262   6.519   3.801
 9554SOL    HW229562   2.323   6.443   3.669
 9555SOL     OW29563   6.929   1.551   3.602
 9555SOL    HW129564   6.852   1.614   3.602
 9555SOL    HW229565   6.905   1.469   3.654
 9556SOL     OW29566   1.481   4.792   1.427
 9556SOL    HW129567   1.405   4.729   1.440
 9556SOL    HW229568   1.557   4.745   1.382
 9557SOL     OW29569   4.828   6.901   1.960
 9557SOL    HW129570   4.770   6.956   2.021
 9557SOL    HW229571   4.802   6.918   1.865
 9558SOL     OW29572   5.629   6.471   5.402
 9558SOL    HW129573   5.637   6.546   5.468
 9558SOL    HW229574   5.549   6.415   5.425
 9559SOL     OW29575   1.607   3.643   0.202
 9559SOL    HW129576   1.577   3.719   0.260
 9559SOL    HW229577   1.538   3.627   0.131
 9560SOL     OW29578   3.166   0.933   2.544
 9560SOL    HW129579   3.085   0.894   2.500
 9560SOL    HW229580   3.160   1.033   2.540
 9561SOL     OW29581   0.349   0.418   1.754
 9561SOL    HW129582   0.426   0.483   1.752
 9561SOL    HW229583   0.264   0.468   1.769
 9562SOL     OW29584   3.157   6.049   4.290
 9562SOL    HW129585   3.095   6.092   4.226
 9562SOL    HW229586   3.133   5.953   4.302
 9563SOL     OW29587   0.198   6.565   0.607
 9563SOL    HW129588   0.217   6.661   0.624
 9563SOL    HW229589   0.265   6.529   0.541
 9564SOL     OW29590   2.034   1.195   1.247
 9564SOL    HW129591   1.944   1.232   1.265
 9564SOL    HW229592   2.101   1.269   1.245
 9565SOL     OW29593   2.642   1.233   4.218
 9565SOL    HW129594   2.575   1.278   4.278
 9565SOL    HW229595   2.734   1.254   4.250
 9566SOL     OW29596   2.434   6.340   0.769
 9566SOL    HW129597   2.385   6.262   0.808
 9566SOL    HW229598   2.416   6.422   0.824
 9567SOL     OW29599   5.954   4.379   0.148
 9567SOL    HW129600   5.896   4.302   0.120
 9567SOL    HW229601   6.022   4.397   0.077
 9568SOL     OW29602   3.985   1.331   1.139
 9568SOL    HW129603   4.084   1.319   1.136
 9568SOL    HW229604   3.964   1.418   1.184
 9569SOL     OW29605   0.215   0.712   2.541
 9569SOL    HW129606   0.209   0.697   2.442
 9569SOL    HW229607   0.141   0.662   2.587
 9570SOL     OW29608   0.828   2.650   0.877
 9570SOL    HW129609   0.876   2.681   0.795
 9570SOL    HW229610   0.859   2.558   0.901
 9571SOL     OW29611   2.054   2.622   6.091
 9571SOL    HW129612   2.040   2.549   6.024
 9571SOL    HW229613   1.969   2.636   6.142
 9572SOL     OW29614   2.437   4.401   2.742
 9572SOL    HW129615   2.509   4.372   2.679
 9572SOL    HW229616   2.363   4.446   2.691
 9573SOL     OW29617   6.379   1.239   5.742
 9573SOL    HW129618   6.370   1.259   5.840
 9573SOL    HW229619   6.305   1.284   5.692
 9574SOL     OW29620   3.736   2.957   2.100
 9574SOL    HW129621   3.754   2.995   2.191
 9574SOL    HW229622   3.655   2.899   2.104
 9575SOL     OW29623   6.157   0.467   2.412
 9575SOL    HW129624   6.075   0.412   2.396
 9575SOL    HW229625   6.218   0.459   2.333
 9576SOL     OW29626   1.866   1.984   0.144
 9576SOL    HW129627   1.779   1.935   0.153
 9576SOL    HW229628   1.855   2.077   0.181
 9577SOL     OW29629   6.988   5.641   6.924
 9577SOL    HW129630   6.985   5.614   7.020
 9577SOL    HW229631   0.051   5.631   6.889
 9578SOL     OW29632   1.418   2.435   2.858
 9578SOL    HW129633   1.391   2.408   2.951
 9578SOL    HW229634   1.342   2.485   2.816
 9579SOL     OW29635   6.314   6.248   2.446
 9579SOL    HW129636   6.223   6.257   2.486
 9579SOL    HW229637   6.376   6.207   2.513
 9580SOL     OW29638   4.902   3.935   1.393
 9580SOL    HW129639   4.928   3.938   1.490
 9580SOL    HW229640   4.976   3.893   1.341
 9581SOL     OW29641   0.780   0.662   6.211
 9581SOL    HW129642   0.807   0.667   6.307
 9581SOL    HW229643   0.819   0.579   6.170
 9582SOL     OW29644   3.851   5.638   4.763
 9582SOL    HW129645   3.754   5.660   4.771
 9582SOL    HW229646   3.888   5.618   4.853
 9583SOL     OW29647   3.241   4.657   1.351
 9583SOL    HW129648   3.182   4.720   1.402
 9583SOL    HW229649   3.184   4.604   1.288
 9584SOL     OW29650   1.746   5.086   5.966
 9584SOL    HW129651   1.690   5.049   6.041
 9584SOL    HW229652   1.763   5.014   5.899
 9585SOL     OW29653   5.437   6.399   2.011
 9585SOL    HW129654   5.409   6.478   2.066
 9585SOL    HW229655   5.360   6.337   2.000
 9586SOL     OW29656   4.500   5.285   1.982
 9586SOL    HW129657   4.491   5.199   2.033
 9586SOL    HW229658   4.492   5.266   1.884
 9587SOL     OW29659   1.492   6.465   2.730
 9587SOL    HW129660   1.477   6.390   2.795
 9587SOL    HW229661   1.418   6.466   2.663
 9588SOL     OW29662   6.279   6.075   0.602
 9588SOL    HW129663   6.268   6.174   0.612
 9588SOL    HW229664   6.341   6.041   0.673
 9589SOL     OW29665   1.800   4.070   0.032
 9589SOL    HW129666   1.755   4.158   0.024
 9589SOL    HW229667   1.835   4.041   6.972
 9590SOL     OW29668   6.357   2.338   1.915
 9590SOL    HW129669   6.361   2.254   1.861
 9590SOL    HW229670   6.330   2.414   1.857
 9591SOL     OW29671   3.690   5.961   6.430
 9591SOL    HW129672   3.655   6.013   6.508
 9591SOL    HW229673   3.790   5.964   6.431
 9592SOL     OW29674   3.217   5.437   0.630
 9592SOL    HW129675   3.132   5.409   0.676
 9592SOL    HW229676   3.294   5.387   0.669
 9593SOL     OW29677   1.111   1.968   5.327
 9593SOL    HW129678   1.104   2.066   5.311
 9593SOL    HW229679   1.033   1.922   5.284
 9594SOL     OW29680   2.915   6.289   4.471
 9594SOL    HW129681   2.910   6.265   4.568
 9594SOL    HW229682   2.958   6.378   4.461
 9595SOL     OW29683   0.523   2.830   3.633
 9595SOL    HW129684   0.592   2.762   3.658
 9595SOL    HW229685   0.568   2.912   3.597
 9596SOL     OW29686   0.923   5.350   0.485
 9596SOL    HW129687   0.849   5.384   0.542
 9596SOL    HW229688   0.896   5.263   0.444
 9597SOL     OW29689   0.143   4.369   1.170
 9597SOL    HW129690   0.232   4.339   1.204
 9597SOL    HW229691   0.082   4.290   1.161
 9598SOL     OW29692   2.054   4.139   3.456
 9598SOL    HW129693   1.967   4.164   3.415
 9598SOL    HW229694   2.090   4.057   3.412
 9599SOL     OW29695   3.184   0.280   4.121
 9599SOL    HW129696   3.243   0.229   4.184
 9599SOL    HW229697   3.185   0.235   4.031
 9600SOL     OW29698   3.000   0.033   0.396
 9600SOL    HW129699   3.043   6.977   0.370
 9600SOL    HW229700   2.938   0.064   0.324
 9601SOL     OW29701   5.571   4.367   0.406
 9601SOL    HW129702   5.617   4.443   0.359
 9601SOL    HW229703   5.511   4.320   0.341
 9602SOL     OW29704   5.090   3.666   5.501
 9602SOL    HW129705   5.105   3.764   5.491
 9602SOL    HW229706   4.999   3.642   5.465
 9603SOL     OW29707   5.447   6.881   6.458
 9603SOL    HW129708   5.427   6.908   6.552
 9603SOL    HW229709   5.509   6.948   6.417
 9604SOL     OW29710   5.040   6.843   1.567
 9604SOL    HW129711   4.940   6.842   1.563
 9604SOL    HW229712   5.071   6.937   1.583
 9605SOL     OW29713   0.992   5.386   2.602
 9605SOL    HW129714   1.078   5.337   2.586
 9605SOL    HW229715   0.970   5.384   2.699
 9606SOL     OW29716   1.602   0.158   6.289
 9606SOL    HW129717   1.582   0.118   6.379
 9606SOL    HW229718   1.571   0.253   6.288
 9607SOL     OW29719   2.923   1.252   0.181
 9607SOL    HW129720   2.913   1.352   0.180
 9607SOL    HW229721   2.834   1.210   0.163
 9608SOL     OW29722   0.356   4.793   1.985
 9608SOL    HW129723   0.366   4.810   1.887
 9608SOL    HW229724   0.259   4.782   2.007
 9609SOL     OW29725   3.724   3.071   0.315
 9609SOL    HW129726   3.707   3.030   0.225
 9609SOL    HW229727   3.647   3.052   0.376
 9610SOL     OW29728   1.833   4.740   3.139
 9610SOL    HW129729   1.760   4.750   3.207
 9610SOL    HW229730   1.921   4.763   3.180
 9611SOL     OW29731   1.370   6.424   0.530
 9611SOL    HW129732   1.345   6.328   0.521
 9611SOL    HW229733   1.470   6.432   0.534
 9612SOL     OW29734   0.427   3.284   1.706
 9612SOL    HW129735   0.494   3.276   1.633
 9612SOL    HW229736   0.472   3.310   1.791
 9613SOL     OW29737   5.232   6.708   3.521
 9613SOL    HW129738   5.225   6.689   3.423
 9613SOL    HW229739   5.281   6.634   3.566
 9614SOL     OW29740   3.571   2.035   1.878
 9614SOL    HW129741   3.616   1.949   1.902
 9614SOL    HW229742   3.611   2.110   1.931
 9615SOL     OW29743   2.604   1.286   1.240
 9615SOL    HW129744   2.568   1.223   1.171
 9615SOL    HW229745   2.553   1.276   1.325
 9616SOL     OW29746   3.851   3.842   1.165
 9616SOL    HW129747   3.899   3.778   1.106
 9616SOL    HW229748   3.879   3.827   1.260
 9617SOL     OW29749   2.013   2.906   3.481
 9617SOL    HW129750   1.938   2.840   3.473
 9617SOL    HW229751   1.979   2.989   3.525
 9618SOL     OW29752   2.816   6.947   1.054
 9618SOL    HW129753   2.718   6.936   1.073
 9618SOL    HW229754   2.828   6.982   0.962
 9619SOL     OW29755   2.076   0.386   5.543
 9619SOL    HW129756   2.067   0.291   5.573
 9619SOL    HW229757   2.076   0.446   5.623
 9620SOL     OW29758   4.246   0.230   5.042
 9620SOL    HW129759   4.176   0.159   5.043
 9620SOL    HW229760   4.326   0.199   5.095
 9621SOL     OW29761   1.840   3.242   1.939
 9621SOL    HW129762   1.817   3.271   1.846
 9621SOL    HW229763   1.835   3.320   2.001
 9622SOL     OW29764   6.335   2.035   0.723
 9622SOL    HW129765   6.329   2.003   0.817
 9622SOL    HW229766   6.295   1.966   0.662
 9623SOL     OW29767   2.723   3.437   5.970
 9623SOL    HW129768   2.749   3.515   5.912
 9623SOL    HW229769   2.687   3.471   6.056
 9624SOL     OW29770   6.119   4.054   2.917
 9624SOL    HW129771   6.110   3.955   2.905
 9624SOL    HW229772   6.040   4.099   2.876
 9625SOL     OW29773   5.461   5.178   0.145
 9625SOL    HW129774   5.497   5.118   0.074
 9625SOL    HW229775   5.362   5.183   0.138
 9626SOL     OW29776   4.399   5.199   0.320
 9626SOL    HW129777   4.325   5.152   0.271
 9626SOL    HW229778   4.418   5.287   0.277
 9627SOL     OW29779   0.828   6.483   6.361
 9627SOL    HW129780   0.881   6.408   6.322
 9627SOL    HW229781   0.853   6.568   6.316
 9628SOL     OW29782   5.484   4.859   1.035
 9628SOL    HW129783   5.504   4.950   1.072
 9628SOL    HW229784   5.559   4.797   1.059
 9629SOL     OW29785   1.932   0.546   1.166
 9629SOL    HW129786   1.977   0.626   1.125
 9629SOL    HW229787   1.906   0.568   1.260
 9630SOL     OW29788   6.149   6.698   4.657
 9630SOL    HW129789   6.135   6.686   4.559
 9630SOL    HW229790   6.066   6.734   4.698
 9631SOL     OW29791   6.839   6.427   6.388
 9631SOL    HW129792   6.750   6.394   6.420
 9631SOL    HW229793   6.864   6.378   6.304
 9632SOL     OW29794   1.263   6.880   2.833
 9632SOL    HW129795   1.285   6.960   2.888
 9632SOL    HW229796   1.345   6.823   2.823
 9633SOL     OW29797   5.549   4.942   6.687
 9633SOL    HW129798   5.507   4.948   6.778
 9633SOL    HW229799   5.507   4.867   6.636
 9634SOL     OW29800   1.273   6.501   3.551
 9634SOL    HW129801   1.271   6.446   3.467
 9634SOL    HW229802   1.356   6.480   3.602
 9635SOL     OW29803   1.885   6.465   4.938
 9635SOL    HW129804   1.930   6.421   5.016
 9635SOL    HW229805   1.811   6.407   4.905
 9636SOL     OW29806   4.176   1.419   5.534
 9636SOL    HW129807   4.242   1.489   5.563
 9636SOL    HW229808   4.133   1.448   5.448
 9637SOL     OW29809   2.376   2.725   6.628
 9637SOL    HW129810   2.290   2.718   6.678
 9637SOL    HW229811   2.364   2.688   6.536
 9638SOL     OW29812   0.309   3.170   6.144
 9638SOL    HW129813   0.392   3.223   6.126
 9638SOL    HW229814   0.248   3.223   6.202
 9639SOL     OW29815   4.083   1.782   1.974
 9639SOL    HW129816   4.179   1.810   1.984
 9639SOL    HW229817   4.029   1.858   1.940
 9640SOL     OW29818   2.316   2.980   3.940
 9640SOL    HW129819   2.386   3.024   3.997
 9640SOL    HW229820   2.241   3.045   3.925
 9641SOL     OW29821   4.532   0.090   0.339
 9641SOL    HW129822   4.518   0.188   0.327
 9641SOL    HW229823   4.507   0.042   0.256
 9642SOL     OW29824   2.477   6.905   4.715
 9642SOL    HW129825   2.519   6.896   4.806
 9642SOL    HW229826   2.548   6.898   4.646
 9643SOL     OW29827   5.742   4.248   3.444
 9643SOL    HW129828   5.728   4.196   3.528
 9643SOL    HW229829   5.687   4.331   3.447
 9644SOL     OW29830   1.097   3.339   6.341
 9644SOL    HW129831   1.165   3.398   6.297
 9644SOL    HW229832   1.041   3.394   6.403
 9645SOL     OW29833   2.351   5.005   4.904
 9645SOL    HW129834   2.425   5.052   4.953
 9645SOL    HW229835   2.357   4.907   4.919
 9646SOL     OW29836   3.599   5.016   2.780
 9646SOL    HW129837   3.670   4.964   2.733
 9646SOL    HW229838   3.637   5.059   2.862
 9647SOL     OW29839   6.035   4.055   1.087
 9647SOL    HW129840   5.988   3.969   1.066
 9647SOL    HW229841   6.021   4.119   1.012
 9648SOL     OW29842   4.107   1.373   1.459
 9648SOL    HW129843   4.058   1.434   1.521
 9648SOL    HW229844   4.052   1.290   1.444
 9649SOL     OW29845   2.810   6.949   0.103
 9649SOL    HW129846   2.809   7.005   0.186
 9649SOL    HW229847   2.786   7.006   0.025
 9650SOL     OW29848   0.198   5.200   2.555
 9650SOL    HW129849   0.110   5.238   2.527
 9650SOL    HW229850   0.223   5.126   2.493
 9651SOL     OW29851   6.960   2.018   5.781
 9651SOL    HW129852   7.024   1.964   5.836
 9651SOL    HW229853   6.930   2.097   5.834
 9652SOL     OW29854   0.849   4.790   1.401
 9652SOL    HW129855   0.864   4.814   1.305
 9652SOL    HW229856   0.929   4.741   1.436
 9653SOL     OW29857   4.287   4.867   5.175
 9653SOL    HW129858   4.201   4.917   5.179
 9653SOL    HW229859   4.359   4.920   5.220
 9654SOL     OW29860   2.995   2.183   1.486
 9654SOL    HW129861   3.038   2.229   1.564
 9654SOL    HW229862   3.056   2.113   1.451
 9655SOL     OW29863   6.824   1.992   6.128
 9655SOL    HW129864   6.776   1.921   6.076
 9655SOL    HW229865   6.758   2.060   6.160
 9656SOL     OW29866   2.578   0.573   2.819
 9656SOL    HW129867   2.589   0.601   2.724
 9656SOL    HW229868   2.617   0.482   2.832
 9657SOL     OW29869   5.016   0.742   4.440
 9657SOL    HW129870   5.049   0.733   4.346
 9657SOL    HW229871   5.063   0.817   4.485
 9658SOL     OW29872   0.300   1.868   2.313
 9658SOL    HW129873   0.293   1.886   2.215
 9658SOL    HW229874   0.341   1.946   2.359
 9659SOL     OW29875   6.860   3.607   0.532
 9659SOL    HW129876   6.835   3.656   0.616
 9659SOL    HW229877   6.778   3.582   0.482
 9660SOL     OW29878   0.407   6.029   1.244
 9660SOL    HW129879   0.311   6.015   1.220
 9660SOL    HW229880   0.419   6.121   1.282
 9661SOL     OW29881   4.644   6.335   0.848
 9661SOL    HW129882   4.578   6.378   0.910
 9661SOL    HW229883   4.732   6.324   0.895
 9662SOL     OW29884   6.105   2.843   4.791
 9662SOL    HW129885   6.148   2.934   4.784
 9662SOL    HW229886   6.095   2.819   4.888
 9663SOL     OW29887   1.411   5.380   3.650
 9663SOL    HW129888   1.464   5.390   3.734
 9663SOL    HW229889   1.403   5.469   3.604
 9664SOL     OW29890   4.591   6.458   3.010
 9664SOL    HW129891   4.541   6.413   2.935
 9664SOL    HW229892   4.660   6.396   3.046
 9665SOL     OW29893   5.736   4.830   5.208
 9665SOL    HW129894   5.723   4.930   5.204
 9665SOL    HW229895   5.760   4.803   5.301
 9666SOL     OW29896   5.768   4.084   1.560
 9666SOL    HW129897   5.745   4.174   1.599
 9666SOL    HW229898   5.866   4.080   1.541
 9667SOL     OW29899   4.047   3.712   3.969
 9667SOL    HW129900   3.992   3.640   4.011
 9667SOL    HW229901   4.048   3.792   4.029
 9668SOL     OW29902   6.615   1.320   5.325
 9668SOL    HW129903   6.686   1.312   5.395
 9668SOL    HW229904   6.526   1.332   5.368
 9669SOL     OW29905   0.513   0.650   0.819
 9669SOL    HW129906   0.498   0.747   0.799
 9669SOL    HW229907   0.588   0.641   0.884
 9670SOL     OW29908   4.609   4.707   6.077
 9670SOL    HW129909   4.639   4.613   6.063
 9670SOL    HW229910   4.521   4.721   6.031
 9671SOL     OW29911   6.724   5.607   6.353
 9671SOL    HW129912   6.796   5.538   6.358
 9671SOL    HW229913   6.715   5.651   6.442
 9672SOL     OW29914   1.351   6.402   5.090
 9672SOL    HW129915   1.266   6.450   5.110
 9672SOL    HW229916   1.361   6.392   4.991
 9673SOL     OW29917   3.770   4.704   6.852
 9673SOL    HW129918   3.766   4.670   6.758
 9673SOL    HW229919   3.772   4.804   6.851
 9674SOL     OW29920   2.876   5.984   1.716
 9674SOL    HW129921   2.870   5.984   1.816
 9674SOL    HW229922   2.807   5.923   1.678
 9675SOL     OW29923   6.038   1.029   2.110
 9675SOL    HW129924   6.133   1.038   2.139
 9675SOL    HW229925   6.010   1.110   2.058
 9676SOL     OW29926   1.254   3.268   5.492
 9676SOL    HW129927   1.237   3.331   5.416
 9676SOL    HW229928   1.343   3.288   5.532
 9677SOL     OW29929   2.674   4.168   5.937
 9677SOL    HW129930   2.657   4.070   5.948
 9677SOL    HW229931   2.630   4.200   5.853
 9678SOL     OW29932   4.155   3.357   2.649
 9678SOL    HW129933   4.255   3.354   2.640
 9678SOL    HW229934   4.125   3.280   2.706
 9679SOL     OW29935   0.992   3.088   2.205
 9679SOL    HW129936   0.974   3.151   2.129
 9679SOL    HW229937   0.938   3.116   2.285
 9680SOL     OW29938   5.533   6.453   3.376
 9680SOL    HW129939   5.606   6.519   3.393
 9680SOL    HW229940   5.452   6.479   3.429
 9681SOL     OW29941   2.140   0.729   1.361
 9681SOL    HW129942   2.144   0.741   1.262
 9681SOL    HW229943   2.230   0.701   1.395
 9682SOL     OW29944   5.267   4.997   2.959
 9682SOL    HW129945   5.183   5.013   3.012
 9682SOL    HW229946   5.339   5.058   2.993
 9683SOL     OW29947   3.971   5.413   0.252
 9683SOL    HW129948   4.050   5.458   0.211
 9683SOL    HW229949   3.989   5.314   0.260
 9684SOL     OW29950   0.093   3.696   4.760
 9684SOL    HW129951   0.046   3.772   4.805
 9684SOL    HW229952   0.087   3.615   4.818
 9685SOL     OW29953   2.440   3.028   1.349
 9685SOL    HW129954   2.480   2.962   1.285
 9685SOL    HW229955   2.375   2.981   1.408
 9686SOL     OW29956   7.017   1.341   1.445
 9686SOL    HW129957   7.000   1.387   1.358
 9686SOL    HW229958   0.070   1.379   1.487
 9687SOL     OW29959   2.380   0.673   2.985
 9687SOL    HW129960   2.430   0.695   3.069
 9687SOL    HW229961   2.445   0.659   2.911
 9688SOL     OW29962   0.362   2.220   3.143
 9688SOL    HW129963   0.335   2.188   3.052
 9688SOL    HW229964   0.318   2.308   3.160
 9689SOL     OW29965   2.139   6.600   6.830
 9689SOL    HW129966   2.141   6.504   6.801
 9689SOL    HW229967   2.230   6.627   6.862
 9690SOL     OW29968   6.466   5.041   0.217
 9690SOL    HW129969   6.466   4.947   0.182
 9690SOL    HW229970   6.537   5.049   0.288
 9691SOL     OW29971   1.920   4.818   1.705
 9691SOL    HW129972   2.012   4.779   1.699
 9691SOL    HW229973   1.926   4.915   1.730
 9692SOL     OW29974   2.801   5.139   2.094
 9692SOL    HW129975   2.831   5.205   2.164
 9692SOL    HW229976   2.881   5.093   2.056
 9693SOL     OW29977   6.642   5.322   1.929
 9693SOL    HW129978   6.600   5.305   1.840
 9693SOL    HW229979   6.599   5.402   1.971
 9694SOL     OW29980   2.039   2.050   6.940
 9694SOL    HW129981   1.982   2.030   7.019
 9694SOL    HW229982   2.133   2.067   6.970
 9695SOL     OW29983   6.099   4.546   0.401
 9695SOL    HW129984   6.094   4.490   0.318
 9695SOL    HW229985   6.163   4.504   0.465
 9696SOL     OW29986   3.874   2.790   1.588
 9696SOL    HW129987   3.804   2.790   1.659
 9696SOL    HW229988   3.950   2.849   1.617
 9697SOL     OW29989   0.816   4.991   6.984
 9697SOL    HW129990   0.781   5.080   6.957
 9697SOL    HW229991   0.833   4.990   0.053
 9698SOL     OW29992   5.593   0.780   4.878
 9698SOL    HW129993   5.684   0.801   4.840
 9698SOL    HW229994   5.527   0.777   4.803
 9699SOL     OW29995   0.869   3.784   6.082
 9699SOL    HW129996   0.845   3.879   6.065
 9699SOL    HW229997   0.958   3.764   6.039
 9700SOL     OW29998   3.617   4.977   5.386
 9700SOL    HW129999   3.597   4.978   5.288
 9700SOL    HW230000   3.638   4.883   5.414
 9701SOL     OW30001   3.781   6.051   5.116
 9701SOL    HW130002   3.806   6.046   5.213
 9701SOL    HW230003   3.782   5.959   5.077
 9702SOL     OW30004   5.147   1.126   0.605
 9702SOL    HW130005   5.099   1.164   0.526
 9702SOL    HW230006   5.243   1.113   0.583
 9703SOL     OW30007   3.046   5.755   4.269
 9703SOL    HW130008   3.062   5.722   4.176
 9703SOL    HW230009   3.069   5.682   4.334
 9704SOL     OW30010   3.356   6.973   2.945
 9704SOL    HW130011   3.420   0.020   2.943
 9704SOL    HW230012   3.397   6.893   2.901
 9705SOL     OW30013   4.198   5.094   0.153
 9705SOL    HW130014   4.106   5.090   0.192
 9705SOL    HW230015   4.200   5.161   0.078
 9706SOL     OW30016   6.542   2.488   0.973
 9706SOL    HW130017   6.522   2.409   1.030
 9706SOL    HW230018   6.469   2.555   0.981
 9707SOL     OW30019   0.847   4.055   2.233
 9707SOL    HW130020   0.877   3.964   2.205
 9707SOL    HW230021   0.749   4.066   2.215
 9708SOL     OW30022   1.844   2.687   3.806
 9708SOL    HW130023   1.756   2.647   3.831
 9708SOL    HW230024   1.914   2.616   3.809
 9709SOL     OW30025   1.000   6.494   3.620
 9709SOL    HW130026   1.097   6.518   3.628
 9709SOL    HW230027   0.992   6.408   3.570
 9710SOL     OW30028   0.482   0.866   3.096
 9710SOL    HW130029   0.521   0.880   3.005
 9710SOL    HW230030   0.516   0.779   3.133
 9711SOL     OW30031   1.540   2.996   5.992
 9711SOL    HW130032   1.488   2.987   5.908
 9711SOL    HW230033   1.596   2.914   6.005
 9712SOL     OW30034   5.495   2.262   4.677
 9712SOL    HW130035   5.414   2.301   4.720
 9712SOL    HW230036   5.574   2.277   4.736
 9713SOL     OW30037   0.312   4.549   3.002
 9713SOL    HW130038   0.365   4.633   3.015
 9713SOL    HW230039   0.375   4.472   2.989
 9714SOL     OW30040   2.268   1.337   1.384
 9714SOL    HW130041   2.315   1.314   1.469
 9714SOL    HW230042   2.306   1.422   1.347
 9715SOL     OW30043   5.885   5.689   4.787
 9715SOL    HW130044   5.961   5.716   4.728
 9715SOL    HW230045   5.890   5.591   4.807
 9716SOL     OW30046   3.903   2.070   6.460
 9716SOL    HW130047   3.843   2.017   6.400
 9716SOL    HW230048   3.956   2.135   6.405
 9717SOL     OW30049   5.108   5.775   4.253
 9717SOL    HW130050   5.159   5.788   4.168
 9717SOL    HW230051   5.171   5.750   4.327
 9718SOL     OW30052   3.887   2.996   1.384
 9718SOL    HW130053   3.882   2.950   1.473
 9718SOL    HW230054   3.795   3.008   1.347
 9719SOL     OW30055   0.965   2.233   0.670
 9719SOL    HW130056   1.032   2.306   0.655
 9719SOL    HW230057   0.893   2.241   0.601
 9720SOL     OW30058   0.379   6.031   2.209
 9720SOL    HW130059   0.443   6.015   2.133
 9720SOL    HW230060   0.379   5.952   2.270
 9721SOL     OW30061   0.689   3.104   1.852
 9721SOL    HW130062   0.623   3.138   1.918
 9721SOL    HW230063   0.718   3.012   1.878
 9722SOL     OW30064   0.328   0.748   3.595
 9722SOL    HW130065   0.332   0.704   3.685
 9722SOL    HW230066   0.239   0.792   3.583
 9723SOL     OW30067   0.725   6.679   3.071
 9723SOL    HW130068   0.686   6.732   2.996
 9723SOL    HW230069   0.791   6.734   3.121
 9724SOL     OW30070   2.897   2.645   1.714
 9724SOL    HW130071   2.803   2.677   1.708
 9724SOL    HW230072   2.900   2.557   1.762
 9725SOL     OW30073   4.375   3.193   6.373
 9725SOL    HW130074   4.442   3.207   6.300
 9725SOL    HW230075   4.422   3.174   6.459
 9726SOL     OW30076   5.449   6.968   4.881
 9726SOL    HW130077   5.472   0.015   4.940
 9726SOL    HW230078   5.362   6.986   4.835
 9727SOL     OW30079   1.260   3.668   5.631
 9727SOL    HW130080   1.169   3.660   5.671
 9727SOL    HW230081   1.325   3.613   5.683
 9728SOL     OW30082   1.528   6.527   6.489
 9728SOL    HW130083   1.473   6.592   6.542
 9728SOL    HW230084   1.590   6.577   6.428
 9729SOL     OW30085   1.314   4.469   3.050
 9729SOL    HW130086   1.234   4.488   3.106
 9729SOL    HW230087   1.291   4.399   2.982
 9730SOL     OW30088   6.875   3.413   2.754
 9730SOL    HW130089   6.925   3.344   2.807
 9730SOL    HW230090   6.777   3.407   2.776
 9731SOL     OW30091   4.191   5.048   0.520
 9731SOL    HW130092   4.125   5.096   0.577
 9731SOL    HW230093   4.147   5.020   0.434
 9732SOL     OW30094   0.191   5.837   2.566
 9732SOL    HW130095   0.125   5.843   2.640
 9732SOL    HW230096   0.152   5.784   2.491
 9733SOL     OW30097   5.828   4.787   4.771
 9733SOL    HW130098   5.835   4.744   4.680
 9733SOL    HW230099   5.920   4.805   4.806
 9734SOL     OW30100   5.828   1.789   3.993
 9734SOL    HW130101   5.808   1.827   4.083
 9734SOL    HW230102   5.848   1.692   4.001
 9735SOL     OW30103   2.161   5.088   2.856
 9735SOL    HW130104   2.147   5.009   2.916
 9735SOL    HW230105   2.174   5.170   2.911
 9736SOL     OW30106   5.577   0.835   6.997
 9736SOL    HW130107   5.643   0.762   6.979
 9736SOL    HW230108   5.540   0.869   6.911
 9737SOL     OW30109   4.058   2.214   4.796
 9737SOL    HW130110   4.046   2.190   4.892
 9737SOL    HW230111   4.116   2.295   4.789
 9738SOL     OW30112   1.141   0.780   3.253
 9738SOL    HW130113   1.061   0.800   3.197
 9738SOL    HW230114   1.224   0.797   3.199
 9739SOL     OW30115   6.861   4.823   1.743
 9739SOL    HW130116   6.858   4.852   1.838
 9739SOL    HW230117   6.953   4.839   1.706
 9740SOL     OW30118   6.049   3.777   2.849
 9740SOL    HW130119   6.093   3.762   2.761
 9740SOL    HW230120   6.004   3.693   2.879
 9741SOL     OW30121   4.661   1.458   2.711
 9741SOL    HW130122   4.732   1.473   2.779
 9741SOL    HW230123   4.596   1.390   2.745
 9742SOL     OW30124   5.198   0.611   3.013
 9742SOL    HW130125   5.286   0.571   3.038
 9742SOL    HW230126   5.166   0.671   3.085
 9743SOL     OW30127   1.743   2.743   5.975
 9743SOL    HW130128   1.738   2.740   6.075
 9743SOL    HW230129   1.735   2.650   5.938
 9744SOL     OW30130   1.641   0.684   2.202
 9744SOL    HW130131   1.582   0.722   2.130
 9744SOL    HW230132   1.613   0.721   2.291
 9745SOL     OW30133   0.771   2.444   4.764
 9745SOL    HW130134   0.718   2.366   4.797
 9745SOL    HW230135   0.714   2.526   4.766
 9746SOL     OW30136   5.166   1.190   5.612
 9746SOL    HW130137   5.176   1.288   5.594
 9746SOL    HW230138   5.256   1.149   5.624
 9747SOL     OW30139   1.508   0.950   1.319
 9747SOL    HW130140   1.539   0.862   1.283
 9747SOL    HW230141   1.415   0.941   1.353
 9748SOL     OW30142   1.388   6.079   4.490
 9748SOL    HW130143   1.403   6.129   4.405
 9748SOL    HW230144   1.290   6.070   4.507
 9749SOL     OW30145   1.201   3.103   5.186
 9749SOL    HW130146   1.231   3.166   5.114
 9749SOL    HW230147   1.280   3.062   5.230
 9750SOL     OW30148   5.353   4.786   3.583
 9750SOL    HW130149   5.362   4.854   3.656
 9750SOL    HW230150   5.344   4.695   3.624
 9751SOL     OW30151   1.711   2.222   0.994
 9751SOL    HW130152   1.656   2.197   1.074
 9751SOL    HW230153   1.752   2.312   1.008
 9752SOL     OW30154   4.479   0.376   6.397
 9752SOL    HW130155   4.422   0.457   6.405
 9752SOL    HW230156   4.540   0.384   6.318
 9753SOL     OW30157   6.513   6.322   4.938
 9753SOL    HW130158   6.493   6.352   5.031
 9753SOL    HW230159   6.593   6.262   4.939
 9754SOL     OW30160   1.464   1.463   6.962
 9754SOL    HW130161   1.472   1.377   7.012
 9754SOL    HW230162   1.376   1.506   6.983
 9755SOL     OW30163   4.039   3.486   4.758
 9755SOL    HW130164   3.992   3.461   4.843
 9755SOL    HW230165   4.035   3.409   4.694
 9756SOL     OW30166   5.791   3.037   6.973
 9756SOL    HW130167   5.777   2.961   0.007
 9756SOL    HW230168   5.884   3.072   6.984
 9757SOL     OW30169   5.308   3.180   3.328
 9757SOL    HW130170   5.372   3.113   3.366
 9757SOL    HW230171   5.254   3.220   3.403
 9758SOL     OW30172   2.279   0.056   6.155
 9758SOL    HW130173   2.303   0.039   6.060
 9758SOL    HW230174   2.194   0.110   6.159
 9759SOL     OW30175   1.587   6.338   1.311
 9759SOL    HW130176   1.628   6.415   1.263
 9759SOL    HW230177   1.508   6.369   1.363
 9760SOL     OW30178   5.324   4.673   4.531
 9760SOL    HW130179   5.335   4.757   4.584
 9760SOL    HW230180   5.314   4.696   4.434
 9761SOL     OW30181   5.848   4.800   1.676
 9761SOL    HW130182   5.858   4.752   1.589
 9761SOL    HW230183   5.751   4.807   1.700
 9762SOL     OW30184   2.014   1.964   4.738
 9762SOL    HW130185   1.975   1.872   4.736
 9762SOL    HW230186   1.945   2.029   4.771
 9763SOL     OW30187   4.434   1.041   1.633
 9763SOL    HW130188   4.365   1.101   1.672
 9763SOL    HW230189   4.446   0.960   1.691
 9764SOL     OW30190   1.511   2.404   3.487
 9764SOL    HW130191   1.448   2.478   3.464
 9764SOL    HW230192   1.577   2.435   3.555
 9765SOL     OW30193   6.473   2.199   5.288
 9765SOL    HW130194   6.476   2.116   5.344
 9765SOL    HW230195   6.422   2.180   5.204
 9766SOL     OW30196   3.304   0.688   3.401
 9766SOL    HW130197   3.403   0.678   3.403
 9766SOL    HW230198   3.280   0.784   3.413
 9767SOL     OW30199   5.329   1.061   5.192
 9767SOL    HW130200   5.407   1.088   5.248
 9767SOL    HW230201   5.247   1.056   5.249
 9768SOL     OW30202   4.525   2.197   2.576
 9768SOL    HW130203   4.467   2.140   2.635
 9768SOL    HW230204   4.565   2.271   2.629
 9769SOL     OW30205   1.297   2.352   1.092
 9769SOL    HW130206   1.356   2.384   1.167
 9769SOL    HW230207   1.214   2.406   1.089
 9770SOL     OW30208   5.710   5.471   5.515
 9770SOL    HW130209   5.674   5.533   5.445
 9770SOL    HW230210   5.634   5.425   5.561
 9771SOL     OW30211   4.667   4.817   0.701
 9771SOL    HW130212   4.610   4.747   0.744
 9771SOL    HW230213   4.703   4.879   0.770
 9772SOL     OW30214   0.124   6.740   1.902
 9772SOL    HW130215   0.081   6.765   1.815
 9772SOL    HW230216   0.168   6.650   1.892
 9773SOL     OW30217   5.503   5.494   3.832
 9773SOL    HW130218   5.544   5.579   3.866
 9773SOL    HW230219   5.408   5.489   3.861
 9774SOL     OW30220   5.838   5.374   3.777
 9774SOL    HW130221   5.752   5.325   3.793
 9774SOL    HW230222   5.819   5.457   3.723
 9775SOL     OW30223   1.997   2.838   4.659
 9775SOL    HW130224   2.018   2.755   4.606
 9775SOL    HW230225   1.992   2.916   4.597
 9776SOL     OW30226   6.937   6.019   4.290
 9776SOL    HW130227   6.844   6.006   4.326
 9776SOL    HW230228   6.941   5.986   4.196
 9777SOL     OW30229   5.875   4.432   5.990
 9777SOL    HW130230   5.964   4.445   5.947
 9777SOL    HW230231   5.866   4.494   6.068
 9778SOL     OW30232   4.610   6.874   3.202
 9778SOL    HW130233   4.524   6.824   3.204
 9778SOL    HW230234   4.602   6.957   3.258
 9779SOL     OW30235   2.685   1.674   4.789
 9779SOL    HW130236   2.611   1.732   4.754
 9779SOL    HW230237   2.674   1.661   4.887
 9780SOL     OW30238   2.317   3.264   0.468
 9780SOL    HW130239   2.275   3.339   0.518
 9780SOL    HW230240   2.299   3.178   0.515
 9781SOL     OW30241   2.008   4.581   4.636
 9781SOL    HW130242   2.073   4.508   4.656
 9781SOL    HW230243   1.926   4.570   4.692
 9782SOL     OW30244   6.660   0.460   1.596
 9782SOL    HW130245   6.644   0.473   1.694
 9782SOL    HW230246   6.581   0.493   1.545
 9783SOL     OW30247   5.971   1.659   1.954
 9783SOL    HW130248   6.023   1.742   1.934
 9783SOL    HW230249   5.909   1.676   2.031
 9784SOL     OW30250   4.357   1.276   3.029
 9784SOL    HW130251   4.271   1.227   3.013
 9784SOL    HW230252   4.357   1.314   3.122
 9785SOL     OW30253   0.097   2.496   2.810
 9785SOL    HW130254   0.059   2.573   2.861
 9785SOL    HW230255   0.177   2.526   2.759
 9786SOL     OW30256   2.298   5.228   5.780
 9786SOL    HW130257   2.229   5.161   5.753
 9786SOL    HW230258   2.337   5.201   5.868
 9787SOL     OW30259   5.046   3.985   1.638
 9787SOL    HW130260   5.058   3.904   1.695
 9787SOL    HW230261   5.047   4.067   1.695
 9788SOL     OW30262   0.217   0.108   4.260
 9788SOL    HW130263   0.258   0.084   4.172
 9788SOL    HW230264   0.273   0.178   4.304
 9789SOL     OW30265   2.134   5.925   5.419
 9789SOL    HW130266   2.108   5.904   5.513
 9789SOL    HW230267   2.228   5.896   5.403
 9790SOL     OW30268   5.626   1.985   3.935
 9790SOL    HW130269   5.691   1.931   3.989
 9790SOL    HW230270   5.576   1.924   3.874
 9791SOL     OW30271   1.552   1.039   0.851
 9791SOL    HW130272   1.646   1.063   0.826
 9791SOL    HW230273   1.509   0.989   0.776
 9792SOL     OW30274   4.559   4.839   1.192
 9792SOL    HW130275   4.588   4.934   1.177
 9792SOL    HW230276   4.624   4.794   1.254
 9793SOL     OW30277   5.713   6.237   2.576
 9793SOL    HW130278   5.749   6.310   2.633
 9793SOL    HW230279   5.758   6.238   2.487
 9794SOL     OW30280   5.197   3.119   5.707
 9794SOL    HW130281   5.137   3.048   5.744
 9794SOL    HW230282   5.143   3.181   5.650
 9795SOL     OW30283   1.506   3.553   4.432
 9795SOL    HW130284   1.533   3.649   4.428
 9795SOL    HW230285   1.572   3.502   4.488
 9796SOL     OW30286   2.905   5.161   0.731
 9796SOL    HW130287   2.835   5.149   0.661
 9796SOL    HW230288   2.972   5.086   0.725
 9797SOL     OW30289   4.545   3.509   6.348
 9797SOL    HW130290   4.583   3.554   6.268
 9797SOL    HW230291   4.608   3.437   6.379
 9798SOL     OW30292   3.200   0.633   1.388
 9798SOL    HW130293   3.167   0.595   1.474
 9798SOL    HW230294   3.291   0.596   1.368
 9799SOL     OW30295   3.094   3.100   2.479
 9799SOL    HW130296   3.102   3.044   2.397
 9799SOL    HW230297   3.087   3.041   2.559
 9800SOL     OW30298   4.507   5.635   6.630
 9800SOL    HW130299   4.600   5.659   6.656
 9800SOL    HW230300   4.442   5.694   6.678
 9801SOL     OW30301   4.331   5.768   7.026
 9801SOL    HW130302   4.425   5.751   0.026
 9801SOL    HW230303   4.298   5.852   0.039
 9802SOL     OW30304   1.096   3.397   0.760
 9802SOL    HW130305   1.171   3.380   0.695
 9802SOL    HW230306   1.024   3.329   0.745
 9803SOL     OW30307   6.528   0.301   6.744
 9803SOL    HW130308   6.607   0.240   6.738
 9803SOL    HW230309   6.469   0.274   6.820
 9804SOL     OW30310   0.124   5.510   3.977
 9804SOL    HW130311   0.091   5.416   3.978
 9804SOL    HW230312   0.223   5.510   3.995
 9805SOL     OW30313   1.264   5.384   6.844
 9805SOL    HW130314   1.201   5.462   6.845
 9805SOL    HW230315   1.313   5.382   6.757
 9806SOL     OW30316   0.264   2.789   1.614
 9806SOL    HW130317   0.197   2.733   1.662
 9806SOL    HW230318   0.321   2.838   1.680
 9807SOL     OW30319   4.382   2.226   0.246
 9807SOL    HW130320   4.294   2.244   0.289
 9807SOL    HW230321   4.456   2.255   0.308
 9808SOL     OW30322   6.740   1.706   4.946
 9808SOL    HW130323   6.742   1.612   4.912
 9808SOL    HW230324   6.691   1.709   5.033
 9809SOL     OW30325   0.349   1.526   4.400
 9809SOL    HW130326   0.312   1.436   4.379
 9809SOL    HW230327   0.290   1.571   4.468
 9810SOL     OW30328   2.768   1.749   3.060
 9810SOL    HW130329   2.747   1.786   2.969
 9810SOL    HW230330   2.702   1.679   3.084
 9811SOL     OW30331   6.727   6.036   2.650
 9811SOL    HW130332   6.694   6.102   2.582
 9811SOL    HW230333   6.656   5.967   2.665
 9812SOL     OW30334   4.576   2.215   6.414
 9812SOL    HW130335   4.622   2.129   6.393
 9812SOL    HW230336   4.515   2.240   6.339
 9813SOL     OW30337   6.813   5.070   6.961
 9813SOL    HW130338   6.736   5.126   6.993
 9813SOL    HW230339   6.893   5.087   7.018
 9814SOL     OW30340   6.619   6.862   6.061
 9814SOL    HW130341   6.560   6.902   6.131
 9814SOL    HW230342   6.687   6.930   6.032
 9815SOL     OW30343   6.658   3.638   1.379
 9815SOL    HW130344   6.665   3.575   1.456
 9815SOL    HW230345   6.562   3.658   1.361
 9816SOL     OW30346   6.728   0.272   6.994
 9816SOL    HW130347   6.806   0.272   0.027
 9816SOL    HW230348   6.671   0.352   7.013
 9817SOL     OW30349   3.498   6.056   1.063
 9817SOL    HW130350   3.491   5.957   1.056
 9817SOL    HW230351   3.494   6.083   1.159
 9818SOL     OW30352   1.323   0.321   3.445
 9818SOL    HW130353   1.415   0.333   3.483
 9818SOL    HW230354   1.259   0.296   3.517
 9819SOL     OW30355   6.346   4.236   5.145
 9819SOL    HW130356   6.276   4.165   5.155
 9819SOL    HW230357   6.368   4.249   5.049
 9820SOL     OW30358   3.161   2.228   6.342
 9820SOL    HW130359   3.217   2.207   6.263
 9820SOL    HW230360   3.093   2.297   6.318
 9821SOL     OW30361   4.892   2.459   1.590
 9821SOL    HW130362   4.820   2.524   1.566
 9821SOL    HW230363   4.976   2.509   1.613
 9822SOL     OW30364   4.076   6.069   4.929
 9822SOL    HW130365   3.987   6.114   4.923
 9822SOL    HW230366   4.100   6.030   4.840
 9823SOL     OW30367   1.904   0.819   2.992
 9823SOL    HW130368   1.867   0.726   2.993
 9823SOL    HW230369   1.945   0.840   3.081
 9824SOL     OW30370   1.426   5.905   5.641
 9824SOL    HW130371   1.457   5.876   5.732
 9824SOL    HW230372   1.443   5.831   5.575
 9825SOL     OW30373   5.057   6.428   6.270
 9825SOL    HW130374   4.959   6.450   6.267
 9825SOL    HW230375   5.099   6.454   6.184
 9826SOL     OW30376   2.859   6.462   5.629
 9826SOL    HW130377   2.837   6.548   5.675
 9826SOL    HW230378   2.797   6.449   5.552
 9827SOL     OW30379   1.768   5.054   2.119
 9827SOL    HW130380   1.702   4.986   2.087
 9827SOL    HW230381   1.763   5.136   2.062
 9828SOL     OW30382   3.577   1.799   5.174
 9828SOL    HW130383   3.500   1.735   5.177
 9828SOL    HW230384   3.623   1.800   5.263
 9829SOL     OW30385   4.132   5.548   5.832
 9829SOL    HW130386   4.127   5.559   5.733
 9829SOL    HW230387   4.161   5.455   5.854
 9830SOL     OW30388   5.770   2.057   2.822
 9830SOL    HW130389   5.716   2.106   2.754
 9830SOL    HW230390   5.845   2.009   2.777
 9831SOL     OW30391   0.691   3.974   1.799
 9831SOL    HW130392   0.756   4.009   1.732
 9831SOL    HW230393   0.733   3.899   1.851
 9832SOL     OW30394   4.734   4.318   4.350
 9832SOL    HW130395   4.804   4.372   4.303
 9832SOL    HW230396   4.772   4.230   4.378
 9833SOL     OW30397   3.641   3.969   4.359
 9833SOL    HW130398   3.578   4.005   4.427
 9833SOL    HW230399   3.735   3.991   4.386
 9834SOL     OW30400   2.508   5.548   5.477
 9834SOL    HW130401   2.493   5.459   5.519
 9834SOL    HW230402   2.573   5.601   5.533
 9835SOL     OW30403   3.875   4.128   5.034
 9835SOL    HW130404   3.894   4.030   5.037
 9835SOL    HW230405   3.904   4.165   4.946
 9836SOL     OW30406   0.798   3.563   5.619
 9836SOL    HW130407   0.824   3.487   5.560
 9836SOL    HW230408   0.767   3.640   5.562
 9837SOL     OW30409   5.029   2.310   1.791
 9837SOL    HW130410   5.023   2.355   1.880
 9837SOL    HW230411   4.964   2.353   1.727
 9838SOL     OW30412   0.743   6.416   1.872
 9838SOL    HW130413   0.806   6.367   1.811
 9838SOL    HW230414   0.670   6.457   1.819
 9839SOL     OW30415   4.358   0.578   2.424
 9839SOL    HW130416   4.375   0.484   2.453
 9839SOL    HW230417   4.281   0.580   2.360
 9840SOL     OW30418   6.091   1.700   6.781
 9840SOL    HW130419   6.083   1.618   6.724
 9840SOL    HW230420   6.041   1.775   6.739
 9841SOL     OW30421   6.950   6.297   3.588
 9841SOL    HW130422   6.985   6.237   3.660
 9841SOL    HW230423   7.022   6.360   3.559
 9842SOL     OW30424   2.501   2.330   6.618
 9842SOL    HW130425   2.536   2.423   6.605
 9842SOL    HW230426   2.555   2.284   6.689
 9843SOL     OW30427   0.021   6.726   1.154
 9843SOL    HW130428   6.971   6.674   1.183
 9843SOL    HW230429   0.036   6.713   1.056
 9844SOL     OW30430   4.906   6.958   4.262
 9844SOL    HW130431   4.849   6.890   4.307
 9844SOL    HW230432   4.975   6.913   4.205
 9845SOL     OW30433   1.711   3.339   1.714
 9845SOL    HW130434   1.657   3.371   1.636
 9845SOL    HW230435   1.651   3.324   1.792
 9846SOL     OW30436   5.149   1.066   1.310
 9846SOL    HW130437   5.175   0.981   1.356
 9846SOL    HW230438   5.116   1.132   1.378
 9847SOL     OW30439   4.283   4.230   0.597
 9847SOL    HW130440   4.310   4.135   0.612
 9847SOL    HW230441   4.269   4.275   0.685
 9848SOL     OW30442   3.776   3.929   5.333
 9848SOL    HW130443   3.729   3.997   5.389
 9848SOL    HW230444   3.729   3.841   5.341
 9849SOL     OW30445   0.630   1.893   5.260
 9849SOL    HW130446   0.572   1.965   5.222
 9849SOL    HW230447   0.577   1.809   5.270
 9850SOL     OW30448   0.590   0.562   4.688
 9850SOL    HW130449   0.563   0.657   4.703
 9850SOL    HW230450   0.657   0.535   4.756
 9851SOL     OW30451   3.936   4.846   4.553
 9851SOL    HW130452   3.896   4.867   4.464
 9851SOL    HW230453   4.027   4.807   4.540
 9852SOL     OW30454   2.259   1.829   6.981
 9852SOL    HW130455   2.255   1.879   0.039
 9852SOL    HW230456   2.332   1.761   6.986
 9853SOL     OW30457   0.034   4.270   3.682
 9853SOL    HW130458   6.999   4.259   3.757
 9853SOL    HW230459   0.116   4.317   3.715
 9854SOL     OW30460   0.969   5.361   6.108
 9854SOL    HW130461   0.896   5.409   6.060
 9854SOL    HW230462   0.936   5.333   6.199
 9855SOL     OW30463   2.020   3.839   1.711
 9855SOL    HW130464   2.004   3.903   1.636
 9855SOL    HW230465   2.094   3.874   1.769
 9856SOL     OW30466   5.924   3.966   3.119
 9856SOL    HW130467   5.921   3.866   3.109
 9856SOL    HW230468   6.010   4.000   3.082
 9857SOL     OW30469   3.941   1.640   4.239
 9857SOL    HW130470   3.949   1.728   4.286
 9857SOL    HW230471   4.032   1.599   4.231
 9858SOL     OW30472   6.582   6.222   2.496
 9858SOL    HW130473   6.624   6.312   2.505
 9858SOL    HW230474   6.550   6.209   2.402
 9859SOL     OW30475   0.187   5.644   3.712
 9859SOL    HW130476   0.196   5.586   3.793
 9859SOL    HW230477   0.267   5.634   3.654
 9860SOL     OW30478   1.602   3.157   5.002
 9860SOL    HW130479   1.620   3.061   4.983
 9860SOL    HW230480   1.666   3.190   5.072
 9861SOL     OW30481   3.709   1.178   4.029
 9861SOL    HW130482   3.733   1.272   4.055
 9861SOL    HW230483   3.619   1.178   3.986
 9862SOL     OW30484   1.135   5.645   0.670
 9862SOL    HW130485   1.164   5.568   0.613
 9862SOL    HW230486   1.212   5.708   0.682
 9863SOL     OW30487   4.244   6.353   0.792
 9863SOL    HW130488   4.300   6.302   0.857
 9863SOL    HW230489   4.234   6.447   0.823
 9864SOL     OW30490   2.826   6.061   5.151
 9864SOL    HW130491   2.843   6.124   5.076
 9864SOL    HW230492   2.745   6.006   5.131
 9865SOL     OW30493   0.556   6.320   5.528
 9865SOL    HW130494   0.641   6.286   5.568
 9865SOL    HW230495   0.550   6.419   5.540
 9866SOL     OW30496   6.188   5.365   4.357
 9866SOL    HW130497   6.198   5.308   4.276
 9866SOL    HW230498   6.272   5.361   4.411
 9867SOL     OW30499   4.696   2.335   1.433
 9867SOL    HW130500   4.659   2.397   1.365
 9867SOL    HW230501   4.777   2.377   1.476
 9868SOL     OW30502   1.564   4.255   3.389
 9868SOL    HW130503   1.487   4.191   3.395
 9868SOL    HW230504   1.548   4.331   3.452
 9869SOL     OW30505   6.857   2.512   0.585
 9869SOL    HW130506   6.881   2.550   0.496
 9869SOL    HW230507   6.770   2.552   0.615
 9870SOL     OW30508   3.015   1.311   2.264
 9870SOL    HW130509   3.089   1.355   2.212
 9870SOL    HW230510   2.976   1.236   2.210
 9871SOL     OW30511   0.048   4.041   4.397
 9871SOL    HW130512   0.085   3.964   4.347
 9871SOL    HW230513   0.120   4.109   4.412
 9872SOL     OW30514   1.634   5.229   5.534
 9872SOL    HW130515   1.632   5.132   5.558
 9872SOL    HW230516   1.716   5.249   5.480
 9873SOL     OW30517   1.789   1.591   5.400
 9873SOL    HW130518   1.799   1.680   5.444
 9873SOL    HW230519   1.698   1.554   5.420
 9874SOL     OW30520   0.213   2.963   4.624
 9874SOL    HW130521   0.148   3.002   4.689
 9874SOL    HW230522   0.303   2.960   4.666
 9875SOL     OW30523   6.801   5.607   0.823
 9875SOL    HW130524   6.824   5.537   0.755
 9875SOL    HW230525   6.804   5.567   0.914
 9876SOL     OW30526   2.195   6.811   3.498
 9876SOL    HW130527   2.244   6.831   3.413
 9876SOL    HW230528   2.236   6.731   3.542
 9877SOL     OW30529   0.601   5.585   5.048
 9877SOL    HW130530   0.551   5.503   5.022
 9877SOL    HW230531   0.691   5.560   5.083
 9878SOL     OW30532   2.312   2.903   0.037
 9878SOL    HW130533   2.335   2.949   6.981
 9878SOL    HW230534   2.258   2.966   0.095
 9879SOL     OW30535   0.442   5.045   6.389
 9879SOL    HW130536   0.372   5.022   6.456
 9879SOL    HW230537   0.510   4.972   6.386
 9880SOL     OW30538   2.799   1.542   0.448
 9880SOL    HW130539   2.824   1.617   0.509
 9880SOL    HW230540   2.703   1.517   0.463
 9881SOL     OW30541   5.704   0.163   4.531
 9881SOL    HW130542   5.770   0.187   4.603
 9881SOL    HW230543   5.652   0.244   4.505
 9882SOL     OW30544   3.997   3.319   4.507
 9882SOL    HW130545   3.959   3.409   4.486
 9882SOL    HW230546   4.023   3.273   4.422
 9883SOL     OW30547   2.383   0.169   1.103
 9883SOL    HW130548   2.360   0.256   1.146
 9883SOL    HW230549   2.458   0.126   1.152
 9884SOL     OW30550   2.411   3.683   6.260
 9884SOL    HW130551   2.325   3.657   6.302
 9884SOL    HW230552   2.401   3.683   6.160
 9885SOL     OW30553   6.331   3.532   4.391
 9885SOL    HW130554   6.393   3.605   4.418
 9885SOL    HW230555   6.382   3.447   4.377
 9886SOL     OW30556   4.637   6.058   1.220
 9886SOL    HW130557   4.633   6.080   1.122
 9886SOL    HW230558   4.703   5.985   1.236
 9887SOL     OW30559   3.713   0.170   7.029
 9887SOL    HW130560   3.777   0.189   6.955
 9887SOL    HW230561   3.748   0.093   0.054
 9888SOL     OW30562   5.785   5.043   2.526
 9888SOL    HW130563   5.872   5.086   2.501
 9888SOL    HW230564   5.722   5.050   2.449
 9889SOL     OW30565   0.071   4.976   3.404
 9889SOL    HW130566   7.014   4.930   3.384
 9889SOL    HW230567   0.076   5.061   3.352
 9890SOL     OW30568   6.894   4.079   1.959
 9890SOL    HW130569   6.900   4.178   1.944
 9890SOL    HW230570   6.852   4.037   1.878
 9891SOL     OW30571   6.045   4.837   0.924
 9891SOL    HW130572   6.056   4.758   0.864
 9891SOL    HW230573   6.098   4.914   0.889
 9892SOL     OW30574   2.347   5.402   4.316
 9892SOL    HW130575   2.404   5.424   4.396
 9892SOL    HW230576   2.393   5.331   4.262
 9893SOL     OW30577   5.366   5.015   3.251
 9893SOL    HW130578   5.347   4.926   3.210
 9893SOL    HW230579   5.455   5.012   3.296
 9894SOL     OW30580   3.782   3.082   6.210
 9894SOL    HW130581   3.744   3.110   6.121
 9894SOL    HW230582   3.882   3.086   6.206
 9895SOL     OW30583   5.101   2.440   6.947
 9895SOL    HW130584   5.194   2.473   6.963
 9895SOL    HW230585   5.071   2.467   6.856
 9896SOL     OW30586   4.386   4.424   0.826
 9896SOL    HW130587   4.407   4.446   0.731
 9896SOL    HW230588   4.370   4.509   0.877
 9897SOL     OW30589   5.951   2.091   3.050
 9897SOL    HW130590   5.925   2.184   3.024
 9897SOL    HW230591   5.969   2.037   2.967
 9898SOL     OW30592   1.319   5.499   5.448
 9898SOL    HW130593   1.340   5.412   5.493
 9898SOL    HW230594   1.392   5.565   5.468
 9899SOL     OW30595   4.962   5.208   2.075
 9899SOL    HW130596   4.895   5.135   2.058
 9899SOL    HW230597   5.035   5.173   2.133
 9900SOL     OW30598   1.238   2.621   4.163
 9900SOL    HW130599   1.185   2.636   4.246
 9900SOL    HW230600   1.316   2.684   4.161
 9901SOL     OW30601   2.860   2.928   5.861
 9901SOL    HW130602   2.952   2.895   5.841
 9901SOL    HW230603   2.865   3.006   5.924
 9902SOL     OW30604   3.899   3.294   0.226
 9902SOL    HW130605   3.924   3.356   0.301
 9902SOL    HW230606   3.873   3.205   0.264
 9903SOL     OW30607   4.305   2.305   1.631
 9903SOL    HW130608   4.391   2.263   1.602
 9903SOL    HW230609   4.323   2.396   1.668
 9904SOL     OW30610   6.605   1.301   1.048
 9904SOL    HW130611   6.537   1.263   1.111
 9904SOL    HW230612   6.566   1.379   1.000
 9905SOL     OW30613   1.444   0.206   5.841
 9905SOL    HW130614   1.535   0.239   5.862
 9905SOL    HW230615   1.416   0.138   5.909
 9906SOL     OW30616   2.618   3.197   6.541
 9906SOL    HW130617   2.606   3.101   6.565
 9906SOL    HW230618   2.564   3.254   6.603
 9907SOL     OW30619   2.730   6.079   2.589
 9907SOL    HW130620   2.794   6.085   2.513
 9907SOL    HW230621   2.739   6.160   2.646
 9908SOL     OW30622   1.359   3.802   5.980
 9908SOL    HW130623   1.266   3.787   6.015
 9908SOL    HW230624   1.364   3.771   5.885
 9909SOL     OW30625   3.095   0.881   2.939
 9909SOL    HW130626   3.018   0.819   2.921
 9909SOL    HW230627   3.160   0.874   2.863
 9910SOL     OW30628   6.436   3.850   0.586
 9910SOL    HW130629   6.504   3.865   0.514
 9910SOL    HW230630   6.450   3.759   0.626
 9911SOL     OW30631   3.449   4.911   3.360
 9911SOL    HW130632   3.517   4.865   3.418
 9911SOL    HW230633   3.359   4.901   3.402
 9912SOL     OW30634   4.800   0.305   1.182
 9912SOL    HW130635   4.741   0.327   1.104
 9912SOL    HW230636   4.744   0.292   1.264
 9913SOL     OW30637   4.803   2.137   2.884
 9913SOL    HW130638   4.856   2.077   2.824
 9913SOL    HW230639   4.834   2.232   2.872
 9914SOL     OW30640   1.061   0.482   4.862
 9914SOL    HW130641   1.013   0.503   4.777
 9914SOL    HW230642   1.035   0.391   4.894
 9915SOL     OW30643   5.215   3.539   4.113
 9915SOL    HW130644   5.187   3.621   4.063
 9915SOL    HW230645   5.149   3.519   4.185
 9916SOL     OW30646   2.357   2.600   2.402
 9916SOL    HW130647   2.327   2.534   2.334
 9916SOL    HW230648   2.428   2.560   2.459
 9917SOL     OW30649   2.829   3.694   5.794
 9917SOL    HW130650   2.884   3.769   5.757
 9917SOL    HW230651   2.790   3.641   5.718
 9918SOL     OW30652   2.062   1.549   5.612
 9918SOL    HW130653   2.059   1.453   5.583
 9918SOL    HW230654   2.144   1.593   5.577
 9919SOL     OW30655   0.682   5.351   2.980
 9919SOL    HW130656   0.750   5.355   3.053
 9919SOL    HW230657   0.624   5.432   2.984
 9920SOL     OW30658   4.358   6.390   1.420
 9920SOL    HW130659   4.303   6.410   1.501
 9920SOL    HW230660   4.422   6.465   1.404
 9921SOL     OW30661   5.864   0.429   3.298
 9921SOL    HW130662   5.955   0.461   3.272
 9921SOL    HW230663   5.845   0.342   3.252
 9922SOL     OW30664   4.283   4.833   0.670
 9922SOL    HW130665   4.368   4.876   0.701
 9922SOL    HW230666   4.236   4.894   0.605
 9923SOL     OW30667   6.494   2.140   6.071
 9923SOL    HW130668   6.406   2.188   6.080
 9923SOL    HW230669   6.556   2.170   6.144
 9924SOL     OW30670   6.693   1.116   2.941
 9924SOL    HW130671   6.605   1.128   2.987
 9924SOL    HW230672   6.692   1.031   2.889
 9925SOL     OW30673   2.623   2.617   5.380
 9925SOL    HW130674   2.662   2.683   5.444
 9925SOL    HW230675   2.561   2.664   5.316
 9926SOL     OW30676   1.002   1.064   0.496
 9926SOL    HW130677   1.052   1.150   0.502
 9926SOL    HW230678   1.052   0.993   0.547
 9927SOL     OW30679   0.556   1.724   2.121
 9927SOL    HW130680   0.459   1.700   2.129
 9927SOL    HW230681   0.598   1.724   2.212
 9928SOL     OW30682   0.094   4.052   2.368
 9928SOL    HW130683   0.058   3.980   2.429
 9928SOL    HW230684   0.192   4.063   2.384
 9929SOL     OW30685   2.675   4.092   0.289
 9929SOL    HW130686   2.705   4.188   0.296
 9929SOL    HW230687   2.593   4.088   0.232
 9930SOL     OW30688   6.871   6.689   6.443
 9930SOL    HW130689   6.868   6.598   6.403
 9930SOL    HW230690   6.873   6.758   6.370
 9931SOL     OW30691   1.494   5.734   5.865
 9931SOL    HW130692   1.580   5.694   5.898
 9931SOL    HW230693   1.433   5.752   5.942
 9932SOL     OW30694   1.353   1.560   0.401
 9932SOL    HW130695   1.416   1.591   0.473
 9932SOL    HW230696   1.348   1.630   0.330
 9933SOL     OW30697   2.160   1.562   3.642
 9933SOL    HW130698   2.239   1.506   3.617
 9933SOL    HW230699   2.087   1.502   3.675
 9934SOL     OW30700   4.217   1.179   5.899
 9934SOL    HW130701   4.196   1.086   5.926
 9934SOL    HW230702   4.248   1.180   5.804
 9935SOL     OW30703   2.832   1.953   0.837
 9935SOL    HW130704   2.791   2.040   0.865
 9935SOL    HW230705   2.931   1.955   0.855
 9936SOL     OW30706   5.901   5.728   5.552
 9936SOL    HW130707   5.872   5.811   5.504
 9936SOL    HW230708   5.974   5.683   5.500
 9937SOL     OW30709   0.483   6.911   3.324
 9937SOL    HW130710   0.530   6.998   3.340
 9937SOL    HW230711   0.546   6.835   3.339
 9938SOL     OW30712   6.618   1.438   4.112
 9938SOL    HW130713   6.637   1.534   4.092
 9938SOL    HW230714   6.530   1.412   4.072
 9939SOL     OW30715   2.564   4.466   1.422
 9939SOL    HW130716   2.602   4.420   1.341
 9939SOL    HW230717   2.598   4.420   1.504
 9940SOL     OW30718   0.573   0.627   3.208
 9940SOL    HW130719   0.620   0.651   3.293
 9940SOL    HW230720   0.476   0.614   3.227
 9941SOL     OW30721   5.186   5.117   6.471
 9941SOL    HW130722   5.148   5.169   6.395
 9941SOL    HW230723   5.281   5.092   6.451
 9942SOL     OW30724   4.854   4.989   3.394
 9942SOL    HW130725   4.923   4.976   3.465
 9942SOL    HW230726   4.879   4.936   3.313
 9943SOL     OW30727   2.268   3.924   6.730
 9943SOL    HW130728   2.219   3.939   6.816
 9943SOL    HW230729   2.366   3.922   6.748
 9944SOL     OW30730   1.054   4.724   0.412
 9944SOL    HW130731   1.053   4.820   0.438
 9944SOL    HW230732   1.147   4.697   0.385
 9945SOL     OW30733   5.576   3.617   6.636
 9945SOL    HW130734   5.675   3.626   6.649
 9945SOL    HW230735   5.557   3.534   6.584
 9946SOL     OW30736   5.359   1.421   2.400
 9946SOL    HW130737   5.265   1.433   2.432
 9946SOL    HW230738   5.383   1.496   2.339
 9947SOL     OW30739   1.429   1.604   3.899
 9947SOL    HW130740   1.455   1.664   3.824
 9947SOL    HW230741   1.404   1.514   3.863
 9948SOL     OW30742   6.143   0.102   3.965
 9948SOL    HW130743   6.107   0.145   4.047
 9948SOL    HW230744   6.242   0.113   3.962
 9949SOL     OW30745   6.199   4.959   4.180
 9949SOL    HW130746   6.236   4.906   4.105
 9949SOL    HW230747   6.189   4.901   4.261
 9950SOL     OW30748   6.180   4.740   5.482
 9950SOL    HW130749   6.140   4.830   5.495
 9950SOL    HW230750   6.142   4.676   5.550
 9951SOL     OW30751   0.578   2.148   1.877
 9951SOL    HW130752   0.596   2.209   1.800
 9951SOL    HW230753   0.657   2.147   1.938
 9952SOL     OW30754   0.871   4.289   1.793
 9952SOL    HW130755   0.887   4.197   1.756
 9952SOL    HW230756   0.830   4.281   1.884
 9953SOL     OW30757   6.001   2.257   3.373
 9953SOL    HW130758   6.064   2.195   3.419
 9953SOL    HW230759   5.927   2.281   3.436
 9954SOL     OW30760   3.075   2.182   6.001
 9954SOL    HW130761   3.062   2.266   6.054
 9954SOL    HW230762   3.153   2.132   6.038
 9955SOL     OW30763   5.785   3.172   0.365
 9955SOL    HW130764   5.721   3.106   0.405
 9955SOL    HW230765   5.866   3.123   0.331
 9956SOL     OW30766   1.968   3.855   3.442
 9956SOL    HW130767   1.993   3.859   3.539
 9956SOL    HW230768   2.017   3.779   3.399
 9957SOL     OW30769   5.340   6.813   1.331
 9957SOL    HW130770   5.253   6.794   1.287
 9957SOL    HW230771   5.352   6.752   1.409
 9958SOL     OW30772   4.929   4.554   0.165
 9958SOL    HW130773   4.901   4.565   0.261
 9958SOL    HW230774   5.016   4.602   0.150
 9959SOL     OW30775   4.721   4.787   0.421
 9959SOL    HW130776   4.757   4.693   0.415
 9959SOL    HW230777   4.704   4.809   0.517
 9960SOL     OW30778   0.236   0.250   6.631
 9960SOL    HW130779   0.170   0.308   6.678
 9960SOL    HW230780   0.189   0.199   6.559
 9961SOL     OW30781   2.577   5.268   1.993
 9961SOL    HW130782   2.503   5.203   1.976
 9961SOL    HW230783   2.662   5.218   2.012
 9962SOL     OW30784   3.280   6.113   1.849
 9962SOL    HW130785   3.261   6.162   1.934
 9962SOL    HW230786   3.294   6.016   1.870
 9963SOL     OW30787   1.435   1.397   6.243
 9963SOL    HW130788   1.485   1.403   6.330
 9963SOL    HW230789   1.380   1.479   6.231
 9964SOL     OW30790   4.615   3.905   5.544
 9964SOL    HW130791   4.645   3.983   5.489
 9964SOL    HW230792   4.676   3.893   5.622
 9965SOL     OW30793   3.157   5.587   4.451
 9965SOL    HW130794   3.253   5.605   4.427
 9965SOL    HW230795   3.147   5.491   4.478
 9966SOL     OW30796   3.662   4.916   2.432
 9966SOL    HW130797   3.568   4.935   2.458
 9966SOL    HW230798   3.720   4.915   2.513
 9967SOL     OW30799   6.359   6.924   3.302
 9967SOL    HW130800   6.342   6.994   3.232
 9967SOL    HW230801   6.331   6.835   3.266
 9968SOL     OW30802   3.744   6.629   0.914
 9968SOL    HW130803   3.671   6.578   0.869
 9968SOL    HW230804   3.790   6.571   0.982
 9969SOL     OW30805   1.580   5.210   3.519
 9969SOL    HW130806   1.607   5.220   3.615
 9969SOL    HW230807   1.490   5.251   3.505
 9970SOL     OW30808   6.573   3.979   1.354
 9970SOL    HW130809   6.500   3.967   1.421
 9970SOL    HW230810   6.656   4.011   1.400
 9971SOL     OW30811   0.776   4.267   2.042
 9971SOL    HW130812   0.689   4.302   2.076
 9971SOL    HW230813   0.827   4.226   2.119
 9972SOL     OW30814   3.370   4.057   0.340
 9972SOL    HW130815   3.368   3.957   0.338
 9972SOL    HW230816   3.299   4.092   0.278
 9973SOL     OW30817   3.398   1.860   3.332
 9973SOL    HW130818   3.311   1.869   3.283
 9973SOL    HW230819   3.418   1.763   3.348
 9974SOL     OW30820   0.589   2.651   3.267
 9974SOL    HW130821   0.518   2.600   3.315
 9974SOL    HW230822   0.582   2.748   3.292
 9975SOL     OW30823   1.105   5.048   6.817
 9975SOL    HW130824   1.020   4.999   6.800
 9975SOL    HW230825   1.182   4.984   6.814
 9976SOL     OW30826   2.767   4.386   6.516
 9976SOL    HW130827   2.844   4.379   6.453
 9976SOL    HW230828   2.782   4.325   6.594
 9977SOL     OW30829   4.879   6.250   4.775
 9977SOL    HW130830   4.926   6.207   4.852
 9977SOL    HW230831   4.835   6.180   4.719
 9978SOL     OW30832   0.964   2.828   6.210
 9978SOL    HW130833   0.903   2.789   6.279
 9978SOL    HW230834   0.928   2.916   6.180
 9979SOL     OW30835   4.768   3.200   5.291
 9979SOL    HW130836   4.728   3.109   5.300
 9979SOL    HW230837   4.797   3.233   5.381
 9980SOL     OW30838   0.976   0.581   0.475
 9980SOL    HW130839   1.074   0.575   0.457
 9980SOL    HW230840   0.960   0.581   0.574
 9981SOL     OW30841   0.561   2.362   1.681
 9981SOL    HW130842   0.542   2.299   1.606
 9981SOL    HW230843   0.639   2.420   1.656
 9982SOL     OW30844   2.115   1.982   5.494
 9982SOL    HW130845   2.053   1.935   5.557
 9982SOL    HW230846   2.063   2.019   5.417
 9983SOL     OW30847   0.045   3.152   2.160
 9983SOL    HW130848   6.978   3.150   2.187
 9983SOL    HW230849   0.069   3.243   2.128
 9984SOL     OW30850   6.912   5.865   0.874
 9984SOL    HW130851   6.939   5.938   0.811
 9984SOL    HW230852   6.877   5.787   0.821
 9985SOL     OW30853   4.360   5.403   0.523
 9985SOL    HW130854   4.413   5.451   0.453
 9985SOL    HW230855   4.276   5.454   0.541
 9986SOL     OW30856   4.938   4.253   0.206
 9986SOL    HW130857   4.932   4.348   0.175
 9986SOL    HW230858   4.899   4.193   0.137
 9987SOL     OW30859   5.675   2.803   1.746
 9987SOL    HW130860   5.690   2.869   1.820
 9987SOL    HW230861   5.754   2.801   1.686
 9988SOL     OW30862   5.171   6.178   4.495
 9988SOL    HW130863   5.162   6.238   4.574
 9988SOL    HW230864   5.255   6.199   4.446
 9989SOL     OW30865   6.217   5.571   2.191
 9989SOL    HW130866   6.311   5.562   2.223
 9989SOL    HW230867   6.208   5.531   2.100
 9990SOL     OW30868   0.312   0.025   3.757
 9990SOL    HW130869   0.386   0.051   3.696
 9990SOL    HW230870   0.237   7.016   3.704
 9991SOL     OW30871   1.518   4.271   4.529
 9991SOL    HW130872   1.612   4.302   4.513
 9991SOL    HW230873   1.478   4.325   4.603
 9992SOL     OW30874   3.460   4.259   1.103
 9992SOL    HW130875   3.494   4.280   1.012
 9992SOL    HW230876   3.442   4.345   1.152
 9993SOL     OW30877   3.683   6.901   4.157
 9993SOL    HW130878   3.652   6.995   4.173
 9993SOL    HW230879   3.612   6.852   4.107
 9994SOL     OW30880   6.886   4.824   4.213
 9994SOL    HW130881   6.791   4.797   4.232
 9994SOL    HW230882   6.932   4.845   4.299
 9995SOL     OW30883   2.824   0.679   4.932
 9995SOL    HW130884   2.741   0.636   4.968
 9995SOL    HW230885   2.858   0.746   4.997
 9996SOL     OW30886   1.714   4.352   0.994
 9996SOL    HW130887   1.715   4.330   1.092
 9996SOL    HW230888   1.747   4.274   0.942
 9997SOL     OW30889   6.351   2.450   4.186
 9997SOL    HW130890   6.400   2.439   4.100
 9997SOL    HW230891   6.401   2.513   4.246
 9998SOL     OW30892   4.878   3.881   2.554
 9998SOL    HW130893   4.882   3.852   2.650
 9998SOL    HW230894   4.934   3.820   2.498
 9999SOL     OW30895   6.990   6.745   4.158
 9999SOL    HW130896   6.974   6.777   4.251
 9999SOL    HW230897   6.991   6.823   4.095
10000SOL     OW30898   4.970   2.029   1.850
10000SOL    HW130899   4.878   2.016   1.814
10000SOL    HW230900   5.012   2.108   1.806
10001SOL     OW30901   3.333   6.022   2.300
10001SOL    HW130902   3.345   6.077   2.217
10001SOL    HW230903   3.410   6.038   2.362
10002SOL     OW30904   2.557   0.886   1.420
10002SOL    HW130905   2.593   0.793   1.415
10002SOL    HW230906   2.632   0.951   1.432
10003SOL     OW30907   1.880   1.350   3.192
10003SOL    HW130908   1.905   1.386   3.282
10003SOL    HW230909   1.900   1.252   3.189
10004SOL     OW30910   5.665   4.352   4.769
10004SOL    HW130911   5.634   4.433   4.820
10004SOL    HW230912   5.682   4.277   4.832
10005SOL     OW30913   2.399   5.768   3.238
10005SOL    HW130914   2.339   5.843   3.210
10005SOL    HW230915   2.431   5.720   3.156
10006SOL     OW30916   5.395   0.674   5.482
10006SOL    HW130917   5.370   0.578   5.493
10006SOL    HW230918   5.452   0.685   5.401
10007SOL     OW30919   1.053   4.372   4.896
10007SOL    HW130920   1.070   4.444   4.830
10007SOL    HW230921   1.125   4.372   4.965
10008SOL     OW30922   3.808   1.755   4.731
10008SOL    HW130923   3.899   1.727   4.702
10008SOL    HW230924   3.758   1.791   4.652
10009SOL     OW30925   1.536   4.292   1.633
10009SOL    HW130926   1.470   4.220   1.656
10009SOL    HW230927   1.501   4.380   1.666
10010SOL     OW30928   2.409   4.971   6.837
10010SOL    HW130929   2.489   4.921   6.804
10010SOL    HW230930   2.326   4.923   6.809
10011SOL     OW30931   0.733   3.494   0.140
10011SOL    HW130932   0.667   3.423   0.113
10011SOL    HW230933   0.773   3.471   0.228
10012SOL     OW30934   4.901   0.944   1.981
10012SOL    HW130935   4.836   0.952   1.906
10012SOL    HW230936   4.972   0.878   1.957
10013SOL     OW30937   1.016   5.768   4.912
10013SOL    HW130938   1.075   5.688   4.897
10013SOL    HW230939   1.060   5.849   4.874
10014SOL     OW30940   0.488   6.602   3.525
10014SOL    HW130941   0.464   6.511   3.561
10014SOL    HW230942   0.498   6.597   3.426
10015SOL     OW30943   3.820   5.296   6.074
10015SOL    HW130944   3.904   5.243   6.087
10015SOL    HW230945   3.832   5.359   5.997
10016SOL     OW30946   2.048   0.224   3.705
10016SOL    HW130947   1.971   0.242   3.767
10016SOL    HW230948   2.070   0.307   3.654
10017SOL     OW30949   2.924   1.976   3.003
10017SOL    HW130950   2.881   2.012   2.920
10017SOL    HW230951   2.855   1.929   3.058
10018SOL     OW30952   6.435   3.637   5.982
10018SOL    HW130953   6.353   3.692   5.997
10018SOL    HW230954   6.475   3.659   5.894
10019SOL     OW30955   0.912   1.425   2.820
10019SOL    HW130956   0.975   1.363   2.867
10019SOL    HW230957   0.922   1.518   2.857
10020SOL     OW30958   7.010   0.797   2.080
10020SOL    HW130959   0.034   0.862   2.026
10020SOL    HW230960   6.984   0.720   2.022
10021SOL     OW30961   1.556   3.617   1.634
10021SOL    HW130962   1.588   3.558   1.559
10021SOL    HW230963   1.630   3.630   1.700
10022SOL     OW30964   2.687   6.396   0.722
10022SOL    HW130965   2.590   6.378   0.742
10022SOL    HW230966   2.698   6.410   0.623
10023SOL     OW30967   2.532   6.754   6.060
10023SOL    HW130968   2.449   6.731   6.009
10023SOL    HW230969   2.581   6.669   6.081
10024SOL     OW30970   1.548   4.900   3.148
10024SOL    HW130971   1.489   4.977   3.123
10024SOL    HW230972   1.533   4.825   3.085
10025SOL     OW30973   1.520   3.874   1.534
10025SOL    HW130974   1.534   3.778   1.558
10025SOL    HW230975   1.582   3.899   1.459
10026SOL     OW30976   5.087   1.398   2.447
10026SOL    HW130977   5.050   1.306   2.461
10026SOL    HW230978   5.012   1.461   2.429
10027SOL     OW30979   1.598   2.431   5.419
10027SOL    HW130980   1.575   2.334   5.428
10027SOL    HW230981   1.516   2.486   5.433
10028SOL     OW30982   3.279   0.063   2.324
10028SOL    HW130983   3.322   7.020   2.271
10028SOL    HW230984   3.327   0.149   2.308
10029SOL     OW30985   6.990   3.064   4.426
10029SOL    HW130986   7.011   3.124   4.502
10029SOL    HW230987   6.944   2.982   4.460
10030SOL     OW30988   2.625   6.572   5.138
10030SOL    HW130989   2.571   6.652   5.161
10030SOL    HW230990   2.566   6.501   5.099
10031SOL     OW30991   3.969   5.115   4.654
10031SOL    HW130992   3.894   5.178   4.672
10031SOL    HW230993   3.932   5.024   4.634
10032SOL     OW30994   3.341   6.185   5.241
10032SOL    HW130995   3.261   6.244   5.233
10032SOL    HW230996   3.341   6.117   5.168
10033SOL     OW30997   4.464   1.624   3.700
10033SOL    HW130998   4.415   1.537   3.695
10033SOL    HW230999   4.498   1.649   3.609
10034SOL     OW31000   2.071   0.900   3.277
10034SOL    HW131001   2.137   0.826   3.290
10034SOL    HW231002   2.119   0.986   3.263
10035SOL     OW31003   6.396   3.459   0.327
10035SOL    HW131004   6.307   3.480   0.288
10035SOL    HW231005   6.466   3.515   0.282
10036SOL     OW31006   6.500   0.832   6.412
10036SOL    HW131007   6.565   0.844   6.337
10036SOL    HW231008   6.547   0.844   6.499
10037SOL     OW31009   6.583   0.134   5.873
10037SOL    HW131010   6.666   0.188   5.872
10037SOL    HW231011   6.523   0.165   5.946
10038SOL     OW31012   4.256   0.187   0.196
10038SOL    HW131013   4.238   0.152   0.104
10038SOL    HW231014   4.187   0.152   0.259
10039SOL     OW31015   4.983   5.027   4.570
10039SOL    HW131016   5.034   5.003   4.488
10039SOL    HW231017   4.998   4.958   4.640
10040SOL     OW31018   4.250   0.107   0.576
10040SOL    HW131019   4.349   0.105   0.572
10040SOL    HW231020   4.211   0.073   0.490
10041SOL     OW31021   6.537   4.496   5.854
10041SOL    HW131022   6.627   4.520   5.888
10041SOL    HW231023   6.508   4.409   5.894
10042SOL     OW31024   0.428   1.262   5.636
10042SOL    HW131025   0.414   1.167   5.610
10042SOL    HW231026   0.348   1.317   5.609
10043SOL     OW31027   1.152   0.821   2.529
10043SOL    HW131028   1.090   0.890   2.567
10043SOL    HW231029   1.099   0.742   2.497
10044SOL     OW31030   2.102   1.522   5.023
10044SOL    HW131031   2.110   1.444   4.962
10044SOL    HW231032   2.065   1.492   5.111
10045SOL     OW31033   4.941   0.058   4.773
10045SOL    HW131034   4.964   0.155   4.770
10045SOL    HW231035   4.853   0.043   4.727
10046SOL     OW31036   0.230   1.880   2.047
10046SOL    HW131037   0.279   1.801   2.010
10046SOL    HW231038   0.137   1.852   2.072
10047SOL     OW31039   6.200   2.448   5.076
10047SOL    HW131040   6.219   2.535   5.120
10047SOL    HW231041   6.209   2.374   5.143
10048SOL     OW31042   3.329   1.318   1.842
10048SOL    HW131043   3.306   1.413   1.858
10048SOL    HW231044   3.289   1.288   1.755
10049SOL     OW31045   1.696   0.215   0.035
10049SOL    HW131046   1.655   0.213   0.126
10049SOL    HW231047   1.795   0.203   0.044
10050SOL     OW31048   5.266   3.338   4.864
10050SOL    HW131049   5.183   3.310   4.913
10050SOL    HW231050   5.341   3.348   4.929
10051SOL     OW31051   6.605   2.929   4.516
10051SOL    HW131052   6.657   2.892   4.439
10051SOL    HW231053   6.510   2.942   4.488
10052SOL     OW31054   1.974   3.350   1.647
10052SOL    HW131055   2.014   3.263   1.675
10052SOL    HW231056   1.876   3.349   1.665
10053SOL     OW31057   3.681   5.011   3.238
10053SOL    HW131058   3.684   5.094   3.182
10053SOL    HW231059   3.586   4.978   3.244
10054SOL     OW31060   4.452   5.574   6.287
10054SOL    HW131061   4.438   5.486   6.331
10054SOL    HW231062   4.406   5.574   6.197
10055SOL     OW31063   6.277   2.324   4.639
10055SOL    HW131064   6.215   2.384   4.588
10055SOL    HW231065   6.288   2.238   4.589
10056SOL     OW31066   6.068   5.208   1.066
10056SOL    HW131067   5.978   5.228   1.105
10056SOL    HW231068   6.063   5.123   1.013
10057SOL     OW31069   4.128   1.834   4.522
10057SOL    HW131070   4.159   1.920   4.562
10057SOL    HW231071   4.054   1.852   4.458
10058SOL     OW31072   6.337   5.205   4.166
10058SOL    HW131073   6.313   5.112   4.193
10058SOL    HW231074   6.437   5.215   4.166
10059SOL     OW31075   5.241   6.724   0.976
10059SOL    HW131076   5.271   6.676   0.894
10059SOL    HW231077   5.243   6.661   1.054
10060SOL     OW31078   2.813   2.104   1.948
10060SOL    HW131079   2.879   2.043   1.905
10060SOL    HW231080   2.861   2.184   1.985
10061SOL     OW31081   5.580   1.222   4.085
10061SOL    HW131082   5.666   1.272   4.076
10061SOL    HW231083   5.520   1.269   4.151
10062SOL     OW31084   6.138   6.657   4.390
10062SOL    HW131085   6.164   6.561   4.402
10062SOL    HW231086   6.046   6.662   4.351
10063SOL     OW31087   1.320   2.082   3.280
10063SOL    HW131088   1.405   2.135   3.284
10063SOL    HW231089   1.327   2.013   3.208
10064SOL     OW31090   5.559   5.382   4.895
10064SOL    HW131091   5.586   5.286   4.893
10064SOL    HW231092   5.603   5.431   4.819
10065SOL     OW31093   1.532   0.175   2.356
10065SOL    HW131094   1.499   0.179   2.450
10065SOL    HW231095   1.533   0.081   2.324
10066SOL     OW31096   0.853   0.793   3.962
10066SOL    HW131097   0.758   0.808   3.935
10066SOL    HW231098   0.904   0.753   3.886
10067SOL     OW31099   5.837   4.715   4.275
10067SOL    HW131100   5.888   4.720   4.361
10067SOL    HW231101   5.861   4.631   4.227
10068SOL     OW31102   5.231   2.668   4.611
10068SOL    HW131103   5.314   2.613   4.613
10068SOL    HW231104   5.184   2.661   4.699
10069SOL     OW31105   2.343   0.190   3.368
10069SOL    HW131106   2.270   0.123   3.378
10069SOL    HW231107   2.432   0.146   3.379
10070SOL     OW31108   0.338   6.402   4.741
10070SOL    HW131109   0.431   6.422   4.711
10070SOL    HW231110   0.333   6.407   4.841
10071SOL     OW31111   4.709   4.925   3.972
10071SOL    HW131112   4.681   4.958   4.062
10071SOL    HW231113   4.750   4.834   3.981
10072SOL     OW31114   0.340   6.545   3.820
10072SOL    HW131115   0.382   6.630   3.787
10072SOL    HW231116   0.295   6.498   3.744
10073SOL     OW31117   6.094   4.341   4.843
10073SOL    HW131118   6.077   4.439   4.851
10073SOL    HW231119   6.189   4.322   4.868
10074SOL     OW31120   1.129   6.873   5.660
10074SOL    HW131121   1.089   6.882   5.751
10074SOL    HW231122   1.211   6.815   5.665
10075SOL     OW31123   1.091   2.283   3.047
10075SOL    HW131124   1.054   2.190   3.048
10075SOL    HW231125   1.180   2.283   3.094
10076SOL     OW31126   5.211   7.017   4.766
10076SOL    HW131127   5.113   7.018   4.788
10076SOL    HW231128   5.233   0.067   4.710
10077SOL     OW31129   3.792   2.378   6.609
10077SOL    HW131130   3.776   2.458   6.552
10077SOL    HW231131   3.841   2.309   6.556
10078SOL     OW31132   6.382   6.293   4.657
10078SOL    HW131133   6.393   6.300   4.756
10078SOL    HW231134   6.455   6.344   4.612
10079SOL     OW31135   1.509   2.950   2.205
10079SOL    HW131136   1.604   2.924   2.190
10079SOL    HW231137   1.502   3.050   2.214
10080SOL     OW31138   3.074   2.395   6.804
10080SOL    HW131139   3.082   2.491   6.833
10080SOL    HW231140   3.161   2.366   6.764
10081SOL     OW31141   0.691   0.307   6.416
10081SOL    HW131142   0.629   0.383   6.396
10081SOL    HW231143   0.643   0.221   6.401
10082SOL     OW31144   6.822   2.533   2.290
10082SOL    HW131145   6.737   2.571   2.325
10082SOL    HW231146   6.897   2.597   2.308
10083SOL     OW31147   4.852   1.301   3.789
10083SOL    HW131148   4.767   1.317   3.740
10083SOL    HW231149   4.929   1.307   3.725
10084SOL     OW31150   3.215   0.565   5.895
10084SOL    HW131151   3.296   0.596   5.846
10084SOL    HW231152   3.137   0.562   5.833
10085SOL     OW31153   0.718   4.900   3.215
10085SOL    HW131154   0.786   4.922   3.146
10085SOL    HW231155   0.745   4.816   3.263
10086SOL     OW31156   5.608   5.610   2.519
10086SOL    HW131157   5.641   5.522   2.485
10086SOL    HW231158   5.651   5.631   2.607
10087SOL     OW31159   0.968   1.193   4.385
10087SOL    HW131160   0.961   1.127   4.459
10087SOL    HW231161   0.966   1.286   4.423
10088SOL     OW31162   0.293   6.724   5.523
10088SOL    HW131163   0.295   6.638   5.473
10088SOL    HW231164   0.200   6.742   5.554
10089SOL     OW31165   2.555   1.272   3.701
10089SOL    HW131166   2.651   1.274   3.729
10089SOL    HW231167   2.506   1.202   3.753
10090SOL     OW31168   0.763   4.399   1.136
10090SOL    HW131169   0.692   4.349   1.086
10090SOL    HW231170   0.745   4.392   1.234
10091SOL     OW31171   1.064   3.484   4.701
10091SOL    HW131172   1.008   3.503   4.620
10091SOL    HW231173   1.008   3.492   4.783
10092SOL     OW31174   1.654   4.007   5.246
10092SOL    HW131175   1.611   3.919   5.224
10092SOL    HW231176   1.621   4.039   5.335
10093SOL     OW31177   0.504   5.266   5.223
10093SOL    HW131178   0.582   5.228   5.174
10093SOL    HW231179   0.427   5.203   5.217
10094SOL     OW31180   2.564   0.069   2.795
10094SOL    HW131181   2.593   0.148   2.740
10094SOL    HW231182   2.485   0.027   2.752
10095SOL     OW31183   6.013   1.641   4.781
10095SOL    HW131184   5.970   1.554   4.806
10095SOL    HW231185   5.943   1.705   4.750
10096SOL     OW31186   6.739   4.997   2.567
10096SOL    HW131187   6.719   4.978   2.663
10096SOL    HW231188   6.818   4.944   2.538
10097SOL     OW31189   1.033   1.278   0.276
10097SOL    HW131190   1.096   1.253   0.203
10097SOL    HW231191   0.938   1.268   0.244
10098SOL     OW31192   1.802   6.660   6.084
10098SOL    HW131193   1.762   6.625   5.999
10098SOL    HW231194   1.824   6.585   6.145
10099SOL     OW31195   0.733   4.188   6.269
10099SOL    HW131196   0.687   4.116   6.217
10099SOL    HW231197   0.829   4.193   6.241
10100SOL     OW31198   5.083   6.968   5.244
10100SOL    HW131199   5.014   6.989   5.174
10100SOL    HW231200   5.038   6.956   5.332
10101SOL     OW31201   6.410   4.259   1.818
10101SOL    HW131202   6.465   4.264   1.901
10101SOL    HW231203   6.313   4.268   1.842
10102SOL     OW31204   2.582   1.009   3.346
10102SOL    HW131205   2.571   1.105   3.373
10102SOL    HW231206   2.672   0.995   3.306
10103SOL     OW31207   3.525   0.999   4.777
10103SOL    HW131208   3.492   1.081   4.730
10103SOL    HW231209   3.504   1.006   4.874
10104SOL     OW31210   0.371   4.363   5.130
10104SOL    HW131211   0.409   4.435   5.071
10104SOL    HW231212   0.397   4.381   5.224
10105SOL     OW31213   1.035   1.102   6.159
10105SOL    HW131214   1.009   1.198   6.146
10105SOL    HW231215   0.982   1.044   6.096
10106SOL     OW31216   5.669   4.713   1.160
10106SOL    HW131217   5.765   4.739   1.167
10106SOL    HW231218   5.657   4.620   1.193
10107SOL     OW31219   6.450   1.895   5.998
10107SOL    HW131220   6.442   1.992   6.022
10107SOL    HW231221   6.449   1.840   6.082
10108SOL     OW31222   6.580   6.099   0.019
10108SOL    HW131223   6.610   6.191   0.044
10108SOL    HW231224   6.481   6.100   0.004
10109SOL     OW31225   4.130   6.482   2.653
10109SOL    HW131226   4.108   6.565   2.601
10109SOL    HW231227   4.229   6.467   2.652
10110SOL     OW31228   4.074   6.697   5.777
10110SOL    HW131229   4.036   6.786   5.752
10110SOL    HW231230   4.147   6.673   5.713
10111SOL     OW31231   6.969   3.380   3.190
10111SOL    HW131232   7.015   3.373   3.101
10111SOL    HW231233   6.973   3.291   3.236
10112SOL     OW31234   6.095   4.114   5.164
10112SOL    HW131235   6.107   4.158   5.253
10112SOL    HW231236   6.024   4.163   5.112
10113SOL     OW31237   4.040   1.455   6.921
10113SOL    HW131238   3.970   1.525   6.937
10113SOL    HW231239   4.034   1.424   6.826
10114SOL     OW31240   5.524   0.682   0.958
10114SOL    HW131241   5.474   0.601   0.991
10114SOL    HW231242   5.537   0.746   1.033
10115SOL     OW31243   2.542   2.296   3.338
10115SOL    HW131244   2.582   2.245   3.262
10115SOL    HW231245   2.532   2.236   3.417
10116SOL     OW31246   0.581   6.630   1.356
10116SOL    HW131247   0.542   6.545   1.391
10116SOL    HW231248   0.508   6.696   1.340
10117SOL     OW31249   6.607   0.389   4.463
10117SOL    HW131250   6.654   0.435   4.387
10117SOL    HW231251   6.574   0.457   4.528
10118SOL     OW31252   7.009   4.861   2.617
10118SOL    HW131253   0.055   4.878   2.680
10118SOL    HW231254   0.016   4.835   2.528
10119SOL     OW31255   2.133   6.792   4.418
10119SOL    HW131256   2.093   6.873   4.376
10119SOL    HW231257   2.063   6.721   4.429
10120SOL     OW31258   0.872   3.059   4.001
10120SOL    HW131259   0.866   3.104   4.090
10120SOL    HW231260   0.852   3.125   3.928
10121SOL     OW31261   6.626   4.800   5.055
10121SOL    HW131262   6.710   4.759   5.089
10121SOL    HW231263   6.617   4.781   4.957
10122SOL     OW31264   5.751   2.807   0.116
10122SOL    HW131265   5.812   2.806   0.195
10122SOL    HW231266   5.747   2.715   0.076
10123SOL     OW31267   6.521   6.102   0.338
10123SOL    HW131268   6.565   6.096   0.248
10123SOL    HW231269   6.579   6.059   0.406
10124SOL     OW31270   2.130   3.944   6.947
10124SOL    HW131271   2.047   3.992   6.918
10124SOL    HW231272   2.166   3.987   0.000
10125SOL     OW31273   2.049   0.563   2.437
10125SOL    HW131274   2.125   0.628   2.444
10125SOL    HW231275   1.988   0.591   2.363
10126SOL     OW31276   6.576   5.802   6.198
10126SOL    HW131277   6.620   5.727   6.248
10126SOL    HW231278   6.492   5.769   6.156
10127SOL     OW31279   2.830   5.446   6.065
10127SOL    HW131280   2.798   5.405   5.979
10127SOL    HW231281   2.892   5.383   6.110
10128SOL     OW31282   0.743   1.428   1.331
10128SOL    HW131283   0.749   1.523   1.363
10128SOL    HW231284   0.830   1.401   1.290
10129SOL     OW31285   4.689   2.872   4.116
10129SOL    HW131286   4.620   2.844   4.183
10129SOL    HW231287   4.670   2.827   4.029
10130SOL     OW31288   1.935   4.836   2.565
10130SOL    HW131289   2.008   4.864   2.628
10130SOL    HW231290   1.933   4.899   2.487
10131SOL     OW31291   0.634   1.661   3.081
10131SOL    HW131292   0.550   1.692   3.035
10131SOL    HW231293   0.622   1.670   3.180
10132SOL     OW31294   3.244   6.124   2.998
10132SOL    HW131295   3.223   6.097   3.092
10132SOL    HW231296   3.195   6.064   2.935
10133SOL     OW31297   4.487   6.301   2.429
10133SOL    HW131298   4.542   6.220   2.447
10133SOL    HW231299   4.469   6.310   2.331
10134SOL     OW31300   6.692   0.302   3.937
10134SOL    HW131301   6.658   0.255   4.018
10134SOL    HW231302   6.672   0.400   3.943
10135SOL     OW31303   5.294   3.491   2.763
10135SOL    HW131304   5.269   3.409   2.815
10135SOL    HW231305   5.297   3.570   2.824
10136SOL     OW31306   5.525   0.042   2.849
10136SOL    HW131307   5.529   0.142   2.853
10136SOL    HW231308   5.525   0.005   2.942
10137SOL     OW31309   6.829   5.571   3.720
10137SOL    HW131310   6.748   5.569   3.662
10137SOL    HW231311   6.907   5.606   3.668
10138SOL     OW31312   4.448   2.312   1.233
10138SOL    HW131313   4.371   2.305   1.296
10138SOL    HW231314   4.415   2.317   1.139
10139SOL     OW31315   4.035   3.128   2.721
10139SOL    HW131316   3.974   3.092   2.792
10139SOL    HW231317   4.008   3.091   2.632
10140SOL     OW31318   6.270   5.913   5.742
10140SOL    HW131319   6.208   5.844   5.779
10140SOL    HW231320   6.363   5.875   5.736
10141SOL     OW31321   3.340   2.164   4.378
10141SOL    HW131322   3.434   2.132   4.395
10141SOL    HW231323   3.292   2.176   4.464
10142SOL     OW31324   5.390   6.024   5.137
10142SOL    HW131325   5.307   6.019   5.081
10142SOL    HW231326   5.367   6.060   5.227
10143SOL     OW31327   4.640   0.266   1.394
10143SOL    HW131328   4.618   0.177   1.433
10143SOL    HW231329   4.560   0.302   1.346
10144SOL     OW31330   4.650   6.391   6.234
10144SOL    HW131331   4.550   6.392   6.243
10144SOL    HW231332   4.690   6.454   6.301
10145SOL     OW31333   3.432   6.338   5.870
10145SOL    HW131334   3.358   6.291   5.823
10145SOL    HW231335   3.397   6.424   5.908
10146SOL     OW31336   3.742   5.207   5.461
10146SOL    HW131337   3.771   5.203   5.556
10146SOL    HW231338   3.700   5.120   5.435
10147SOL     OW31339   5.511   4.428   4.321
10147SOL    HW131340   5.455   4.508   4.300
10147SOL    HW231341   5.579   4.452   4.390
10148SOL     OW31342   6.235   5.108   7.009
10148SOL    HW131343   6.276   5.101   0.070
10148SOL    HW231344   6.187   5.023   6.987
10149SOL     OW31345   5.259   1.842   0.674
10149SOL    HW131346   5.354   1.820   0.653
10149SOL    HW231347   5.243   1.940   0.657
10150SOL     OW31348   4.616   4.101   0.725
10150SOL    HW131349   4.595   4.190   0.764
10150SOL    HW231350   4.613   4.031   0.796
10151SOL     OW31351   0.932   0.171   6.369
10151SOL    HW131352   0.857   0.213   6.420
10151SOL    HW231353   1.004   0.143   6.433
10152SOL     OW31354   1.997   5.574   4.255
10152SOL    HW131355   1.902   5.576   4.285
10152SOL    HW231356   2.057   5.579   4.335
10153SOL     OW31357   4.275   5.873   3.948
10153SOL    HW131358   4.201   5.845   4.009
10153SOL    HW231359   4.314   5.959   3.981
10154SOL     OW31360   5.984   0.008   5.369
10154SOL    HW131361   6.041   6.965   5.330
10154SOL    HW231362   5.982   7.030   5.468
10155SOL     OW31363   4.059   1.819   5.813
10155SOL    HW131364   4.099   1.789   5.900
10155SOL    HW231365   3.960   1.811   5.818
10156SOL     OW31366   6.391   0.397   2.224
10156SOL    HW131367   6.351   0.419   2.136
10156SOL    HW231368   6.491   0.396   2.216
10157SOL     OW31369   5.776   2.391   6.038
10157SOL    HW131370   5.736   2.359   5.952
10157SOL    HW231371   5.804   2.487   6.028
10158SOL     OW31372   4.565   3.557   0.016
10158SOL    HW131373   4.614   3.513   0.092
10158SOL    HW231374   4.468   3.535   0.021
10159SOL     OW31375   2.617   3.490   6.271
10159SOL    HW131376   2.560   3.572   6.269
10159SOL    HW231377   2.558   3.409   6.273
10160SOL     OW31378   1.336   4.045   2.236
10160SOL    HW131379   1.383   3.989   2.305
10160SOL    HW231380   1.246   4.071   2.270
10161SOL     OW31381   3.340   4.459   0.575
10161SOL    HW131382   3.271   4.531   0.563
10161SOL    HW231383   3.321   4.410   0.660
10162SOL     OW31384   2.575   4.194   0.747
10162SOL    HW131385   2.654   4.136   0.724
10162SOL    HW231386   2.539   4.167   0.837
10163SOL     OW31387   5.445   4.641   6.752
10163SOL    HW131388   5.532   4.623   6.707
10163SOL    HW231389   5.384   4.690   6.689
10164SOL     OW31390   6.115   3.366   4.837
10164SOL    HW131391   6.195   3.375   4.779
10164SOL    HW231392   6.119   3.433   4.911
10165SOL     OW31393   1.551   2.344   3.851
10165SOL    HW131394   1.486   2.309   3.784
10165SOL    HW231395   1.644   2.325   3.820
10166SOL     OW31396   3.744   1.085   2.114
10166SOL    HW131397   3.782   1.047   2.199
10166SOL    HW231398   3.681   1.159   2.136
10167SOL     OW31399   4.234   2.106   6.087
10167SOL    HW131400   4.173   2.184   6.073
10167SOL    HW231401   4.188   2.037   6.142
10168SOL     OW31402   6.810   4.171   4.935
10168SOL    HW131403   6.752   4.126   5.004
10168SOL    HW231404   6.758   4.180   4.850
10169SOL     OW31405   6.684   3.752   3.197
10169SOL    HW131406   6.768   3.773   3.146
10169SOL    HW231407   6.707   3.693   3.274
10170SOL     OW31408   1.062   4.232   5.762
10170SOL    HW131409   1.038   4.305   5.698
10170SOL    HW231410   1.159   4.240   5.787
10171SOL     OW31411   6.522   4.019   6.035
10171SOL    HW131412   6.521   3.961   6.116
10171SOL    HW231413   6.469   3.975   5.962
10172SOL     OW31414   6.261   6.787   3.636
10172SOL    HW131415   6.218   6.765   3.724
10172SOL    HW231416   6.344   6.841   3.653
10173SOL     OW31417   1.713   2.484   0.780
10173SOL    HW131418   1.776   2.429   0.725
10173SOL    HW231419   1.624   2.438   0.785
10174SOL     OW31420   5.621   5.356   2.232
10174SOL    HW131421   5.687   5.370   2.158
10174SOL    HW231422   5.621   5.259   2.258
10175SOL     OW31423   6.865   2.449   3.856
10175SOL    HW131424   6.872   2.506   3.774
10175SOL    HW231425   6.802   2.492   3.921
10176SOL     OW31426   1.440   3.433   5.666
10176SOL    HW131427   1.445   3.371   5.744
10176SOL    HW231428   1.532   3.463   5.641
10177SOL     OW31429   1.690   0.824   0.680
10177SOL    HW131430   1.746   0.894   0.725
10177SOL    HW231431   1.714   0.820   0.583
10178SOL     OW31432   6.757   2.770   4.849
10178SOL    HW131433   6.736   2.797   4.942
10178SOL    HW231434   6.802   2.681   4.849
10179SOL     OW31435   0.871   1.622   6.106
10179SOL    HW131436   0.893   1.720   6.110
10179SOL    HW231437   0.844   1.599   6.012
10180SOL     OW31438   4.227   6.649   6.878
10180SOL    HW131439   4.213   6.685   6.970
10180SOL    HW231440   4.179   6.562   6.869
10181SOL     OW31441   4.865   3.615   1.956
10181SOL    HW131442   4.782   3.636   2.008
10181SOL    HW231443   4.929   3.692   1.962
10182SOL     OW31444   5.425   1.154   2.404
10182SOL    HW131445   5.371   1.238   2.408
10182SOL    HW231446   5.484   1.156   2.324
10183SOL     OW31447   0.822   1.963   6.432
10183SOL    HW131448   0.748   1.910   6.390
10183SOL    HW231449   0.904   1.956   6.375
10184SOL     OW31450   4.196   0.857   6.214
10184SOL    HW131451   4.219   0.847   6.117
10184SOL    HW231452   4.097   0.855   6.225
10185SOL     OW31453   5.633   5.825   1.601
10185SOL    HW131454   5.715   5.787   1.558
10185SOL    HW231455   5.654   5.917   1.637
10186SOL     OW31456   5.756   3.137   2.585
10186SOL    HW131457   5.793   3.135   2.678
10186SOL    HW231458   5.770   3.228   2.546
10187SOL     OW31459   0.494   2.266   1.304
10187SOL    HW131460   0.497   2.214   1.389
10187SOL    HW231461   0.442   2.215   1.235
10188SOL     OW31462   3.865   6.410   0.613
10188SOL    HW131463   3.777   6.390   0.655
10188SOL    HW231464   3.872   6.508   0.594
10189SOL     OW31465   1.946   0.504   5.331
10189SOL    HW131466   2.003   0.513   5.250
10189SOL    HW231467   2.000   0.466   5.406
10190SOL     OW31468   4.666   3.249   1.523
10190SOL    HW131469   4.746   3.307   1.507
10190SOL    HW231470   4.584   3.295   1.490
10191SOL     OW31471   4.862   4.159   7.004
10191SOL    HW131472   4.951   4.162   6.958
10191SOL    HW231473   4.793   4.197   6.942
10192SOL     OW31474   4.335   0.755   5.698
10192SOL    HW131475   4.395   0.813   5.753
10192SOL    HW231476   4.299   0.681   5.754
10193SOL     OW31477   4.179   3.675   1.871
10193SOL    HW131478   4.217   3.583   1.866
10193SOL    HW231479   4.155   3.696   1.966
10194SOL     OW31480   6.154   4.511   5.321
10194SOL    HW131481   6.183   4.574   5.392
10194SOL    HW231482   6.188   4.419   5.342
10195SOL     OW31483   6.318   4.575   0.911
10195SOL    HW131484   6.303   4.572   1.010
10195SOL    HW231485   6.414   4.556   0.891
10196SOL     OW31486   5.279   1.749   4.829
10196SOL    HW131487   5.244   1.842   4.828
10196SOL    HW231488   5.267   1.709   4.920
10197SOL     OW31489   6.728   2.302   4.872
10197SOL    HW131490   6.769   2.224   4.825
10197SOL    HW231491   6.680   2.359   4.805
10198SOL     OW31492   3.531   0.756   2.079
10198SOL    HW131493   3.524   0.836   2.019
10198SOL    HW231494   3.450   0.752   2.137
10199SOL     OW31495   2.505   2.922   6.023
10199SOL    HW131496   2.582   2.939   6.083
10199SOL    HW231497   2.536   2.876   5.940
10200SOL     OW31498   4.926   2.055   1.006
10200SOL    HW131499   4.953   2.060   1.102
10200SOL    HW231500   4.886   1.965   0.987
10201SOL     OW31501   0.647   4.744   0.663
10201SOL    HW131502   0.724   4.680   0.671
10201SOL    HW231503   0.562   4.696   0.684
10202SOL     OW31504   3.777   2.579   6.412
10202SOL    HW131505   3.818   2.660   6.369
10202SOL    HW231506   3.679   2.595   6.424
10203SOL     OW31507   5.676   3.107   3.873
10203SOL    HW131508   5.702   3.120   3.777
10203SOL    HW231509   5.755   3.070   3.923
10204SOL     OW31510   5.864   0.150   6.962
10204SOL    HW131511   5.797   0.082   6.992
10204SOL    HW231512   5.828   0.242   6.978
10205SOL     OW31513   0.540   1.234   0.764
10205SOL    HW131514   0.608   1.285   0.712
10205SOL    HW231515   0.456   1.288   0.771
10206SOL     OW31516   0.694   0.460   5.874
10206SOL    HW131517   0.781   0.473   5.825
10206SOL    HW231518   0.622   0.511   5.828
10207SOL     OW31519   1.102   1.747   6.459
10207SOL    HW131520   1.022   1.711   6.506
10207SOL    HW231521   1.080   1.836   6.420
10208SOL     OW31522   5.837   5.041   3.856
10208SOL    HW131523   5.753   5.087   3.827
10208SOL    HW231524   5.893   5.105   3.909
10209SOL     OW31525   6.649   0.014   6.514
10209SOL    HW131526   6.651   6.965   6.575
10209SOL    HW231527   6.585   7.026   6.439
10210SOL     OW31528   4.831   6.447   1.599
10210SOL    HW131529   4.748   6.490   1.636
10210SOL    HW231530   4.898   6.438   1.673
10211SOL     OW31531   3.780   6.789   4.400
10211SOL    HW131532   3.717   6.855   4.360
10211SOL    HW231533   3.799   6.716   4.334
10212SOL     OW31534   1.064   0.745   4.957
10212SOL    HW131535   0.986   0.784   5.007
10212SOL    HW231536   1.059   0.646   4.961
10213SOL     OW31537   4.094   3.189   1.219
10213SOL    HW131538   4.069   3.157   1.310
10213SOL    HW231539   4.032   3.151   1.151
10214SOL     OW31540   1.228   2.600   1.922
10214SOL    HW131541   1.258   2.530   1.987
10214SOL    HW231542   1.300   2.668   1.911
10215SOL     OW31543   4.027   3.155   3.187
10215SOL    HW131544   4.033   3.126   3.282
10215SOL    HW231545   4.063   3.248   3.178
10216SOL     OW31546   0.033   0.972   1.588
10216SOL    HW131547   0.005   0.878   1.572
10216SOL    HW231548   7.014   1.033   1.525
10217SOL     OW31549   2.883   1.080   3.412
10217SOL    HW131550   2.809   1.145   3.427
10217SOL    HW231551   2.880   1.047   3.318
10218SOL     OW31552   1.162   3.332   1.822
10218SOL    HW131553   1.172   3.393   1.901
10218SOL    HW231554   1.164   3.387   1.738
10219SOL     OW31555   0.165   1.957   2.687
10219SOL    HW131556   0.132   2.050   2.671
10219SOL    HW231557   0.140   1.899   2.609
10220SOL     OW31558   3.643   3.067   1.307
10220SOL    HW131559   3.616   3.032   1.397
10220SOL    HW231560   3.568   3.121   1.269
10221SOL     OW31561   0.988   5.302   2.933
10221SOL    HW131562   0.912   5.268   2.988
10221SOL    HW231563   0.981   5.401   2.926
10222SOL     OW31564   3.083   3.536   5.136
10222SOL    HW131565   3.166   3.548   5.082
10222SOL    HW231566   3.024   3.468   5.093
10223SOL     OW31567   0.273   4.979   0.939
10223SOL    HW131568   0.239   4.892   0.903
10223SOL    HW231569   0.230   4.997   1.027
10224SOL     OW31570   6.101   3.059   3.588
10224SOL    HW131571   6.031   3.010   3.536
10224SOL    HW231572   6.189   3.050   3.542
10225SOL     OW31573   1.834   4.220   6.152
10225SOL    HW131574   1.751   4.277   6.154
10225SOL    HW231575   1.808   4.124   6.148
10226SOL     OW31576   3.725   1.215   0.215
10226SOL    HW131577   3.641   1.161   0.213
10226SOL    HW231578   3.749   1.244   0.122
10227SOL     OW31579   5.226   4.017   0.689
10227SOL    HW131580   5.271   4.104   0.710
10227SOL    HW231581   5.151   4.003   0.754
10228SOL     OW31582   6.457   0.003   0.742
10228SOL    HW131583   6.553   0.031   0.740
10228SOL    HW231584   6.405   0.070   0.795
10229SOL     OW31585   0.479   3.715   4.973
10229SOL    HW131586   0.426   3.658   4.911
10229SOL    HW231587   0.577   3.707   4.952
10230SOL     OW31588   6.504   5.338   2.661
10230SOL    HW131589   6.407   5.319   2.675
10230SOL    HW231590   6.550   5.345   2.749
10231SOL     OW31591   1.659   6.296   4.033
10231SOL    HW131592   1.668   6.284   3.935
10231SOL    HW231593   1.750   6.292   4.075
10232SOL     OW31594   3.100   0.903   3.422
10232SOL    HW131595   3.113   0.879   3.325
10232SOL    HW231596   3.055   0.992   3.429
10233SOL     OW31597   3.774   4.070   5.763
10233SOL    HW131598   3.818   4.040   5.848
10233SOL    HW231599   3.721   3.994   5.725
10234SOL     OW31600   6.192   0.160   1.282
10234SOL    HW131601   6.149   0.130   1.197
10234SOL    HW231602   6.171   0.257   1.297
10235SOL     OW31603   1.520   1.698   2.446
10235SOL    HW131604   1.598   1.638   2.465
10235SOL    HW231605   1.444   1.674   2.507
10236SOL     OW31606   2.285   6.327   0.108
10236SOL    HW131607   2.222   6.387   0.157
10236SOL    HW231608   2.272   6.233   0.139
10237SOL     OW31609   0.462   3.325   0.207
10237SOL    HW131610   0.416   3.252   0.155
10237SOL    HW231611   0.459   3.303   0.305
10238SOL     OW31612   4.270   4.807   1.216
10238SOL    HW131613   4.260   4.797   1.315
10238SOL    HW231614   4.364   4.789   1.190
10239SOL     OW31615   1.257   2.819   4.759
10239SOL    HW131616   1.258   2.817   4.859
10239SOL    HW231617   1.196   2.891   4.727
10240SOL     OW31618   2.640   6.684   1.889
10240SOL    HW131619   2.710   6.684   1.818
10240SOL    HW231620   2.578   6.607   1.876
10241SOL     OW31621   5.058   1.882   2.098
10241SOL    HW131622   5.062   1.941   2.017
10241SOL    HW231623   4.999   1.924   2.167
10242SOL     OW31624   0.079   2.350   0.593
10242SOL    HW131625   7.018   2.381   0.619
10242SOL    HW231626   0.148   2.407   0.638
10243SOL     OW31627   2.622   4.709   1.278
10243SOL    HW131628   2.604   4.749   1.368
10243SOL    HW231629   2.563   4.629   1.265
10244SOL     OW31630   2.532   4.156   1.404
10244SOL    HW131631   2.561   4.167   1.499
10244SOL    HW231632   2.456   4.092   1.399
10245SOL     OW31633   3.633   3.979   1.456
10245SOL    HW131634   3.624   3.997   1.554
10245SOL    HW231635   3.627   3.881   1.440
10246SOL     OW31636   3.001   3.299   4.388
10246SOL    HW131637   3.016   3.266   4.295
10246SOL    HW231638   3.049   3.240   4.453
10247SOL     OW31639   0.731   4.653   5.131
10247SOL    HW131640   0.635   4.664   5.155
10247SOL    HW231641   0.781   4.615   5.208
10248SOL     OW31642   1.183   0.052   3.729
10248SOL    HW131643   1.201   0.148   3.708
10248SOL    HW231644   1.206   7.025   3.650
10249SOL     OW31645   1.590   4.724   0.165
10249SOL    HW131646   1.506   4.673   0.144
10249SOL    HW231647   1.620   4.702   0.258
10250SOL     OW31648   6.350   3.161   0.776
10250SOL    HW131649   6.373   3.093   0.846
10250SOL    HW231650   6.392   3.248   0.800
10251SOL     OW31651   1.838   0.642   3.778
10251SOL    HW131652   1.847   0.707   3.853
10251SOL    HW231653   1.805   0.689   3.696
10252SOL     OW31654   4.769   3.696   5.403
10252SOL    HW131655   4.720   3.654   5.326
10252SOL    HW231656   4.714   3.770   5.441
10253SOL     OW31657   3.960   6.671   0.658
10253SOL    HW131658   3.937   6.769   0.659
10253SOL    HW231659   4.041   6.657   0.602
10254SOL     OW31660   4.561   1.724   5.480
10254SOL    HW131661   4.571   1.775   5.565
10254SOL    HW231662   4.616   1.767   5.408
10255SOL     OW31663   2.441   6.095   1.548
10255SOL    HW131664   2.442   6.062   1.453
10255SOL    HW231665   2.422   6.019   1.609
10256SOL     OW31666   5.143   0.823   1.926
10256SOL    HW131667   5.235   0.821   1.886
10256SOL    HW231668   5.150   0.828   2.026
10257SOL     OW31669   2.361   4.736   3.628
10257SOL    HW131670   2.390   4.676   3.702
10257SOL    HW231671   2.422   4.725   3.549
10258SOL     OW31672   3.689   2.136   3.270
10258SOL    HW131673   3.786   2.141   3.295
10258SOL    HW231674   3.636   2.109   3.351
10259SOL     OW31675   1.034   4.240   4.124
10259SOL    HW131676   1.101   4.168   4.106
10259SOL    HW231677   0.978   4.253   4.042
10260SOL     OW31678   1.350   1.370   3.767
10260SOL    HW131679   1.268   1.396   3.716
10260SOL    HW231680   1.328   1.299   3.834
10261SOL     OW31681   0.512   3.851   0.602
10261SOL    HW131682   0.514   3.907   0.684
10261SOL    HW231683   0.481   3.906   0.524
10262SOL     OW31684   3.665   0.534   6.293
10262SOL    HW131685   3.620   0.449   6.264
10262SOL    HW231686   3.617   0.572   6.371
10263SOL     OW31687   5.857   0.772   0.536
10263SOL    HW131688   5.839   0.735   0.627
10263SOL    HW231689   5.895   0.700   0.478
10264SOL     OW31690   5.944   4.924   6.526
10264SOL    HW131691   5.974   4.833   6.499
10264SOL    HW231692   5.899   4.919   6.615
10265SOL     OW31693   2.143   2.729   0.483
10265SOL    HW131694   2.147   2.663   0.558
10265SOL    HW231695   2.169   2.684   0.397
10266SOL     OW31696   3.169   2.984   3.022
10266SOL    HW131697   3.163   2.885   3.009
10266SOL    HW231698   3.179   3.004   3.120
10267SOL     OW31699   5.093   0.895   1.050
10267SOL    HW131700   5.118   0.972   1.108
10267SOL    HW231701   5.096   0.923   0.954
10268SOL     OW31702   5.614   6.549   1.729
10268SOL    HW131703   5.706   6.579   1.705
10268SOL    HW231704   5.573   6.503   1.650
10269SOL     OW31705   1.388   2.756   6.707
10269SOL    HW131706   1.392   2.821   6.631
10269SOL    HW231707   1.344   2.800   6.786
10270SOL     OW31708   3.597   6.048   2.402
10270SOL    HW131709   3.578   5.979   2.471
10270SOL    HW231710   3.649   6.007   2.327
10271SOL     OW31711   3.307   2.795   0.725
10271SOL    HW131712   3.333   2.830   0.815
10271SOL    HW231713   3.326   2.865   0.656
10272SOL     OW31714   0.042   1.216   3.966
10272SOL    HW131715   0.009   1.288   4.027
10272SOL    HW231716   0.092   1.258   3.890
10273SOL     OW31717   3.028   4.853   4.585
10273SOL    HW131718   2.953   4.811   4.534
10273SOL    HW231719   3.016   4.834   4.683
10274SOL     OW31720   0.724   5.224   5.584
10274SOL    HW131721   0.669   5.141   5.585
10274SOL    HW231722   0.767   5.237   5.673
10275SOL     OW31723   0.066   0.585   2.723
10275SOL    HW131724   7.016   0.524   2.720
10275SOL    HW231725   0.104   0.586   2.815
10276SOL     OW31726   4.456   5.706   5.645
10276SOL    HW131727   4.484   5.658   5.561
10276SOL    HW231728   4.359   5.727   5.640
10277SOL     OW31729   0.935   0.105   4.518
10277SOL    HW131730   0.863   0.164   4.555
10277SOL    HW231731   0.971   0.047   4.590
10278SOL     OW31732   0.237   0.719   4.452
10278SOL    HW131733   0.336   0.721   4.440
10278SOL    HW231734   0.202   0.629   4.426
10279SOL     OW31735   2.821   5.387   4.194
10279SOL    HW131736   2.794   5.354   4.285
10279SOL    HW231737   2.781   5.478   4.179
10280SOL     OW31738   5.292   3.490   0.112
10280SOL    HW131739   5.251   3.579   0.129
10280SOL    HW231740   5.367   3.499   0.047
10281SOL     OW31741   0.199   2.472   3.158
10281SOL    HW131742   0.269   2.528   3.202
10281SOL    HW231743   0.141   2.530   3.100
10282SOL     OW31744   4.843   3.213   3.276
10282SOL    HW131745   4.834   3.116   3.300
10282SOL    HW231746   4.759   3.245   3.232
10283SOL     OW31747   0.857   3.270   0.676
10283SOL    HW131748   0.815   3.273   0.767
10283SOL    HW231749   0.806   3.206   0.619
10284SOL     OW31750   6.641   2.064   3.966
10284SOL    HW131751   6.560   2.122   3.971
10284SOL    HW231752   6.719   2.111   4.009
10285SOL     OW31753   4.091   6.980   3.337
10285SOL    HW131754   4.041   6.931   3.266
10285SOL    HW231755   4.027   7.010   3.408
10286SOL     OW31756   3.430   0.576   3.990
10286SOL    HW131757   3.379   0.556   3.906
10286SOL    HW231758   3.448   0.491   4.039
10287SOL     OW31759   1.844   5.785   2.038
10287SOL    HW131760   1.922   5.837   2.002
10287SOL    HW231761   1.832   5.702   1.985
10288SOL     OW31762   3.504   6.966   4.701
10288SOL    HW131763   3.559   6.948   4.783
10288SOL    HW231764   3.449   6.885   4.679
10289SOL     OW31765   3.188   5.510   0.960
10289SOL    HW131766   3.162   5.606   0.951
10289SOL    HW231767   3.287   5.504   0.977
10290SOL     OW31768   2.919   3.358   2.430
10290SOL    HW131769   2.981   3.286   2.400
10290SOL    HW231770   2.909   3.354   2.530
10291SOL     OW31771   3.642   1.559   3.133
10291SOL    HW131772   3.727   1.506   3.138
10291SOL    HW231773   3.596   1.557   3.222
10292SOL     OW31774   0.321   1.358   6.124
10292SOL    HW131775   0.299   1.292   6.196
10292SOL    HW231776   0.325   1.311   6.036
10293SOL     OW31777   0.507   3.102   3.542
10293SOL    HW131778   0.428   3.128   3.487
10293SOL    HW231779   0.567   3.181   3.552
10294SOL     OW31780   3.894   1.888   3.039
10294SOL    HW131781   3.870   1.984   3.024
10294SOL    HW231782   3.943   1.854   2.959
10295SOL     OW31783   0.838   2.422   6.135
10295SOL    HW131784   0.911   2.386   6.077
10295SOL    HW231785   0.783   2.486   6.082
10296SOL     OW31786   5.731   1.112   5.822
10296SOL    HW131787   5.760   1.187   5.881
10296SOL    HW231788   5.687   1.041   5.878
10297SOL     OW31789   2.258   1.323   0.038
10297SOL    HW131790   2.217   1.393   0.096
10297SOL    HW231791   2.357   1.333   0.037
10298SOL     OW31792   1.704   4.538   2.032
10298SOL    HW131793   1.608   4.517   2.014
10298SOL    HW231794   1.719   4.547   2.131
10299SOL     OW31795   4.235   6.575   2.363
10299SOL    HW131796   4.247   6.516   2.284
10299SOL    HW231797   4.142   6.610   2.365
10300SOL     OW31798   1.333   4.075   1.545
10300SOL    HW131799   1.254   4.039   1.496
10300SOL    HW231800   1.411   4.014   1.532
10301SOL     OW31801   4.427   1.498   5.095
10301SOL    HW131802   4.423   1.402   5.068
10301SOL    HW231803   4.442   1.504   5.194
10302SOL     OW31804   2.498   6.258   3.645
10302SOL    HW131805   2.440   6.295   3.572
10302SOL    HW231806   2.462   6.170   3.675
10303SOL     OW31807   1.064   5.767   3.761
10303SOL    HW131808   1.010   5.720   3.691
10303SOL    HW231809   1.127   5.830   3.716
10304SOL     OW31810   6.036   0.152   1.059
10304SOL    HW131811   5.939   0.135   1.042
10304SOL    HW231812   6.061   0.242   1.021
10305SOL     OW31813   2.961   4.138   5.959
10305SOL    HW131814   2.862   4.149   5.950
10305SOL    HW231815   2.986   4.044   5.939
10306SOL     OW31816   5.129   6.095   0.674
10306SOL    HW131817   5.116   6.100   0.575
10306SOL    HW231818   5.207   6.152   0.700
10307SOL     OW31819   2.968   1.693   4.847
10307SOL    HW131820   2.947   1.704   4.944
10307SOL    HW231821   2.890   1.720   4.792
10308SOL     OW31822   2.304   4.287   2.361
10308SOL    HW131823   2.274   4.231   2.439
10308SOL    HW231824   2.273   4.245   2.276
10309SOL     OW31825   6.378   1.462   6.474
10309SOL    HW131826   6.476   1.468   6.494
10309SOL    HW231827   6.353   1.366   6.459
10310SOL     OW31828   3.157   3.619   7.015
10310SOL    HW131829   3.065   3.635   6.979
10310SOL    HW231830   3.225   3.651   6.950
10311SOL     OW31831   6.545   5.724   0.211
10311SOL    HW131832   6.582   5.794   0.273
10311SOL    HW231833   6.561   5.633   0.249
10312SOL     OW31834   4.619   0.312   2.723
10312SOL    HW131835   4.696   0.287   2.781
10312SOL    HW231836   4.534   0.283   2.766
10313SOL     OW31837   3.854   5.914   2.766
10313SOL    HW131838   3.867   5.866   2.853
10313SOL    HW231839   3.801   5.857   2.704
10314SOL     OW31840   0.174   0.441   0.595
10314SOL    HW131841   0.110   0.383   0.646
10314SOL    HW231842   0.162   0.425   0.497
10315SOL     OW31843   5.448   6.829   4.235
10315SOL    HW131844   5.408   6.760   4.294
10315SOL    HW231845   5.503   6.893   4.290
10316SOL     OW31846   6.331   2.669   5.898
10316SOL    HW131847   6.284   2.756   5.888
10316SOL    HW231848   6.414   2.670   5.842
10317SOL     OW31849   3.930   6.060   6.165
10317SOL    HW131850   4.006   6.002   6.135
10317SOL    HW231851   3.950   6.155   6.143
10318SOL     OW31852   4.818   1.077   6.287
10318SOL    HW131853   4.836   1.160   6.340
10318SOL    HW231854   4.846   0.997   6.341
10319SOL     OW31855   0.902   4.560   5.335
10319SOL    HW131856   0.974   4.562   5.404
10319SOL    HW231857   0.900   4.471   5.290
10320SOL     OW31858   0.411   5.874   2.825
10320SOL    HW131859   0.392   5.913   2.734
10320SOL    HW231860   0.351   5.918   2.892
10321SOL     OW31861   5.967   1.783   2.325
10321SOL    HW131862   5.899   1.739   2.266
10321SOL    HW231863   5.958   1.747   2.418
10322SOL     OW31864   4.404   5.249   5.173
10322SOL    HW131865   4.439   5.158   5.196
10322SOL    HW231866   4.328   5.272   5.234
10323SOL     OW31867   6.488   4.974   4.826
10323SOL    HW131868   6.489   5.064   4.868
10323SOL    HW231869   6.575   4.958   4.780
10324SOL     OW31870   3.326   3.228   2.826
10324SOL    HW131871   3.301   3.251   2.732
10324SOL    HW231872   3.254   3.259   2.888
10325SOL     OW31873   0.479   4.709   2.500
10325SOL    HW131874   0.559   4.764   2.527
10325SOL    HW231875   0.437   4.749   2.419
10326SOL     OW31876   5.968   4.166   6.834
10326SOL    HW131877   5.973   4.066   6.843
10326SOL    HW231878   5.956   4.190   6.738
10327SOL     OW31879   2.298   3.254   1.735
10327SOL    HW131880   2.310   3.343   1.780
10327SOL    HW231881   2.387   3.211   1.723
10328SOL     OW31882   6.316   2.529   1.721
10328SOL    HW131883   6.311   2.506   1.624
10328SOL    HW231884   6.263   2.613   1.738
10329SOL     OW31885   2.836   0.988   3.157
10329SOL    HW131886   2.794   0.916   3.101
10329SOL    HW231887   2.886   1.051   3.097
10330SOL     OW31888   4.134   0.382   1.770
10330SOL    HW131889   4.179   0.463   1.731
10330SOL    HW231890   4.156   0.375   1.867
10331SOL     OW31891   6.269   6.261   6.543
10331SOL    HW131892   6.236   6.170   6.519
10331SOL    HW231893   6.364   6.271   6.514
10332SOL     OW31894   0.691   0.134   6.683
10332SOL    HW131895   0.763   0.202   6.667
10332SOL    HW231896   0.732   0.046   6.707
10333SOL     OW31897   0.307   5.810   4.912
10333SOL    HW131898   0.331   5.823   4.816
10333SOL    HW231899   0.372   5.858   4.970
10334SOL     OW31900   3.254   0.534   4.204
10334SOL    HW131901   3.217   0.442   4.195
10334SOL    HW231902   3.246   0.581   4.116
10335SOL     OW31903   1.598   4.642   6.665
10335SOL    HW131904   1.616   4.680   6.755
10335SOL    HW231905   1.629   4.547   6.662
10336SOL     OW31906   6.572   7.025   2.122
10336SOL    HW131907   6.631   0.027   2.048
10336SOL    HW231908   6.478   7.017   2.089
10337SOL     OW31909   0.453   5.774   6.405
10337SOL    HW131910   0.460   5.675   6.403
10337SOL    HW231911   0.544   5.815   6.399
10338SOL     OW31912   1.506   6.436   2.285
10338SOL    HW131913   1.466   6.399   2.201
10338SOL    HW231914   1.459   6.521   2.309
10339SOL     OW31915   6.120   3.420   6.072
10339SOL    HW131916   6.130   3.448   5.977
10339SOL    HW231917   6.083   3.496   6.126
10340SOL     OW31918   1.953   2.914   6.873
10340SOL    HW131919   1.899   2.990   6.837
10340SOL    HW231920   1.971   2.929   6.970
10341SOL     OW31921   2.101   3.391   2.307
10341SOL    HW131922   2.131   3.458   2.375
10341SOL    HW231923   2.161   3.396   2.227
10342SOL     OW31924   1.592   0.471   3.447
10342SOL    HW131925   1.592   0.487   3.546
10342SOL    HW231926   1.649   0.392   3.426
10343SOL     OW31927   2.700   5.318   0.539
10343SOL    HW131928   2.657   5.361   0.460
10343SOL    HW231929   2.634   5.314   0.614
10344SOL     OW31930   3.749   4.220   0.300
10344SOL    HW131931   3.775   4.305   0.347
10344SOL    HW231932   3.801   4.144   0.338
10345SOL     OW31933   1.767   3.128   5.663
10345SOL    HW131934   1.732   3.149   5.754
10345SOL    HW231935   1.750   3.031   5.641
10346SOL     OW31936   0.014   5.441   1.365
10346SOL    HW131937   0.103   5.413   1.400
10346SOL    HW231938   0.019   5.452   1.265
10347SOL     OW31939   4.997   0.946   3.403
10347SOL    HW131940   5.015   0.871   3.340
10347SOL    HW231941   4.938   0.914   3.477
10348SOL     OW31942   6.103   2.593   0.353
10348SOL    HW131943   6.092   2.566   0.257
10348SOL    HW231944   6.068   2.685   0.366
10349SOL     OW31945   0.681   0.671   6.757
10349SOL    HW131946   0.731   0.747   6.801
10349SOL    HW231947   0.583   0.690   6.760
10350SOL     OW31948   2.686   5.411   5.224
10350SOL    HW131949   2.729   5.328   5.187
10350SOL    HW231950   2.590   5.413   5.196
10351SOL     OW31951   4.922   5.274   6.938
10351SOL    HW131952   4.962   5.258   6.848
10351SOL    HW231953   4.975   5.225   7.007
10352SOL     OW31954   3.338   0.817   6.367
10352SOL    HW131955   3.361   0.724   6.393
10352SOL    HW231956   3.319   0.822   6.269
10353SOL     OW31957   6.695   3.035   4.751
10353SOL    HW131958   6.715   2.954   4.805
10353SOL    HW231959   6.679   3.009   4.656
10354SOL     OW31960   5.692   0.900   1.449
10354SOL    HW131961   5.622   0.874   1.515
10354SOL    HW231962   5.711   0.998   1.458
10355SOL     OW31963   2.403   6.146   2.017
10355SOL    HW131964   2.348   6.230   2.012
10355SOL    HW231965   2.356   6.078   2.072
10356SOL     OW31966   0.154   4.268   6.350
10356SOL    HW131967   0.113   4.354   6.320
10356SOL    HW231968   0.084   4.211   6.393
10357SOL     OW31969   2.353   2.656   6.348
10357SOL    HW131970   2.336   2.576   6.291
10357SOL    HW231971   2.327   2.739   6.298
10358SOL     OW31972   6.821   2.650   2.907
10358SOL    HW131973   6.752   2.580   2.888
10358SOL    HW231974   6.826   2.667   3.005
10359SOL     OW31975   0.516   1.429   0.981
10359SOL    HW131976   0.605   1.475   0.980
10359SOL    HW231977   0.515   1.357   1.050
10360SOL     OW31978   4.173   4.980   3.030
10360SOL    HW131979   4.170   4.885   3.061
10360SOL    HW231980   4.082   5.008   2.998
10361SOL     OW31981   2.533   6.223   2.462
10361SOL    HW131982   2.599   6.166   2.512
10361SOL    HW231983   2.491   6.288   2.525
10362SOL     OW31984   1.715   4.857   4.984
10362SOL    HW131985   1.760   4.777   4.944
10362SOL    HW231986   1.727   4.936   4.925
10363SOL     OW31987   4.584   1.104   3.495
10363SOL    HW131988   4.492   1.138   3.515
10363SOL    HW231989   4.588   1.005   3.511
10364SOL     OW31990   2.902   3.739   1.412
10364SOL    HW131991   2.971   3.774   1.475
10364SOL    HW231992   2.903   3.793   1.328
10365SOL     OW31993   4.095   5.753   0.445
10365SOL    HW131994   4.087   5.834   0.502
10365SOL    HW231995   4.192   5.736   0.425
10366SOL     OW31996   2.847   0.334   3.858
10366SOL    HW131997   2.832   0.432   3.849
10366SOL    HW231998   2.857   0.310   3.954
10367SOL     OW31999   5.877   2.175   2.512
10367SOL    HW132000   5.913   2.134   2.428
10367SOL    HW232001   5.799   2.122   2.545
10368SOL     OW32002   2.998   0.976   1.651
10368SOL    HW132003   2.933   0.920   1.703
10368SOL    HW232004   2.985   0.959   1.553
10369SOL     OW32005   4.222   1.300   0.909
10369SOL    HW132006   4.277   1.381   0.932
10369SOL    HW232007   4.200   1.301   0.812
10370SOL     OW32008   4.485   0.725   5.220
10370SOL    HW132009   4.554   0.796   5.209
10370SOL    HW232010   4.443   0.704   5.131
10371SOL     OW32011   3.209   5.799   5.605
10371SOL    HW132012   3.180   5.886   5.646
10371SOL    HW232013   3.288   5.764   5.655
10372SOL     OW32014   2.790   0.822   4.706
10372SOL    HW132015   2.873   0.876   4.691
10372SOL    HW232016   2.807   0.756   4.779
10373SOL     OW32017   1.610   6.630   4.698
10373SOL    HW132018   1.531   6.618   4.638
10373SOL    HW232019   1.663   6.545   4.702
10374SOL     OW32020   2.800   1.715   3.478
10374SOL    HW132021   2.816   1.811   3.499
10374SOL    HW232022   2.840   1.657   3.549
10375SOL     OW32023   5.284   2.070   0.466
10375SOL    HW132024   5.359   2.137   0.467
10375SOL    HW232025   5.301   2.002   0.394
10376SOL     OW32026   0.787   1.133   4.191
10376SOL    HW132027   0.838   1.177   4.265
10376SOL    HW232028   0.851   1.106   4.119
10377SOL     OW32029   0.195   0.513   3.512
10377SOL    HW132030   0.098   0.534   3.513
10377SOL    HW232031   0.246   0.587   3.557
10378SOL     OW32032   6.831   0.671   5.789
10378SOL    HW132033   6.776   0.754   5.781
10378SOL    HW232034   6.800   0.604   5.721
10379SOL     OW32035   5.516   0.347   5.647
10379SOL    HW132036   5.610   0.319   5.665
10379SOL    HW232037   5.498   0.342   5.549
10380SOL     OW32038   5.867   0.586   2.730
10380SOL    HW132039   5.803   0.659   2.705
10380SOL    HW232040   5.831   0.498   2.699
10381SOL     OW32041   4.637   5.394   6.087
10381SOL    HW132042   4.594   5.461   6.027
10381SOL    HW232043   4.712   5.437   6.136
10382SOL     OW32044   2.462   5.472   5.944
10382SOL    HW132045   2.544   5.431   5.903
10382SOL    HW232046   2.381   5.443   5.894
10383SOL     OW32047   1.590   3.508   0.606
10383SOL    HW132048   1.538   3.478   0.527
10383SOL    HW232049   1.687   3.485   0.593
10384SOL     OW32050   6.856   0.117   1.283
10384SOL    HW132051   6.885   0.025   1.312
10384SOL    HW232052   6.829   0.170   1.364
10385SOL     OW32053   5.882   0.408   6.301
10385SOL    HW132054   5.954   0.369   6.244
10385SOL    HW232055   5.908   0.501   6.328
10386SOL     OW32056   6.596   3.372   4.916
10386SOL    HW132057   6.609   3.324   4.829
10386SOL    HW232058   6.517   3.334   4.963
10387SOL     OW32059   2.317   2.199   3.176
10387SOL    HW132060   2.237   2.221   3.231
10387SOL    HW232061   2.340   2.276   3.117
10388SOL     OW32062   1.141   4.853   3.156
10388SOL    HW132063   1.236   4.871   3.182
10388SOL    HW232064   1.090   4.939   3.157
10389SOL     OW32065   1.043   5.103   3.516
10389SOL    HW132066   1.108   5.125   3.444
10389SOL    HW232067   1.079   5.028   3.572
10390SOL     OW32068   1.761   3.590   3.269
10390SOL    HW132069   1.842   3.546   3.230
10390SOL    HW232070   1.766   3.587   3.368
10391SOL     OW32071   1.372   6.097   6.483
10391SOL    HW132072   1.384   6.176   6.544
10391SOL    HW232073   1.442   6.028   6.504
10392SOL     OW32074   5.867   4.971   0.323
10392SOL    HW132075   5.886   4.904   0.395
10392SOL    HW232076   5.899   4.936   0.235
10393SOL     OW32077   0.948   1.318   3.962
10393SOL    HW132078   0.924   1.325   3.865
10393SOL    HW232079   0.997   1.233   3.979
10394SOL     OW32080   2.433   6.683   6.888
10394SOL    HW132081   2.460   6.651   6.979
10394SOL    HW232082   2.467   6.619   6.819
10395SOL     OW32083   6.879   1.037   4.168
10395SOL    HW132084   6.978   1.021   4.174
10395SOL    HW232085   6.830   0.952   4.189
10396SOL     OW32086   0.667   0.131   4.125
10396SOL    HW132087   0.707   0.086   4.205
10396SOL    HW232088   0.573   0.097   4.113
10397SOL     OW32089   3.982   0.913   3.540
10397SOL    HW132090   4.064   0.918   3.482
10397SOL    HW232091   3.915   0.980   3.509
10398SOL     OW32092   6.379   3.066   1.469
10398SOL    HW132093   6.363   3.085   1.372
10398SOL    HW232094   6.400   3.152   1.516
10399SOL     OW32095   4.710   2.163   5.503
10399SOL    HW132096   4.614   2.162   5.474
10399SOL    HW232097   4.727   2.087   5.566
10400SOL     OW32098   2.657   5.518   2.710
10400SOL    HW132099   2.642   5.557   2.619
10400SOL    HW232100   2.573   5.472   2.740
10401SOL     OW32101   6.813   5.847   2.179
10401SOL    HW132102   6.845   5.922   2.236
10401SOL    HW232103   6.891   5.798   2.141
10402SOL     OW32104   1.131   3.624   5.075
10402SOL    HW132105   1.084   3.547   5.032
10402SOL    HW232106   1.100   3.709   5.033
10403SOL     OW32107   5.555   1.790   2.020
10403SOL    HW132108   5.461   1.784   1.987
10403SOL    HW232109   5.573   1.884   2.050
10404SOL     OW32110   0.657   6.358   4.140
10404SOL    HW132111   0.702   6.275   4.107
10404SOL    HW232112   0.703   6.391   4.222
10405SOL     OW32113   2.088   6.509   5.703
10405SOL    HW132114   2.040   6.546   5.782
10405SOL    HW232115   2.181   6.482   5.729
10406SOL     OW32116   2.665   4.532   6.153
10406SOL    HW132117   2.692   4.438   6.176
10406SOL    HW232118   2.637   4.536   6.057
10407SOL     OW32119   1.002   1.859   6.116
10407SOL    HW132120   1.064   1.824   6.045
10407SOL    HW232121   0.945   1.932   6.077
10408SOL     OW32122   4.650   4.603   3.394
10408SOL    HW132123   4.588   4.652   3.455
10408SOL    HW232124   4.613   4.601   3.302
10409SOL     OW32125   0.407   3.692   1.880
10409SOL    HW132126   0.345   3.763   1.916
10409SOL    HW232127   0.492   3.693   1.932
10410SOL     OW32128   4.762   0.934   1.181
10410SOL    HW132129   4.850   0.933   1.228
10410SOL    HW232130   4.718   1.022   1.197
10411SOL     OW32131   2.156   4.581   2.902
10411SOL    HW132132   2.146   4.537   2.813
10411SOL    HW232133   2.248   4.620   2.910
10412SOL     OW32134   1.559   2.285   6.979
10412SOL    HW132135   1.543   2.225   6.901
10412SOL    HW232136   1.637   2.345   6.960
10413SOL     OW32137   0.412   2.119   6.652
10413SOL    HW132138   0.392   2.176   6.732
10413SOL    HW232139   0.511   2.112   6.640
10414SOL     OW32140   5.438   6.454   6.737
10414SOL    HW132141   5.497   6.385   6.695
10414SOL    HW232142   5.448   6.450   6.837
10415SOL     OW32143   0.350   5.989   3.510
10415SOL    HW132144   0.341   5.947   3.601
10415SOL    HW232145   0.266   5.974   3.459
10416SOL     OW32146   6.010   2.027   4.353
10416SOL    HW132147   6.038   1.972   4.432
10416SOL    HW232148   6.076   2.100   4.338
10417SOL     OW32149   3.917   5.016   3.453
10417SOL    HW132150   3.826   5.002   3.415
10417SOL    HW232151   3.974   5.064   3.387
10418SOL     OW32152   0.015   4.072   6.493
10418SOL    HW132153   7.014   4.043   6.584
10418SOL    HW232154   0.081   4.006   6.458
10419SOL     OW32155   3.316   0.957   5.162
10419SOL    HW132156   3.327   1.032   5.097
10419SOL    HW232157   3.260   0.885   5.121
10420SOL     OW32158   7.011   3.107   3.269
10420SOL    HW132159   6.975   3.143   3.356
10420SOL    HW232160   6.936   3.069   3.215
10421SOL     OW32161   1.222   4.651   3.998
10421SOL    HW132162   1.199   4.591   3.921
10421SOL    HW232163   1.176   4.618   4.081
10422SOL     OW32164   6.759   3.698   4.458
10422SOL    HW132165   6.734   3.789   4.493
10422SOL    HW232166   6.728   3.689   4.364
10423SOL     OW32167   3.566   4.956   3.997
10423SOL    HW132168   3.565   4.985   4.093
10423SOL    HW232169   3.474   4.930   3.969
10424SOL     OW32170   3.650   0.983   6.632
10424SOL    HW132171   3.702   1.066   6.617
10424SOL    HW232172   3.710   0.903   6.621
10425SOL     OW32173   1.810   1.066   0.770
10425SOL    HW132174   1.870   1.083   0.849
10425SOL    HW232175   1.844   1.118   0.691
10426SOL     OW32176   5.547   2.653   6.151
10426SOL    HW132177   5.538   2.556   6.177
10426SOL    HW232178   5.634   2.667   6.104
10427SOL     OW32179   5.934   6.782   4.821
10427SOL    HW132180   5.966   6.769   4.915
10427SOL    HW232181   5.852   6.840   4.822
10428SOL     OW32182   2.011   0.679   3.494
10428SOL    HW132183   1.941   0.732   3.542
10428SOL    HW232184   2.071   0.741   3.444
10429SOL     OW32185   0.987   3.008   2.723
10429SOL    HW132186   0.967   2.910   2.725
10429SOL    HW232187   1.084   3.023   2.707
10430SOL     OW32188   3.515   0.442   3.677
10430SOL    HW132189   3.573   0.508   3.725
10430SOL    HW232190   3.547   0.432   3.583
10431SOL     OW32191   2.947   1.786   3.957
10431SOL    HW132192   2.872   1.837   3.914
10431SOL    HW232193   2.919   1.691   3.970
10432SOL     OW32194   0.391   6.421   5.834
10432SOL    HW132195   0.409   6.483   5.758
10432SOL    HW232196   0.436   6.455   5.917
10433SOL     OW32197   1.701   0.020   1.971
10433SOL    HW132198   1.797   7.022   1.967
10433SOL    HW232199   1.663   7.021   2.059
10434SOL     OW32200   4.336   6.512   5.738
10434SOL    HW132201   4.271   6.437   5.723
10434SOL    HW232202   4.401   6.486   5.809
10435SOL     OW32203   1.328   2.491   6.729
10435SOL    HW132204   1.333   2.590   6.717
10435SOL    HW232205   1.238   2.466   6.763
10436SOL     OW32206   0.061   4.624   5.083
10436SOL    HW132207   0.061   4.525   5.095
10436SOL    HW232208   0.097   4.668   5.165
10437SOL     OW32209   5.497   5.271   5.313
10437SOL    HW132210   5.401   5.247   5.302
10437SOL    HW232211   5.518   5.353   5.259
10438SOL     OW32212   6.603   6.088   6.307
10438SOL    HW132213   6.681   6.137   6.269
10438SOL    HW232214   6.597   5.997   6.265
10439SOL     OW32215   6.643   6.710   4.525
10439SOL    HW132216   6.619   6.804   4.502
10439SOL    HW232217   6.636   6.697   4.624
10440SOL     OW32218   6.995   2.279   6.259
10440SOL    HW132219   0.002   2.187   6.274
10440SOL    HW232220   7.027   2.340   6.332
10441SOL     OW32221   3.709   2.087   1.027
10441SOL    HW132222   3.646   2.021   0.984
10441SOL    HW232223   3.682   2.180   1.003
10442SOL     OW32224   2.287   1.677   5.531
10442SOL    HW132225   2.328   1.613   5.465
10442SOL    HW232226   2.313   1.770   5.508
10443SOL     OW32227   0.440   1.322   3.062
10443SOL    HW132228   0.500   1.366   2.996
10443SOL    HW232229   0.494   1.279   3.134
10444SOL     OW32230   4.080   5.492   4.542
10444SOL    HW132231   4.126   5.512   4.629
10444SOL    HW232232   4.136   5.525   4.467
10445SOL     OW32233   1.879   3.974   2.713
10445SOL    HW132234   1.831   3.923   2.784
10445SOL    HW232235   1.946   4.035   2.755
10446SOL     OW32236   1.636   4.574   5.576
10446SOL    HW132237   1.680   4.600   5.490
10446SOL    HW232238   1.537   4.576   5.564
10447SOL     OW32239   0.170   1.943   2.951
10447SOL    HW132240   0.157   1.961   2.853
10447SOL    HW232241   0.268   1.927   2.968
10448SOL     OW32242   2.885   5.997   2.935
10448SOL    HW132243   2.898   6.017   3.032
10448SOL    HW232244   2.790   5.974   2.918
10449SOL     OW32245   3.850   5.652   6.116
10449SOL    HW132246   3.914   5.609   6.180
10449SOL    HW232247   3.881   5.745   6.095
10450SOL     OW32248   0.151   0.434   6.358
10450SOL    HW132249   0.159   0.522   6.405
10450SOL    HW232250   0.095   0.371   6.414
10451SOL     OW32251   2.235   0.691   3.315
10451SOL    HW132252   2.327   0.730   3.315
10451SOL    HW232253   2.237   0.601   3.270
10452SOL     OW32254   6.930   3.745   4.028
10452SOL    HW132255   6.976   3.712   3.945
10452SOL    HW232256   6.996   3.793   4.086
10453SOL     OW32257   4.420   5.386   3.087
10453SOL    HW132258   4.342   5.401   3.147
10453SOL    HW232259   4.428   5.288   3.067
10454SOL     OW32260   6.240   0.902   5.909
10454SOL    HW132261   6.152   0.944   5.930
10454SOL    HW232262   6.231   0.846   5.827
10455SOL     OW32263   5.897   6.713   4.237
10455SOL    HW132264   5.851   6.700   4.149
10455SOL    HW232265   5.858   6.652   4.305
10456SOL     OW32266   0.375   5.426   7.010
10456SOL    HW132267   0.467   5.457   6.985
10456SOL    HW232268   0.356   5.452   0.075
10457SOL     OW32269   3.664   2.546   7.006
10457SOL    HW132270   3.733   2.522   6.938
10457SOL    HW232271   3.574   2.513   6.976
10458SOL     OW32272   6.901   6.006   6.549
10458SOL    HW132273   6.830   5.938   6.568
10458SOL    HW232274   6.963   5.971   6.479
10459SOL     OW32275   0.101   5.373   0.540
10459SOL    HW132276   0.040   5.330   0.607
10459SOL    HW232277   0.146   5.452   0.582
10460SOL     OW32278   0.622   2.704   0.299
10460SOL    HW132279   0.598   2.639   0.228
10460SOL    HW232280   0.596   2.796   0.270
10461SOL     OW32281   0.245   5.597   5.118
10461SOL    HW132282   0.277   5.650   5.196
10461SOL    HW232283   0.281   5.638   5.034
10462SOL     OW32284   4.075   1.777   0.735
10462SOL    HW132285   4.018   1.708   0.691
10462SOL    HW232286   4.022   1.826   0.804
10463SOL     OW32287   4.945   3.026   6.259
10463SOL    HW132288   4.997   2.956   6.307
10463SOL    HW232289   4.912   2.990   6.172
10464SOL     OW32290   6.067   5.088   2.794
10464SOL    HW132291   6.004   5.143   2.738
10464SOL    HW232292   6.116   5.148   2.856
10465SOL     OW32293   6.010   3.878   2.303
10465SOL    HW132294   5.920   3.905   2.267
10465SOL    HW232295   6.052   3.811   2.242
10466SOL     OW32296   5.963   4.898   6.190
10466SOL    HW132297   5.879   4.914   6.242
10466SOL    HW232298   6.035   4.961   6.221
10467SOL     OW32299   1.680   2.960   0.072
10467SOL    HW132300   1.711   3.039   0.125
10467SOL    HW232301   1.636   2.991   7.018
10468SOL     OW32302   2.794   4.824   3.954
10468SOL    HW132303   2.856   4.825   4.032
10468SOL    HW232304   2.712   4.771   3.976
10469SOL     OW32305   6.171   1.667   4.997
10469SOL    HW132306   6.266   1.683   4.969
10469SOL    HW232307   6.115   1.649   4.916
10470SOL     OW32308   2.436   2.378   3.938
10470SOL    HW132309   2.343   2.412   3.940
10470SOL    HW232310   2.468   2.373   3.844
10471SOL     OW32311   2.817   6.784   0.762
10471SOL    HW132312   2.795   6.704   0.818
10471SOL    HW232313   2.867   6.851   0.818
10472SOL     OW32314   3.149   5.225   0.307
10472SOL    HW132315   3.243   5.224   0.341
10472SOL    HW232316   3.141   5.290   0.232
10473SOL     OW32317   5.399   4.419   6.880
10473SOL    HW132318   5.327   4.422   6.949
10473SOL    HW232319   5.406   4.509   6.837
10474SOL     OW32320   5.075   0.799   4.196
10474SOL    HW132321   5.053   0.892   4.167
10474SOL    HW232322   5.123   0.751   4.123
10475SOL     OW32323   0.861   6.706   1.792
10475SOL    HW132324   0.928   6.635   1.768
10475SOL    HW232325   0.839   6.759   1.710
10476SOL     OW32326   3.750   6.204   0.163
10476SOL    HW132327   3.678   6.149   0.120
10476SOL    HW232328   3.768   6.169   0.255
10477SOL     OW32329   6.200   6.466   3.954
10477SOL    HW132330   6.224   6.400   4.025
10477SOL    HW232331   6.225   6.558   3.983
10478SOL     OW32332   6.312   0.243   6.954
10478SOL    HW132333   6.330   0.148   6.982
10478SOL    HW232334   6.225   0.247   6.905
10479SOL     OW32335   0.097   1.773   2.493
10479SOL    HW132336   0.146   1.692   2.524
10479SOL    HW232337   0.154   1.824   2.428
10480SOL     OW32338   1.777   0.304   2.294
10480SOL    HW132339   1.695   0.263   2.335
10480SOL    HW232340   1.855   0.290   2.356
10481SOL     OW32341   0.255   0.442   2.925
10481SOL    HW132342   0.282   0.534   2.953
10481SOL    HW232343   0.191   0.403   2.992
10482SOL     OW32344   5.188   3.522   3.654
10482SOL    HW132345   5.252   3.507   3.579
10482SOL    HW232346   5.094   3.526   3.619
10483SOL     OW32347   6.339   5.268   0.506
10483SOL    HW132348   6.331   5.358   0.463
10483SOL    HW232349   6.277   5.204   0.461
10484SOL     OW32350   6.464   1.218   1.272
10484SOL    HW132351   6.469   1.240   1.370
10484SOL    HW232352   6.444   1.121   1.260
10485SOL     OW32353   5.444   3.607   5.774
10485SOL    HW132354   5.420   3.521   5.728
10485SOL    HW232355   5.423   3.599   5.872
10486SOL     OW32356   5.965   2.603   0.659
10486SOL    HW132357   5.914   2.595   0.744
10486SOL    HW232358   6.063   2.595   0.677
10487SOL     OW32359   6.155   6.622   1.393
10487SOL    HW132360   6.211   6.699   1.362
10487SOL    HW232361   6.118   6.643   1.483
10488SOL     OW32362   3.066   2.973   6.765
10488SOL    HW132363   3.085   2.966   6.863
10488SOL    HW232364   2.968   2.990   6.751
10489SOL     OW32365   0.029   5.678   6.508
10489SOL    HW132366   0.061   5.771   6.491
10489SOL    HW232367   0.107   5.618   6.526
10490SOL     OW32368   6.819   1.170   3.383
10490SOL    HW132369   6.902   1.158   3.438
10490SOL    HW232370   6.841   1.155   3.286
10491SOL     OW32371   2.064   4.616   6.220
10491SOL    HW132372   2.078   4.527   6.176
10491SOL    HW232373   2.145   4.673   6.204
10492SOL     OW32374   4.920   3.384   5.187
10492SOL    HW132375   4.881   3.460   5.134
10492SOL    HW232376   4.848   3.320   5.211
10493SOL     OW32377   3.660   0.972   1.868
10493SOL    HW132378   3.696   1.019   1.949
10493SOL    HW232379   3.720   0.895   1.845
10494SOL     OW32380   5.613   2.242   3.775
10494SOL    HW132381   5.618   2.164   3.836
10494SOL    HW232382   5.616   2.327   3.829
10495SOL     OW32383   2.187   6.824   0.619
10495SOL    HW132384   2.142   6.828   0.529
10495SOL    HW232385   2.197   6.916   0.656
10496SOL     OW32386   0.464   6.602   6.852
10496SOL    HW132387   0.368   6.575   6.848
10496SOL    HW232388   0.518   6.531   6.897
10497SOL     OW32389   1.425   0.788   0.668
10497SOL    HW132390   1.524   0.798   0.679
10497SOL    HW232391   1.401   0.691   0.678
10498SOL     OW32392   1.748   6.912   6.219
10498SOL    HW132393   1.793   6.999   6.198
10498SOL    HW232394   1.785   6.840   6.160
10499SOL     OW32395   2.879   5.687   3.272
10499SOL    HW132396   2.892   5.729   3.362
10499SOL    HW232397   2.904   5.591   3.276
10500SOL     OW32398   0.892   2.099   6.069
10500SOL    HW132399   0.812   2.159   6.066
10500SOL    HW232400   0.967   2.145   6.117
10501SOL     OW32401   2.208   3.902   2.746
10501SOL    HW132402   2.266   3.982   2.760
10501SOL    HW232403   2.171   3.904   2.653
10502SOL     OW32404   3.035   6.407   0.530
10502SOL    HW132405   3.040   6.391   0.432
10502SOL    HW232406   3.050   6.504   0.550
10503SOL     OW32407   3.391   2.992   0.485
10503SOL    HW132408   3.482   3.013   0.519
10503SOL    HW232409   3.322   3.034   0.544
10504SOL     OW32410   2.845   3.017   0.236
10504SOL    HW132411   2.890   3.080   0.174
10504SOL    HW232412   2.752   2.998   0.203
10505SOL     OW32413   6.201   6.151   1.127
10505SOL    HW132414   6.223   6.054   1.132
10505SOL    HW232415   6.218   6.194   1.215
10506SOL     OW32416   0.973   4.162   6.154
10506SOL    HW132417   0.933   4.134   6.067
10506SOL    HW232418   1.062   4.205   6.138
10507SOL     OW32419   1.057   0.698   6.369
10507SOL    HW132420   1.074   0.641   6.289
10507SOL    HW232421   1.106   0.785   6.359
10508SOL     OW32422   5.310   5.030   3.746
10508SOL    HW132423   5.275   5.020   3.839
10508SOL    HW232424   5.263   5.106   3.701
10509SOL     OW32425   1.131   6.596   6.892
10509SOL    HW132426   1.126   6.512   6.837
10509SOL    HW232427   1.100   6.576   6.985
10510SOL     OW32428   5.722   5.289   6.938
10510SOL    HW132429   5.786   5.333   6.876
10510SOL    HW232430   5.763   5.204   6.973
10511SOL     OW32431   4.192   3.290   0.500
10511SOL    HW132432   4.270   3.249   0.548
10511SOL    HW232433   4.195   3.264   0.403
10512SOL     OW32434   4.617   0.474   6.166
10512SOL    HW132435   4.531   0.525   6.168
10512SOL    HW232436   4.636   0.446   6.071
10513SOL     OW32437   0.724   2.372   5.793
10513SOL    HW132438   0.644   2.416   5.752
10513SOL    HW232439   0.700   2.340   5.884
10514SOL     OW32440   6.588   4.450   0.062
10514SOL    HW132441   6.577   4.357   0.026
10514SOL    HW232442   6.507   4.504   0.038
10515SOL     OW32443   6.476   1.771   3.242
10515SOL    HW132444   6.458   1.713   3.162
10515SOL    HW232445   6.517   1.857   3.211
10516SOL     OW32446   4.329   0.610   6.487
10516SOL    HW132447   4.360   0.645   6.575
10516SOL    HW232448   4.297   0.686   6.430
10517SOL     OW32449   6.651   1.804   2.554
10517SOL    HW132450   6.627   1.849   2.640
10517SOL    HW232451   6.570   1.795   2.496
10518SOL     OW32452   1.101   6.222   0.243
10518SOL    HW132453   1.170   6.290   0.266
10518SOL    HW232454   1.111   6.195   0.147
10519SOL     OW32455   3.472   3.150   5.628
10519SOL    HW132456   3.409   3.139   5.705
10519SOL    HW232457   3.419   3.149   5.543
10520SOL     OW32458   3.118   2.908   6.495
10520SOL    HW132459   3.197   2.950   6.450
10520SOL    HW232460   3.127   2.917   6.594
10521SOL     OW32461   6.512   6.263   1.774
10521SOL    HW132462   6.547   6.304   1.690
10521SOL    HW232463   6.480   6.170   1.755
10522SOL     OW32464   6.227   1.092   0.684
10522SOL    HW132465   6.299   1.160   0.672
10522SOL    HW232466   6.267   1.000   0.685
10523SOL     OW32467   0.158   5.457   6.273
10523SOL    HW132468   0.147   5.364   6.237
10523SOL    HW232469   0.176   5.452   6.371
10524SOL     OW32470   2.047   0.153   4.292
10524SOL    HW132471   2.067   0.237   4.242
10524SOL    HW232472   1.998   0.090   4.232
10525SOL     OW32473   1.567   6.933   5.075
10525SOL    HW132474   1.626   6.889   5.007
10525SOL    HW232475   1.477   6.890   5.074
10526SOL     OW32476   0.814   0.846   2.303
10526SOL    HW132477   0.823   0.933   2.351
10526SOL    HW232478   0.752   0.786   2.353
10527SOL     OW32479   0.850   2.671   4.560
10527SOL    HW132480   0.841   2.766   4.530
10527SOL    HW232481   0.894   2.667   4.649
10528SOL     OW32482   0.256   5.142   4.676
10528SOL    HW132483   0.159   5.140   4.650
10528SOL    HW232484   0.271   5.215   4.743
10529SOL     OW32485   0.754   6.424   3.632
10529SOL    HW132486   0.706   6.452   3.715
10529SOL    HW232487   0.843   6.470   3.629
10530SOL     OW32488   2.509   1.904   6.196
10530SOL    HW132489   2.496   1.900   6.097
10530SOL    HW232490   2.607   1.914   6.216
10531SOL     OW32491   1.566   3.420   4.844
10531SOL    HW132492   1.531   3.418   4.938
10531SOL    HW232493   1.654   3.373   4.840
10532SOL     OW32494   3.392   2.487   6.889
10532SOL    HW132495   3.416   2.393   6.912
10532SOL    HW232496   3.328   2.523   6.957
10533SOL     OW32497   3.022   1.377   5.130
10533SOL    HW132498   3.069   1.461   5.154
10533SOL    HW232499   3.087   1.301   5.129
10534SOL     OW32500   6.798   6.245   0.807
10534SOL    HW132501   6.866   6.316   0.827
10534SOL    HW232502   6.749   6.269   0.724
10535SOL     OW32503   0.514   1.237   2.627
10535SOL    HW132504   0.506   1.164   2.559
10535SOL    HW232505   0.428   1.247   2.675
10536SOL     OW32506   5.102   0.352   2.984
10536SOL    HW132507   5.180   0.306   3.025
10536SOL    HW232508   5.117   0.451   2.985
10537SOL     OW32509   3.002   5.463   3.221
10537SOL    HW132510   3.038   5.377   3.258
10537SOL    HW232511   2.921   5.445   3.167
10538SOL     OW32512   4.292   3.707   6.960
10538SOL    HW132513   4.289   3.756   6.872
10538SOL    HW232514   4.320   3.770   0.002
10539SOL     OW32515   0.982   3.157   6.134
10539SOL    HW132516   1.041   3.120   6.062
10539SOL    HW232517   1.029   3.231   6.182
10540SOL     OW32518   1.665   1.012   5.672
10540SOL    HW132519   1.579   0.991   5.720
10540SOL    HW232520   1.649   1.012   5.574
10541SOL     OW32521   4.020   3.659   1.030
10541SOL    HW132522   4.003   3.638   0.933
10541SOL    HW232523   4.043   3.574   1.078
10542SOL     OW32524   0.483   2.429   0.292
10542SOL    HW132525   0.469   2.348   0.349
10542SOL    HW232526   0.427   2.504   0.326
10543SOL     OW32527   0.273   2.262   5.719
10543SOL    HW132528   0.313   2.173   5.737
10543SOL    HW232529   0.211   2.255   5.640
10544SOL     OW32530   2.457   2.054   2.559
10544SOL    HW132531   2.379   1.991   2.553
10544SOL    HW232532   2.468   2.102   2.472
10545SOL     OW32533   6.790   0.110   2.588
10545SOL    HW132534   6.881   0.071   2.598
10545SOL    HW232535   6.722   0.036   2.588
10546SOL     OW32536   2.100   0.148   4.550
10546SOL    HW132537   2.087   0.149   4.450
10546SOL    HW232538   2.193   0.119   4.570
10547SOL     OW32539   4.452   1.109   1.949
10547SOL    HW132540   4.476   1.080   2.042
10547SOL    HW232541   4.360   1.078   1.927
10548SOL     OW32542   5.227   3.832   4.368
10548SOL    HW132543   5.210   3.925   4.401
10548SOL    HW232544   5.183   3.767   4.430
10549SOL     OW32545   0.915   0.452   2.253
10549SOL    HW132546   0.871   0.542   2.257
10549SOL    HW232547   1.014   0.462   2.263
10550SOL     OW32548   5.486   0.159   4.210
10550SOL    HW132549   5.415   0.102   4.169
10550SOL    HW232550   5.445   0.212   4.285
10551SOL     OW32551   1.365   2.013   5.312
10551SOL    HW132552   1.398   2.034   5.220
10551SOL    HW232553   1.265   2.008   5.310
10552SOL     OW32554   3.660   2.277   5.632
10552SOL    HW132555   3.750   2.279   5.677
10552SOL    HW232556   3.604   2.352   5.667
10553SOL     OW32557   0.528   5.519   0.421
10553SOL    HW132558   0.591   5.546   0.348
10553SOL    HW232559   0.579   5.482   0.498
10554SOL     OW32560   6.480   4.741   0.196
10554SOL    HW132561   6.564   4.765   0.146
10554SOL    HW232562   6.503   4.722   0.292
10555SOL     OW32563   3.395   1.701   2.114
10555SOL    HW132564   3.355   1.750   2.192
10555SOL    HW232565   3.479   1.747   2.085
10556SOL     OW32566   2.177   3.597   5.029
10556SOL    HW132567   2.186   3.632   4.936
10556SOL    HW232568   2.223   3.659   5.092
10557SOL     OW32569   0.345   2.729   2.958
10557SOL    HW132570   0.430   2.768   2.994
10557SOL    HW232571   0.272   2.797   2.962
10558SOL     OW32572   4.426   6.541   5.480
10558SOL    HW132573   4.407   6.530   5.577
10558SOL    HW232574   4.519   6.574   5.467
10559SOL     OW32575   4.173   1.979   1.039
10559SOL    HW132576   4.172   1.959   1.137
10559SOL    HW232577   4.080   1.968   1.002
10560SOL     OW32578   1.700   4.981   5.240
10560SOL    HW132579   1.616   4.970   5.293
10560SOL    HW232580   1.701   4.915   5.165
10561SOL     OW32581   1.768   5.215   6.985
10561SOL    HW132582   1.803   5.235   0.046
10561SOL    HW232583   1.694   5.147   6.992
10562SOL     OW32584   4.492   0.101   0.889
10562SOL    HW132585   4.568   0.060   0.939
10562SOL    HW232586   4.497   0.075   0.793
10563SOL     OW32587   1.837   1.859   5.215
10563SOL    HW132588   1.749   1.877   5.260
10563SOL    HW232589   1.825   1.785   5.148
10564SOL     OW32590   6.039   0.823   1.789
10564SOL    HW132591   6.043   0.856   1.694
10564SOL    HW232592   6.132   0.809   1.823
10565SOL     OW32593   6.434   1.004   5.607
10565SOL    HW132594   6.359   0.944   5.634
10565SOL    HW232595   6.414   1.098   5.635
10566SOL     OW32596   3.701   4.106   6.289
10566SOL    HW132597   3.660   4.022   6.254
10566SOL    HW232598   3.630   4.161   6.334
10567SOL     OW32599   1.682   3.334   4.548
10567SOL    HW132600   1.734   3.317   4.465
10567SOL    HW232601   1.745   3.338   4.626
10568SOL     OW32602   5.772   1.205   2.176
10568SOL    HW132603   5.827   1.207   2.092
10568SOL    HW232604   5.676   1.222   2.155
10569SOL     OW32605   6.064   3.149   2.496
10569SOL    HW132606   6.147   3.166   2.442
10569SOL    HW232607   5.997   3.100   2.440
10570SOL     OW32608   1.794   4.380   2.426
10570SOL    HW132609   1.877   4.346   2.382
10570SOL    HW232610   1.773   4.323   2.506
10571SOL     OW32611   6.688   5.557   3.032
10571SOL    HW132612   6.629   5.625   2.987
10571SOL    HW232613   6.662   5.550   3.129
10572SOL     OW32614   5.736   3.453   2.600
10572SOL    HW132615   5.647   3.490   2.573
10572SOL    HW232616   5.809   3.503   2.552
10573SOL     OW32617   5.909   5.890   3.590
10573SOL    HW132618   5.898   5.848   3.680
10573SOL    HW232619   6.003   5.875   3.558
10574SOL     OW32620   1.226   1.795   3.715
10574SOL    HW132621   1.281   1.879   3.723
10574SOL    HW232622   1.198   1.783   3.620
10575SOL     OW32623   0.706   0.978   4.609
10575SOL    HW132624   0.777   1.031   4.656
10575SOL    HW232625   0.671   1.031   4.532
10576SOL     OW32626   1.707   5.983   5.419
10576SOL    HW132627   1.710   5.942   5.510
10576SOL    HW232628   1.786   5.954   5.366
10577SOL     OW32629   1.888   2.961   6.307
10577SOL    HW132630   1.816   3.009   6.258
10577SOL    HW232631   1.977   2.996   6.279
10578SOL     OW32632   5.930   0.477   5.129
10578SOL    HW132633   5.975   0.424   5.200
10578SOL    HW232634   5.986   0.478   5.046
10579SOL     OW32635   4.114   1.576   0.963
10579SOL    HW132636   4.069   1.501   0.916
10579SOL    HW232637   4.101   1.661   0.912
10580SOL     OW32638   6.752   6.334   6.789
10580SOL    HW132639   6.700   6.250   6.776
10580SOL    HW232640   6.846   6.319   6.757
10581SOL     OW32641   6.119   0.441   3.193
10581SOL    HW132642   6.145   0.377   3.265
10581SOL    HW232643   6.182   0.519   3.192
10582SOL     OW32644   3.450   5.305   6.837
10582SOL    HW132645   3.351   5.292   6.829
10582SOL    HW232646   3.494   5.218   6.860
10583SOL     OW32647   3.918   0.979   6.821
10583SOL    HW132648   3.919   1.058   6.883
10583SOL    HW232649   3.888   0.898   6.872
10584SOL     OW32650   5.704   6.215   1.390
10584SOL    HW132651   5.728   6.311   1.375
10584SOL    HW232652   5.689   6.200   1.488
10585SOL     OW32653   1.433   3.014   5.751
10585SOL    HW132654   1.343   3.013   5.706
10585SOL    HW232655   1.502   2.975   5.690
10586SOL     OW32656   2.870   5.957   5.905
10586SOL    HW132657   2.846   6.054   5.907
10586SOL    HW232658   2.788   5.902   5.921
10587SOL     OW32659   5.680   3.762   0.055
10587SOL    HW132660   5.664   3.713   0.141
10587SOL    HW232661   5.635   3.713   7.010
10588SOL     OW32662   0.853   4.597   2.366
10588SOL    HW132663   0.777   4.585   2.429
10588SOL    HW232664   0.906   4.512   2.362
10589SOL     OW32665   5.583   2.749   4.484
10589SOL    HW132666   5.584   2.762   4.385
10589SOL    HW232667   5.546   2.830   4.529
10590SOL     OW32668   0.968   6.968   3.024
10590SOL    HW132669   1.016   7.016   2.951
10590SOL    HW232670   0.874   6.948   2.995
10591SOL     OW32671   1.482   1.203   5.898
10591SOL    HW132672   1.386   1.213   5.922
10591SOL    HW232673   1.496   1.231   5.803
10592SOL     OW32674   6.843   1.326   7.003
10592SOL    HW132675   6.863   1.241   6.953
10592SOL    HW232676   6.868   1.316   0.069
10593SOL     OW32677   2.278   5.431   1.793
10593SOL    HW132678   2.249   5.439   1.697
10593SOL    HW232679   2.378   5.436   1.797
10594SOL     OW32680   6.495   1.735   3.997
10594SOL    HW132681   6.479   1.703   3.904
10594SOL    HW232682   6.421   1.796   4.025
10595SOL     OW32683   3.310   6.718   6.102
10595SOL    HW132684   3.240   6.773   6.147
10595SOL    HW232685   3.268   6.661   6.032
10596SOL     OW32686   4.157   6.671   1.827
10596SOL    HW132687   4.086   6.715   1.882
10596SOL    HW232688   4.229   6.737   1.807
10597SOL     OW32689   2.426   1.496   4.669
10597SOL    HW132690   2.441   1.594   4.657
10597SOL    HW232691   2.428   1.473   4.766
10598SOL     OW32692   2.227   2.652   6.985
10598SOL    HW132693   2.262   2.737   7.025
10598SOL    HW232694   2.207   2.666   6.888
10599SOL     OW32695   6.223   1.340   0.374
10599SOL    HW132696   6.206   1.358   0.277
10599SOL    HW232697   6.311   1.381   0.399
10600SOL     OW32698   2.875   2.980   6.428
10600SOL    HW132699   2.964   2.941   6.452
10600SOL    HW232700   2.873   3.077   6.453
10601SOL     OW32701   2.733   6.529   6.495
10601SOL    HW132702   2.739   6.443   6.547
10601SOL    HW232703   2.766   6.514   6.402
10602SOL     OW32704   4.778   1.122   1.534
10602SOL    HW132705   4.728   1.036   1.548
10602SOL    HW232706   4.764   1.181   1.613
10603SOL     OW32707   1.722   5.687   3.719
10603SOL    HW132708   1.752   5.612   3.778
10603SOL    HW232709   1.792   5.705   3.650
10604SOL     OW32710   6.528   4.596   4.605
10604SOL    HW132711   6.554   4.554   4.692
10604SOL    HW232712   6.607   4.641   4.564
10605SOL     OW32713   1.014   5.537   0.259
10605SOL    HW132714   1.112   5.524   0.244
10605SOL    HW232715   0.991   5.509   0.353
10606SOL     OW32716   0.161   0.888   1.836
10606SOL    HW132717   0.138   0.954   1.908
10606SOL    HW232718   0.128   0.923   1.748
10607SOL     OW32719   4.566   4.297   6.542
10607SOL    HW132720   4.602   4.233   6.475
10607SOL    HW232721   4.563   4.389   6.503
10608SOL     OW32722   5.925   1.526   4.051
10608SOL    HW132723   5.933   1.562   4.144
10608SOL    HW232724   5.959   1.432   4.049
10609SOL     OW32725   4.039   5.978   1.168
10609SOL    HW132726   4.022   6.039   1.245
10609SOL    HW232727   4.138   5.966   1.156
10610SOL     OW32728   1.526   3.319   6.332
10610SOL    HW132729   1.447   3.375   6.307
10610SOL    HW232730   1.608   3.358   6.291
10611SOL     OW32731   5.239   3.017   6.095
10611SOL    HW132732   5.198   2.963   6.021
10611SOL    HW232733   5.297   2.957   6.151
10612SOL     OW32734   2.290   6.557   6.246
10612SOL    HW132735   2.288   6.532   6.343
10612SOL    HW232736   2.274   6.656   6.236
10613SOL     OW32737   0.482   6.823   5.227
10613SOL    HW132738   0.394   6.818   5.180
10613SOL    HW232739   0.474   6.882   5.307
10614SOL     OW32740   6.406   0.700   4.246
10614SOL    HW132741   6.491   0.648   4.259
10614SOL    HW232742   6.406   0.780   4.307
10615SOL     OW32743   4.962   5.610   5.007
10615SOL    HW132744   4.980   5.536   4.942
10615SOL    HW232745   4.866   5.636   5.002
10616SOL     OW32746   3.093   5.790   0.955
10616SOL    HW132747   3.145   5.875   0.953
10616SOL    HW232748   3.067   5.763   0.862
10617SOL     OW32749   2.213   2.626   0.230
10617SOL    HW132750   2.178   2.634   0.137
10617SOL    HW232751   2.193   2.535   0.266
10618SOL     OW32752   5.800   2.232   0.205
10618SOL    HW132753   5.744   2.150   0.219
10618SOL    HW232754   5.852   2.251   0.288
10619SOL     OW32755   0.691   4.143   3.153
10619SOL    HW132756   0.721   4.150   3.058
10619SOL    HW232757   0.690   4.046   3.181
10620SOL     OW32758   1.515   6.151   4.753
10620SOL    HW132759   1.551   6.125   4.842
10620SOL    HW232760   1.464   6.075   4.713
10621SOL     OW32761   1.056   5.751   6.448
10621SOL    HW132762   1.034   5.713   6.358
10621SOL    HW232763   1.133   5.702   6.488
10622SOL     OW32764   4.095   0.044   1.841
10622SOL    HW132765   4.020   7.008   1.847
10622SOL    HW232766   4.061   0.135   1.867
10623SOL     OW32767   5.721   2.534   3.522
10623SOL    HW132768   5.760   2.456   3.572
10623SOL    HW232769   5.646   2.572   3.575
10624SOL     OW32770   1.678   1.165   4.919
10624SOL    HW132771   1.701   1.259   4.896
10624SOL    HW232772   1.760   1.119   4.955
10625SOL     OW32773   0.671   3.246   6.991
10625SOL    HW132774   0.754   3.203   6.955
10625SOL    HW232775   0.616   3.282   6.916
10626SOL     OW32776   1.125   2.237   1.639
10626SOL    HW132777   1.120   2.137   1.641
10626SOL    HW232778   1.044   2.275   1.683
10627SOL     OW32779   6.755   6.767   2.415
10627SOL    HW132780   6.840   6.750   2.366
10627SOL    HW232781   6.768   6.744   2.512
10628SOL     OW32782   6.423   5.290   5.286
10628SOL    HW132783   6.421   5.349   5.206
10628SOL    HW232784   6.413   5.345   5.369
10629SOL     OW32785   2.411   4.889   5.838
10629SOL    HW132786   2.327   4.938   5.862
10629SOL    HW232787   2.422   4.811   5.900
10630SOL     OW32788   6.129   0.998   2.855
10630SOL    HW132789   6.136   0.915   2.800
10630SOL    HW232790   6.091   0.975   2.945
10631SOL     OW32791   0.106   6.836   3.708
10631SOL    HW132792   0.192   6.821   3.659
10631SOL    HW232793   0.053   6.751   3.710
10632SOL     OW32794   6.496   2.711   4.306
10632SOL    HW132795   6.426   2.740   4.372
10632SOL    HW232796   6.581   2.691   4.354
10633SOL     OW32797   2.527   4.982   1.151
10633SOL    HW132798   2.451   4.982   1.215
10633SOL    HW232799   2.607   5.024   1.194
10634SOL     OW32800   2.979   5.475   1.345
10634SOL    HW132801   3.062   5.529   1.357
10634SOL    HW232802   2.914   5.526   1.287
10635SOL     OW32803   2.850   0.815   0.756
10635SOL    HW132804   2.782   0.761   0.706
10635SOL    HW232805   2.932   0.826   0.701
10636SOL     OW32806   0.847   2.057   1.550
10636SOL    HW132807   0.919   1.998   1.585
10636SOL    HW232808   0.816   2.023   1.461
10637SOL     OW32809   3.567   4.229   5.353
10637SOL    HW132810   3.510   4.308   5.329
10637SOL    HW232811   3.660   4.260   5.374
10638SOL     OW32812   6.815   6.480   4.622
10638SOL    HW132813   6.801   6.435   4.535
10638SOL    HW232814   6.912   6.479   4.646
10639SOL     OW32815   0.546   1.012   4.962
10639SOL    HW132816   0.485   0.945   4.922
10639SOL    HW232817   0.618   0.965   5.014
10640SOL     OW32818   5.219   0.676   0.226
10640SOL    HW132819   5.205   0.594   0.171
10640SOL    HW232820   5.206   0.654   0.323
10641SOL     OW32821   5.376   1.606   0.165
10641SOL    HW132822   5.394   1.577   0.259
10641SOL    HW232823   5.449   1.574   0.105
10642SOL     OW32824   0.532   1.924   1.728
10642SOL    HW132825   0.519   1.995   1.797
10642SOL    HW232826   0.600   1.858   1.760
10643SOL     OW32827   2.240   3.766   5.235
10643SOL    HW132828   2.292   3.852   5.229
10643SOL    HW232829   2.296   3.697   5.281
10644SOL     OW32830   4.751   1.629   4.162
10644SOL    HW132831   4.736   1.605   4.258
10644SOL    HW232832   4.670   1.605   4.108
10645SOL     OW32833   1.929   0.406   4.528
10645SOL    HW132834   1.977   0.347   4.464
10645SOL    HW232835   1.933   0.367   4.620
10646SOL     OW32836   1.131   2.689   5.721
10646SOL    HW132837   1.166   2.703   5.814
10646SOL    HW232838   1.031   2.697   5.723
10647SOL     OW32839   6.434   4.948   0.887
10647SOL    HW132840   6.379   4.895   0.821
10647SOL    HW232841   6.415   5.045   0.875
10648SOL     OW32842   4.717   2.971   6.466
10648SOL    HW132843   4.799   2.993   6.413
10648SOL    HW232844   4.742   2.956   6.562
10649SOL     OW32845   6.848   5.050   5.612
10649SOL    HW132846   6.905   4.969   5.599
10649SOL    HW232847   6.825   5.088   5.523
10650SOL     OW32848   2.371   6.459   3.949
10650SOL    HW132849   2.398   6.531   4.013
10650SOL    HW232850   2.451   6.431   3.896
10651SOL     OW32851   5.082   6.603   5.506
10651SOL    HW132852   4.989   6.577   5.534
10651SOL    HW232853   5.084   6.619   5.407
10652SOL     OW32854   3.502   0.290   6.277
10652SOL    HW132855   3.427   0.349   6.247
10652SOL    HW232856   3.465   0.203   6.309
10653SOL     OW32857   5.129   4.499   4.105
10653SOL    HW132858   5.186   4.423   4.137
10653SOL    HW232859   5.052   4.464   4.054
10654SOL     OW32860   3.097   0.521   1.624
10654SOL    HW132861   3.019   0.567   1.667
10654SOL    HW232862   3.066   0.437   1.579
10655SOL     OW32863   3.250   6.331   1.635
10655SOL    HW132864   3.305   6.261   1.681
10655SOL    HW232865   3.215   6.294   1.549
10656SOL     OW32866   6.330   2.168   0.304
10656SOL    HW132867   6.395   2.134   0.372
10656SOL    HW232868   6.305   2.262   0.325
10657SOL     OW32869   5.376   0.003   1.165
10657SOL    HW132870   5.372   6.937   1.194
10657SOL    HW232871   5.284   0.043   1.169
10658SOL     OW32872   1.068   5.542   3.927
10658SOL    HW132873   0.977   5.524   3.965
10658SOL    HW232874   1.067   5.629   3.878
10659SOL     OW32875   5.771   0.311   1.008
10659SOL    HW132876   5.807   0.331   0.917
10659SOL    HW232877   5.798   0.384   1.071
10660SOL     OW32878   4.267   4.465   5.532
10660SOL    HW132879   4.228   4.543   5.483
10660SOL    HW232880   4.238   4.380   5.489
10661SOL     OW32881   0.316   6.314   2.188
10661SOL    HW132882   0.360   6.229   2.215
10661SOL    HW232883   0.370   6.358   2.116
10662SOL     OW32884   6.929   1.690   0.540
10662SOL    HW132885   7.019   1.724   0.513
10662SOL    HW232886   6.871   1.678   0.459
10663SOL     OW32887   0.444   0.447   0.967
10663SOL    HW132888   0.487   0.475   1.053
10663SOL    HW232889   0.449   0.522   0.901
10664SOL     OW32890   2.052   5.123   0.067
10664SOL    HW132891   2.129   5.163   0.018
10664SOL    HW232892   2.012   5.049   0.013
10665SOL     OW32893   6.591   2.043   0.829
10665SOL    HW132894   6.642   1.962   0.800
10665SOL    HW232895   6.496   2.036   0.798
10666SOL     OW32896   2.231   5.957   6.869
10666SOL    HW132897   2.307   5.899   6.843
10666SOL    HW232898   2.255   6.053   6.854
10667SOL     OW32899   3.361   1.855   5.775
10667SOL    HW132900   3.361   1.923   5.701
10667SOL    HW232901   3.381   1.765   5.738
10668SOL     OW32902   1.601   1.709   6.565
10668SOL    HW132903   1.551   1.623   6.559
10668SOL    HW232904   1.537   1.784   6.576
10669SOL     OW32905   1.739   6.740   6.954
10669SOL    HW132906   1.678   6.816   6.976
10669SOL    HW232907   1.788   6.712   0.006
10670SOL     OW32908   5.387   4.351   5.860
10670SOL    HW132909   5.433   4.435   5.888
10670SOL    HW232910   5.398   4.281   5.930
10671SOL     OW32911   2.579   2.421   2.958
10671SOL    HW132912   2.547   2.352   2.893
10671SOL    HW232913   2.674   2.445   2.937
10672SOL     OW32914   0.526   2.520   1.023
10672SOL    HW132915   0.583   2.481   1.096
10672SOL    HW232916   0.585   2.555   0.951
10673SOL     OW32917   2.617   3.170   5.342
10673SOL    HW132918   2.714   3.172   5.316
10673SOL    HW232919   2.569   3.104   5.284
10674SOL     OW32920   3.941   3.459   1.562
10674SOL    HW132921   3.984   3.486   1.475
10674SOL    HW232922   3.948   3.360   1.572
10675SOL     OW32923   0.382   6.966   5.460
10675SOL    HW132924   0.369   6.877   5.503
10675SOL    HW232925   0.396   0.006   5.531
10676SOL     OW32926   5.953   7.000   6.434
10676SOL    HW132927   6.005   6.925   6.475
10676SOL    HW232928   5.986   7.016   6.341
10677SOL     OW32929   0.444   0.536   1.255
10677SOL    HW132930   0.399   0.563   1.340
10677SOL    HW232931   0.543   0.530   1.269
10678SOL     OW32932   2.074   5.695   2.369
10678SOL    HW132933   1.978   5.698   2.341
10678SOL    HW232934   2.081   5.659   2.461
10679SOL     OW32935   5.218   5.054   4.014
10679SOL    HW132936   5.289   5.075   4.081
10679SOL    HW232937   5.153   5.130   4.009
10680SOL     OW32938   1.106   3.466   2.690
10680SOL    HW132939   1.139   3.445   2.598
10680SOL    HW232940   1.143   3.399   2.755
10681SOL     OW32941   6.334   2.647   5.579
10681SOL    HW132942   6.295   2.562   5.615
10681SOL    HW232943   6.268   2.721   5.588
10682SOL     OW32944   0.141   1.007   2.790
10682SOL    HW132945   0.062   0.987   2.848
10682SOL    HW232946   0.180   0.922   2.755
10683SOL     OW32947   1.704   1.957   4.822
10683SOL    HW132948   1.650   1.887   4.869
10683SOL    HW232949   1.670   1.968   4.729
10684SOL     OW32950   6.431   4.747   6.792
10684SOL    HW132951   6.495   4.782   6.860
10684SOL    HW232952   6.387   4.664   6.828
10685SOL     OW32953   0.313   2.860   3.237
10685SOL    HW132954   0.239   2.849   3.304
10685SOL    HW232955   0.400   2.872   3.285
10686SOL     OW32956   3.112   5.598   0.445
10686SOL    HW132957   3.146   5.534   0.514
10686SOL    HW232958   3.072   5.547   0.369
10687SOL     OW32959   0.309   4.660   2.720
10687SOL    HW132960   0.346   4.695   2.634
10687SOL    HW232961   0.366   4.692   2.796
10688SOL     OW32962   6.886   4.872   2.003
10688SOL    HW132963   6.858   4.967   2.015
10688SOL    HW232964   6.809   4.812   2.028
10689SOL     OW32965   0.655   0.405   2.535
10689SOL    HW132966   0.722   0.346   2.579
10689SOL    HW232967   0.612   0.356   2.459
10690SOL     OW32968   4.359   4.809   2.008
10690SOL    HW132969   4.272   4.783   2.049
10690SOL    HW232970   4.404   4.728   1.971
10691SOL     OW32971   6.861   1.237   1.750
10691SOL    HW132972   6.828   1.285   1.668
10691SOL    HW232973   6.824   1.144   1.750
10692SOL     OW32974   3.610   5.617   3.675
10692SOL    HW132975   3.701   5.659   3.681
10692SOL    HW232976   3.591   5.567   3.760
10693SOL     OW32977   6.519   1.404   1.752
10693SOL    HW132978   6.607   1.452   1.745
10693SOL    HW232979   6.509   1.365   1.843
10694SOL     OW32980   4.413   6.505   0.585
10694SOL    HW132981   4.393   6.460   0.672
10694SOL    HW232982   4.423   6.603   0.600
10695SOL     OW32983   0.297   2.356   3.947
10695SOL    HW132984   0.197   2.355   3.952
10695SOL    HW232985   0.334   2.301   4.022
10696SOL     OW32986   6.853   5.672   1.439
10696SOL    HW132987   6.795   5.692   1.517
10696SOL    HW232988   6.948   5.695   1.460
10697SOL     OW32989   1.470   6.197   4.241
10697SOL    HW132990   1.420   6.131   4.186
10697SOL    HW232991   1.544   6.237   4.187
10698SOL     OW32992   2.921   6.882   3.672
10698SOL    HW132993   2.972   6.833   3.743
10698SOL    HW232994   2.829   6.901   3.705
10699SOL     OW32995   3.088   2.183   2.940
10699SOL    HW132996   3.180   2.156   2.910
10699SOL    HW232997   3.036   2.102   2.965
10700SOL     OW32998   6.826   6.586   1.266
10700SOL    HW132999   6.782   6.673   1.284
10700SOL    HW233000   6.760   6.524   1.222
10701SOL     OW33001   2.954   6.283   0.761
10701SOL    HW133002   2.998   6.330   0.684
10701SOL    HW233003   2.856   6.298   0.758
10702SOL     OW33004   6.162   2.443   0.973
10702SOL    HW133005   6.182   2.496   0.891
10702SOL    HW233006   6.066   2.454   0.998
10703SOL     OW33007   3.836   4.091   3.961
10703SOL    HW133008   3.800   4.113   3.870
10703SOL    HW233009   3.759   4.071   4.023
10704SOL     OW33010   5.040   0.057   2.317
10704SOL    HW133011   4.943   0.066   2.336
10704SOL    HW233012   5.074   0.143   2.279
10705SOL     OW33013   0.071   3.062   5.966
10705SOL    HW133014   0.168   3.055   5.988
10705SOL    HW233015   0.050   3.154   5.932
10706SOL     OW33016   3.229   1.050   2.237
10706SOL    HW133017   3.219   1.109   2.317
10706SOL    HW233018   3.228   1.106   2.154
10707SOL     OW33019   6.104   7.026   6.196
10707SOL    HW133020   6.096   6.936   6.154
10707SOL    HW233021   6.190   0.038   6.169
10708SOL     OW33022   4.439   1.076   0.740
10708SOL    HW133023   4.475   1.071   0.833
10708SOL    HW233024   4.454   1.168   0.703
10709SOL     OW33025   5.865   6.649   5.630
10709SOL    HW133026   5.766   6.648   5.621
10709SOL    HW233027   5.904   6.575   5.575
10710SOL     OW33028   6.055   5.340   3.272
10710SOL    HW133029   6.040   5.438   3.265
10710SOL    HW233030   6.141   5.323   3.321
10711SOL     OW33031   1.731   0.106   3.772
10711SOL    HW133032   1.811   0.046   3.774
10711SOL    HW233033   1.759   0.200   3.789
10712SOL     OW33034   3.813   1.269   4.993
10712SOL    HW133035   3.771   1.359   5.010
10712SOL    HW233036   3.853   1.268   4.902
10713SOL     OW33037   1.059   5.868   1.563
10713SOL    HW133038   1.006   5.898   1.643
10713SOL    HW233039   1.137   5.929   1.551
10714SOL     OW33040   6.867   5.379   5.632
10714SOL    HW133041   6.804   5.306   5.604
10714SOL    HW233042   6.861   5.392   5.731
10715SOL     OW33043   5.332   1.644   4.480
10715SOL    HW133044   5.377   1.670   4.395
10715SOL    HW233045   5.301   1.727   4.527
10716SOL     OW33046   6.319   0.336   3.974
10716SOL    HW133047   6.394   0.384   4.019
10716SOL    HW233048   6.233   0.385   3.991
10717SOL     OW33049   0.268   0.283   1.520
10717SOL    HW133050   0.317   0.322   1.598
10717SOL    HW233051   0.194   0.344   1.494
10718SOL     OW33052   6.386   5.309   0.149
10718SOL    HW133053   6.450   5.301   0.073
10718SOL    HW233054   6.382   5.222   0.198
10719SOL     OW33055   5.491   0.587   1.972
10719SOL    HW133056   5.432   0.515   1.938
10719SOL    HW233057   5.484   0.592   2.072
10720SOL     OW33058   0.221   3.487   6.462
10720SOL    HW133059   0.296   3.535   6.417
10720SOL    HW233060   0.169   3.435   6.394
10721SOL     OW33061   4.864   2.587   4.710
10721SOL    HW133062   4.849   2.492   4.736
10721SOL    HW233063   4.892   2.592   4.614
10722SOL     OW33064   0.275   3.580   6.777
10722SOL    HW133065   0.274   3.480   6.776
10722SOL    HW233066   0.225   3.614   6.698
10723SOL     OW33067   5.987   3.906   6.760
10723SOL    HW133068   5.957   3.847   6.685
10723SOL    HW233069   5.977   3.857   6.847
10724SOL     OW33070   4.374   6.467   6.245
10724SOL    HW133071   4.324   6.425   6.169
10724SOL    HW233072   4.359   6.414   6.328
10725SOL     OW33073   6.893   6.104   5.128
10725SOL    HW133074   6.965   6.039   5.103
10725SOL    HW233075   6.826   6.058   5.187
10726SOL     OW33076   4.711   1.134   4.656
10726SOL    HW133077   4.725   1.035   4.648
10726SOL    HW233078   4.779   1.182   4.602
10727SOL     OW33079   2.312   6.416   5.812
10727SOL    HW133080   2.284   6.320   5.801
10727SOL    HW233081   2.411   6.420   5.823
10728SOL     OW33082   5.156   5.974   2.974
10728SOL    HW133083   5.230   6.041   2.965
10728SOL    HW233084   5.187   5.886   2.937
10729SOL     OW33085   5.654   2.671   3.000
10729SOL    HW133086   5.656   2.719   2.912
10729SOL    HW233087   5.629   2.736   3.072
10730SOL     OW33088   2.122   6.338   2.644
10730SOL    HW133089   2.106   6.434   2.623
10730SOL    HW233090   2.035   6.289   2.644
10731SOL     OW33091   3.544   6.913   6.586
10731SOL    HW133092   3.613   6.985   6.577
10731SOL    HW233093   3.568   6.835   6.529
10732SOL     OW33094   5.994   6.251   3.337
10732SOL    HW133095   5.986   6.209   3.428
10732SOL    HW233096   5.962   6.186   3.268
10733SOL     OW33097   0.222   0.587   5.932
10733SOL    HW133098   0.127   0.587   5.966
10733SOL    HW233099   0.281   0.543   6.000
10734SOL     OW33100   0.936   1.168   5.492
10734SOL    HW133101   0.857   1.203   5.443
10734SOL    HW233102   1.013   1.159   5.429
10735SOL     OW33103   1.365   5.473   1.968
10735SOL    HW133104   1.424   5.549   1.938
10735SOL    HW233105   1.279   5.509   2.003
10736SOL     OW33106   5.860   0.121   3.919
10736SOL    HW133107   5.927   0.094   3.989
10736SOL    HW233108   5.811   0.041   3.886
10737SOL     OW33109   6.547   1.323   2.056
10737SOL    HW133110   6.469   1.382   2.077
10737SOL    HW233111   6.616   1.332   2.128
10738SOL     OW33112   3.168   0.583   2.010
10738SOL    HW133113   3.134   0.523   2.083
10738SOL    HW233114   3.263   0.559   1.990
10739SOL     OW33115   5.807   2.429   3.020
10739SOL    HW133116   5.841   2.398   2.931
10739SOL    HW233117   5.774   2.523   3.012
10740SOL     OW33118   1.529   6.803   6.365
10740SOL    HW133119   1.607   6.841   6.315
10740SOL    HW233120   1.464   6.764   6.299
10741SOL     OW33121   2.537   2.395   3.678
10741SOL    HW133122   2.636   2.379   3.671
10741SOL    HW233123   2.517   2.490   3.654
10742SOL     OW33124   6.187   6.354   2.960
10742SOL    HW133125   6.152   6.401   3.041
10742SOL    HW233126   6.134   6.270   2.945
10743SOL     OW33127   3.720   1.103   5.865
10743SOL    HW133128   3.680   1.192   5.889
10743SOL    HW233129   3.778   1.113   5.784
10744SOL     OW33130   1.958   0.283   0.133
10744SOL    HW133131   1.945   0.303   0.230
10744SOL    HW233132   2.054   0.297   0.108
10745SOL     OW33133   2.163   4.991   1.204
10745SOL    HW133134   2.090   4.925   1.186
10745SOL    HW233135   2.221   4.958   1.277
10746SOL     OW33136   1.481   6.040   6.237
10746SOL    HW133137   1.421   6.075   6.309
10746SOL    HW233138   1.430   5.979   6.177
10747SOL     OW33139   6.314   1.143   4.772
10747SOL    HW133140   6.253   1.168   4.847
10747SOL    HW233141   6.317   1.044   4.763
10748SOL     OW33142   4.273   6.269   1.192
10748SOL    HW133143   4.324   6.302   1.271
10748SOL    HW233144   4.186   6.230   1.222
10749SOL     OW33145   5.619   5.805   2.297
10749SOL    HW133146   5.621   5.743   2.375
10749SOL    HW233147   5.529   5.847   2.290
10750SOL     OW33148   4.862   2.269   4.093
10750SOL    HW133149   4.801   2.213   4.036
10750SOL    HW233150   4.847   2.366   4.073
10751SOL     OW33151   0.304   5.077   5.183
10751SOL    HW133152   0.274   5.021   5.106
10751SOL    HW233153   0.313   5.021   5.265
10752SOL     OW33154   6.136   6.506   0.990
10752SOL    HW133155   6.199   6.431   0.973
10752SOL    HW233156   6.071   6.480   1.062
10753SOL     OW33157   4.755   6.436   3.767
10753SOL    HW133158   4.804   6.503   3.822
10753SOL    HW233159   4.662   6.425   3.803
10754SOL     OW33160   1.403   3.595   1.364
10754SOL    HW133161   1.360   3.612   1.453
10754SOL    HW233162   1.404   3.678   1.310
10755SOL     OW33163   6.060   3.442   1.230
10755SOL    HW133164   6.019   3.352   1.245
10755SOL    HW233165   6.097   3.477   1.316
10756SOL     OW33166   0.293   1.913   0.950
10756SOL    HW133167   0.238   1.997   0.956
10756SOL    HW233168   0.236   1.837   0.920
10757SOL     OW33169   0.450   3.789   1.592
10757SOL    HW133170   0.483   3.884   1.588
10757SOL    HW233171   0.447   3.759   1.687
10758SOL     OW33172   0.613   0.472   6.925
10758SOL    HW133173   0.533   0.429   6.883
10758SOL    HW233174   0.685   0.483   6.857
10759SOL     OW33175   2.655   2.652   6.376
10759SOL    HW133176   2.686   2.721   6.311
10759SOL    HW233177   2.555   2.642   6.368
10760SOL     OW33178   0.529   5.153   0.311
10760SOL    HW133179   0.555   5.075   0.368
10760SOL    HW233180   0.450   5.199   0.351
10761SOL     OW33181   0.243   1.627   6.150
10761SOL    HW133182   0.170   1.651   6.086
10761SOL    HW233183   0.264   1.530   6.143
10762SOL     OW33184   3.765   6.282   6.360
10762SOL    HW133185   3.671   6.313   6.341
10762SOL    HW233186   3.768   6.182   6.357
10763SOL     OW33187   5.333   0.327   3.137
10763SOL    HW133188   5.357   0.298   3.044
10763SOL    HW233189   5.408   0.381   3.175
10764SOL     OW33190   4.038   0.617   4.588
10764SOL    HW133191   4.111   0.549   4.597
10764SOL    HW233192   4.078   0.708   4.593
10765SOL     OW33193   6.620   1.895   2.855
10765SOL    HW133194   6.599   1.962   2.927
10765SOL    HW233195   6.690   1.832   2.888
10766SOL     OW33196   1.652   4.940   6.215
10766SOL    HW133197   1.652   4.913   6.311
10766SOL    HW233198   1.721   4.886   6.166
10767SOL     OW33199   1.783   5.791   0.474
10767SOL    HW133200   1.696   5.835   0.452
10767SOL    HW233201   1.780   5.695   0.445
10768SOL     OW33202   5.691   5.875   0.398
10768SOL    HW133203   5.639   5.792   0.380
10768SOL    HW233204   5.661   5.948   0.337
10769SOL     OW33205   3.176   3.449   4.643
10769SOL    HW133206   3.189   3.427   4.740
10769SOL    HW233207   3.235   3.525   4.618
10770SOL     OW33208   5.342   6.726   3.981
10770SOL    HW133209   5.382   6.726   4.072
10770SOL    HW233210   5.353   6.817   3.940
10771SOL     OW33211   4.968   5.958   5.809
10771SOL    HW133212   4.963   5.998   5.718
10771SOL    HW233213   4.926   6.021   5.875
10772SOL     OW33214   5.852   4.643   2.734
10772SOL    HW133215   5.918   4.630   2.808
10772SOL    HW233216   5.818   4.737   2.735
10773SOL     OW33217   6.771   4.304   1.302
10773SOL    HW133218   6.736   4.229   1.358
10773SOL    HW233219   6.720   4.308   1.216
10774SOL     OW33220   1.607   3.136   0.496
10774SOL    HW133221   1.605   3.080   0.579
10774SOL    HW233222   1.538   3.208   0.504
10775SOL     OW33223   1.017   4.381   0.956
10775SOL    HW133224   0.992   4.423   1.043
10775SOL    HW233225   1.027   4.452   0.887
10776SOL     OW33226   1.070   1.753   3.452
10776SOL    HW133227   1.071   1.690   3.374
10776SOL    HW233228   1.083   1.847   3.419
10777SOL     OW33229   3.671   1.451   2.007
10777SOL    HW133230   3.600   1.398   2.052
10777SOL    HW233231   3.638   1.484   1.918
10778SOL     OW33232   5.997   6.524   3.517
10778SOL    HW133233   6.086   6.514   3.473
10778SOL    HW233234   5.984   6.450   3.582
10779SOL     OW33235   5.504   4.000   4.285
10779SOL    HW133236   5.511   4.089   4.329
10779SOL    HW233237   5.478   3.931   4.352
10780SOL     OW33238   1.639   6.040   5.012
10780SOL    HW133239   1.653   5.981   5.092
10780SOL    HW233240   1.726   6.051   4.964
10781SOL     OW33241   5.869   2.047   5.510
10781SOL    HW133242   5.788   2.020   5.459
10781SOL    HW233243   5.926   2.108   5.455
10782SOL     OW33244   1.207   2.776   5.030
10782SOL    HW133245   1.245   2.688   5.060
10782SOL    HW233246   1.138   2.806   5.097
10783SOL     OW33247   1.205   2.752   3.251
10783SOL    HW133248   1.231   2.832   3.306
10783SOL    HW233249   1.226   2.770   3.155
10784SOL     OW33250   4.001   6.264   2.524
10784SOL    HW133251   3.987   6.180   2.575
10784SOL    HW233252   4.050   6.330   2.581
10785SOL     OW33253   1.749   5.813   2.598
10785SOL    HW133254   1.698   5.727   2.607
10785SOL    HW233255   1.762   5.834   2.501
10786SOL     OW33256   3.999   1.151   2.058
10786SOL    HW133257   4.015   1.234   2.112
10786SOL    HW233258   3.915   1.107   2.089
10787SOL     OW33259   3.696   1.590   3.738
10787SOL    HW133260   3.720   1.682   3.706
10787SOL    HW233261   3.668   1.534   3.660
10788SOL     OW33262   0.722   4.940   0.822
10788SOL    HW133263   0.671   4.947   0.907
10788SOL    HW233264   0.689   4.861   0.770
10789SOL     OW33265   6.470   1.583   0.927
10789SOL    HW133266   6.517   1.608   1.012
10789SOL    HW233267   6.388   1.639   0.917
10790SOL     OW33268   0.459   2.495   4.746
10790SOL    HW133269   0.360   2.496   4.729
10790SOL    HW233270   0.488   2.401   4.765
10791SOL     OW33271   1.444   1.811   3.402
10791SOL    HW133272   1.356   1.833   3.360
10791SOL    HW233273   1.501   1.762   3.335
10792SOL     OW33274   3.798   2.140   1.291
10792SOL    HW133275   3.834   2.065   1.347
10792SOL    HW233276   3.797   2.113   1.195
10793SOL     OW33277   4.419   1.227   5.004
10793SOL    HW133278   4.433   1.200   4.909
10793SOL    HW233279   4.408   1.145   5.061
10794SOL     OW33280   4.566   3.086   0.737
10794SOL    HW133281   4.519   3.053   0.819
10794SOL    HW233282   4.551   3.021   0.662
10795SOL     OW33283   0.453   3.559   3.290
10795SOL    HW133284   0.410   3.483   3.240
10795SOL    HW233285   0.551   3.544   3.296
10796SOL     OW33286   0.192   6.672   6.824
10796SOL    HW133287   0.095   6.649   6.833
10796SOL    HW233288   0.213   6.751   6.882
10797SOL     OW33289   4.142   3.866   0.414
10797SOL    HW133290   4.216   3.888   0.477
10797SOL    HW233291   4.061   3.837   0.467
10798SOL     OW33292   2.422   0.029   6.546
10798SOL    HW133293   2.437   6.998   6.468
10798SOL    HW233294   2.349   7.021   6.604
10799SOL     OW33295   2.627   1.333   2.977
10799SOL    HW133296   2.559   1.295   2.914
10799SOL    HW233297   2.713   1.346   2.929
10800SOL     OW33298   1.761   0.469   5.667
10800SOL    HW133299   1.743   0.528   5.588
10800SOL    HW233300   1.849   0.494   5.708
10801SOL     OW33301   2.887   6.472   6.286
10801SOL    HW133302   2.835   6.441   6.206
10801SOL    HW233303   2.982   6.485   6.261
10802SOL     OW33304   0.505   4.264   4.723
10802SOL    HW133305   0.587   4.218   4.756
10802SOL    HW233306   0.524   4.361   4.708
10803SOL     OW33307   6.839   4.382   5.090
10803SOL    HW133308   6.882   4.355   5.177
10803SOL    HW233309   6.823   4.300   5.035
10804SOL     OW33310   5.163   4.878   1.666
10804SOL    HW133311   5.092   4.936   1.704
10804SOL    HW233312   5.241   4.875   1.729
10805SOL     OW33313   4.464   6.768   0.714
10805SOL    HW133314   4.547   6.823   0.726
10805SOL    HW233315   4.387   6.828   0.696
10806SOL     OW33316   4.924   3.514   6.948
10806SOL    HW133317   4.905   3.582   7.019
10806SOL    HW233318   5.008   3.465   6.971
10807SOL     OW33319   4.196   6.599   3.331
10807SOL    HW133320   4.137   6.621   3.409
10807SOL    HW233321   4.273   6.543   3.362
10808SOL     OW33322   0.057   2.810   6.020
10808SOL    HW133323   0.156   2.799   6.008
10808SOL    HW233324   0.034   2.907   6.013
10809SOL     OW33325   2.502   0.763   3.237
10809SOL    HW133326   2.512   0.861   3.255
10809SOL    HW233327   2.573   0.713   3.287
10810SOL     OW33328   6.868   1.276   5.440
10810SOL    HW133329   6.878   1.217   5.520
10810SOL    HW233330   6.938   1.252   5.372
10811SOL     OW33331   4.463   4.890   5.496
10811SOL    HW133332   4.536   4.915   5.559
10811SOL    HW233333   4.488   4.807   5.447
10812SOL     OW33334   6.619   2.340   3.153
10812SOL    HW133335   6.520   2.340   3.138
10812SOL    HW233336   6.641   2.401   3.229
10813SOL     OW33337   2.673   5.812   1.529
10813SOL    HW133338   2.574   5.823   1.533
10813SOL    HW233339   2.698   5.722   1.564
10814SOL     OW33340   1.916   6.978   4.999
10814SOL    HW133341   1.861   6.945   4.923
10814SOL    HW233342   1.995   7.029   4.964
10815SOL     OW33343   4.950   2.681   3.106
10815SOL    HW133344   5.015   2.734   3.051
10815SOL    HW233345   4.858   2.718   3.093
10816SOL     OW33346   2.400   1.579   1.883
10816SOL    HW133347   2.356   1.506   1.934
10816SOL    HW233348   2.335   1.654   1.870
10817SOL     OW33349   4.617   6.580   2.152
10817SOL    HW133350   4.555   6.507   2.181
10817SOL    HW233351   4.692   6.588   2.217
10818SOL     OW33352   4.442   3.121   6.816
10818SOL    HW133353   4.476   3.168   6.897
10818SOL    HW233354   4.493   3.150   6.735
10819SOL     OW33355   0.210   3.887   6.395
10819SOL    HW133356   0.307   3.892   6.421
10819SOL    HW233357   0.202   3.902   6.297
10820SOL     OW33358   0.415   6.906   4.532
10820SOL    HW133359   0.349   6.873   4.464
10820SOL    HW233360   0.365   6.948   4.608
10821SOL     OW33361   6.920   0.252   0.616
10821SOL    HW133362   6.999   0.209   0.658
10821SOL    HW233363   6.891   0.199   0.536
10822SOL     OW33364   0.944   4.280   1.378
10822SOL    HW133365   0.872   4.243   1.319
10822SOL    HW233366   1.004   4.338   1.324
10823SOL     OW33367   1.470   0.745   1.067
10823SOL    HW133368   1.375   0.776   1.071
10823SOL    HW233369   1.487   0.682   1.143
10824SOL     OW33370   5.803   0.360   2.617
10824SOL    HW133371   5.824   0.282   2.676
10824SOL    HW233372   5.847   0.348   2.528
10825SOL     OW33373   3.391   1.083   1.150
10825SOL    HW133374   3.339   1.153   1.200
10825SOL    HW233375   3.482   1.118   1.129
10826SOL     OW33376   6.622   3.130   1.725
10826SOL    HW133377   6.643   3.059   1.658
10826SOL    HW233378   6.556   3.095   1.791
10827SOL     OW33379   0.131   2.540   4.146
10827SOL    HW133380   0.177   2.516   4.232
10827SOL    HW233381   0.199   2.567   4.078
10828SOL     OW33382   0.877   5.945   0.361
10828SOL    HW133383   0.871   5.927   0.459
10828SOL    HW233384   0.878   6.043   0.344
10829SOL     OW33385   2.839   3.473   1.334
10829SOL    HW133386   2.847   3.480   1.235
10829SOL    HW233387   2.841   3.564   1.375
10830SOL     OW33388   4.893   2.550   3.944
10830SOL    HW133389   4.909   2.535   3.846
10830SOL    HW233390   4.814   2.611   3.955
10831SOL     OW33391   5.511   1.831   2.971
10831SOL    HW133392   5.531   1.914   3.022
10831SOL    HW233393   5.550   1.838   2.879
10832SOL     OW33394   6.887   1.642   0.994
10832SOL    HW133395   6.793   1.616   1.018
10832SOL    HW233396   6.899   1.741   1.008
10833SOL     OW33397   3.146   6.960   4.463
10833SOL    HW133398   3.206   6.900   4.516
10833SOL    HW233399   3.192   0.018   4.448
10834SOL     OW33400   0.244   1.296   5.161
10834SOL    HW133401   0.278   1.205   5.184
10834SOL    HW233402   0.288   1.328   5.078
10835SOL     OW33403   6.775   1.646   2.259
10835SOL    HW133404   6.853   1.708   2.269
10835SOL    HW233405   6.690   1.697   2.270
10836SOL     OW33406   2.094   2.474   6.552
10836SOL    HW133407   2.147   2.502   6.471
10836SOL    HW233408   2.067   2.379   6.542
10837SOL     OW33409   0.614   5.167   0.661
10837SOL    HW133410   0.617   5.089   0.723
10837SOL    HW233411   0.658   5.142   0.575
10838SOL     OW33412   6.048   0.135   0.188
10838SOL    HW133413   5.989   0.155   0.110
10838SOL    HW233414   6.130   0.088   0.156
10839SOL     OW33415   2.254   1.863   0.709
10839SOL    HW133416   2.350   1.865   0.678
10839SOL    HW233417   2.220   1.957   0.716
10840SOL     OW33418   3.955   5.544   2.064
10840SOL    HW133419   3.980   5.599   2.144
10840SOL    HW233420   3.981   5.448   2.080
10841SOL     OW33421   3.911   4.591   6.333
10841SOL    HW133422   3.858   4.572   6.250
10841SOL    HW233423   4.001   4.626   6.309
10842SOL     OW33424   6.180   2.869   1.568
10842SOL    HW133425   6.204   2.830   1.658
10842SOL    HW233426   6.251   2.931   1.538
10843SOL     OW33427   0.262   1.591   1.916
10843SOL    HW133428   0.218   1.506   1.888
10843SOL    HW233429   0.358   1.590   1.886
10844SOL     OW33430   4.403   6.725   3.792
10844SOL    HW133431   4.427   6.658   3.721
10844SOL    HW233432   4.352   6.800   3.750
10845SOL     OW33433   1.752   2.744   0.843
10845SOL    HW133434   1.733   2.651   0.811
10845SOL    HW233435   1.725   2.752   0.939
10846SOL     OW33436   3.749   1.987   1.638
10846SOL    HW133437   3.722   2.083   1.639
10846SOL    HW233438   3.702   1.938   1.712
10847SOL     OW33439   4.350   2.960   6.188
10847SOL    HW133440   4.270   3.005   6.228
10847SOL    HW233441   4.425   3.025   6.182
10848SOL     OW33442   1.422   0.891   6.530
10848SOL    HW133443   1.406   0.916   6.435
10848SOL    HW233444   1.488   0.954   6.570
10849SOL     OW33445   2.593   4.688   4.078
10849SOL    HW133446   2.617   4.632   4.157
10849SOL    HW233447   2.499   4.671   4.051
10850SOL     OW33448   5.211   6.524   0.701
10850SOL    HW133449   5.304   6.562   0.699
10850SOL    HW233450   5.215   6.426   0.684
10851SOL     OW33451   3.775   2.101   6.075
10851SOL    HW133452   3.810   2.009   6.091
10851SOL    HW233453   3.851   2.166   6.073
10852SOL     OW33454   0.359   0.460   6.138
10852SOL    HW133455   0.318   0.444   6.228
10852SOL    HW233456   0.459   0.453   6.146
10853SOL     OW33457   2.169   1.326   4.598
10853SOL    HW133458   2.163   1.260   4.524
10853SOL    HW233459   2.259   1.370   4.597
10854SOL     OW33460   6.828   6.626   0.406
10854SOL    HW133461   6.829   6.668   0.315
10854SOL    HW233462   6.919   6.589   0.426
10855SOL     OW33463   0.854   6.428   0.890
10855SOL    HW133464   0.895   6.474   0.812
10855SOL    HW233465   0.913   6.353   0.920
10856SOL     OW33466   6.332   6.789   6.683
10856SOL    HW133467   6.334   6.886   6.658
10856SOL    HW233468   6.412   6.743   6.645
10857SOL     OW33469   5.945   1.015   4.310
10857SOL    HW133470   6.015   1.015   4.239
10857SOL    HW233471   5.897   1.102   4.310
10858SOL     OW33472   2.533   1.888   0.636
10858SOL    HW133473   2.564   1.974   0.595
10858SOL    HW233474   2.596   1.815   0.610
10859SOL     OW33475   0.863   4.564   2.035
10859SOL    HW133476   0.787   4.605   2.085
10859SOL    HW233477   0.834   4.478   1.994
10860SOL     OW33478   6.712   1.963   0.301
10860SOL    HW133479   6.795   2.018   0.315
10860SOL    HW233480   6.736   1.866   0.306
10861SOL     OW33481   3.170   2.906   2.000
10861SOL    HW133482   3.161   2.830   2.065
10861SOL    HW233483   3.202   2.987   2.048
10862SOL     OW33484   3.829   3.225   5.480
10862SOL    HW133485   3.782   3.207   5.394
10862SOL    HW233486   3.874   3.315   5.476
10863SOL     OW33487   1.839   1.696   3.205
10863SOL    HW133488   1.928   1.694   3.158
10863SOL    HW233489   1.854   1.701   3.304
10864SOL     OW33490   3.062   4.843   1.978
10864SOL    HW133491   3.153   4.877   2.004
10864SOL    HW233492   3.073   4.754   1.933
10865SOL     OW33493   3.969   1.461   3.184
10865SOL    HW133494   3.938   1.491   3.274
10865SOL    HW233495   4.069   1.454   3.184
10866SOL     OW33496   0.365   3.763   3.135
10866SOL    HW133497   0.436   3.693   3.140
10866SOL    HW233498   0.343   3.781   3.039
10867SOL     OW33499   4.349   3.551   0.367
10867SOL    HW133500   4.442   3.522   0.392
10867SOL    HW233501   4.283   3.500   0.422
10868SOL     OW33502   1.218   1.320   4.799
10868SOL    HW133503   1.174   1.406   4.771
10868SOL    HW233504   1.179   1.289   4.886
10869NA      NA33505   6.540   2.542   5.532
10870NA      NA33506   4.414   4.700   5.057
10871NA      NA33507   1.115   4.854   2.662
10872NA      NA33508   5.877   4.129   3.304
10873NA      NA33509   3.902   2.146   5.232
10874NA      NA33510   2.267   4.966   0.265
10875NA      NA33511   1.057   5.255   6.920
10876NA      NA33512   3.548   4.111   1.258
10877NA      NA33513   4.416   5.181   0.575
10878NA      NA33514   3.243   0.972   6.498
10879NA      NA33515   5.657   6.471   1.975
10880NA      NA33516   1.713   6.862   5.371
10881NA      NA33517   4.185   5.056   1.853
10882NA      NA33518   3.640   3.352   6.640
   7.02968   7.02968   7.02968
