Generated by trjconv : CNT in water t= 157.00000
33518
    1C        C    1   2.847   2.770   4.746
    1C        C    2   2.900   2.719   4.867
    1C        C    3   2.843   2.772   4.983
    1C        C    4   2.856   2.777   4.260
    1C        C    5   2.906   2.728   4.382
    1C        C    6   2.846   2.771   4.503
    1C        C    7   3.014   2.639   4.623
    1C        C    8   2.898   2.721   4.624
    1C        C    9   3.075   2.600   4.745
    1C        C   10   3.011   2.632   4.866
    1C        C   11   3.181   2.490   4.975
    1C        C   12   3.059   2.559   4.976
    1C        C   13   2.853   2.773   3.772
    1C        C   14   2.905   2.724   3.894
    1C        C   15   2.853   2.776   4.015
    1C        C   16   3.017   2.640   4.138
    1C        C   17   2.908   2.729   4.137
    1C        C   18   3.082   2.607   4.259
    1C        C   19   3.020   2.644   4.380
    1C        C   20   3.212   2.556   4.505
    1C        C   21   3.081   2.609   4.503
    1C        C   22   3.281   2.534   4.626
    1C        C   23   3.206   2.546   4.745
    1C        C   24   3.412   2.481   4.866
    1C        C   25   3.270   2.499   4.863
    1C        C   26   3.488   2.472   4.983
    1C        C   27   2.854   2.768   3.281
    1C        C   28   2.906   2.724   3.405
    1C        C   29   2.854   2.771   3.527
    1C        C   30   3.017   2.637   3.650
    1C        C   31   2.904   2.723   3.650
    1C        C   32   3.077   2.599   3.772
    1C        C   33   3.017   2.639   3.894
    1C        C   34   3.206   2.544   4.017
    1C        C   35   3.076   2.600   4.016
    1C        C   36   3.278   2.526   4.137
    1C        C   37   3.212   2.551   4.260
    1C        C   38   3.418   2.509   4.380
    1C        C   39   3.279   2.532   4.383
    1C        C   40   3.489   2.496   4.502
    1C        C   41   3.418   2.500   4.624
    1C        C   42   3.629   2.482   4.745
    1C        C   43   3.487   2.480   4.746
    1C        C   44   3.705   2.482   4.864
    1C        C   45   3.627   2.477   4.980
    1C        C   46   2.841   2.757   2.794
    1C        C   47   2.896   2.711   2.915
    1C        C   48   2.849   2.765   3.037
    1C        C   49   3.020   2.637   3.162
    1C        C   50   2.907   2.722   3.158
    1C        C   51   3.082   2.605   3.284
    1C        C   52   3.023   2.644   3.407
    1C        C   53   3.207   2.540   3.528
    1C        C   54   3.080   2.601   3.528
    1C        C   55   3.274   2.519   3.650
    1C        C   56   3.206   2.541   3.772
    1C        C   57   3.412   2.500   3.894
    1C        C   58   3.273   2.521   3.895
    1C        C   59   3.487   2.498   4.014
    1C        C   60   3.417   2.502   4.137
    1C        C   61   3.630   2.492   4.257
    1C        C   62   3.488   2.493   4.259
    1C        C   63   3.700   2.504   4.379
    1C        C   64   3.630   2.499   4.502
    1C        C   65   3.836   2.540   4.621
    1C        C   66   3.700   2.500   4.624
    1C        C   67   3.906   2.554   4.742
    1C        C   68   3.841   2.522   4.864
    1C        C   69   4.049   2.588   4.981
    1C        C   70   3.922   2.530   4.978
    1C        C   71   2.823   2.734   2.307
    1C        C   72   2.882   2.691   2.429
    1C        C   73   2.833   2.746   2.549
    1C        C   74   3.006   2.624   2.672
    1C        C   75   2.892   2.708   2.672
    1C        C   76   3.070   2.587   2.793
    1C        C   77   3.010   2.628   2.914
    1C        C   78   3.201   2.537   3.038
    1C        C   79   3.074   2.600   3.037
    1C        C   80   3.272   2.525   3.159
    1C        C   81   3.208   2.541   3.284
    1C        C   82   3.414   2.495   3.403
    1C        C   83   3.274   2.513   3.406
    1C        C   84   3.484   2.495   3.526
    1C        C   85   3.414   2.500   3.649
    1C        C   86   3.624   2.501   3.767
    1C        C   87   3.483   2.495   3.772
    1C        C   88   3.696   2.511   3.888
    1C        C   89   3.628   2.501   4.012
    1C        C   90   3.834   2.545   4.133
    1C        C   91   3.698   2.506   4.134
    1C        C   92   3.901   2.569   4.255
    1C        C   93   3.836   2.542   4.378
    1C        C   94   4.027   2.632   4.501
    1C        C   95   3.904   2.563   4.499
    1C        C   96   4.089   2.671   4.622
    1C        C   97   4.029   2.626   4.742
    1C        C   98   4.182   2.770   4.860
    1C        C   99   4.095   2.656   4.864
    1C        C  100   4.212   2.845   4.975
    1C        C  101   2.817   2.726   2.070
    1C        C  102   2.986   2.586   2.191
    1C        C  103   2.873   2.675   2.188
    1C        C  104   3.059   2.565   2.311
    1C        C  105   3.001   2.616   2.430
    1C        C  106   3.198   2.534   2.549
    1C        C  107   3.066   2.583   2.551
    1C        C  108   3.268   2.515   2.670
    1C        C  109   3.204   2.541   2.794
    1C        C  110   3.409   2.493   2.916
    1C        C  111   3.270   2.516   2.916
    1C        C  112   3.481   2.488   3.037
    1C        C  113   3.411   2.500   3.159
    1C        C  114   3.625   2.494   3.279
    1C        C  115   3.484   2.491   3.280
    1C        C  116   3.696   2.502   3.401
    1C        C  117   3.625   2.497   3.523
    1C        C  118   3.833   2.542   3.644
    1C        C  119   3.695   2.508   3.645
    1C        C  120   3.899   2.564   3.767
    1C        C  121   3.833   2.545   3.891
    1C        C  122   4.027   2.636   4.013
    1C        C  123   3.902   2.571   4.012
    1C        C  124   4.083   2.679   4.135
    1C        C  125   4.026   2.635   4.257
    1C        C  126   4.192   2.766   4.377
    1C        C  127   4.085   2.674   4.379
    1C        C  128   4.237   2.823   4.498
    1C        C  129   4.188   2.771   4.620
    1C        C  130   4.324   2.936   4.741
    1C        C  131   4.240   2.821   4.741
    1C        C  132   4.356   3.005   4.860
    1C        C  133   4.288   2.961   4.974
    1C        C  134   3.173   2.466   2.081
    1C        C  135   3.038   2.506   2.085
    1C        C  136   3.259   2.477   2.191
    1C        C  137   3.191   2.514   2.309
    1C        C  138   3.405   2.479   2.428
    1C        C  139   3.266   2.502   2.429
    1C        C  140   3.478   2.477   2.549
    1C        C  141   3.407   2.492   2.670
    1C        C  142   3.619   2.495   2.789
    1C        C  143   3.478   2.490   2.792
    1C        C  144   3.692   2.497   2.910
    1C        C  145   3.623   2.489   3.032
    1C        C  146   3.829   2.532   3.156
    1C        C  147   3.692   2.497   3.155
    1C        C  148   3.897   2.561   3.276
    1C        C  149   3.832   2.540   3.400
    1C        C  150   4.025   2.628   3.523
    1C        C  151   3.899   2.565   3.522
    1C        C  152   4.083   2.672   3.645
    1C        C  153   4.021   2.636   3.766
    1C        C  154   4.188   2.767   3.886
    1C        C  155   4.081   2.675   3.888
    1C        C  156   4.239   2.816   4.009
    1C        C  157   4.192   2.769   4.134
    1C        C  158   4.339   2.921   4.251
    1C        C  159   4.246   2.815   4.256
    1C        C  160   4.377   2.982   4.373
    1C        C  161   4.325   2.934   4.495
    1C        C  162   4.433   3.116   4.614
    1C        C  163   4.365   2.992   4.618
    1C        C  164   4.460   3.186   4.733
    1C        C  165   4.434   3.123   4.857
    1C        C  166   4.515   3.321   4.972
    1C        C  167   4.482   3.186   4.972
    1C        C  168   3.474   2.438   2.073
    1C        C  169   3.398   2.454   2.189
    1C        C  170   3.617   2.473   2.307
    1C        C  171   3.475   2.464   2.307
    1C        C  172   3.692   2.488   2.426
    1C        C  173   3.619   2.484   2.547
    1C        C  174   3.827   2.541   2.666
    1C        C  175   3.691   2.505   2.667
    1C        C  176   3.894   2.560   2.789
    1C        C  177   3.828   2.537   2.911
    1C        C  178   4.017   2.630   3.032
    1C        C  179   3.893   2.563   3.034
    1C        C  180   4.079   2.668   3.153
    1C        C  181   4.020   2.630   3.276
    1C        C  182   4.191   2.754   3.398
    1C        C  183   4.083   2.663   3.399
    1C        C  184   4.245   2.805   3.519
    1C        C  185   4.193   2.760   3.642
    1C        C  186   4.336   2.918   3.763
    1C        C  187   4.243   2.812   3.764
    1C        C  188   4.376   2.978   3.885
    1C        C  189   4.330   2.924   4.007
    1C        C  190   4.446   3.102   4.128
    1C        C  191   4.378   2.979   4.128
    1C        C  192   4.469   3.172   4.249
    1C        C  193   4.442   3.108   4.372
    1C        C  194   4.502   3.316   4.492
    1C        C  195   4.465   3.179   4.492
    1C        C  196   4.520   3.389   4.612
    1C        C  197   4.504   3.322   4.735
    1C        C  198   4.552   3.537   4.853
    1C        C  199   4.523   3.396   4.854
    1C        C  200   4.585   3.624   4.961
    1C        C  201   3.613   2.419   2.072
    1C        C  202   3.823   2.515   2.181
    1C        C  203   3.689   2.465   2.184
    1C        C  204   3.897   2.542   2.300
    1C        C  205   3.830   2.518   2.422
    1C        C  206   4.020   2.618   2.543
    1C        C  207   3.894   2.555   2.542
    1C        C  208   4.079   2.659   2.665
    1C        C  209   4.018   2.630   2.789
    1C        C  210   4.192   2.753   2.908
    1C        C  211   4.076   2.672   2.910
    1C        C  212   4.244   2.802   3.030
    1C        C  213   4.190   2.755   3.152
    1C        C  214   4.329   2.914   3.273
    1C        C  215   4.238   2.805   3.275
    1C        C  216   4.368   2.976   3.394
    1C        C  217   4.330   2.918   3.517
    1C        C  218   4.435   3.102   3.640
    1C        C  219   4.373   2.976   3.639
    1C        C  220   4.459   3.170   3.762
    1C        C  221   4.436   3.105   3.885
    1C        C  222   4.509   3.306   4.005
    1C        C  223   4.469   3.170   4.006
    1C        C  224   4.518   3.379   4.126
    1C        C  225   4.502   3.309   4.247
    1C        C  226   4.522   3.523   4.366
    1C        C  227   4.512   3.382   4.368
    1C        C  228   4.519   3.597   4.486
    1C        C  229   4.528   3.530   4.610
    1C        C  230   4.502   3.744   4.725
    1C        C  231   4.533   3.605   4.729
    1C        C  232   4.500   3.823   4.842
    1C        C  233   4.547   3.759   4.957
    1C        C  234   4.021   2.604   2.061
    1C        C  235   3.895   2.546   2.065
    1C        C  236   4.085   2.648   2.178
    1C        C  237   4.021   2.610   2.298
    1C        C  238   4.196   2.734   2.421
    1C        C  239   4.081   2.650   2.419
    1C        C  240   4.247   2.788   2.541
    1C        C  241   4.190   2.746   2.664
    1C        C  242   4.332   2.907   2.784
    1C        C  243   4.244   2.797   2.784
    1C        C  244   4.377   2.964   2.906
    1C        C  245   4.334   2.911   3.029
    1C        C  246   4.433   3.099   3.149
    1C        C  247   4.368   2.973   3.151
    1C        C  248   4.455   3.165   3.272
    1C        C  249   4.432   3.102   3.396
    1C        C  250   4.493   3.306   3.517
    1C        C  251   4.456   3.169   3.518
    1C        C  252   4.509   3.375   3.639
    1C        C  253   4.499   3.306   3.761
    1C        C  254   4.525   3.516   3.878
    1C        C  255   4.522   3.375   3.883
    1C        C  256   4.519   3.588   4.000
    1C        C  257   4.521   3.520   4.124
    1C        C  258   4.494   3.733   4.239
    1C        C  259   4.520   3.594   4.244
    1C        C  260   4.471   3.800   4.361
    1C        C  261   4.492   3.736   4.484
    1C        C  262   4.425   3.942   4.601
    1C        C  263   4.476   3.810   4.603
    1C        C  264   4.398   4.010   4.722
    1C        C  265   4.438   3.950   4.843
    1C        C  266   4.314   4.130   4.956
    1C        C  267   4.389   4.013   4.958
    1C        C  268   4.264   2.771   2.065
    1C        C  269   4.202   2.727   2.182
    1C        C  270   4.352   2.884   2.299
    1C        C  271   4.257   2.778   2.302
    1C        C  272   4.386   2.950   2.419
    1C        C  273   4.341   2.893   2.541
    1C        C  274   4.441   3.085   2.660
    1C        C  275   4.372   2.962   2.660
    1C        C  276   4.472   3.152   2.780
    1C        C  277   4.444   3.088   2.903
    1C        C  278   4.504   3.292   3.025
    1C        C  279   4.470   3.155   3.025
    1C        C  280   4.515   3.364   3.145
    1C        C  281   4.499   3.299   3.270
    1C        C  282   4.522   3.510   3.390
    1C        C  283   4.513   3.369   3.392
    1C        C  284   4.524   3.582   3.511
    1C        C  285   4.524   3.516   3.635
    1C        C  286   4.504   3.728   3.753
    1C        C  287   4.522   3.588   3.757
    1C        C  288   4.481   3.797   3.874
    1C        C  289   4.497   3.728   3.996
    1C        C  290   4.432   3.934   4.115
    1C        C  291   4.479   3.801   4.116
    1C        C  292   4.400   4.000   4.236
    1C        C  293   4.424   3.933   4.358
    1C        C  294   4.323   4.123   4.478
    1C        C  295   4.399   4.005   4.477
    1C        C  296   4.285   4.190   4.597
    1C        C  297   4.327   4.133   4.719
    1C        C  298   4.203   4.316   4.837
    1C        C  299   4.286   4.200   4.838
    1C        C  300   4.172   4.406   4.944
    1C        C  301   4.347   2.884   2.064
    1C        C  302   4.469   3.069   2.176
    1C        C  303   4.398   2.944   2.179
    1C        C  304   4.470   3.144   2.296
    1C        C  305   4.444   3.079   2.419
    1C        C  306   4.516   3.283   2.536
    1C        C  307   4.477   3.147   2.538
    1C        C  308   4.525   3.357   2.656
    1C        C  309   4.506   3.289   2.779
    1C        C  310   4.519   3.500   2.898
    1C        C  311   4.518   3.358   2.901
    1C        C  312   4.516   3.572   3.019
    1C        C  313   4.522   3.506   3.144
    1C        C  314   4.487   3.715   3.266
    1C        C  315   4.515   3.577   3.266
    1C        C  316   4.478   3.786   3.387
    1C        C  317   4.499   3.721   3.511
    1C        C  318   4.432   3.927   3.627
    1C        C  319   4.481   3.795   3.631
    1C        C  320   4.401   3.991   3.750
    1C        C  321   4.432   3.929   3.873
    1C        C  322   4.317   4.112   3.989
    1C        C  323   4.398   3.996   3.993
    1C        C  324   4.275   4.168   4.112
    1C        C  325   4.320   4.117   4.236
    1C        C  326   4.183   4.283   4.352
    1C        C  327   4.278   4.179   4.355
    1C        C  328   4.137   4.340   4.472
    1C        C  329   4.192   4.296   4.595
    1C        C  330   4.025   4.433   4.712
    1C        C  331   4.144   4.355   4.713
    1C        C  332   3.970   4.488   4.830
    1C        C  333   4.054   4.481   4.942
    1C        C  334   4.552   3.267   2.060
    1C        C  335   4.540   3.128   2.067
    1C        C  336   4.537   3.348   2.174
    1C        C  337   4.509   3.281   2.295
    1C        C  338   4.526   3.495   2.410
    1C        C  339   4.526   3.354   2.415
    1C        C  340   4.525   3.568   2.531
    1C        C  341   4.528   3.498   2.654
    1C        C  342   4.489   3.708   2.774
    1C        C  343   4.514   3.569   2.775
    1C        C  344   4.477   3.778   2.896
    1C        C  345   4.497   3.712   3.019
    1C        C  346   4.425   3.913   3.137
    1C        C  347   4.471   3.779   3.141
    1C        C  348   4.391   3.976   3.259
    1C        C  349   4.424   3.917   3.383
    1C        C  350   4.321   4.103   3.500
    1C        C  351   4.400   3.986   3.503
    1C        C  352   4.271   4.159   3.620
    1C        C  353   4.315   4.103   3.742
    1C        C  354   4.177   4.264   3.865
    1C        C  355   4.274   4.162   3.864
    1C        C  356   4.123   4.312   3.986
    1C        C  357   4.180   4.272   4.109
    1C        C  358   4.010   4.405   4.229
    1C        C  359   4.124   4.321   4.229
    1C        C  360   3.953   4.453   4.349
    1C        C  361   4.021   4.421   4.468
    1C        C  362   3.832   4.519   4.590
    1C        C  363   3.961   4.462   4.589
    1C        C  364   3.764   4.545   4.711
    1C        C  365   3.841   4.545   4.829
    1C        C  366   3.630   4.591   4.949
    1C        C  367   3.768   4.572   4.946
    1C        C  368   4.505   3.561   2.053
    1C        C  369   4.518   3.487   2.171
    1C        C  370   4.505   3.707   2.287
    1C        C  371   4.520   3.567   2.288
    1C        C  372   4.486   3.777   2.408
    1C        C  373   4.501   3.707   2.530
    1C        C  374   4.421   3.907   2.646
    1C        C  375   4.474   3.776   2.651
    1C        C  376   4.390   3.969   2.769
    1C        C  377   4.425   3.909   2.892
    1C        C  378   4.316   4.092   3.011
    1C        C  379   4.396   3.975   3.013
    1C        C  380   4.270   4.148   3.132
    1C        C  381   4.315   4.095   3.255
    1C        C  382   4.171   4.251   3.376
    1C        C  383   4.274   4.154   3.376
    1C        C  384   4.118   4.300   3.498
    1C        C  385   4.172   4.259   3.622
    1C        C  386   4.004   4.389   3.742
    1C        C  387   4.121   4.310   3.743
    1C        C  388   3.942   4.426   3.863
    1C        C  389   4.004   4.389   3.985
    1C        C  390   3.817   4.490   4.107
    1C        C  391   3.947   4.434   4.106
    1C        C  392   3.751   4.518   4.229
    1C        C  393   3.824   4.509   4.349
    1C        C  394   3.618   4.557   4.476
    1C        C  395   3.757   4.532   4.471
    1C        C  396   3.548   4.567   4.598
    1C        C  397   3.623   4.560   4.717
    1C        C  398   3.411   4.540   4.838
    1C        C  399   3.550   4.566   4.837
    1C        C  400   3.342   4.517   4.957
    1C        C  401   4.500   3.700   2.051
    1C        C  402   4.448   3.913   2.164
    1C        C  403   4.491   3.779   2.166
    1C        C  404   4.407   3.975   2.284
    1C        C  405   4.435   3.908   2.405
    1C        C  406   4.322   4.094   2.525
    1C        C  407   4.394   3.972   2.524
    1C        C  408   4.271   4.147   2.645
    1C        C  409   4.311   4.087   2.766
    1C        C  410   4.171   4.246   2.887
    1C        C  411   4.271   4.146   2.888
    1C        C  412   4.123   4.297   3.010
    1C        C  413   4.175   4.253   3.133
    1C        C  414   4.005   4.383   3.252
    1C        C  415   4.119   4.300   3.254
    1C        C  416   3.942   4.417   3.374
    1C        C  417   4.000   4.378   3.497
    1C        C  418   3.812   4.475   3.617
    1C        C  419   3.941   4.419   3.619
    1C        C  420   3.747   4.507   3.739
    1C        C  421   3.815   4.487   3.861
    1C        C  422   3.611   4.534   3.987
    1C        C  423   3.750   4.511   3.985
    1C        C  424   3.541   4.545   4.110
    1C        C  425   3.613   4.547   4.232
    1C        C  426   3.404   4.547   4.356
    1C        C  427   3.544   4.559   4.355
    1C        C  428   3.332   4.545   4.478
    1C        C  429   3.407   4.558   4.597
    1C        C  430   3.195   4.521   4.723
    1C        C  431   3.335   4.545   4.719
    1C        C  432   3.124   4.500   4.845
    1C        C  433   3.205   4.497   4.959
    1C        C  434   4.382   4.122   2.049
    1C        C  435   4.445   3.997   2.052
    1C        C  436   4.303   4.165   2.160
    1C        C  437   4.331   4.096   2.281
    1C        C  438   4.182   4.250   2.400
    1C        C  439   4.281   4.149   2.402
    1C        C  440   4.122   4.294   2.521
    1C        C  441   4.171   4.247   2.644
    1C        C  442   4.003   4.378   2.765
    1C        C  443   4.116   4.294   2.766
    1C        C  444   3.944   4.417   2.887
    1C        C  445   4.008   4.380   3.007
    1C        C  446   3.813   4.466   3.129
    1C        C  447   3.944   4.413   3.129
    1C        C  448   3.745   4.492   3.250
    1C        C  449   3.812   4.473   3.373
    1C        C  450   3.608   4.532   3.495
    1C        C  451   3.745   4.496   3.495
    1C        C  452   3.541   4.531   3.620
    1C        C  453   3.608   4.532   3.744
    1C        C  454   3.397   4.537   3.866
    1C        C  455   3.538   4.541   3.866
    1C        C  456   3.331   4.529   3.991
    1C        C  457   3.400   4.540   4.113
    1C        C  458   3.193   4.499   4.237
    1C        C  459   3.331   4.531   4.236
    1C        C  460   3.126   4.482   4.360
    1C        C  461   3.196   4.509   4.480
    1C        C  462   2.998   4.433   4.601
    1C        C  463   3.128   4.490   4.603
    1C        C  464   2.933   4.402   4.722
    1C        C  465   2.992   4.445   4.844
    1C        C  466   2.799   4.337   4.959
    1C        C  467   2.906   4.429   4.957
    1C        C  468   4.128   4.289   2.039
    1C        C  469   4.193   4.256   2.159
    1C        C  470   4.005   4.368   2.278
    1C        C  471   4.128   4.296   2.279
    1C        C  472   3.939   4.400   2.398
    1C        C  473   4.004   4.371   2.521
    1C        C  474   3.811   4.462   2.642
    1C        C  475   3.942   4.410   2.642
    1C        C  476   3.743   4.489   2.763
    1C        C  477   3.813   4.472   2.884
    1C        C  478   3.607   4.517   3.008
    1C        C  479   3.745   4.487   3.007
    1C        C  480   3.536   4.532   3.129
    1C        C  481   3.607   4.520   3.251
    1C        C  482   3.396   4.533   3.377
    1C        C  483   3.537   4.535   3.373
    1C        C  484   3.328   4.525   3.501
    1C        C  485   3.400   4.534   3.622
    1C        C  486   3.192   4.493   3.743
    1C        C  487   3.328   4.531   3.743
    1C        C  488   3.128   4.474   3.867
    1C        C  489   3.193   4.499   3.991
    1C        C  490   3.005   4.407   4.114
    1C        C  491   3.128   4.477   4.114
    1C        C  492   2.942   4.379   4.237
    1C        C  493   2.998   4.422   4.359
    1C        C  494   2.826   4.301   4.486
    1C        C  495   2.938   4.388   4.482
    1C        C  496   2.770   4.256   4.607
    1C        C  497   2.822   4.314   4.725
    1C        C  498   2.667   4.163   4.847
    1C        C  499   2.753   4.274   4.843
    1C        C  500   2.601   4.116   4.962
    1C        C  501   4.007   4.359   2.038
    1C        C  502   3.816   4.464   2.154
    1C        C  503   3.942   4.400   2.155
    1C        C  504   3.745   4.479   2.276
    1C        C  505   3.808   4.453   2.399
    1C        C  506   3.604   4.515   2.519
    1C        C  507   3.741   4.479   2.521
    1C        C  508   3.533   4.519   2.641
    1C        C  509   3.605   4.519   2.762
    1C        C  510   3.396   4.522   2.885
    1C        C  511   3.537   4.527   2.886
    1C        C  512   3.326   4.517   3.008
    1C        C  513   3.394   4.534   3.131
    1C        C  514   3.191   4.492   3.254
    1C        C  515   3.326   4.531   3.254
    1C        C  516   3.123   4.467   3.376
    1C        C  517   3.190   4.492   3.498
    1C        C  518   3.000   4.402   3.625
    1C        C  519   3.125   4.468   3.621
    1C        C  520   2.945   4.362   3.749
    1C        C  521   3.006   4.402   3.869
    1C        C  522   2.834   4.279   3.997
    1C        C  523   2.948   4.363   3.992
    1C        C  524   2.779   4.239   4.120
    1C        C  525   2.828   4.294   4.240
    1C        C  526   2.691   4.136   4.365
    1C        C  527   2.778   4.248   4.364
    1C        C  528   2.646   4.080   4.486
    1C        C  529   2.687   4.141   4.607
    1C        C  530   2.577   3.963   4.732
    1C        C  531   2.636   4.093   4.729
    1C        C  532   2.540   3.903   4.855
    1C        C  533   2.530   3.995   4.964
    1C        C  534   3.618   4.554   2.040
    1C        C  535   3.751   4.509   2.039
    1C        C  536   3.536   4.535   2.156
    1C        C  537   3.607   4.513   2.277
    1C        C  538   3.393   4.515   2.398
    1C        C  539   3.534   4.524   2.397
    1C        C  540   3.323   4.508   2.520
    1C        C  541   3.392   4.511   2.643
    1C        C  542   3.183   4.483   2.768
    1C        C  543   3.321   4.511   2.766
    1C        C  544   3.120   4.458   2.892
    1C        C  545   3.189   4.483   3.012
    1C        C  546   2.997   4.396   3.134
    1C        C  547   3.121   4.464   3.134
    1C        C  548   2.937   4.363   3.258
    1C        C  549   2.997   4.405   3.379
    1C        C  550   2.830   4.278   3.505
    1C        C  551   2.939   4.367   3.502
    1C        C  552   2.779   4.231   3.628
    1C        C  553   2.831   4.278   3.750
    1C        C  554   2.696   4.120   3.876
    1C        C  555   2.784   4.230   3.874
    1C        C  556   2.657   4.062   3.999
    1C        C  557   2.697   4.124   4.120
    1C        C  558   2.592   3.946   4.249
    1C        C  559   2.655   4.072   4.245
    1C        C  560   2.561   3.882   4.371
    1C        C  561   2.578   3.956   4.490
    1C        C  562   2.528   3.752   4.616
    1C        C  563   2.555   3.891   4.613
    1C        C  564   2.513   3.681   4.737
    1C        C  565   2.515   3.762   4.854
    1C        C  566   2.531   3.549   4.977
    1C        C  567   2.515   3.687   4.973
    1C        C  568   3.327   4.475   2.041
    1C        C  569   3.395   4.517   2.156
    1C        C  570   3.182   4.475   2.280
    1C        C  571   3.320   4.512   2.277
    1C        C  572   3.117   4.452   2.403
    1C        C  573   3.185   4.476   2.524
    1C        C  574   2.986   4.403   2.648
    1C        C  575   3.116   4.460   2.646
    1C        C  576   2.930   4.360   2.770
    1C        C  577   2.994   4.394   2.892
    1C        C  578   2.819   4.275   3.016
    1C        C  579   2.933   4.358   3.014
    1C        C  580   2.772   4.224   3.139
    1C        C  581   2.828   4.273   3.258
    1C        C  582   2.690   4.118   3.383
    1C        C  583   2.781   4.226   3.383
    1C        C  584   2.652   4.059   3.506
    1C        C  585   2.695   4.117   3.628
    1C        C  586   2.594   3.936   3.754
    1C        C  587   2.656   4.063   3.753
    1C        C  588   2.568   3.872   3.878
    1C        C  589   2.592   3.937   4.001
    1C        C  590   2.537   3.740   4.128
    1C        C  591   2.565   3.878   4.127
    1C        C  592   2.523   3.674   4.252
    1C        C  593   2.526   3.745   4.374
    1C        C  594   2.511   3.535   4.500
    1C        C  595   2.516   3.676   4.497
    1C        C  596   2.515   3.464   4.621
    1C        C  597   2.516   3.539   4.741
    1C        C  598   2.534   3.327   4.861
    1C        C  599   2.532   3.468   4.863
    1C        C  600   2.527   3.249   4.977
    1C        C  601   3.198   4.428   2.044
    1C        C  602   2.984   4.387   2.159
    1C        C  603   3.118   4.436   2.159
    1C        C  604   2.923   4.357   2.284
    1C        C  605   2.988   4.394   2.403
    1C        C  606   2.820   4.271   2.528
    1C        C  607   2.924   4.366   2.527
    1C        C  608   2.768   4.223   2.650
    1C        C  609   2.820   4.272   2.772
    1C        C  610   2.683   4.111   2.894
    1C        C  611   2.768   4.224   2.894
    1C        C  612   2.646   4.053   3.018
    1C        C  613   2.683   4.114   3.140
    1C        C  614   2.583   3.930   3.264
    1C        C  615   2.645   4.057   3.264
    1C        C  616   2.565   3.864   3.388
    1C        C  617   2.595   3.930   3.509
    1C        C  618   2.525   3.734   3.639
    1C        C  619   2.568   3.868   3.633
    1C        C  620   2.510   3.668   3.763
    1C        C  621   2.524   3.738   3.885
    1C        C  622   2.510   3.528   4.012
    1C        C  623   2.518   3.669   4.007
    1C        C  624   2.508   3.459   4.136
    1C        C  625   2.505   3.534   4.256
    1C        C  626   2.541   3.325   4.377
    1C        C  627   2.512   3.464   4.378
    1C        C  628   2.562   3.257   4.499
    1C        C  629   2.540   3.325   4.621
    1C        C  630   2.596   3.118   4.746
    1C        C  631   2.552   3.253   4.742
    1C        C  632   2.624   3.053   4.869
    1C        C  633   2.567   3.115   4.985
    1C        C  634   2.779   4.306   2.053
    1C        C  635   2.889   4.393   2.052
    1C        C  636   2.742   4.235   2.168
    1C        C  637   2.806   4.276   2.287
    1C        C  638   2.674   4.111   2.411
    1C        C  639   2.760   4.223   2.409
    1C        C  640   2.630   4.056   2.533
    1C        C  641   2.676   4.116   2.652
    1C        C  642   2.582   3.924   2.777
    1C        C  643   2.639   4.053   2.773
    1C        C  644   2.557   3.858   2.900
    1C        C  645   2.584   3.926   3.021
    1C        C  646   2.522   3.724   3.148
    1C        C  647   2.560   3.860   3.144
    1C        C  648   2.511   3.657   3.272
    1C        C  649   2.528   3.728   3.393
    1C        C  650   2.511   3.521   3.520
    1C        C  651   2.517   3.662   3.517
    1C        C  652   2.514   3.454   3.645
    1C        C  653   2.508   3.526   3.766
    1C        C  654   2.536   3.318   3.891
    1C        C  655   2.512   3.458   3.890
    1C        C  656   2.554   3.250   4.014
    1C        C  657   2.538   3.321   4.135
    1C        C  658   2.613   3.123   4.260
    1C        C  659   2.562   3.255   4.257
    1C        C  660   2.644   3.059   4.383
    1C        C  661   2.613   3.125   4.504
    1C        C  662   2.713   2.941   4.626
    1C        C  663   2.628   3.053   4.625
    1C        C  664   2.756   2.879   4.745
    1C        C  665   2.708   2.937   4.866
    1C        C  666   2.745   2.871   4.984
    1C        C  667   2.678   4.027   2.059
    1C        C  668   2.672   4.113   2.170
    1C        C  669   2.591   3.913   2.294
    1C        C  670   2.638   4.047   2.290
    1C        C  671   2.562   3.848   2.416
    1C        C  672   2.577   3.925   2.534
    1C        C  673   2.521   3.720   2.657
    1C        C  674   2.554   3.857   2.655
    1C        C  675   2.511   3.651   2.780
    1C        C  676   2.528   3.720   2.902
    1C        C  677   2.505   3.513   3.031
    1C        C  678   2.514   3.654   3.026
    1C        C  679   2.508   3.443   3.153
    1C        C  680   2.506   3.516   3.274
    1C        C  681   2.533   3.310   3.404
    1C        C  682   2.509   3.449   3.399
    1C        C  683   2.557   3.245   3.527
    1C        C  684   2.539   3.315   3.648
    1C        C  685   2.607   3.116   3.771
    1C        C  686   2.552   3.246   3.771
    1C        C  687   2.640   3.055   3.894
    1C        C  688   2.611   3.121   4.015
    1C        C  689   2.718   2.939   4.140
    1C        C  690   2.644   3.059   4.138
    1C        C  691   2.760   2.881   4.262
    1C        C  692   2.718   2.938   4.383
    1C        C  693   2.756   2.880   4.506
    1C        C  694   2.619   3.900   2.056
    1C        C  695   2.526   3.707   2.176
    1C        C  696   2.578   3.839   2.175
    1C        C  697   2.504   3.639   2.297
    1C        C  698   2.520   3.713   2.416
    1C        C  699   2.492   3.504   2.544
    1C        C  700   2.505   3.645   2.539
    1C        C  701   2.500   3.435   2.666
    1C        C  702   2.501   3.510   2.786
    1C        C  703   2.527   3.302   2.912
    1C        C  704   2.506   3.441   2.909
    1C        C  705   2.547   3.233   3.034
    1C        C  706   2.539   3.305   3.155
    1C        C  707   2.603   3.111   3.280
    1C        C  708   2.550   3.242   3.281
    1C        C  709   2.642   3.051   3.402
    1C        C  710   2.611   3.114   3.525
    1C        C  711   2.718   2.936   3.651
    1C        C  712   2.638   3.052   3.649
    1C        C  713   2.757   2.876   3.773
    1C        C  714   2.714   2.934   3.894
    1C        C  715   2.761   2.883   4.017
    1C        C  716   2.448   3.501   2.065
    1C        C  717   2.493   3.633   2.061
    1C        C  718   2.470   3.421   2.181
    1C        C  719   2.485   3.498   2.299
    1C        C  720   2.515   3.291   2.424
    1C        C  721   2.489   3.430   2.423
    1C        C  722   2.543   3.226   2.546
    1C        C  723   2.527   3.296   2.668
    1C        C  724   2.596   3.098   2.792
    1C        C  725   2.543   3.229   2.791
    1C        C  726   2.631   3.037   2.915
    1C        C  727   2.604   3.104   3.037
    1C        C  728   2.712   2.925   3.163
    1C        C  729   2.633   3.042   3.161
    1C        C  730   2.758   2.871   3.285
    1C        C  731   2.717   2.931   3.407
    1C        C  732   2.759   2.876   3.529
    1C        C  733   2.485   3.197   2.073
    1C        C  734   2.488   3.279   2.186
    1C        C  735   2.577   3.081   2.306
    1C        C  736   2.528   3.214   2.306
    1C        C  737   2.613   3.020   2.428
    1C        C  738   2.592   3.093   2.547
    1C        C  739   2.700   2.913   2.670
    1C        C  740   2.625   3.033   2.671
    1C        C  741   2.744   2.859   2.793
    1C        C  742   2.707   2.918   2.916
    1C        C  743   2.751   2.867   3.040
    1C        C  744   2.545   3.071   2.070
    1C        C  745   2.683   2.899   2.186
    1C        C  746   2.593   3.008   2.186
    1C        C  747   2.731   2.842   2.306
    1C        C  748   2.688   2.900   2.427
    1C        C  749   2.735   2.848   2.549
    1C        C  750   2.733   2.837   2.071
    1C        C  751   3.659   2.345   1.952
    1C        O  752   3.691   2.224   1.965
    1C        O  753   3.645   2.401   1.824
    1C        C  754   4.663   3.056   2.027
    1C        O  755   4.669   2.992   1.919
    1C        O  756   4.783   3.093   2.088
    1C        C  757   4.441   4.227   1.962
    1C        O  758   4.548   4.286   1.993
    1C        O  759   4.442   4.215   1.823
    1C        C  760   3.604   4.680   1.963
    1C        O  761   3.647   4.786   2.017
    1C        O  762   3.585   4.685   1.825
    1C        C  763   2.914   4.440   1.914
    1C        O  764   2.948   4.363   1.820
    1C        O  765   2.910   4.575   1.879
    1C        C  766   2.347   3.474   1.960
    1C        O  767   2.363   3.516   1.842
    1C        O  768   2.209   3.457   1.981
    1C        C  769   4.673   3.584   5.073
    1C        O  770   4.644   3.594   5.196
    1C        O  771   4.810   3.587   5.044
    1C        C  772   4.276   4.472   5.027
    1C        O  773   4.266   4.478   5.152
    1C        O  774   4.345   4.585   4.983
    1C        C  775   4.144   2.522   5.074
    1C        O  776   4.215   2.429   5.027
    1C        O  777   4.125   2.511   5.212
    1C        C  778   2.892   4.529   5.065
    1C        O  779   2.812   4.626   5.066
    1C        O  780   2.933   4.496   5.195
    1C        C  781   2.477   3.039   5.076
    1C        O  782   2.372   2.976   5.051
    1C        O  783   2.517   3.010   5.206
    1C        C  784   2.415   3.983   5.057
    1C        O  785   2.294   3.999   5.024
    1C        O  786   2.435   3.943   5.189
    1C        C  787   2.948   2.434   1.993
    1C        O  788   2.931   2.474   1.875
    1C        O  789   2.903   2.303   2.012
    1C        C  790   3.185   2.367   5.058
    1C        O  791   3.196   2.251   5.010
    1C        O  792   3.122   2.379   5.183
    1C        H  793   4.274   3.030   5.055
    1C        H  794   4.177   2.811   5.070
    1C        H  795   4.528   3.126   5.048
    1C        H  796   4.581   3.351   5.051
    1C        H  797   4.542   3.811   5.050
    1C        H  798   4.416   3.973   5.054
    1C        H  799   4.258   4.152   5.045
    1C        H  800   4.024   4.533   5.031
    1C        H  801   3.818   4.578   5.040
    1C        H  802   3.593   4.667   5.015
    1C        H  803   3.395   4.507   5.050
    1C        H  804   3.169   4.458   5.052
    1C        H  805   3.913   2.450   5.048
    1C        H  806   3.669   2.432   5.068
    1C        H  807   3.021   2.588   5.072
    1C        H  808   3.446   2.414   5.063
    1C        H  809   2.858   2.722   5.077
    1C        H  810   2.676   2.860   5.065
    1C        H  811   2.498   3.294   5.069
    1C        H  812   2.555   3.507   5.072
    1C        H  813   2.492   3.736   5.065
    1C        H  814   2.592   4.183   5.044
    1C        H  815   2.766   4.297   5.053
    1C        H  816   2.724   2.891   1.979
    1C        H  817   2.805   2.656   1.990
    1C        H  818   3.212   2.432   1.987
    1C        H  819   3.428   2.451   1.977
    1C        H  820   3.863   2.506   1.971
    1C        H  821   4.081   2.579   1.975
    1C        H  822   4.235   2.732   1.970
    1C        H  823   4.335   2.951   1.982
    1C        H  824   4.559   3.312   1.963
    1C        H  825   4.458   3.512   1.969
    1C        H  826   4.482   3.740   1.954
    1C        H  827   3.806   4.519   1.948
    1C        H  828   3.949   4.346   1.950
    1C        H  829   4.169   4.268   1.943
    1C        H  830   4.530   3.986   1.988
    1C        H  831   2.551   3.891   1.974
    1C        H  832   2.725   4.062   1.969
    1C        H  833   2.700   4.320   1.981
    1C        H  834   3.385   4.435   1.959
    1C        H  835   3.174   4.339   1.989
    1C        H  836   2.607   3.061   1.983
    1C        H  837   2.396   3.208   2.015
    1C        H  838   2.555   3.653   1.976
    2V3OU   H29  839   2.808   3.555   1.708
    2V3OU   C27  840   2.783   3.503   1.804
    2V3OU   H27  841   2.720   3.573   1.865
    2V3OU   H28  842   2.733   3.405   1.784
    2V3OU   O11  843   2.907   3.479   1.870
    2V3OU   C15  844   2.920   3.400   1.982
    2V3OU   C13  845   3.049   3.372   2.031
    2V3OU   C14  846   3.079   3.267   2.120
    2V3OU   C16  847   2.975   3.186   2.164
    2V3OU    H6  848   2.989   3.098   2.230
    2V3OU   C12  849   3.214   3.232   2.170
    2V3OU    O2  850   3.236   3.136   2.247
    2V3OU   C10  851   3.327   3.310   2.118
    2V3OU    C8  852   3.457   3.272   2.147
    2V3OU   O10  853   3.489   3.156   2.211
    2V3OU   H26  854   3.400   3.118   2.228
    2V3OU    C6  855   3.567   3.350   2.099
    2V3OU    C5  856   3.538   3.465   2.028
    2V3OU    C4  857   3.705   3.294   2.108
    2V3OU    H4  858   3.728   3.229   2.197
    2V3OU    H5  859   3.714   3.222   2.021
    2V3OU    C2  860   3.815   3.401   2.104
    2V3OU    O6  861   3.809   3.480   2.223
    2V3OU   H21  862   3.763   3.563   2.207
    2V3OU    C3  863   3.782   3.496   1.989
    2V3OU    H2  864   3.868   3.568   1.981
    2V3OU    H3  865   3.786   3.442   1.891
    2V3OU   C25  866   3.952   3.332   2.096
    2V3OU    O7  867   3.993   3.289   1.988
    2V3OU   C26  868   4.024   3.290   2.223
    2V3OU   H22  869   4.055   3.386   2.272
    2V3OU   H23  870   4.112   3.226   2.197
    2V3OU    O8  871   3.962   3.205   2.316
    2V3OU   H24  872   3.926   3.264   2.385
    2V3OU    C1  873   3.648   3.565   2.009
    2V3OU    H1  874   3.624   3.618   1.912
    2V3OU    O3  875   3.658   3.653   2.122
    2V3OU   C19  876   3.617   3.788   2.098
    2V3OU    H9  877   3.520   3.796   2.041
    2V3OU    O4  878   3.713   3.847   2.012
    2V3OU   C20  879   3.842   3.877   2.065
    2V3OU   H10  880   3.895   3.779   2.085
    2V3OU   C24  881   3.611   3.855   2.235
    2V3OU   H16  882   3.550   3.794   2.306
    2V3OU   H17  883   3.567   3.958   2.227
    2V3OU   C23  884   3.750   3.874   2.296
    2V3OU   H15  885   3.792   3.771   2.321
    2V3OU    N1  886   3.737   3.954   2.415
    2V3OU   H19  887   3.806   3.923   2.480
    2V3OU   H20  888   3.653   3.924   2.460
    2V3OU   C21  889   3.848   3.948   2.200
    2V3OU   H11  890   3.955   3.932   2.232
    2V3OU    O5  891   3.823   4.088   2.193
    2V3OU   H18  892   3.778   4.105   2.277
    2V3OU   C22  893   3.915   3.952   1.954
    2V3OU   H12  894   3.858   4.046   1.930
    2V3OU   H13  895   3.907   3.893   1.858
    2V3OU   H14  896   4.024   3.954   1.976
    2V3OU   C11  897   3.158   3.465   1.998
    2V3OU    O1  898   3.138   3.585   1.970
    2V3OU    C9  899   3.293   3.427   2.046
    2V3OU    C7  900   3.402   3.501   2.001
    2V3OU    O9  901   3.385   3.620   1.934
    2V3OU   H25  902   3.288   3.628   1.928
    2V3OU   C17  903   2.818   3.321   2.040
    2V3OU    H7  904   2.718   3.333   1.999
    2V3OU   C18  905   2.845   3.216   2.127
    2V3OU    H8  906   2.761   3.153   2.160
    3SOL     OW  907   2.253   4.420   0.991
    3SOL    HW1  908   2.303   4.370   1.062
    3SOL    HW2  909   2.179   4.363   0.955
    4SOL     OW  910   6.678   5.317   1.946
    4SOL    HW1  911   6.611   5.391   1.959
    4SOL    HW2  912   6.748   5.324   2.016
    5SOL     OW  913   3.508   1.123   2.635
    5SOL    HW1  914   3.590   1.085   2.592
    5SOL    HW2  915   3.534   1.198   2.696
    6SOL     OW  916   3.797   1.052   2.228
    6SOL    HW1  917   3.876   1.112   2.218
    6SOL    HW2  918   3.755   1.038   2.138
    7SOL     OW  919   6.300   3.313   1.724
    7SOL    HW1  920   6.205   3.291   1.701
    7SOL    HW2  921   6.302   3.381   1.796
    8SOL     OW  922   2.547   0.039   5.288
    8SOL    HW1  923   2.523   0.073   5.197
    8SOL    HW2  924   2.580   0.114   5.345
    9SOL     OW  925   1.011   5.532   6.428
    9SOL    HW1  926   0.949   5.510   6.353
    9SOL    HW2  927   1.076   5.602   6.398
   10SOL     OW  928   1.163   4.750   5.451
   10SOL    HW1  929   1.226   4.674   5.435
   10SOL    HW2  930   1.194   4.804   5.530
   11SOL     OW  931   2.704   0.563   0.293
   11SOL    HW1  932   2.610   0.540   0.267
   11SOL    HW2  933   2.708   0.660   0.318
   12SOL     OW  934   3.847   5.932   4.417
   12SOL    HW1  935   3.828   5.837   4.390
   12SOL    HW2  936   3.771   5.966   4.473
   13SOL     OW  937   3.639   6.063   4.236
   13SOL    HW1  938   3.555   6.022   4.199
   13SOL    HW2  939   3.689   5.996   4.290
   14SOL     OW  940   4.761   5.464   6.764
   14SOL    HW1  941   4.833   5.419   6.711
   14SOL    HW2  942   4.674   5.418   6.748
   15SOL     OW  943   1.581   5.479   0.494
   15SOL    HW1  944   1.528   5.547   0.545
   15SOL    HW2  945   1.521   5.405   0.464
   16SOL     OW  946   5.816   2.351   5.998
   16SOL    HW1  947   5.727   2.391   5.973
   16SOL    HW2  948   5.806   2.253   6.011
   17SOL     OW  949   6.344   5.949   4.870
   17SOL    HW1  950   6.395   6.004   4.936
   17SOL    HW2  951   6.273   6.006   4.827
   18SOL     OW  952   2.886   1.064   6.849
   18SOL    HW1  953   2.867   1.161   6.835
   18SOL    HW2  954   2.932   1.027   6.769
   19SOL     OW  955   0.365   6.987   2.980
   19SOL    HW1  956   0.405   6.906   2.936
   19SOL    HW2  957   0.319   6.959   3.064
   20SOL     OW  958   3.421   2.032   3.946
   20SOL    HW1  959   3.339   2.085   3.966
   20SOL    HW2  960   3.398   1.956   3.886
   21SOL     OW  961   3.233   1.956   2.305
   21SOL    HW1  962   3.317   2.008   2.317
   21SOL    HW2  963   3.193   1.978   2.216
   22SOL     OW  964   2.068   0.229   6.819
   22SOL    HW1  965   1.970   0.225   6.804
   22SOL    HW2  966   2.092   0.170   6.896
   23SOL     OW  967   4.418   6.666   3.795
   23SOL    HW1  968   4.372   6.672   3.707
   23SOL    HW2  969   4.432   6.570   3.820
   24SOL     OW  970   5.462   1.840   3.786
   24SOL    HW1  971   5.549   1.833   3.834
   24SOL    HW2  972   5.387   1.821   3.850
   25SOL     OW  973   2.777   5.962   5.975
   25SOL    HW1  974   2.812   6.046   6.017
   25SOL    HW2  975   2.843   5.888   5.988
   26SOL     OW  976   6.202   1.095   0.938
   26SOL    HW1  977   6.264   1.168   0.964
   26SOL    HW2  978   6.110   1.116   0.970
   27SOL     OW  979   0.285   1.182   1.976
   27SOL    HW1  980   0.201   1.167   1.924
   27SOL    HW2  981   0.279   1.270   2.023
   28SOL     OW  982   3.794   0.690   6.712
   28SOL    HW1  983   3.737   0.737   6.780
   28SOL    HW2  984   3.821   0.600   6.748
   29SOL     OW  985   5.578   2.465   2.081
   29SOL    HW1  986   5.529   2.412   2.150
   29SOL    HW2  987   5.522   2.544   2.054
   30SOL     OW  988   3.875   7.022   5.354
   30SOL    HW1  989   3.818   0.059   5.411
   30SOL    HW2  990   3.862   0.022   5.258
   31SOL     OW  991   1.053   2.108   5.831
   31SOL    HW1  992   1.027   2.202   5.811
   31SOL    HW2  993   1.104   2.105   5.917
   32SOL     OW  994   0.549   1.429   3.053
   32SOL    HW1  995   0.544   1.470   3.144
   32SOL    HW2  996   0.575   1.333   3.061
   33SOL     OW  997   2.190   3.480   6.961
   33SOL    HW1  998   2.163   3.459   6.867
   33SOL    HW2  999   2.256   3.555   6.961
   34SOL     OW 1000   2.356   1.000   3.645
   34SOL    HW1 1001   2.321   0.991   3.552
   34SOL    HW2 1002   2.302   1.068   3.694
   35SOL     OW 1003   3.975   2.032   6.831
   35SOL    HW1 1004   4.008   1.940   6.809
   35SOL    HW2 1005   3.911   2.062   6.759
   36SOL     OW 1006   0.862   0.438   6.423
   36SOL    HW1 1007   0.895   0.525   6.458
   36SOL    HW2 1008   0.889   0.364   6.485
   37SOL     OW 1009   2.173   0.732   0.198
   37SOL    HW1 1010   2.170   0.683   0.285
   37SOL    HW2 1011   2.265   0.767   0.183
   38SOL     OW 1012   0.533   5.078   3.122
   38SOL    HW1 1013   0.455   5.139   3.112
   38SOL    HW2 1014   0.501   4.983   3.116
   39SOL     OW 1015   6.169   4.387   6.589
   39SOL    HW1 1016   6.135   4.475   6.622
   39SOL    HW2 1017   6.251   4.400   6.535
   40SOL     OW 1018   5.949   2.185   1.452
   40SOL    HW1 1019   5.920   2.089   1.453
   40SOL    HW2 1020   5.956   2.217   1.358
   41SOL     OW 1021   1.067   6.647   4.397
   41SOL    HW1 1022   1.072   6.586   4.318
   41SOL    HW2 1023   1.112   6.733   4.376
   42SOL     OW 1024   3.044   6.236   6.470
   42SOL    HW1 1025   3.092   6.323   6.458
   42SOL    HW2 1026   2.985   6.242   6.551
   43SOL     OW 1027   5.983   6.208   5.706
   43SOL    HW1 1028   6.016   6.239   5.617
   43SOL    HW2 1029   5.948   6.115   5.698
   44SOL     OW 1030   6.272   2.471   6.128
   44SOL    HW1 1031   6.173   2.458   6.131
   44SOL    HW2 1032   6.301   2.524   6.208
   45SOL     OW 1033   3.216   0.509   3.500
   45SOL    HW1 1034   3.181   0.435   3.443
   45SOL    HW2 1035   3.268   0.573   3.444
   46SOL     OW 1036   1.234   3.555   4.489
   46SOL    HW1 1037   1.199   3.619   4.558
   46SOL    HW2 1038   1.228   3.598   4.399
   47SOL     OW 1039   5.113   3.988   2.884
   47SOL    HW1 1040   5.104   3.908   2.824
   47SOL    HW2 1041   5.105   4.071   2.829
   48SOL     OW 1042   0.437   3.126   5.040
   48SOL    HW1 1043   0.480   3.045   5.080
   48SOL    HW2 1044   0.450   3.204   5.101
   49SOL     OW 1045   4.625   4.056   1.734
   49SOL    HW1 1046   4.543   4.106   1.761
   49SOL    HW2 1047   4.623   4.039   1.636
   50SOL     OW 1048   6.413   2.559   5.634
   50SOL    HW1 1049   6.416   2.479   5.574
   50SOL    HW2 1050   6.336   2.549   5.698
   51SOL     OW 1051   3.070   5.942   3.006
   51SOL    HW1 1052   3.088   5.850   3.040
   51SOL    HW2 1053   3.027   5.997   3.078
   52SOL     OW 1054   4.469   1.998   3.572
   52SOL    HW1 1055   4.550   1.980   3.628
   52SOL    HW2 1056   4.391   2.018   3.632
   53SOL     OW 1057   4.546   0.519   4.757
   53SOL    HW1 1058   4.522   0.615   4.770
   53SOL    HW2 1059   4.584   0.506   4.665
   54SOL     OW 1060   3.963   4.925   0.734
   54SOL    HW1 1061   4.035   4.869   0.773
   54SOL    HW2 1062   3.886   4.930   0.798
   55SOL     OW 1063   3.553   1.190   6.143
   55SOL    HW1 1064   3.586   1.155   6.055
   55SOL    HW2 1065   3.491   1.267   6.126
   56SOL     OW 1066   1.387   0.596   1.492
   56SOL    HW1 1067   1.353   0.679   1.536
   56SOL    HW2 1068   1.312   0.549   1.445
   57SOL     OW 1069   5.347   0.971   1.471
   57SOL    HW1 1070   5.414   0.908   1.431
   57SOL    HW2 1071   5.394   1.052   1.506
   58SOL     OW 1072   0.051   6.834   5.651
   58SOL    HW1 1073   0.073   6.749   5.700
   58SOL    HW2 1074   6.988   6.822   5.601
   59SOL     OW 1075   1.924   1.185   5.973
   59SOL    HW1 1076   1.844   1.237   5.944
   59SOL    HW2 1077   1.949   1.211   6.066
   60SOL     OW 1078   6.165   0.841   6.062
   60SOL    HW1 1079   6.173   0.911   5.991
   60SOL    HW2 1080   6.215   0.759   6.032
   61SOL     OW 1081   5.413   1.243   4.464
   61SOL    HW1 1082   5.399   1.318   4.529
   61SOL    HW2 1083   5.471   1.173   4.506
   62SOL     OW 1084   0.860   0.752   3.741
   62SOL    HW1 1085   0.780   0.714   3.696
   62SOL    HW2 1086   0.852   0.851   3.748
   63SOL     OW 1087   6.647   1.397   3.687
   63SOL    HW1 1088   6.577   1.326   3.694
   63SOL    HW2 1089   6.703   1.380   3.606
   64SOL     OW 1090   0.728   4.093   6.379
   64SOL    HW1 1091   0.792   4.035   6.329
   64SOL    HW2 1092   0.745   4.085   6.477
   65SOL     OW 1093   6.798   4.238   5.130
   65SOL    HW1 1094   6.892   4.210   5.147
   65SOL    HW2 1095   6.742   4.218   5.210
   66SOL     OW 1096   3.715   0.159   6.732
   66SOL    HW1 1097   3.800   0.201   6.764
   66SOL    HW2 1098   3.735   0.102   6.652
   67SOL     OW 1099   5.583   5.001   5.451
   67SOL    HW1 1100   5.595   5.081   5.392
   67SOL    HW2 1101   5.636   5.013   5.535
   68SOL     OW 1102   6.075   0.663   6.307
   68SOL    HW1 1103   6.127   0.624   6.383
   68SOL    HW2 1104   6.125   0.740   6.268
   69SOL     OW 1105   1.843   4.010   6.785
   69SOL    HW1 1106   1.900   3.946   6.837
   69SOL    HW2 1107   1.843   3.983   6.688
   70SOL     OW 1108   6.415   5.264   3.621
   70SOL    HW1 1109   6.485   5.239   3.688
   70SOL    HW2 1110   6.393   5.361   3.631
   71SOL     OW 1111   3.488   2.062   2.325
   71SOL    HW1 1112   3.563   2.112   2.369
   71SOL    HW2 1113   3.517   2.031   2.235
   72SOL     OW 1114   3.038   5.865   4.766
   72SOL    HW1 1115   3.128   5.907   4.752
   72SOL    HW2 1116   3.045   5.791   4.833
   73SOL     OW 1117   3.541   1.487   0.696
   73SOL    HW1 1118   3.584   1.436   0.771
   73SOL    HW2 1119   3.609   1.548   0.655
   74SOL     OW 1120   5.640   6.350   6.307
   74SOL    HW1 1121   5.632   6.302   6.220
   74SOL    HW2 1122   5.717   6.414   6.303
   75SOL     OW 1123   3.426   6.663   5.931
   75SOL    HW1 1124   3.396   6.605   5.855
   75SOL    HW2 1125   3.346   6.699   5.979
   76SOL     OW 1126   2.012   2.962   1.132
   76SOL    HW1 1127   2.000   3.005   1.222
   76SOL    HW2 1128   1.938   2.897   1.117
   77SOL     OW 1129   5.041   6.155   4.640
   77SOL    HW1 1130   5.108   6.119   4.575
   77SOL    HW2 1131   4.976   6.082   4.664
   78SOL     OW 1132   5.948   0.527   5.708
   78SOL    HW1 1133   5.943   0.444   5.763
   78SOL    HW2 1134   5.913   0.604   5.762
   79SOL     OW 1135   3.360   0.151   0.391
   79SOL    HW1 1136   3.296   0.225   0.412
   79SOL    HW2 1137   3.407   0.123   0.475
   80SOL     OW 1138   5.745   1.253   4.412
   80SOL    HW1 1139   5.703   1.186   4.472
   80SOL    HW2 1140   5.845   1.246   4.418
   81SOL     OW 1141   2.340   0.125   2.556
   81SOL    HW1 1142   2.255   0.175   2.543
   81SOL    HW2 1143   2.320   0.029   2.577
   82SOL     OW 1144   6.934   5.915   0.457
   82SOL    HW1 1145   6.939   5.815   0.448
   82SOL    HW2 1146   6.917   5.955   0.367
   83SOL     OW 1147   6.542   0.041   0.437
   83SOL    HW1 1148   6.469   0.079   0.380
   83SOL    HW2 1149   6.532   0.075   0.530
   84SOL     OW 1150   4.900   3.222   3.436
   84SOL    HW1 1151   4.819   3.165   3.454
   84SOL    HW2 1152   4.983   3.170   3.458
   85SOL     OW 1153   1.738   1.602   5.153
   85SOL    HW1 1154   1.679   1.549   5.092
   85SOL    HW2 1155   1.744   1.557   5.242
   86SOL     OW 1156   0.576   0.278   5.657
   86SOL    HW1 1157   0.613   0.343   5.722
   86SOL    HW2 1158   0.640   0.202   5.645
   87SOL     OW 1159   5.072   3.510   0.484
   87SOL    HW1 1160   5.133   3.588   0.473
   87SOL    HW2 1161   4.977   3.542   0.482
   88SOL     OW 1162   4.329   1.875   6.567
   88SOL    HW1 1163   4.294   1.913   6.652
   88SOL    HW2 1164   4.289   1.924   6.489
   89SOL     OW 1165   1.090   3.175   6.717
   89SOL    HW1 1166   1.063   3.094   6.770
   89SOL    HW2 1167   1.011   3.212   6.670
   90SOL     OW 1168   4.623   6.278   3.749
   90SOL    HW1 1169   4.578   6.342   3.811
   90SOL    HW2 1170   4.657   6.327   3.669
   91SOL     OW 1171   4.827   4.169   4.187
   91SOL    HW1 1172   4.889   4.227   4.240
   91SOL    HW2 1173   4.849   4.073   4.205
   92SOL     OW 1174   3.334   4.290   0.480
   92SOL    HW1 1175   3.364   4.227   0.408
   92SOL    HW2 1176   3.235   4.294   0.482
   93SOL     OW 1177   2.543   4.323   6.587
   93SOL    HW1 1178   2.469   4.261   6.559
   93SOL    HW2 1179   2.590   4.357   6.507
   94SOL     OW 1180   2.346   6.425   6.436
   94SOL    HW1 1181   2.390   6.399   6.523
   94SOL    HW2 1182   2.261   6.373   6.425
   95SOL     OW 1183   0.767   1.562   2.976
   95SOL    HW1 1184   0.704   1.496   3.017
   95SOL    HW2 1185   0.723   1.604   2.896
   96SOL     OW 1186   2.872   6.832   5.436
   96SOL    HW1 1187   2.910   6.914   5.480
   96SOL    HW2 1188   2.834   6.856   5.347
   97SOL     OW 1189   0.763   3.746   5.532
   97SOL    HW1 1190   0.701   3.667   5.533
   97SOL    HW2 1191   0.745   3.803   5.613
   98SOL     OW 1192   6.648   3.949   0.032
   98SOL    HW1 1193   6.558   3.913   0.055
   98SOL    HW2 1194   6.704   3.955   0.115
   99SOL     OW 1195   4.395   3.919   0.788
   99SOL    HW1 1196   4.494   3.932   0.799
   99SOL    HW2 1197   4.351   3.923   0.878
  100SOL     OW 1198   0.465   0.108   5.983
  100SOL    HW1 1199   0.401   0.094   5.908
  100SOL    HW2 1200   0.557   0.081   5.954
  101SOL     OW 1201   1.691   5.626   2.577
  101SOL    HW1 1202   1.680   5.725   2.580
  101SOL    HW2 1203   1.654   5.591   2.490
  102SOL     OW 1204   4.895   0.678   2.368
  102SOL    HW1 1205   4.828   0.657   2.297
  102SOL    HW2 1206   4.881   0.617   2.447
  103SOL     OW 1207   3.708   1.019   2.512
  103SOL    HW1 1208   3.787   1.040   2.454
  103SOL    HW2 1209   3.648   0.955   2.464
  104SOL     OW 1210   0.104   5.124   2.479
  104SOL    HW1 1211   0.200   5.152   2.477
  104SOL    HW2 1212   0.079   5.095   2.571
  105SOL     OW 1213   6.361   1.969   6.157
  105SOL    HW1 1214   6.285   1.980   6.221
  105SOL    HW2 1215   6.326   1.974   6.063
  106SOL     OW 1216   3.394   6.294   5.062
  106SOL    HW1 1217   3.349   6.211   5.030
  106SOL    HW2 1218   3.409   6.356   4.984
  107SOL     OW 1219   1.728   2.217   2.102
  107SOL    HW1 1220   1.797   2.170   2.047
  107SOL    HW2 1221   1.713   2.308   2.065
  108SOL     OW 1222   4.142   4.971   5.839
  108SOL    HW1 1223   4.231   4.959   5.795
  108SOL    HW2 1224   4.117   4.888   5.888
  109SOL     OW 1225   0.790   1.552   1.334
  109SOL    HW1 1226   0.782   1.474   1.272
  109SOL    HW2 1227   0.825   1.632   1.285
  110SOL     OW 1228   3.762   6.309   5.438
  110SOL    HW1 1229   3.767   6.229   5.379
  110SOL    HW2 1230   3.690   6.296   5.507
  111SOL     OW 1231   3.235   0.427   5.502
  111SOL    HW1 1232   3.245   0.525   5.484
  111SOL    HW2 1233   3.256   0.375   5.419
  112SOL     OW 1234   6.214   6.248   6.317
  112SOL    HW1 1235   6.181   6.289   6.232
  112SOL    HW2 1236   6.313   6.231   6.310
  113SOL     OW 1237   6.568   5.113   3.420
  113SOL    HW1 1238   6.487   5.128   3.476
  113SOL    HW2 1239   6.649   5.146   3.470
  114SOL     OW 1240   0.916   0.454   1.473
  114SOL    HW1 1241   0.938   0.377   1.533
  114SOL    HW2 1242   0.829   0.437   1.426
  115SOL     OW 1243   3.770   1.451   3.848
  115SOL    HW1 1244   3.689   1.468   3.903
  115SOL    HW2 1245   3.800   1.357   3.860
  116SOL     OW 1246   6.207   5.077   2.091
  116SOL    HW1 1247   6.289   5.082   2.149
  116SOL    HW2 1248   6.219   5.136   2.012
  117SOL     OW 1249   1.235   1.483   6.436
  117SOL    HW1 1250   1.331   1.492   6.413
  117SOL    HW2 1251   1.192   1.573   6.436
  118SOL     OW 1252   1.185   1.315   2.567
  118SOL    HW1 1253   1.195   1.216   2.581
  118SOL    HW2 1254   1.225   1.340   2.478
  119SOL     OW 1255   1.566   2.181   6.102
  119SOL    HW1 1256   1.614   2.204   6.187
  119SOL    HW2 1257   1.499   2.109   6.120
  120SOL     OW 1258   6.576   6.739   0.475
  120SOL    HW1 1259   6.613   6.709   0.387
  120SOL    HW2 1260   6.556   6.836   0.471
  121SOL     OW 1261   2.697   3.968   6.951
  121SOL    HW1 1262   2.688   4.066   6.936
  121SOL    HW2 1263   2.769   3.931   6.893
  122SOL     OW 1264   1.768   4.605   6.440
  122SOL    HW1 1265   1.856   4.634   6.477
  122SOL    HW2 1266   1.771   4.507   6.420
  123SOL     OW 1267   0.571   2.508   1.751
  123SOL    HW1 1268   0.500   2.575   1.730
  123SOL    HW2 1269   0.611   2.473   1.666
  124SOL     OW 1270   5.425   3.231   0.382
  124SOL    HW1 1271   5.343   3.266   0.338
  124SOL    HW2 1272   5.403   3.203   0.476
  125SOL     OW 1273   2.266   2.037   1.990
  125SOL    HW1 1274   2.348   2.000   2.035
  125SOL    HW2 1275   2.283   2.133   1.966
  126SOL     OW 1276   2.487   4.506   1.188
  126SOL    HW1 1277   2.559   4.438   1.171
  126SOL    HW2 1278   2.500   4.585   1.129
  127SOL     OW 1279   7.005   5.750   5.911
  127SOL    HW1 1280   0.050   5.756   5.837
  127SOL    HW2 1281   6.982   5.842   5.943
  128SOL     OW 1282   4.393   2.396   1.517
  128SOL    HW1 1283   4.323   2.379   1.587
  128SOL    HW2 1284   4.455   2.318   1.514
  129SOL     OW 1285   4.195   3.805   5.917
  129SOL    HW1 1286   4.225   3.722   5.963
  129SOL    HW2 1287   4.227   3.805   5.823
  130SOL     OW 1288   0.626   1.234   4.072
  130SOL    HW1 1289   0.664   1.151   4.113
  130SOL    HW2 1290   0.536   1.253   4.110
  131SOL     OW 1291   5.601   1.591   2.160
  131SOL    HW1 1292   5.515   1.575   2.210
  131SOL    HW2 1293   5.605   1.528   2.082
  132SOL     OW 1294   2.457   2.969   0.887
  132SOL    HW1 1295   2.363   2.989   0.917
  132SOL    HW2 1296   2.482   2.876   0.915
  133SOL     OW 1297   4.852   6.158   3.986
  133SOL    HW1 1298   4.861   6.177   3.888
  133SOL    HW2 1299   4.933   6.109   4.018
  134SOL     OW 1300   5.809   1.297   2.223
  134SOL    HW1 1301   5.773   1.355   2.151
  134SOL    HW2 1302   5.819   1.350   2.307
  135SOL     OW 1303   5.773   3.423   1.646
  135SOL    HW1 1304   5.842   3.492   1.623
  135SOL    HW2 1305   5.799   3.377   1.731
  136SOL     OW 1306   3.822   3.906   6.462
  136SOL    HW1 1307   3.855   3.820   6.424
  136SOL    HW2 1308   3.860   3.982   6.410
  137SOL     OW 1309   5.284   0.603   4.519
  137SOL    HW1 1310   5.305   0.506   4.500
  137SOL    HW2 1311   5.231   0.610   4.603
  138SOL     OW 1312   0.544   4.139   3.496
  138SOL    HW1 1313   0.563   4.114   3.401
  138SOL    HW2 1314   0.521   4.236   3.501
  139SOL     OW 1315   2.547   6.189   5.183
  139SOL    HW1 1316   2.525   6.175   5.279
  139SOL    HW2 1317   2.524   6.106   5.131
  140SOL     OW 1318   0.464   5.947   3.136
  140SOL    HW1 1319   0.500   6.036   3.164
  140SOL    HW2 1320   0.376   5.930   3.181
  141SOL     OW 1321   6.044   3.296   5.398
  141SOL    HW1 1322   6.126   3.276   5.451
  141SOL    HW2 1323   5.975   3.338   5.458
  142SOL     OW 1324   1.860   4.843   0.557
  142SOL    HW1 1325   1.959   4.825   0.561
  142SOL    HW2 1326   1.844   4.941   0.566
  143SOL     OW 1327   5.594   4.324   1.697
  143SOL    HW1 1328   5.674   4.299   1.642
  143SOL    HW2 1329   5.608   4.295   1.792
  144SOL     OW 1330   1.406   6.530   6.806
  144SOL    HW1 1331   1.492   6.484   6.830
  144SOL    HW2 1332   1.375   6.585   6.883
  145SOL     OW 1333   0.600   5.025   0.366
  145SOL    HW1 1334   0.521   5.011   0.306
  145SOL    HW2 1335   0.657   5.098   0.331
  146SOL     OW 1336   4.865   0.334   6.162
  146SOL    HW1 1337   4.933   0.391   6.117
  146SOL    HW2 1338   4.901   0.243   6.177
  147SOL     OW 1339   5.886   3.100   6.472
  147SOL    HW1 1340   5.964   3.055   6.428
  147SOL    HW2 1341   5.914   3.188   6.510
  148SOL     OW 1342   0.307   4.839   6.705
  148SOL    HW1 1343   0.306   4.886   6.617
  148SOL    HW2 1344   0.314   4.906   6.778
  149SOL     OW 1345   2.991   1.952   4.399
  149SOL    HW1 1346   3.055   1.885   4.436
  149SOL    HW2 1347   2.994   1.950   4.299
  150SOL     OW 1348   5.444   4.992   6.236
  150SOL    HW1 1349   5.378   4.968   6.307
  150SOL    HW2 1350   5.534   4.957   6.261
  151SOL     OW 1351   3.468   1.966   0.958
  151SOL    HW1 1352   3.376   1.927   0.959
  151SOL    HW2 1353   3.495   1.988   1.052
  152SOL     OW 1354   1.461   1.752   3.796
  152SOL    HW1 1355   1.369   1.739   3.832
  152SOL    HW2 1356   1.461   1.734   3.697
  153SOL     OW 1357   2.736   0.019   1.513
  153SOL    HW1 1358   2.755   6.978   1.438
  153SOL    HW2 1359   2.822   0.050   1.553
  154SOL     OW 1360   0.438   2.462   3.324
  154SOL    HW1 1361   0.474   2.433   3.412
  154SOL    HW2 1362   0.456   2.559   3.311
  155SOL     OW 1363   0.303   0.685   3.097
  155SOL    HW1 1364   0.366   0.649   3.029
  155SOL    HW2 1365   0.238   0.613   3.123
  156SOL     OW 1366   6.942   1.890   1.299
  156SOL    HW1 1367   6.924   1.796   1.270
  156SOL    HW2 1368   6.857   1.942   1.297
  157SOL     OW 1369   5.980   3.476   1.971
  157SOL    HW1 1370   5.942   3.568   1.983
  157SOL    HW2 1371   6.059   3.479   1.910
  158SOL     OW 1372   2.861   6.802   2.228
  158SOL    HW1 1373   2.841   6.878   2.289
  158SOL    HW2 1374   2.833   6.825   2.135
  159SOL     OW 1375   4.543   4.313   1.595
  159SOL    HW1 1376   4.480   4.280   1.666
  159SOL    HW2 1377   4.617   4.365   1.638
  160SOL     OW 1378   6.682   5.022   0.099
  160SOL    HW1 1379   6.587   5.044   0.123
  160SOL    HW2 1380   6.684   4.942   0.039
  161SOL     OW 1381   1.615   5.357   4.924
  161SOL    HW1 1382   1.574   5.267   4.937
  161SOL    HW2 1383   1.578   5.421   4.991
  162SOL     OW 1384   3.878   6.588   0.239
  162SOL    HW1 1385   3.920   6.669   0.198
  162SOL    HW2 1386   3.935   6.557   0.316
  163SOL     OW 1387   5.316   5.533   1.205
  163SOL    HW1 1388   5.226   5.517   1.164
  163SOL    HW2 1389   5.379   5.568   1.135
  164SOL     OW 1390   6.607   4.470   0.898
  164SOL    HW1 1391   6.615   4.566   0.924
  164SOL    HW2 1392   6.658   4.453   0.814
  165SOL     OW 1393   5.368   3.184   0.908
  165SOL    HW1 1394   5.289   3.235   0.941
  165SOL    HW2 1395   5.415   3.141   0.986
  166SOL     OW 1396   0.589   4.931   3.459
  166SOL    HW1 1397   0.584   4.917   3.360
  166SOL    HW2 1398   0.684   4.946   3.486
  167SOL     OW 1399   5.921   2.455   0.414
  167SOL    HW1 1400   6.010   2.465   0.369
  167SOL    HW2 1401   5.911   2.361   0.446
  168SOL     OW 1402   2.655   3.652   1.051
  168SOL    HW1 1403   2.680   3.599   1.132
  168SOL    HW2 1404   2.673   3.749   1.069
  169SOL     OW 1405   4.080   0.549   2.531
  169SOL    HW1 1406   4.050   0.622   2.470
  169SOL    HW2 1407   4.009   0.530   2.598
  170SOL     OW 1408   0.341   1.552   3.524
  170SOL    HW1 1409   0.354   1.493   3.603
  170SOL    HW2 1410   0.349   1.648   3.552
  171SOL     OW 1411   3.933   4.427   0.269
  171SOL    HW1 1412   3.961   4.395   0.178
  171SOL    HW2 1413   4.004   4.488   0.306
  172SOL     OW 1414   6.696   1.680   4.323
  172SOL    HW1 1415   6.699   1.772   4.360
  172SOL    HW2 1416   6.601   1.653   4.307
  173SOL     OW 1417   6.829   1.615   4.042
  173SOL    HW1 1418   6.767   1.619   4.120
  173SOL    HW2 1419   6.923   1.627   4.074
  174SOL     OW 1420   3.143   5.477   4.141
  174SOL    HW1 1421   3.116   5.504   4.233
  174SOL    HW2 1422   3.172   5.381   4.141
  175SOL     OW 1423   1.956   0.090   2.029
  175SOL    HW1 1424   1.967   0.047   1.940
  175SOL    HW2 1425   1.859   0.096   2.051
  176SOL     OW 1426   0.872   4.020   1.362
  176SOL    HW1 1427   0.933   3.953   1.405
  176SOL    HW2 1428   0.924   4.073   1.295
  177SOL     OW 1429   5.778   3.115   2.447
  177SOL    HW1 1430   5.693   3.135   2.494
  177SOL    HW2 1431   5.818   3.201   2.412
  178SOL     OW 1432   3.970   2.902   6.080
  178SOL    HW1 1433   3.899   2.961   6.044
  178SOL    HW2 1434   3.989   2.926   6.176
  179SOL     OW 1435   2.396   1.634   5.972
  179SOL    HW1 1436   2.411   1.535   5.969
  179SOL    HW2 1437   2.478   1.679   6.008
  180SOL     OW 1438   1.487   6.876   6.256
  180SOL    HW1 1439   1.431   6.795   6.274
  180SOL    HW2 1440   1.564   6.877   6.320
  181SOL     OW 1441   3.384   1.634   6.567
  181SOL    HW1 1442   3.389   1.605   6.472
  181SOL    HW2 1443   3.403   1.556   6.627
  182SOL     OW 1444   3.698   1.959   4.214
  182SOL    HW1 1445   3.607   2.001   4.212
  182SOL    HW2 1446   3.764   2.020   4.169
  183SOL     OW 1447   3.137   1.966   3.428
  183SOL    HW1 1448   3.216   1.913   3.457
  183SOL    HW2 1449   3.126   1.957   3.329
  184SOL     OW 1450   1.556   6.342   4.212
  184SOL    HW1 1451   1.477   6.396   4.182
  184SOL    HW2 1452   1.637   6.400   4.213
  185SOL     OW 1453   0.737   2.272   6.177
  185SOL    HW1 1454   0.770   2.231   6.262
  185SOL    HW2 1455   0.703   2.200   6.116
  186SOL     OW 1456   6.560   1.258   3.326
  186SOL    HW1 1457   6.510   1.339   3.357
  186SOL    HW2 1458   6.590   1.273   3.231
  187SOL     OW 1459   4.884   0.482   3.422
  187SOL    HW1 1460   4.851   0.436   3.505
  187SOL    HW2 1461   4.964   0.538   3.444
  188SOL     OW 1462   6.258   1.800   2.317
  188SOL    HW1 1463   6.297   1.751   2.238
  188SOL    HW2 1464   6.332   1.832   2.376
  189SOL     OW 1465   2.000   5.596   2.792
  189SOL    HW1 1466   2.010   5.666   2.721
  189SOL    HW2 1467   1.968   5.639   2.877
  190SOL     OW 1468   4.052   1.666   4.635
  190SOL    HW1 1469   4.132   1.611   4.662
  190SOL    HW2 1470   3.978   1.605   4.609
  191SOL     OW 1471   5.464   5.864   5.804
  191SOL    HW1 1472   5.434   5.823   5.890
  191SOL    HW2 1473   5.411   5.948   5.787
  192SOL     OW 1474   0.056   5.855   1.715
  192SOL    HW1 1475   0.074   5.915   1.793
  192SOL    HW2 1476   0.100   5.892   1.633
  193SOL     OW 1477   4.595   2.658   5.709
  193SOL    HW1 1478   4.624   2.597   5.636
  193SOL    HW2 1479   4.532   2.726   5.671
  194SOL     OW 1480   3.405   0.807   2.935
  194SOL    HW1 1481   3.397   0.902   2.963
  194SOL    HW2 1482   3.344   0.750   2.991
  195SOL     OW 1483   1.819   6.441   4.216
  195SOL    HW1 1484   1.833   6.343   4.231
  195SOL    HW2 1485   1.845   6.491   4.298
  196SOL     OW 1486   2.681   1.542   6.835
  196SOL    HW1 1487   2.669   1.627   6.886
  196SOL    HW2 1488   2.723   1.562   6.746
  197SOL     OW 1489   2.144   1.157   0.173
  197SOL    HW1 1490   2.164   1.095   0.096
  197SOL    HW2 1491   2.174   1.249   0.150
  198SOL     OW 1492   4.735   1.213   3.139
  198SOL    HW1 1493   4.640   1.209   3.169
  198SOL    HW2 1494   4.742   1.180   3.045
  199SOL     OW 1495   0.934   1.845   4.281
  199SOL    HW1 1496   0.927   1.909   4.204
  199SOL    HW2 1497   0.948   1.753   4.246
  200SOL     OW 1498   1.132   3.866   0.721
  200SOL    HW1 1499   1.070   3.827   0.653
  200SOL    HW2 1500   1.086   3.942   0.768
  201SOL     OW 1501   0.613   6.530   5.296
  201SOL    HW1 1502   0.567   6.507   5.382
  201SOL    HW2 1503   0.707   6.557   5.314
  202SOL     OW 1504   3.730   1.855   6.427
  202SOL    HW1 1505   3.786   1.773   6.435
  202SOL    HW2 1506   3.673   1.848   6.346
  203SOL     OW 1507   5.735   1.939   5.085
  203SOL    HW1 1508   5.723   1.862   5.147
  203SOL    HW2 1509   5.742   2.024   5.138
  204SOL     OW 1510   0.651   6.918   4.001
  204SOL    HW1 1511   0.663   6.889   3.906
  204SOL    HW2 1512   0.710   6.864   4.060
  205SOL     OW 1513   2.128   2.563   2.846
  205SOL    HW1 1514   2.059   2.519   2.788
  205SOL    HW2 1515   2.104   2.550   2.942
  206SOL     OW 1516   1.101   3.359   1.309
  206SOL    HW1 1517   1.122   3.291   1.238
  206SOL    HW2 1518   1.181   3.371   1.368
  207SOL     OW 1519   5.893   0.496   3.593
  207SOL    HW1 1520   5.974   0.494   3.652
  207SOL    HW2 1521   5.811   0.479   3.648
  208SOL     OW 1522   0.410   4.149   5.800
  208SOL    HW1 1523   0.423   4.239   5.840
  208SOL    HW2 1524   0.315   4.141   5.768
  209SOL     OW 1525   6.502   4.728   2.877
  209SOL    HW1 1526   6.446   4.656   2.918
  209SOL    HW2 1527   6.566   4.687   2.812
  210SOL     OW 1528   4.698   2.083   0.741
  210SOL    HW1 1529   4.608   2.108   0.777
  210SOL    HW2 1530   4.753   2.166   0.731
  211SOL     OW 1531   1.043   6.695   2.429
  211SOL    HW1 1532   0.984   6.621   2.395
  211SOL    HW2 1533   1.134   6.658   2.447
  212SOL     OW 1534   1.358   3.744   2.596
  212SOL    HW1 1535   1.414   3.667   2.628
  212SOL    HW2 1536   1.270   3.742   2.643
  213SOL     OW 1537   1.555   6.198   1.167
  213SOL    HW1 1538   1.471   6.148   1.186
  213SOL    HW2 1539   1.552   6.287   1.212
  214SOL     OW 1540   3.619   5.240   2.850
  214SOL    HW1 1541   3.644   5.301   2.926
  214SOL    HW2 1542   3.531   5.198   2.869
  215SOL     OW 1543   2.679   4.274   1.155
  215SOL    HW1 1544   2.611   4.224   1.208
  215SOL    HW2 1545   2.771   4.244   1.181
  216SOL     OW 1546   0.794   6.240   3.052
  216SOL    HW1 1547   0.807   6.167   2.985
  216SOL    HW2 1548   0.819   6.328   3.010
  217SOL     OW 1549   1.255   2.347   4.862
  217SOL    HW1 1550   1.211   2.334   4.951
  217SOL    HW2 1551   1.323   2.275   4.847
  218SOL     OW 1552   0.627   2.682   4.577
  218SOL    HW1 1553   0.643   2.585   4.556
  218SOL    HW2 1554   0.541   2.711   4.535
  219SOL     OW 1555   4.387   0.440   0.704
  219SOL    HW1 1556   4.409   0.371   0.635
  219SOL    HW2 1557   4.435   0.525   0.682
  220SOL     OW 1558   2.671   0.392   0.517
  220SOL    HW1 1559   2.663   0.441   0.430
  220SOL    HW2 1560   2.673   0.457   0.592
  221SOL     OW 1561   6.067   4.058   1.495
  221SOL    HW1 1562   6.144   4.121   1.494
  221SOL    HW2 1563   6.006   4.078   1.418
  222SOL     OW 1564   1.720   4.570   5.912
  222SOL    HW1 1565   1.665   4.606   5.987
  222SOL    HW2 1566   1.817   4.586   5.930
  223SOL     OW 1567   6.828   2.990   5.480
  223SOL    HW1 1568   6.765   2.958   5.409
  223SOL    HW2 1569   6.909   3.030   5.437
  224SOL     OW 1570   3.269   1.066   6.918
  224SOL    HW1 1571   3.177   1.032   6.901
  224SOL    HW2 1572   3.276   1.161   6.887
  225SOL     OW 1573   4.347   3.909   6.406
  225SOL    HW1 1574   4.438   3.869   6.409
  225SOL    HW2 1575   4.353   4.007   6.425
  226SOL     OW 1576   0.872   1.293   6.029
  226SOL    HW1 1577   0.846   1.213   6.083
  226SOL    HW2 1578   0.796   1.358   6.027
  227SOL     OW 1579   2.126   4.450   2.548
  227SOL    HW1 1580   2.167   4.522   2.492
  227SOL    HW2 1581   2.189   4.373   2.555
  228SOL     OW 1582   1.970   0.690   2.658
  228SOL    HW1 1583   1.967   0.631   2.739
  228SOL    HW2 1584   1.914   0.651   2.585
  229SOL     OW 1585   5.380   5.597   5.984
  229SOL    HW1 1586   5.321   5.678   5.980
  229SOL    HW2 1587   5.323   5.516   6.002
  230SOL     OW 1588   4.497   5.582   4.142
  230SOL    HW1 1589   4.592   5.595   4.114
  230SOL    HW2 1590   4.451   5.521   4.078
  231SOL     OW 1591   6.257   1.389   6.220
  231SOL    HW1 1592   6.173   1.349   6.256
  231SOL    HW2 1593   6.334   1.328   6.240
  232SOL     OW 1594   0.152   3.206   6.519
  232SOL    HW1 1595   0.220   3.177   6.452
  232SOL    HW2 1596   0.197   3.225   6.607
  233SOL     OW 1597   4.483   1.337   3.260
  233SOL    HW1 1598   4.496   1.309   3.355
  233SOL    HW2 1599   4.538   1.418   3.241
  234SOL     OW 1600   5.977   0.979   6.751
  234SOL    HW1 1601   6.019   1.012   6.835
  234SOL    HW2 1602   5.897   0.924   6.773
  235SOL     OW 1603   4.859   2.907   2.291
  235SOL    HW1 1604   4.793   2.832   2.279
  235SOL    HW2 1605   4.834   2.983   2.231
  236SOL     OW 1606   4.911   2.931   0.024
  236SOL    HW1 1607   4.876   2.957   6.957
  236SOL    HW2 1608   5.010   2.919   0.019
  237SOL     OW 1609   0.209   4.241   1.844
  237SOL    HW1 1610   0.135   4.298   1.880
  237SOL    HW2 1611   0.271   4.217   1.919
  238SOL     OW 1612   6.076   1.621   0.189
  238SOL    HW1 1613   6.131   1.688   0.139
  238SOL    HW2 1614   6.062   1.540   0.131
  239SOL     OW 1615   0.974   4.700   0.427
  239SOL    HW1 1616   0.935   4.792   0.428
  239SOL    HW2 1617   0.910   4.637   0.384
  240SOL     OW 1618   0.842   3.406   3.412
  240SOL    HW1 1619   0.938   3.407   3.440
  240SOL    HW2 1620   0.802   3.317   3.432
  241SOL     OW 1621   3.061   2.123   4.826
  241SOL    HW1 1622   2.979   2.180   4.814
  241SOL    HW2 1623   3.124   2.170   4.887
  242SOL     OW 1624   2.993   3.270   3.832
  242SOL    HW1 1625   3.080   3.288   3.786
  242SOL    HW2 1626   2.984   3.332   3.910
  243SOL     OW 1627   4.640   1.737   0.426
  243SOL    HW1 1628   4.639   1.835   0.407
  243SOL    HW2 1629   4.624   1.686   0.341
  244SOL     OW 1630   6.042   3.999   5.559
  244SOL    HW1 1631   5.974   4.057   5.514
  244SOL    HW2 1632   6.002   3.908   5.576
  245SOL     OW 1633   4.286   2.401   3.650
  245SOL    HW1 1634   4.210   2.347   3.685
  245SOL    HW2 1635   4.261   2.498   3.648
  246SOL     OW 1636   4.748   1.880   3.789
  246SOL    HW1 1637   4.796   1.801   3.827
  246SOL    HW2 1638   4.797   1.913   3.708
  247SOL     OW 1639   2.773   1.567   0.564
  247SOL    HW1 1640   2.828   1.577   0.647
  247SOL    HW2 1641   2.821   1.609   0.487
  248SOL     OW 1642   2.753   1.223   3.152
  248SOL    HW1 1643   2.787   1.225   3.058
  248SOL    HW2 1644   2.807   1.286   3.208
  249SOL     OW 1645   5.432   6.847   5.440
  249SOL    HW1 1646   5.370   6.824   5.515
  249SOL    HW2 1647   5.381   6.850   5.354
  250SOL     OW 1648   4.524   3.288   0.602
  250SOL    HW1 1649   4.478   3.377   0.604
  250SOL    HW2 1650   4.520   3.246   0.692
  251SOL     OW 1651   4.485   3.450   5.325
  251SOL    HW1 1652   4.399   3.490   5.294
  251SOL    HW2 1653   4.562   3.495   5.279
  252SOL     OW 1654   0.071   6.467   4.632
  252SOL    HW1 1655   7.011   6.473   4.688
  252SOL    HW2 1656   0.079   6.549   4.575
  253SOL     OW 1657   3.660   5.474   6.799
  253SOL    HW1 1658   3.716   5.466   6.716
  253SOL    HW2 1659   3.567   5.500   6.774
  254SOL     OW 1660   6.399   2.283   3.658
  254SOL    HW1 1661   6.484   2.292   3.710
  254SOL    HW2 1662   6.393   2.357   3.591
  255SOL     OW 1663   2.157   4.669   5.766
  255SOL    HW1 1664   2.093   4.603   5.728
  255SOL    HW2 1665   2.206   4.714   5.692
  256SOL     OW 1666   5.906   3.530   5.946
  256SOL    HW1 1667   5.835   3.593   5.915
  256SOL    HW2 1668   5.954   3.568   6.024
  257SOL     OW 1669   5.128   0.607   3.507
  257SOL    HW1 1670   5.183   0.659   3.442
  257SOL    HW2 1671   5.187   0.573   3.581
  258SOL     OW 1672   2.474   4.179   5.306
  258SOL    HW1 1673   2.437   4.249   5.245
  258SOL    HW2 1674   2.464   4.089   5.264
  259SOL     OW 1675   6.057   0.336   2.323
  259SOL    HW1 1676   6.028   0.423   2.282
  259SOL    HW2 1677   5.977   0.277   2.335
  260SOL     OW 1678   4.329   5.684   3.020
  260SOL    HW1 1679   4.318   5.768   3.074
  260SOL    HW2 1680   4.242   5.634   3.017
  261SOL     OW 1681   5.823   3.508   0.995
  261SOL    HW1 1682   5.781   3.417   0.985
  261SOL    HW2 1683   5.767   3.575   0.947
  262SOL     OW 1684   1.044   4.319   0.301
  262SOL    HW1 1685   1.071   4.232   0.342
  262SOL    HW2 1686   1.101   4.392   0.338
  263SOL     OW 1687   1.948   0.508   4.921
  263SOL    HW1 1688   1.977   0.514   4.825
  263SOL    HW2 1689   1.973   0.418   4.957
  264SOL     OW 1690   6.234   2.374   0.112
  264SOL    HW1 1691   6.181   2.451   0.075
  264SOL    HW2 1692   6.330   2.400   0.119
  265SOL     OW 1693   5.366   6.505   2.885
  265SOL    HW1 1694   5.274   6.544   2.887
  265SOL    HW2 1695   5.368   6.427   2.822
  266SOL     OW 1696   4.742   2.895   5.894
  266SOL    HW1 1697   4.816   2.961   5.909
  266SOL    HW2 1698   4.740   2.868   5.798
  267SOL     OW 1699   0.653   1.707   6.072
  267SOL    HW1 1700   0.566   1.756   6.063
  267SOL    HW2 1701   0.715   1.736   5.999
  268SOL     OW 1702   3.182   0.872   6.360
  268SOL    HW1 1703   3.180   0.940   6.286
  268SOL    HW2 1704   3.102   0.813   6.352
  269SOL     OW 1705   2.031   3.825   0.949
  269SOL    HW1 1706   2.036   3.726   0.963
  269SOL    HW2 1707   1.987   3.868   1.028
  270SOL     OW 1708   1.105   6.307   0.757
  270SOL    HW1 1709   1.040   6.361   0.702
  270SOL    HW2 1710   1.061   6.223   0.788
  271SOL     OW 1711   6.968   1.231   6.264
  271SOL    HW1 1712   0.042   1.223   6.288
  271SOL    HW2 1713   6.918   1.273   6.340
  272SOL     OW 1714   3.878   6.451   4.151
  272SOL    HW1 1715   3.937   6.372   4.132
  272SOL    HW2 1716   3.802   6.422   4.210
  273SOL     OW 1717   2.246   4.751   4.521
  273SOL    HW1 1718   2.285   4.730   4.431
  273SOL    HW2 1719   2.319   4.767   4.586
  274SOL     OW 1720   3.765   1.352   3.270
  274SOL    HW1 1721   3.795   1.261   3.298
  274SOL    HW2 1722   3.830   1.420   3.303
  275SOL     OW 1723   6.387   5.785   3.419
  275SOL    HW1 1724   6.440   5.803   3.336
  275SOL    HW2 1725   6.360   5.871   3.461
  276SOL     OW 1726   6.883   6.744   3.250
  276SOL    HW1 1727   6.937   6.710   3.327
  276SOL    HW2 1728   6.856   6.839   3.268
  277SOL     OW 1729   1.713   4.126   0.619
  277SOL    HW1 1730   1.769   4.107   0.700
  277SOL    HW2 1731   1.700   4.225   0.610
  278SOL     OW 1732   0.336   3.586   1.484
  278SOL    HW1 1733   0.316   3.684   1.482
  278SOL    HW2 1734   0.251   3.535   1.473
  279SOL     OW 1735   5.368   3.116   4.639
  279SOL    HW1 1736   5.421   3.162   4.711
  279SOL    HW2 1737   5.304   3.180   4.598
  280SOL     OW 1738   2.880   5.618   2.397
  280SOL    HW1 1739   2.810   5.592   2.463
  280SOL    HW2 1740   2.903   5.715   2.409
  281SOL     OW 1741   2.604   4.881   1.679
  281SOL    HW1 1742   2.678   4.947   1.690
  281SOL    HW2 1743   2.639   4.788   1.692
  282SOL     OW 1744   3.182   1.651   5.821
  282SOL    HW1 1745   3.126   1.587   5.768
  282SOL    HW2 1746   3.144   1.743   5.812
  283SOL     OW 1747   6.120   2.845   6.672
  283SOL    HW1 1748   6.121   2.749   6.646
  283SOL    HW2 1749   6.187   2.860   6.745
  284SOL     OW 1750   1.686   3.553   3.958
  284SOL    HW1 1751   1.640   3.553   3.869
  284SOL    HW2 1752   1.715   3.460   3.981
  285SOL     OW 1753   5.274   5.046   4.144
  285SOL    HW1 1754   5.306   4.969   4.199
  285SOL    HW2 1755   5.303   5.033   4.049
  286SOL     OW 1756   3.406   4.901   6.712
  286SOL    HW1 1757   3.442   4.966   6.779
  286SOL    HW2 1758   3.315   4.932   6.681
  287SOL     OW 1759   1.168   3.459   0.859
  287SOL    HW1 1760   1.182   3.411   0.773
  287SOL    HW2 1761   1.254   3.500   0.890
  288SOL     OW 1762   3.776   1.659   6.646
  288SOL    HW1 1763   3.690   1.709   6.655
  288SOL    HW2 1764   3.762   1.576   6.592
  289SOL     OW 1765   2.161   4.449   5.534
  289SOL    HW1 1766   2.229   4.423   5.602
  289SOL    HW2 1767   2.204   4.458   5.444
  290SOL     OW 1768   6.013   1.975   4.994
  290SOL    HW1 1769   5.938   1.935   5.046
  290SOL    HW2 1770   6.099   1.962   5.044
  291SOL     OW 1771   0.551   1.657   4.447
  291SOL    HW1 1772   0.534   1.608   4.361
  291SOL    HW2 1773   0.510   1.748   4.443
  292SOL     OW 1774   2.515   1.784   3.045
  292SOL    HW1 1775   2.589   1.852   3.040
  292SOL    HW2 1776   2.503   1.741   2.956
  293SOL     OW 1777   4.434   5.721   2.664
  293SOL    HW1 1778   4.351   5.696   2.614
  293SOL    HW2 1779   4.436   5.820   2.677
  294SOL     OW 1780   6.776   6.027   6.514
  294SOL    HW1 1781   6.695   6.050   6.567
  294SOL    HW2 1782   6.855   6.075   6.553
  295SOL     OW 1783   3.527   1.465   3.216
  295SOL    HW1 1784   3.596   1.398   3.242
  295SOL    HW2 1785   3.491   1.443   3.125
  296SOL     OW 1786   3.362   1.409   2.974
  296SOL    HW1 1787   3.336   1.505   2.985
  296SOL    HW2 1788   3.280   1.352   2.972
  297SOL     OW 1789   2.296   4.416   4.190
  297SOL    HW1 1790   2.235   4.337   4.194
  297SOL    HW2 1791   2.350   4.413   4.106
  298SOL     OW 1792   4.216   6.157   1.845
  298SOL    HW1 1793   4.302   6.139   1.797
  298SOL    HW2 1794   4.199   6.082   1.910
  299SOL     OW 1795   5.040   3.961   5.476
  299SOL    HW1 1796   5.106   3.929   5.408
  299SOL    HW2 1797   5.008   3.884   5.531
  300SOL     OW 1798   6.421   0.494   2.100
  300SOL    HW1 1799   6.480   0.570   2.072
  300SOL    HW2 1800   6.325   0.518   2.083
  301SOL     OW 1801   5.220   3.715   0.638
  301SOL    HW1 1802   5.222   3.815   0.645
  301SOL    HW2 1803   5.312   3.678   0.655
  302SOL     OW 1804   1.720   0.105   3.086
  302SOL    HW1 1805   1.710   0.200   3.114
  302SOL    HW2 1806   1.730   0.047   3.167
  303SOL     OW 1807   5.377   0.550   2.094
  303SOL    HW1 1808   5.309   0.558   2.020
  303SOL    HW2 1809   5.469   0.547   2.055
  304SOL     OW 1810   2.242   0.055   3.755
  304SOL    HW1 1811   2.213   0.117   3.828
  304SOL    HW2 1812   2.262   0.107   3.672
  305SOL     OW 1813   0.452   3.614   6.395
  305SOL    HW1 1814   0.463   3.578   6.488
  305SOL    HW2 1815   0.521   3.574   6.335
  306SOL     OW 1816   1.353   1.302   3.651
  306SOL    HW1 1817   1.451   1.284   3.647
  306SOL    HW2 1818   1.323   1.344   3.566
  307SOL     OW 1819   4.949   6.633   1.291
  307SOL    HW1 1820   4.864   6.593   1.256
  307SOL    HW2 1821   4.963   6.723   1.248
  308SOL     OW 1822   0.019   4.767   4.505
  308SOL    HW1 1823   0.068   4.766   4.418
  308SOL    HW2 1824   0.062   4.703   4.569
  309SOL     OW 1825   3.628   4.353   5.361
  309SOL    HW1 1826   3.717   4.395   5.344
  309SOL    HW2 1827   3.595   4.310   5.277
  310SOL     OW 1828   6.014   0.138   5.713
  310SOL    HW1 1829   5.946   0.165   5.781
  310SOL    HW2 1830   6.041   0.043   5.729
  311SOL     OW 1831   6.688   4.828   1.980
  311SOL    HW1 1832   6.652   4.774   2.056
  311SOL    HW2 1833   6.633   4.911   1.968
  312SOL     OW 1834   5.026   1.741   5.365
  312SOL    HW1 1835   4.953   1.736   5.434
  312SOL    HW2 1836   5.007   1.816   5.302
  313SOL     OW 1837   2.707   4.141   1.652
  313SOL    HW1 1838   2.716   4.230   1.608
  313SOL    HW2 1839   2.751   4.071   1.595
  314SOL     OW 1840   3.045   5.817   0.245
  314SOL    HW1 1841   3.092   5.766   0.172
  314SOL    HW2 1842   3.007   5.752   0.310
  315SOL     OW 1843   0.407   2.112   3.488
  315SOL    HW1 1844   0.476   2.151   3.428
  315SOL    HW2 1845   0.331   2.177   3.499
  316SOL     OW 1846   2.391   2.781   4.712
  316SOL    HW1 1847   2.329   2.844   4.759
  316SOL    HW2 1848   2.368   2.779   4.614
  317SOL     OW 1849   0.634   1.489   6.712
  317SOL    HW1 1850   0.588   1.537   6.638
  317SOL    HW2 1851   0.665   1.399   6.680
  318SOL     OW 1852   0.995   4.963   1.074
  318SOL    HW1 1853   0.978   5.027   1.149
  318SOL    HW2 1854   0.909   4.941   1.028
  319SOL     OW 1855   0.863   0.441   2.144
  319SOL    HW1 1856   0.879   0.491   2.229
  319SOL    HW2 1857   0.783   0.479   2.097
  320SOL     OW 1858   5.767   2.775   7.007
  320SOL    HW1 1859   5.775   2.850   6.942
  320SOL    HW2 1860   5.755   2.689   6.958
  321SOL     OW 1861   2.202   1.948   2.422
  321SOL    HW1 1862   2.214   1.849   2.433
  321SOL    HW2 1863   2.173   1.988   2.509
  322SOL     OW 1864   3.373   2.943   4.314
  322SOL    HW1 1865   3.466   2.908   4.326
  322SOL    HW2 1866   3.333   2.964   4.403
  323SOL     OW 1867   0.880   4.493   0.192
  323SOL    HW1 1868   0.810   4.445   0.139
  323SOL    HW2 1869   0.937   4.426   0.241
  324SOL     OW 1870   1.092   2.668   4.146
  324SOL    HW1 1871   1.090   2.767   4.131
  324SOL    HW2 1872   1.023   2.624   4.088
  325SOL     OW 1873   2.265   3.250   1.349
  325SOL    HW1 1874   2.195   3.268   1.418
  325SOL    HW2 1875   2.317   3.168   1.374
  326SOL     OW 1876   1.599   5.992   6.736
  326SOL    HW1 1877   1.644   5.904   6.717
  326SOL    HW2 1878   1.668   6.064   6.742
  327SOL     OW 1879   0.602   4.725   4.156
  327SOL    HW1 1880   0.655   4.808   4.139
  327SOL    HW2 1881   0.620   4.658   4.083
  328SOL     OW 1882   3.415   5.280   2.273
  328SOL    HW1 1883   3.424   5.369   2.317
  328SOL    HW2 1884   3.505   5.247   2.246
  329SOL     OW 1885   3.659   3.982   3.776
  329SOL    HW1 1886   3.655   3.882   3.771
  329SOL    HW2 1887   3.714   4.017   3.701
  330SOL     OW 1888   3.184   6.508   2.008
  330SOL    HW1 1889   3.218   6.481   2.098
  330SOL    HW2 1890   3.220   6.598   1.985
  331SOL     OW 1891   5.089   5.010   6.167
  331SOL    HW1 1892   5.133   5.100   6.171
  331SOL    HW2 1893   5.097   4.974   6.074
  332SOL     OW 1894   3.521   2.104   3.610
  332SOL    HW1 1895   3.571   2.143   3.688
  332SOL    HW2 1896   3.454   2.171   3.577
  333SOL     OW 1897   3.953   0.218   6.205
  333SOL    HW1 1898   3.911   0.271   6.278
  333SOL    HW2 1899   3.933   0.121   6.218
  334SOL     OW 1900   3.132   6.764   2.312
  334SOL    HW1 1901   3.045   6.768   2.264
  334SOL    HW2 1902   3.164   6.669   2.316
  335SOL     OW 1903   3.691   6.081   3.935
  335SOL    HW1 1904   3.701   6.117   4.028
  335SOL    HW2 1905   3.690   6.157   3.870
  336SOL     OW 1906   2.244   1.320   3.488
  336SOL    HW1 1907   2.310   1.318   3.563
  336SOL    HW2 1908   2.258   1.402   3.434
  337SOL     OW 1909   6.752   3.344   1.086
  337SOL    HW1 1910   6.801   3.260   1.062
  337SOL    HW2 1911   6.759   3.409   1.010
  338SOL     OW 1912   2.878   3.151   1.701
  338SOL    HW1 1913   2.927   3.089   1.763
  338SOL    HW2 1914   2.932   3.234   1.689
  339SOL     OW 1915   3.610   0.203   3.202
  339SOL    HW1 1916   3.523   0.246   3.227
  339SOL    HW2 1917   3.648   0.250   3.123
  340SOL     OW 1918   5.431   4.081   4.848
  340SOL    HW1 1919   5.415   4.150   4.777
  340SOL    HW2 1920   5.473   4.000   4.806
  341SOL     OW 1921   5.756   6.098   4.234
  341SOL    HW1 1922   5.714   6.155   4.305
  341SOL    HW2 1923   5.853   6.087   4.253
  342SOL     OW 1924   5.681   4.046   0.026
  342SOL    HW1 1925   5.626   4.001   0.098
  342SOL    HW2 1926   5.778   4.034   0.046
  343SOL     OW 1927   2.687   6.369   1.587
  343SOL    HW1 1928   2.733   6.334   1.506
  343SOL    HW2 1929   2.713   6.314   1.667
  344SOL     OW 1930   2.365   5.293   0.829
  344SOL    HW1 1931   2.423   5.260   0.755
  344SOL    HW2 1932   2.357   5.222   0.899
  345SOL     OW 1933   0.026   0.638   5.865
  345SOL    HW1 1934   6.949   0.643   5.866
  345SOL    HW2 1935   0.056   0.578   5.791
  346SOL     OW 1936   1.562   0.591   2.299
  346SOL    HW1 1937   1.472   0.634   2.295
  346SOL    HW2 1938   1.591   0.582   2.394
  347SOL     OW 1939   5.582   0.263   6.649
  347SOL    HW1 1940   5.565   0.313   6.564
  347SOL    HW2 1941   5.606   0.168   6.628
  348SOL     OW 1942   4.121   5.061   1.606
  348SOL    HW1 1943   4.069   4.983   1.574
  348SOL    HW2 1944   4.078   5.146   1.575
  349SOL     OW 1945   0.066   4.548   2.237
  349SOL    HW1 1946   6.994   4.580   2.235
  349SOL    HW2 1947   0.125   4.617   2.197
  350SOL     OW 1948   3.979   3.762   1.399
  350SOL    HW1 1949   3.997   3.674   1.443
  350SOL    HW2 1950   3.933   3.823   1.463
  351SOL     OW 1951   2.944   1.956   0.842
  351SOL    HW1 1952   3.038   1.920   0.837
  351SOL    HW2 1953   2.947   2.056   0.841
  352SOL     OW 1954   3.665   0.772   4.959
  352SOL    HW1 1955   3.579   0.822   4.948
  352SOL    HW2 1956   3.679   0.711   4.881
  353SOL     OW 1957   2.238   6.689   0.163
  353SOL    HW1 1958   2.238   6.691   0.063
  353SOL    HW2 1959   2.317   6.637   0.195
  354SOL     OW 1960   4.032   2.420   0.953
  354SOL    HW1 1961   3.963   2.402   1.023
  354SOL    HW2 1962   4.054   2.517   0.953
  355SOL     OW 1963   6.655   2.986   2.688
  355SOL    HW1 1964   6.703   2.910   2.646
  355SOL    HW2 1965   6.558   2.983   2.662
  356SOL     OW 1966   4.602   5.154   4.931
  356SOL    HW1 1967   4.637   5.130   4.840
  356SOL    HW2 1968   4.648   5.236   4.963
  357SOL     OW 1969   0.278   6.025   5.660
  357SOL    HW1 1970   0.244   6.115   5.688
  357SOL    HW2 1971   0.309   6.029   5.565
  358SOL     OW 1972   6.341   0.097   1.147
  358SOL    HW1 1973   6.286   0.133   1.222
  358SOL    HW2 1974   6.432   0.137   1.151
  359SOL     OW 1975   1.534   2.494   2.461
  359SOL    HW1 1976   1.550   2.546   2.545
  359SOL    HW2 1977   1.473   2.546   2.401
  360SOL     OW 1978   3.173   6.492   6.160
  360SOL    HW1 1979   3.261   6.447   6.148
  360SOL    HW2 1980   3.170   6.535   6.250
  361SOL     OW 1981   5.850   5.645   3.311
  361SOL    HW1 1982   5.822   5.561   3.357
  361SOL    HW2 1983   5.944   5.668   3.338
  362SOL     OW 1984   3.073   4.209   0.394
  362SOL    HW1 1985   3.070   4.284   0.329
  362SOL    HW2 1986   3.029   4.128   0.355
  363SOL     OW 1987   3.479   5.011   4.127
  363SOL    HW1 1988   3.419   4.938   4.095
  363SOL    HW2 1989   3.539   5.040   4.053
  364SOL     OW 1990   0.792   5.916   5.633
  364SOL    HW1 1991   0.830   5.860   5.707
  364SOL    HW2 1992   0.704   5.878   5.604
  365SOL     OW 1993   5.045   6.098   2.992
  365SOL    HW1 1994   5.054   6.123   2.896
  365SOL    HW2 1995   5.132   6.115   3.039
  366SOL     OW 1996   5.903   1.247   6.624
  366SOL    HW1 1997   5.921   1.156   6.662
  366SOL    HW2 1998   5.828   1.289   6.675
  367SOL     OW 1999   4.949   3.137   0.777
  367SOL    HW1 2000   4.917   3.050   0.739
  367SOL    HW2 2001   5.015   3.179   0.714
  368SOL     OW 2002   1.418   4.859   4.833
  368SOL    HW1 2003   1.366   4.871   4.748
  368SOL    HW2 2004   1.356   4.834   4.907
  369SOL     OW 2005   6.128   4.223   1.900
  369SOL    HW1 2006   6.038   4.240   1.862
  369SOL    HW2 2007   6.145   4.124   1.903
  370SOL     OW 2008   2.787   0.599   5.419
  370SOL    HW1 2009   2.812   0.532   5.489
  370SOL    HW2 2010   2.868   0.622   5.364
  371SOL     OW 2011   2.459   3.590   7.016
  371SOL    HW1 2012   2.516   3.647   0.052
  371SOL    HW2 2013   2.512   3.512   6.983
  372SOL     OW 2014   0.145   0.344   4.895
  372SOL    HW1 2015   0.150   0.394   4.809
  372SOL    HW2 2016   0.049   0.322   4.915
  373SOL     OW 2017   0.071   6.505   6.601
  373SOL    HW1 2018   0.129   6.464   6.671
  373SOL    HW2 2019   0.042   6.435   6.536
  374SOL     OW 2020   4.131   0.099   2.422
  374SOL    HW1 2021   4.088   0.184   2.389
  374SOL    HW2 2022   4.110   0.087   2.519
  375SOL     OW 2023   6.888   4.672   4.116
  375SOL    HW1 2024   6.872   4.632   4.206
  375SOL    HW2 2025   6.977   4.718   4.115
  376SOL     OW 2026   1.835   2.915   3.984
  376SOL    HW1 2027   1.836   2.922   3.884
  376SOL    HW2 2028   1.829   3.007   4.024
  377SOL     OW 2029   5.287   2.327   2.699
  377SOL    HW1 2030   5.371   2.273   2.695
  377SOL    HW2 2031   5.212   2.269   2.731
  378SOL     OW 2032   4.047   3.268   5.675
  378SOL    HW1 2033   4.073   3.285   5.580
  378SOL    HW2 2034   3.959   3.311   5.694
  379SOL     OW 2035   6.067   3.525   1.150
  379SOL    HW1 2036   6.122   3.442   1.154
  379SOL    HW2 2037   5.973   3.503   1.123
  380SOL     OW 2038   1.302   1.914   1.018
  380SOL    HW1 2039   1.217   1.899   0.967
  380SOL    HW2 2040   1.346   1.826   1.036
  381SOL     OW 2041   2.702   5.073   1.994
  381SOL    HW1 2042   2.676   5.056   2.089
  381SOL    HW2 2043   2.784   5.131   1.991
  382SOL     OW 2044   2.987   6.105   0.339
  382SOL    HW1 2045   2.901   6.090   0.291
  382SOL    HW2 2046   3.041   6.021   0.338
  383SOL     OW 2047   6.613   2.665   6.791
  383SOL    HW1 2048   6.616   2.578   6.840
  383SOL    HW2 2049   6.702   2.709   6.797
  384SOL     OW 2050   0.971   5.102   5.408
  384SOL    HW1 2051   1.048   5.154   5.371
  384SOL    HW2 2052   1.003   5.042   5.482
  385SOL     OW 2053   4.824   6.377   0.196
  385SOL    HW1 2054   4.854   6.319   0.120
  385SOL    HW2 2055   4.895   6.382   0.265
  386SOL     OW 2056   3.830   6.746   5.316
  386SOL    HW1 2057   3.787   6.699   5.393
  386SOL    HW2 2058   3.861   6.836   5.345
  387SOL     OW 2059   0.045   0.159   4.038
  387SOL    HW1 2060   0.074   0.068   4.069
  387SOL    HW2 2061   7.019   0.205   4.111
  388SOL     OW 2062   6.913   2.739   5.118
  388SOL    HW1 2063   6.860   2.797   5.056
  388SOL    HW2 2064   6.854   2.704   5.190
  389SOL     OW 2065   4.227   4.252   1.672
  389SOL    HW1 2066   4.213   4.165   1.624
  389SOL    HW2 2067   4.305   4.243   1.735
  390SOL     OW 2068   3.848   1.035   0.700
  390SOL    HW1 2069   3.948   1.024   0.698
  390SOL    HW2 2070   3.825   1.119   0.747
  391SOL     OW 2071   2.873   3.952   5.756
  391SOL    HW1 2072   2.784   3.999   5.756
  391SOL    HW2 2073   2.868   3.870   5.699
  392SOL     OW 2074   1.274   3.915   2.405
  392SOL    HW1 2075   1.336   3.992   2.415
  392SOL    HW2 2076   1.306   3.839   2.462
  393SOL     OW 2077   0.780   4.591   1.145
  393SOL    HW1 2078   0.859   4.557   1.196
  393SOL    HW2 2079   0.742   4.519   1.089
  394SOL     OW 2080   6.870   2.777   6.860
  394SOL    HW1 2081   6.946   2.764   6.797
  394SOL    HW2 2082   6.882   2.863   6.910
  395SOL     OW 2083   4.714   4.393   1.798
  395SOL    HW1 2084   4.641   4.345   1.846
  395SOL    HW2 2085   4.783   4.328   1.767
  396SOL     OW 2086   3.060   2.140   2.152
  396SOL    HW1 2087   3.014   2.192   2.080
  396SOL    HW2 2088   3.021   2.165   2.241
  397SOL     OW 2089   4.731   1.120   5.344
  397SOL    HW1 2090   4.713   1.050   5.413
  397SOL    HW2 2091   4.788   1.081   5.272
  398SOL     OW 2092   1.219   0.447   4.412
  398SOL    HW1 2093   1.196   0.423   4.507
  398SOL    HW2 2094   1.188   0.375   4.351
  399SOL     OW 2095   5.381   5.418   4.099
  399SOL    HW1 2096   5.292   5.378   4.118
  399SOL    HW2 2097   5.374   5.480   4.020
  400SOL     OW 2098   6.142   0.410   4.673
  400SOL    HW1 2099   6.125   0.407   4.574
  400SOL    HW2 2100   6.126   0.320   4.712
  401SOL     OW 2101   6.330   0.082   5.402
  401SOL    HW1 2102   6.325   0.017   5.477
  401SOL    HW2 2103   6.283   0.167   5.427
  402SOL     OW 2104   6.304   0.285   2.690
  402SOL    HW1 2105   6.331   0.212   2.626
  402SOL    HW2 2106   6.376   0.300   2.757
  403SOL     OW 2107   2.955   0.739   6.283
  403SOL    HW1 2108   2.909   0.709   6.200
  403SOL    HW2 2109   2.924   0.684   6.360
  404SOL     OW 2110   3.489   6.135   5.845
  404SOL    HW1 2111   3.476   6.037   5.855
  404SOL    HW2 2112   3.524   6.173   5.931
  405SOL     OW 2113   1.908   3.957   3.588
  405SOL    HW1 2114   1.996   3.910   3.588
  405SOL    HW2 2115   1.857   3.932   3.670
  406SOL     OW 2116   0.899   5.374   5.759
  406SOL    HW1 2117   0.850   5.440   5.702
  406SOL    HW2 2118   0.852   5.286   5.756
  407SOL     OW 2119   1.317   3.369   4.038
  407SOL    HW1 2120   1.380   3.292   4.050
  407SOL    HW2 2121   1.359   3.453   4.074
  408SOL     OW 2122   3.190   1.670   3.289
  408SOL    HW1 2123   3.141   1.614   3.223
  408SOL    HW2 2124   3.286   1.680   3.261
  409SOL     OW 2125   1.076   4.125   2.818
  409SOL    HW1 2126   1.164   4.167   2.796
  409SOL    HW2 2127   1.005   4.165   2.760
  410SOL     OW 2128   1.681   2.347   1.091
  410SOL    HW1 2129   1.595   2.329   1.139
  410SOL    HW2 2130   1.699   2.275   1.025
  411SOL     OW 2131   0.148   1.979   1.688
  411SOL    HW1 2132   0.218   2.045   1.715
  411SOL    HW2 2133   0.060   2.025   1.677
  412SOL     OW 2134   2.733   4.955   3.038
  412SOL    HW1 2135   2.720   4.993   2.946
  412SOL    HW2 2136   2.824   4.980   3.072
  413SOL     OW 2137   4.008   5.012   2.538
  413SOL    HW1 2138   4.021   4.916   2.562
  413SOL    HW2 2139   4.054   5.070   2.606
  414SOL     OW 2140   2.456   6.738   4.028
  414SOL    HW1 2141   2.476   6.832   4.000
  414SOL    HW2 2142   2.394   6.739   4.107
  415SOL     OW 2143   6.545   0.668   0.815
  415SOL    HW1 2144   6.518   0.573   0.833
  415SOL    HW2 2145   6.496   0.729   0.877
  416SOL     OW 2146   5.023   3.736   4.967
  416SOL    HW1 2147   4.958   3.681   5.018
  416SOL    HW2 2148   5.034   3.825   5.011
  417SOL     OW 2149   3.390   2.520   6.724
  417SOL    HW1 2150   3.390   2.427   6.761
  417SOL    HW2 2151   3.478   2.564   6.744
  418SOL     OW 2152   3.646   0.028   4.469
  418SOL    HW1 2153   3.631   7.002   4.383
  418SOL    HW2 2154   3.583   7.016   4.538
  419SOL     OW 2155   0.731   6.960   1.772
  419SOL    HW1 2156   0.776   0.013   1.819
  419SOL    HW2 2157   0.743   6.876   1.824
  420SOL     OW 2158   5.677   0.268   6.340
  420SOL    HW1 2159   5.696   0.182   6.293
  420SOL    HW2 2160   5.763   0.312   6.366
  421SOL     OW 2161   5.395   4.173   4.089
  421SOL    HW1 2162   5.437   4.228   4.016
  421SOL    HW2 2163   5.393   4.226   4.173
  422SOL     OW 2164   5.284   2.592   1.455
  422SOL    HW1 2165   5.238   2.509   1.426
  422SOL    HW2 2166   5.256   2.669   1.397
  423SOL     OW 2167   3.008   1.430   6.207
  423SOL    HW1 2168   3.030   1.369   6.284
  423SOL    HW2 2169   3.049   1.394   6.123
  424SOL     OW 2170   1.603   4.662   3.102
  424SOL    HW1 2171   1.674   4.706   3.157
  424SOL    HW2 2172   1.513   4.688   3.137
  425SOL     OW 2173   3.883   0.492   5.667
  425SOL    HW1 2174   3.788   0.463   5.678
  425SOL    HW2 2175   3.906   0.556   5.740
  426SOL     OW 2176   2.585   2.024   4.787
  426SOL    HW1 2177   2.570   2.119   4.814
  426SOL    HW2 2178   2.651   2.021   4.712
  427SOL     OW 2179   4.084   1.783   3.060
  427SOL    HW1 2180   4.143   1.782   2.979
  427SOL    HW2 2181   4.090   1.695   3.106
  428SOL     OW 2182   2.631   1.162   5.415
  428SOL    HW1 2183   2.562   1.150   5.343
  428SOL    HW2 2184   2.637   1.258   5.440
  429SOL     OW 2185   0.940   5.926   3.423
  429SOL    HW1 2186   0.867   5.887   3.479
  429SOL    HW2 2187   0.909   5.937   3.329
  430SOL     OW 2188   1.857   6.927   3.749
  430SOL    HW1 2189   1.865   7.004   3.813
  430SOL    HW2 2190   1.819   6.848   3.796
  431SOL     OW 2191   2.658   2.225   1.426
  431SOL    HW1 2192   2.564   2.213   1.458
  431SOL    HW2 2193   2.675   2.321   1.406
  432SOL     OW 2194   4.259   1.893   1.332
  432SOL    HW1 2195   4.241   1.968   1.395
  432SOL    HW2 2196   4.351   1.903   1.293
  433SOL     OW 2197   2.261   6.690   6.912
  433SOL    HW1 2198   2.240   6.769   6.854
  433SOL    HW2 2199   2.353   6.658   6.892
  434SOL     OW 2200   4.456   6.422   3.922
  434SOL    HW1 2201   4.453   6.487   3.997
  434SOL    HW2 2202   4.369   6.373   3.916
  435SOL     OW 2203   3.266   1.548   6.289
  435SOL    HW1 2204   3.273   1.647   6.276
  435SOL    HW2 2205   3.176   1.525   6.326
  436SOL     OW 2206   3.938   6.882   3.642
  436SOL    HW1 2207   4.032   6.915   3.655
  436SOL    HW2 2208   3.875   6.940   3.693
  437SOL     OW 2209   0.490   0.379   4.380
  437SOL    HW1 2210   0.423   0.442   4.341
  437SOL    HW2 2211   0.581   0.419   4.372
  438SOL     OW 2212   1.105   4.506   2.832
  438SOL    HW1 2213   1.177   4.460   2.884
  438SOL    HW2 2214   1.112   4.482   2.735
  439SOL     OW 2215   5.587   0.796   3.203
  439SOL    HW1 2216   5.687   0.799   3.210
  439SOL    HW2 2217   5.561   0.742   3.123
  440SOL     OW 2218   4.406   1.112   0.098
  440SOL    HW1 2219   4.344   1.190   0.101
  440SOL    HW2 2220   4.485   1.134   0.040
  441SOL     OW 2221   0.038   4.422   2.578
  441SOL    HW1 2222   6.987   4.422   2.511
  441SOL    HW2 2223   7.022   4.411   2.670
  442SOL     OW 2224   5.641   3.610   5.381
  442SOL    HW1 2225   5.674   3.703   5.367
  442SOL    HW2 2226   5.709   3.558   5.433
  443SOL     OW 2227   5.010   4.138   3.104
  443SOL    HW1 2228   5.086   4.171   3.160
  443SOL    HW2 2229   5.046   4.094   3.022
  444SOL     OW 2230   4.454   1.122   1.240
  444SOL    HW1 2231   4.398   1.159   1.166
  444SOL    HW2 2232   4.397   1.105   1.320
  445SOL     OW 2233   1.968   5.082   2.406
  445SOL    HW1 2234   2.052   5.039   2.439
  445SOL    HW2 2235   1.891   5.053   2.464
  446SOL     OW 2236   5.930   6.665   2.524
  446SOL    HW1 2237   5.890   6.755   2.506
  446SOL    HW2 2238   5.962   6.625   2.438
  447SOL     OW 2239   6.146   3.772   6.935
  447SOL    HW1 2240   6.085   3.705   6.978
  447SOL    HW2 2241   6.150   3.753   6.836
  448SOL     OW 2242   2.671   0.820   3.033
  448SOL    HW1 2243   2.699   0.760   2.958
  448SOL    HW2 2244   2.684   0.916   3.005
  449SOL     OW 2245   2.063   2.671   4.486
  449SOL    HW1 2246   1.997   2.633   4.421
  449SOL    HW2 2247   2.015   2.708   4.565
  450SOL     OW 2248   1.053   3.971   3.083
  450SOL    HW1 2249   1.052   4.005   2.989
  450SOL    HW2 2250   0.959   3.963   3.116
  451SOL     OW 2251   0.763   2.169   2.929
  451SOL    HW1 2252   0.754   2.071   2.949
  451SOL    HW2 2253   0.688   2.219   2.971
  452SOL     OW 2254   4.226   6.642   3.550
  452SOL    HW1 2255   4.145   6.629   3.607
  452SOL    HW2 2256   4.199   6.674   3.460
  453SOL     OW 2257   4.157   0.109   0.174
  453SOL    HW1 2258   4.183   0.029   0.120
  453SOL    HW2 2259   4.063   0.099   0.206
  454SOL     OW 2260   0.106   4.658   6.639
  454SOL    HW1 2261   0.106   4.590   6.712
  454SOL    HW2 2262   0.165   4.735   6.666
  455SOL     OW 2263   6.532   4.645   5.911
  455SOL    HW1 2264   6.549   4.668   6.007
  455SOL    HW2 2265   6.559   4.722   5.853
  456SOL     OW 2266   2.705   1.300   2.850
  456SOL    HW1 2267   2.623   1.291   2.793
  456SOL    HW2 2268   2.705   1.389   2.895
  457SOL     OW 2269   2.370   6.617   6.224
  457SOL    HW1 2270   2.361   6.541   6.289
  457SOL    HW2 2271   2.328   6.699   6.263
  458SOL     OW 2272   1.678   2.063   3.157
  458SOL    HW1 2273   1.719   2.014   3.080
  458SOL    HW2 2274   1.696   2.014   3.242
  459SOL     OW 2275   2.513   0.055   4.981
  459SOL    HW1 2276   2.547   7.017   4.910
  459SOL    HW2 2277   2.515   0.149   4.948
  460SOL     OW 2278   1.430   1.586   4.925
  460SOL    HW1 2279   1.495   1.520   4.963
  460SOL    HW2 2280   1.352   1.536   4.886
  461SOL     OW 2281   1.035   4.727   5.925
  461SOL    HW1 2282   1.113   4.724   5.987
  461SOL    HW2 2283   1.033   4.815   5.877
  462SOL     OW 2284   3.058   3.754   4.642
  462SOL    HW1 2285   3.001   3.681   4.605
  462SOL    HW2 2286   3.005   3.807   4.708
  463SOL     OW 2287   5.998   6.519   2.299
  463SOL    HW1 2288   6.070   6.465   2.256
  463SOL    HW2 2289   5.934   6.459   2.347
  464SOL     OW 2290   3.463   6.057   6.528
  464SOL    HW1 2291   3.496   6.114   6.452
  464SOL    HW2 2292   3.539   6.007   6.569
  465SOL     OW 2293   1.682   2.708   0.202
  465SOL    HW1 2294   1.658   2.615   0.231
  465SOL    HW2 2295   1.775   2.708   0.165
  466SOL     OW 2296   3.581   5.836   4.874
  466SOL    HW1 2297   3.507   5.858   4.938
  466SOL    HW2 2298   3.654   5.788   4.922
  467SOL     OW 2299   6.375   0.942   2.598
  467SOL    HW1 2300   6.309   1.015   2.613
  467SOL    HW2 2301   6.395   0.897   2.685
  468SOL     OW 2302   4.009   6.673   6.684
  468SOL    HW1 2303   4.064   6.644   6.606
  468SOL    HW2 2304   4.016   6.772   6.695
  469SOL     OW 2305   2.739   5.059   5.780
  469SOL    HW1 2306   2.722   5.157   5.776
  469SOL    HW2 2307   2.652   5.010   5.770
  470SOL     OW 2308   2.605   5.289   3.142
  470SOL    HW1 2309   2.525   5.300   3.083
  470SOL    HW2 2310   2.688   5.292   3.086
  471SOL     OW 2311   2.702   2.385   4.227
  471SOL    HW1 2312   2.613   2.407   4.266
  471SOL    HW2 2313   2.746   2.469   4.194
  472SOL     OW 2314   6.233   4.482   5.944
  472SOL    HW1 2315   6.251   4.544   5.868
  472SOL    HW2 2316   6.184   4.402   5.909
  473SOL     OW 2317   6.819   2.247   2.473
  473SOL    HW1 2318   6.896   2.311   2.484
  473SOL    HW2 2319   6.790   2.245   2.378
  474SOL     OW 2320   5.447   5.904   4.469
  474SOL    HW1 2321   5.398   5.854   4.540
  474SOL    HW2 2322   5.545   5.883   4.475
  475SOL     OW 2323   5.952   1.324   0.981
  475SOL    HW1 2324   5.912   1.329   0.889
  475SOL    HW2 2325   6.006   1.407   0.998
  476SOL     OW 2326   0.614   4.228   1.837
  476SOL    HW1 2327   0.673   4.157   1.798
  476SOL    HW2 2328   0.608   4.305   1.773
  477SOL     OW 2329   1.677   4.784   3.683
  477SOL    HW1 2330   1.753   4.723   3.659
  477SOL    HW2 2331   1.607   4.779   3.612
  478SOL     OW 2332   4.644   5.944   1.976
  478SOL    HW1 2333   4.578   5.963   2.049
  478SOL    HW2 2334   4.607   5.873   1.916
  479SOL     OW 2335   4.132   3.608   4.207
  479SOL    HW1 2336   4.153   3.702   4.233
  479SOL    HW2 2337   4.141   3.549   4.287
  480SOL     OW 2338   1.924   6.950   2.769
  480SOL    HW1 2339   1.990   6.990   2.833
  480SOL    HW2 2340   1.935   6.994   2.680
  481SOL     OW 2341   0.590   6.820   0.849
  481SOL    HW1 2342   0.660   6.763   0.893
  481SOL    HW2 2343   0.614   6.834   0.753
  482SOL     OW 2344   5.038   4.883   1.709
  482SOL    HW1 2345   5.067   4.819   1.780
  482SOL    HW2 2346   5.110   4.892   1.639
  483SOL     OW 2347   5.977   2.151   3.247
  483SOL    HW1 2348   6.032   2.216   3.195
  483SOL    HW2 2349   6.030   2.069   3.266
  484SOL     OW 2350   2.173   4.171   4.176
  484SOL    HW1 2351   2.225   4.167   4.091
  484SOL    HW2 2352   2.086   4.123   4.164
  485SOL     OW 2353   5.503   3.224   2.130
  485SOL    HW1 2354   5.422   3.179   2.092
  485SOL    HW2 2355   5.585   3.189   2.084
  486SOL     OW 2356   6.502   6.232   6.280
  486SOL    HW1 2357   6.476   6.297   6.209
  486SOL    HW2 2358   6.577   6.269   6.334
  487SOL     OW 2359   0.065   6.658   4.400
  487SOL    HW1 2360   0.063   6.608   4.313
  487SOL    HW2 2361   0.147   6.716   4.402
  488SOL     OW 2362   1.573   6.184   3.603
  488SOL    HW1 2363   1.492   6.171   3.660
  488SOL    HW2 2364   1.653   6.150   3.651
  489SOL     OW 2365   0.017   5.791   6.231
  489SOL    HW1 2366   0.033   5.777   6.328
  489SOL    HW2 2367   6.944   5.817   6.216
  490SOL     OW 2368   1.556   4.866   5.708
  490SOL    HW1 2369   1.615   4.927   5.761
  490SOL    HW2 2370   1.612   4.811   5.647
  491SOL     OW 2371   0.219   2.687   1.103
  491SOL    HW1 2372   0.263   2.672   1.014
  491SOL    HW2 2373   0.256   2.770   1.145
  492SOL     OW 2374   1.383   1.901   5.894
  492SOL    HW1 2375   1.317   1.915   5.820
  492SOL    HW2 2376   1.414   1.806   5.894
  493SOL     OW 2377   2.297   6.145   4.974
  493SOL    HW1 2378   2.237   6.080   4.927
  493SOL    HW2 2379   2.311   6.225   4.916
  494SOL     OW 2380   2.238   6.555   5.112
  494SOL    HW1 2381   2.251   6.652   5.095
  494SOL    HW2 2382   2.255   6.504   5.028
  495SOL     OW 2383   3.636   5.576   5.569
  495SOL    HW1 2384   3.732   5.562   5.544
  495SOL    HW2 2385   3.597   5.647   5.511
  496SOL     OW 2386   4.914   1.622   2.644
  496SOL    HW1 2387   4.977   1.550   2.672
  496SOL    HW2 2388   4.951   1.711   2.672
  497SOL     OW 2389   3.377   0.942   6.677
  497SOL    HW1 2390   3.348   0.922   6.771
  497SOL    HW2 2391   3.477   0.940   6.671
  498SOL     OW 2392   0.420   5.511   1.828
  498SOL    HW1 2393   0.427   5.521   1.728
  498SOL    HW2 2394   0.325   5.524   1.856
  499SOL     OW 2395   3.611   5.966   0.258
  499SOL    HW1 2396   3.607   6.057   0.301
  499SOL    HW2 2397   3.523   5.944   0.218
  500SOL     OW 2398   5.889   2.089   0.256
  500SOL    HW1 2399   5.804   2.119   0.212
  500SOL    HW2 2400   5.892   1.990   0.259
  501SOL     OW 2401   1.031   0.129   2.950
  501SOL    HW1 2402   0.943   0.106   2.909
  501SOL    HW2 2403   1.030   0.105   3.047
  502SOL     OW 2404   2.084   4.896   6.777
  502SOL    HW1 2405   2.035   4.982   6.762
  502SOL    HW2 2406   2.018   4.823   6.795
  503SOL     OW 2407   3.367   5.253   6.993
  503SOL    HW1 2408   3.338   5.332   6.939
  503SOL    HW2 2409   3.300   5.179   6.983
  504SOL     OW 2410   5.820   6.631   2.097
  504SOL    HW1 2411   5.857   6.614   2.006
  504SOL    HW2 2412   5.891   6.617   2.165
  505SOL     OW 2413   5.211   6.668   5.154
  505SOL    HW1 2414   5.265   6.600   5.203
  505SOL    HW2 2415   5.247   6.678   5.061
  506SOL     OW 2416   3.986   5.423   2.853
  506SOL    HW1 2417   4.025   5.444   2.763
  506SOL    HW2 2418   3.935   5.338   2.849
  507SOL     OW 2419   3.488   0.943   1.199
  507SOL    HW1 2420   3.452   0.880   1.130
  507SOL    HW2 2421   3.588   0.941   1.196
  508SOL     OW 2422   0.122   4.774   4.217
  508SOL    HW1 2423   0.205   4.718   4.211
  508SOL    HW2 2424   0.146   4.871   4.210
  509SOL     OW 2425   4.556   6.711   6.373
  509SOL    HW1 2426   4.615   6.638   6.407
  509SOL    HW2 2427   4.477   6.721   6.433
  510SOL     OW 2428   6.857   4.495   6.994
  510SOL    HW1 2429   6.851   4.524   0.067
  510SOL    HW2 2430   6.825   4.400   6.986
  511SOL     OW 2431   0.995   2.024   0.618
  511SOL    HW1 2432   0.903   2.065   0.621
  511SOL    HW2 2433   1.023   2.013   0.523
  512SOL     OW 2434   6.516   2.353   6.379
  512SOL    HW1 2435   6.462   2.359   6.294
  512SOL    HW2 2436   6.559   2.442   6.396
  513SOL     OW 2437   5.204   0.263   2.859
  513SOL    HW1 2438   5.111   0.259   2.897
  513SOL    HW2 2439   5.262   0.196   2.905
  514SOL     OW 2440   6.212   6.781   4.370
  514SOL    HW1 2441   6.212   6.764   4.272
  514SOL    HW2 2442   6.153   6.859   4.391
  515SOL     OW 2443   3.309   6.692   6.838
  515SOL    HW1 2444   3.230   6.693   6.778
  515SOL    HW2 2445   3.374   6.623   6.808
  516SOL     OW 2446   2.287   5.569   1.583
  516SOL    HW1 2447   2.236   5.655   1.586
  516SOL    HW2 2448   2.373   5.580   1.633
  517SOL     OW 2449   3.312   4.855   2.331
  517SOL    HW1 2450   3.298   4.866   2.430
  517SOL    HW2 2451   3.345   4.941   2.293
  518SOL     OW 2452   2.182   3.054   3.573
  518SOL    HW1 2453   2.149   3.110   3.649
  518SOL    HW2 2454   2.180   2.958   3.598
  519SOL     OW 2455   0.443   6.774   3.495
  519SOL    HW1 2456   0.357   6.727   3.475
  519SOL    HW2 2457   0.515   6.739   3.434
  520SOL     OW 2458   1.517   3.031   0.151
  520SOL    HW1 2459   1.603   3.036   0.100
  520SOL    HW2 2460   1.536   3.003   0.245
  521SOL     OW 2461   5.212   4.995   5.390
  521SOL    HW1 2462   5.115   4.973   5.381
  521SOL    HW2 2463   5.267   4.927   5.342
  522SOL     OW 2464   4.257   3.673   1.400
  522SOL    HW1 2465   4.236   3.699   1.494
  522SOL    HW2 2466   4.226   3.745   1.338
  523SOL     OW 2467   0.395   6.528   1.612
  523SOL    HW1 2468   0.358   6.442   1.578
  523SOL    HW2 2469   0.446   6.573   1.539
  524SOL     OW 2470   6.490   2.310   2.123
  524SOL    HW1 2471   6.434   2.392   2.136
  524SOL    HW2 2472   6.509   2.298   2.026
  525SOL     OW 2473   1.774   3.951   6.501
  525SOL    HW1 2474   1.682   3.921   6.477
  525SOL    HW2 2475   1.836   3.934   6.425
  526SOL     OW 2476   3.085   0.127   4.657
  526SOL    HW1 2477   3.060   0.043   4.705
  526SOL    HW2 2478   3.099   0.201   4.724
  527SOL     OW 2479   0.985   2.218   0.129
  527SOL    HW1 2480   0.965   2.293   0.066
  527SOL    HW2 2481   0.968   2.130   0.083
  528SOL     OW 2482   6.804   3.008   4.237
  528SOL    HW1 2483   6.714   2.989   4.278
  528SOL    HW2 2484   6.858   2.924   4.235
  529SOL     OW 2485   2.024   0.457   5.585
  529SOL    HW1 2486   2.087   0.477   5.659
  529SOL    HW2 2487   2.016   0.358   5.572
  530SOL     OW 2488   3.486   3.407   1.245
  530SOL    HW1 2489   3.460   3.461   1.165
  530SOL    HW2 2490   3.460   3.457   1.328
  531SOL     OW 2491   1.983   0.807   2.156
  531SOL    HW1 2492   2.041   0.809   2.237
  531SOL    HW2 2493   1.911   0.739   2.168
  532SOL     OW 2494   3.365   2.708   0.325
  532SOL    HW1 2495   3.332   2.625   0.370
  532SOL    HW2 2496   3.444   2.685   0.269
  533SOL     OW 2497   3.939   0.184   3.730
  533SOL    HW1 2498   4.000   0.205   3.806
  533SOL    HW2 2499   3.846   0.214   3.753
  534SOL     OW 2500   0.698   5.427   1.343
  534SOL    HW1 2501   0.611   5.388   1.373
  534SOL    HW2 2502   0.718   5.396   1.250
  535SOL     OW 2503   5.403   3.764   3.132
  535SOL    HW1 2504   5.414   3.784   3.229
  535SOL    HW2 2505   5.310   3.789   3.103
  536SOL     OW 2506   6.435   6.107   3.195
  536SOL    HW1 2507   6.443   6.166   3.115
  536SOL    HW2 2508   6.420   6.164   3.276
  537SOL     OW 2509   3.165   0.923   4.195
  537SOL    HW1 2510   3.243   0.861   4.198
  537SOL    HW2 2511   3.111   0.905   4.112
  538SOL     OW 2512   2.331   5.028   5.334
  538SOL    HW1 2513   2.303   5.122   5.349
  538SOL    HW2 2514   2.307   4.999   5.242
  539SOL     OW 2515   0.801   6.298   0.417
  539SOL    HW1 2516   0.745   6.367   0.371
  539SOL    HW2 2517   0.741   6.226   0.453
  540SOL     OW 2518   1.357   0.310   3.628
  540SOL    HW1 2519   1.328   0.247   3.556
  540SOL    HW2 2520   1.430   0.268   3.682
  541SOL     OW 2521   3.891   6.371   4.698
  541SOL    HW1 2522   3.902   6.296   4.765
  541SOL    HW2 2523   3.968   6.369   4.635
  542SOL     OW 2524   2.670   6.752   6.741
  542SOL    HW1 2525   2.608   6.718   6.669
  542SOL    HW2 2526   2.741   6.809   6.699
  543SOL     OW 2527   5.462   2.749   4.110
  543SOL    HW1 2528   5.496   2.837   4.077
  543SOL    HW2 2529   5.421   2.760   4.200
  544SOL     OW 2530   0.462   4.715   0.461
  544SOL    HW1 2531   0.370   4.677   0.465
  544SOL    HW2 2532   0.465   4.801   0.513
  545SOL     OW 2533   5.232   1.290   1.593
  545SOL    HW1 2534   5.168   1.244   1.533
  545SOL    HW2 2535   5.201   1.283   1.688
  546SOL     OW 2536   0.366   4.224   2.463
  546SOL    HW1 2537   0.293   4.157   2.479
  546SOL    HW2 2538   0.455   4.180   2.470
  547SOL     OW 2539   4.396   1.506   6.919
  547SOL    HW1 2540   4.477   1.551   6.957
  547SOL    HW2 2541   4.356   1.446   6.988
  548SOL     OW 2542   3.764   2.876   6.843
  548SOL    HW1 2543   3.786   2.843   6.935
  548SOL    HW2 2544   3.694   2.946   6.848
  549SOL     OW 2545   6.356   2.037   0.532
  549SOL    HW1 2546   6.387   2.099   0.460
  549SOL    HW2 2547   6.433   2.013   0.591
  550SOL     OW 2548   6.974   4.509   2.876
  550SOL    HW1 2549   0.017   4.578   2.845
  550SOL    HW2 2550   7.021   4.444   2.935
  551SOL     OW 2551   0.063   0.906   0.397
  551SOL    HW1 2552   0.141   0.892   0.457
  551SOL    HW2 2553   7.001   0.902   0.451
  552SOL     OW 2554   5.473   5.648   5.635
  552SOL    HW1 2555   5.389   5.595   5.626
  552SOL    HW2 2556   5.456   5.729   5.692
  553SOL     OW 2557   3.120   1.332   5.969
  553SOL    HW1 2558   3.113   1.401   5.896
  553SOL    HW2 2559   3.134   1.242   5.928
  554SOL     OW 2560   5.876   6.068   0.722
  554SOL    HW1 2561   5.899   5.975   0.694
  554SOL    HW2 2562   5.784   6.091   0.690
  555SOL     OW 2563   2.241   5.277   5.472
  555SOL    HW1 2564   2.277   5.344   5.407
  555SOL    HW2 2565   2.317   5.235   5.522
  556SOL     OW 2566   4.662   2.027   3.996
  556SOL    HW1 2567   4.579   2.010   4.050
  556SOL    HW2 2568   4.676   1.951   3.932
  557SOL     OW 2569   6.821   5.037   5.682
  557SOL    HW1 2570   6.764   5.114   5.656
  557SOL    HW2 2571   6.912   5.048   5.643
  558SOL     OW 2572   3.706   3.573   2.798
  558SOL    HW1 2573   3.802   3.561   2.773
  558SOL    HW2 2574   3.690   3.531   2.888
  559SOL     OW 2575   6.480   6.442   5.537
  559SOL    HW1 2576   6.444   6.429   5.444
  559SOL    HW2 2577   6.403   6.455   5.600
  560SOL     OW 2578   6.398   2.966   3.111
  560SOL    HW1 2579   6.340   2.888   3.135
  560SOL    HW2 2580   6.471   2.935   3.050
  561SOL     OW 2581   0.355   3.120   6.351
  561SOL    HW1 2582   0.336   3.057   6.275
  561SOL    HW2 2583   0.393   3.205   6.315
  562SOL     OW 2584   4.473   6.937   5.738
  562SOL    HW1 2585   4.436   6.959   5.648
  562SOL    HW2 2586   4.425   6.857   5.774
  563SOL     OW 2587   1.681   1.593   4.423
  563SOL    HW1 2588   1.603   1.570   4.481
  563SOL    HW2 2589   1.648   1.624   4.334
  564SOL     OW 2590   0.367   1.682   5.747
  564SOL    HW1 2591   0.343   1.764   5.695
  564SOL    HW2 2592   0.326   1.686   5.838
  565SOL     OW 2593   3.345   3.049   3.586
  565SOL    HW1 2594   3.259   3.034   3.634
  565SOL    HW2 2595   3.327   3.066   3.489
  566SOL     OW 2596   3.320   5.285   2.955
  566SOL    HW1 2597   3.275   5.228   2.886
  566SOL    HW2 2598   3.352   5.370   2.913
  567SOL     OW 2599   2.498   2.622   6.802
  567SOL    HW1 2600   2.475   2.575   6.717
  567SOL    HW2 2601   2.451   2.711   6.805
  568SOL     OW 2602   5.927   6.830   0.489
  568SOL    HW1 2603   5.875   6.803   0.408
  568SOL    HW2 2604   5.991   6.758   0.514
  569SOL     OW 2605   0.322   2.219   0.073
  569SOL    HW1 2606   0.301   2.310   0.038
  569SOL    HW2 2607   0.316   2.152   7.021
  570SOL     OW 2608   2.752   0.383   6.457
  570SOL    HW1 2609   2.684   0.348   6.522
  570SOL    HW2 2610   2.832   0.323   6.456
  571SOL     OW 2611   2.768   4.677   3.028
  571SOL    HW1 2612   2.808   4.644   2.942
  571SOL    HW2 2613   2.775   4.777   3.032
  572SOL     OW 2614   1.825   6.186   4.354
  572SOL    HW1 2615   1.886   6.159   4.428
  572SOL    HW2 2616   1.738   6.217   4.392
  573SOL     OW 2617   6.084   2.246   5.705
  573SOL    HW1 2618   6.037   2.160   5.685
  573SOL    HW2 2619   6.024   2.323   5.682
  574SOL     OW 2620   3.003   1.481   5.346
  574SOL    HW1 2621   2.923   1.511   5.293
  574SOL    HW2 2622   3.063   1.559   5.362
  575SOL     OW 2623   3.250   3.264   0.397
  575SOL    HW1 2624   3.243   3.217   0.309
  575SOL    HW2 2625   3.197   3.349   0.394
  576SOL     OW 2626   2.145   3.437   2.915
  576SOL    HW1 2627   2.211   3.367   2.940
  576SOL    HW2 2628   2.056   3.395   2.897
  577SOL     OW 2629   1.226   1.491   2.202
  577SOL    HW1 2630   1.163   1.560   2.238
  577SOL    HW2 2631   1.271   1.526   2.120
  578SOL     OW 2632   1.752   5.149   0.261
  578SOL    HW1 2633   1.790   5.232   0.220
  578SOL    HW2 2634   1.779   5.069   0.206
  579SOL     OW 2635   2.692   4.667   2.405
  579SOL    HW1 2636   2.771   4.723   2.385
  579SOL    HW2 2637   2.671   4.608   2.327
  580SOL     OW 2638   3.946   5.612   4.856
  580SOL    HW1 2639   3.980   5.670   4.781
  580SOL    HW2 2640   3.920   5.522   4.819
  581SOL     OW 2641   0.861   2.936   3.582
  581SOL    HW1 2642   0.957   2.956   3.603
  581SOL    HW2 2643   0.819   2.890   3.661
  582SOL     OW 2644   5.593   5.056   3.280
  582SOL    HW1 2645   5.591   5.108   3.366
  582SOL    HW2 2646   5.618   5.117   3.205
  583SOL     OW 2647   3.016   5.188   6.102
  583SOL    HW1 2648   3.100   5.194   6.157
  583SOL    HW2 2649   3.040   5.186   6.005
  584SOL     OW 2650   3.761   7.022   6.538
  584SOL    HW1 2651   3.751   6.945   6.601
  584SOL    HW2 2652   3.748   6.990   6.444
  585SOL     OW 2653   2.429   6.692   1.427
  585SOL    HW1 2654   2.466   6.771   1.380
  585SOL    HW2 2655   2.432   6.612   1.366
  586SOL     OW 2656   4.366   0.271   1.633
  586SOL    HW1 2657   4.367   0.171   1.646
  586SOL    HW2 2658   4.455   0.300   1.598
  587SOL     OW 2659   5.117   2.300   2.126
  587SOL    HW1 2660   5.153   2.293   2.220
  587SOL    HW2 2661   5.192   2.323   2.064
  588SOL     OW 2662   1.074   5.760   1.231
  588SOL    HW1 2663   1.145   5.773   1.163
  588SOL    HW2 2664   1.115   5.729   1.317
  589SOL     OW 2665   3.492   5.791   1.452
  589SOL    HW1 2666   3.537   5.702   1.447
  589SOL    HW2 2667   3.466   5.809   1.547
  590SOL     OW 2668   5.934   1.700   0.828
  590SOL    HW1 2669   6.017   1.648   0.844
  590SOL    HW2 2670   5.937   1.785   0.881
  591SOL     OW 2671   4.229   5.261   4.385
  591SOL    HW1 2672   4.270   5.270   4.295
  591SOL    HW2 2673   4.155   5.193   4.382
  592SOL     OW 2674   4.841   1.450   4.234
  592SOL    HW1 2675   4.912   1.510   4.198
  592SOL    HW2 2676   4.764   1.448   4.171
  593SOL     OW 2677   3.901   2.056   5.658
  593SOL    HW1 2678   3.836   2.115   5.609
  593SOL    HW2 2679   3.986   2.106   5.673
  594SOL     OW 2680   5.493   1.845   1.558
  594SOL    HW1 2681   5.526   1.830   1.651
  594SOL    HW2 2682   5.554   1.908   1.510
  595SOL     OW 2683   5.105   6.198   2.759
  595SOL    HW1 2684   5.182   6.237   2.708
  595SOL    HW2 2685   5.024   6.198   2.700
  596SOL     OW 2686   6.861   3.647   4.154
  596SOL    HW1 2687   6.908   3.656   4.242
  596SOL    HW2 2688   6.904   3.573   4.101
  597SOL     OW 2689   3.014   6.487   5.903
  597SOL    HW1 2690   3.027   6.445   5.993
  597SOL    HW2 2691   3.022   6.586   5.912
  598SOL     OW 2692   2.929   3.858   4.833
  598SOL    HW1 2693   2.981   3.824   4.911
  598SOL    HW2 2694   2.851   3.912   4.865
  599SOL     OW 2695   1.454   6.057   1.801
  599SOL    HW1 2696   1.422   6.013   1.885
  599SOL    HW2 2697   1.542   6.019   1.775
  600SOL     OW 2698   6.846   4.256   4.774
  600SOL    HW1 2699   6.928   4.215   4.813
  600SOL    HW2 2700   6.852   4.356   4.781
  601SOL     OW 2701   1.101   0.890   4.993
  601SOL    HW1 2702   1.092   0.792   4.977
  601SOL    HW2 2703   1.194   0.920   4.972
  602SOL     OW 2704   2.513   6.381   4.975
  602SOL    HW1 2705   2.530   6.320   4.899
  602SOL    HW2 2706   2.505   6.328   5.060
  603SOL     OW 2707   1.594   0.993   4.951
  603SOL    HW1 2708   1.622   1.040   4.867
  603SOL    HW2 2709   1.675   0.963   5.001
  604SOL     OW 2710   0.042   2.641   2.018
  604SOL    HW1 2711   7.005   2.713   2.053
  604SOL    HW2 2712   0.018   2.554   2.060
  605SOL     OW 2713   0.108   4.443   1.986
  605SOL    HW1 2714   0.118   4.449   2.085
  605SOL    HW2 2715   0.170   4.508   1.942
  606SOL     OW 2716   4.026   0.102   5.087
  606SOL    HW1 2717   4.107   0.155   5.111
  606SOL    HW2 2718   4.048   0.005   5.085
  607SOL     OW 2719   1.563   5.407   6.415
  607SOL    HW1 2720   1.480   5.442   6.371
  607SOL    HW2 2721   1.539   5.328   6.472
  608SOL     OW 2722   4.144   6.937   6.460
  608SOL    HW1 2723   4.070   6.876   6.432
  608SOL    HW2 2724   4.159   7.006   6.389
  609SOL     OW 2725   3.697   2.179   1.366
  609SOL    HW1 2726   3.652   2.254   1.317
  609SOL    HW2 2727   3.743   2.215   1.448
  610SOL     OW 2728   4.509   2.595   0.018
  610SOL    HW1 2729   4.505   2.695   0.011
  610SOL    HW2 2730   4.423   2.561   0.055
  611SOL     OW 2731   3.876   7.013   2.234
  611SOL    HW1 2732   3.975   7.006   2.247
  611SOL    HW2 2733   3.855   0.076   2.187
  612SOL     OW 2734   3.820   4.864   5.909
  612SOL    HW1 2735   3.903   4.816   5.938
  612SOL    HW2 2736   3.821   4.957   5.946
  613SOL     OW 2737   5.251   5.941   5.101
  613SOL    HW1 2738   5.319   6.005   5.066
  613SOL    HW2 2739   5.180   5.928   5.031
  614SOL     OW 2740   4.917   5.484   5.335
  614SOL    HW1 2741   4.973   5.544   5.277
  614SOL    HW2 2742   4.821   5.511   5.328
  615SOL     OW 2743   0.246   4.150   0.901
  615SOL    HW1 2744   0.219   4.072   0.957
  615SOL    HW2 2745   0.212   4.139   0.808
  616SOL     OW 2746   6.288   2.724   3.509
  616SOL    HW1 2747   6.219   2.702   3.578
  616SOL    HW2 2748   6.338   2.641   3.485
  617SOL     OW 2749   2.518   5.447   6.238
  617SOL    HW1 2750   2.435   5.447   6.182
  617SOL    HW2 2751   2.554   5.540   6.245
  618SOL     OW 2752   1.737   1.587   1.587
  618SOL    HW1 2753   1.819   1.616   1.637
  618SOL    HW2 2754   1.736   1.488   1.580
  619SOL     OW 2755   1.661   2.316   6.627
  619SOL    HW1 2756   1.630   2.315   6.722
  619SOL    HW2 2757   1.737   2.251   6.615
  620SOL     OW 2758   4.580   2.900   0.831
  620SOL    HW1 2759   4.587   2.999   0.823
  620SOL    HW2 2760   4.485   2.874   0.849
  621SOL     OW 2761   6.056   4.877   0.256
  621SOL    HW1 2762   5.971   4.878   0.203
  621SOL    HW2 2763   6.134   4.874   0.194
  622SOL     OW 2764   1.919   1.503   0.403
  622SOL    HW1 2765   1.880   1.572   0.343
  622SOL    HW2 2766   2.004   1.468   0.362
  623SOL     OW 2767   0.906   5.040   6.495
  623SOL    HW1 2768   0.906   5.052   6.396
  623SOL    HW2 2769   0.845   4.964   6.519
  624SOL     OW 2770   0.510   2.456   2.636
  624SOL    HW1 2771   0.557   2.488   2.555
  624SOL    HW2 2772   0.470   2.366   2.619
  625SOL     OW 2773   2.998   1.679   2.388
  625SOL    HW1 2774   3.047   1.597   2.419
  625SOL    HW2 2775   2.971   1.733   2.468
  626SOL     OW 2776   2.302   6.246   3.337
  626SOL    HW1 2777   2.384   6.284   3.381
  626SOL    HW2 2778   2.318   6.238   3.239
  627SOL     OW 2779   5.396   1.080   0.362
  627SOL    HW1 2780   5.360   1.061   0.454
  627SOL    HW2 2781   5.347   1.025   0.295
  628SOL     OW 2782   4.984   5.040   4.523
  628SOL    HW1 2783   5.041   5.108   4.476
  628SOL    HW2 2784   4.910   5.012   4.462
  629SOL     OW 2785   0.495   0.518   1.667
  629SOL    HW1 2786   0.559   0.445   1.692
  629SOL    HW2 2787   0.451   0.553   1.749
  630SOL     OW 2788   4.553   1.384   1.696
  630SOL    HW1 2789   4.586   1.359   1.605
  630SOL    HW2 2790   4.605   1.335   1.766
  631SOL     OW 2791   2.415   6.808   5.319
  631SOL    HW1 2792   2.492   6.814   5.255
  631SOL    HW2 2793   2.428   6.874   5.393
  632SOL     OW 2794   2.522   0.940   0.385
  632SOL    HW1 2795   2.492   1.034   0.406
  632SOL    HW2 2796   2.461   0.900   0.317
  633SOL     OW 2797   3.311   6.119   0.673
  633SOL    HW1 2798   3.239   6.059   0.709
  633SOL    HW2 2799   3.272   6.209   0.654
  634SOL     OW 2800   4.309   5.491   1.388
  634SOL    HW1 2801   4.319   5.543   1.303
  634SOL    HW2 2802   4.396   5.487   1.436
  635SOL     OW 2803   3.297   0.405   2.939
  635SOL    HW1 2804   3.387   0.376   2.906
  635SOL    HW2 2805   3.236   0.326   2.942
  636SOL     OW 2806   5.169   5.167   6.523
  636SOL    HW1 2807   5.183   5.200   6.616
  636SOL    HW2 2808   5.189   5.069   6.518
  637SOL     OW 2809   4.741   4.836   1.674
  637SOL    HW1 2810   4.831   4.880   1.666
  637SOL    HW2 2811   4.686   4.886   1.740
  638SOL     OW 2812   4.903   1.189   1.740
  638SOL    HW1 2813   4.837   1.212   1.668
  638SOL    HW2 2814   4.970   1.124   1.704
  639SOL     OW 2815   4.271   4.515   1.689
  639SOL    HW1 2816   4.370   4.512   1.679
  639SOL    HW2 2817   4.234   4.422   1.684
  640SOL     OW 2818   2.130   3.919   5.657
  640SOL    HW1 2819   2.067   3.988   5.693
  640SOL    HW2 2820   2.124   3.916   5.558
  641SOL     OW 2821   0.727   5.548   4.890
  641SOL    HW1 2822   0.699   5.644   4.894
  641SOL    HW2 2823   0.679   5.503   4.814
  642SOL     OW 2824   0.332   4.735   5.127
  642SOL    HW1 2825   0.248   4.777   5.092
  642SOL    HW2 2826   0.332   4.637   5.108
  643SOL     OW 2827   6.819   5.776   5.614
  643SOL    HW1 2828   6.762   5.821   5.546
  643SOL    HW2 2829   6.812   5.825   5.701
  644SOL     OW 2830   1.172   6.227   3.063
  644SOL    HW1 2831   1.125   6.139   3.056
  644SOL    HW2 2832   1.144   6.273   3.148
  645SOL     OW 2833   4.396   2.356   4.581
  645SOL    HW1 2834   4.413   2.402   4.668
  645SOL    HW2 2835   4.371   2.261   4.598
  646SOL     OW 2836   1.722   1.385   3.681
  646SOL    HW1 2837   1.683   1.470   3.644
  646SOL    HW2 2838   1.813   1.371   3.642
  647SOL     OW 2839   6.371   2.729   6.870
  647SOL    HW1 2840   6.463   2.707   6.838
  647SOL    HW2 2841   6.370   2.820   6.911
  648SOL     OW 2842   5.846   3.373   2.353
  648SOL    HW1 2843   5.772   3.416   2.301
  648SOL    HW2 2844   5.933   3.392   2.308
  649SOL     OW 2845   4.009   4.124   0.993
  649SOL    HW1 2846   3.940   4.102   1.062
  649SOL    HW2 2847   4.017   4.223   0.983
  650SOL     OW 2848   4.525   4.698   0.452
  650SOL    HW1 2849   4.561   4.778   0.405
  650SOL    HW2 2850   4.444   4.724   0.505
  651SOL     OW 2851   0.548   6.438   1.112
  651SOL    HW1 2852   0.646   6.453   1.098
  651SOL    HW2 2853   0.526   6.450   1.209
  652SOL     OW 2854   4.560   6.915   2.732
  652SOL    HW1 2855   4.480   6.857   2.715
  652SOL    HW2 2856   4.631   6.861   2.777
  653SOL     OW 2857   3.372   5.219   4.262
  653SOL    HW1 2858   3.341   5.181   4.349
  653SOL    HW2 2859   3.410   5.145   4.206
  654SOL     OW 2860   6.476   5.625   6.669
  654SOL    HW1 2861   6.436   5.700   6.722
  654SOL    HW2 2862   6.407   5.554   6.654
  655SOL     OW 2863   0.927   0.205   1.607
  655SOL    HW1 2864   0.926   0.191   1.706
  655SOL    HW2 2865   0.845   0.163   1.567
  656SOL     OW 2866   2.236   6.345   2.230
  656SOL    HW1 2867   2.315   6.406   2.223
  656SOL    HW2 2868   2.192   6.358   2.319
  657SOL     OW 2869   2.762   1.533   0.988
  657SOL    HW1 2870   2.776   1.616   0.934
  657SOL    HW2 2871   2.742   1.456   0.928
  658SOL     OW 2872   3.064   3.916   7.021
  658SOL    HW1 2873   3.098   3.978   0.069
  658SOL    HW2 2874   3.138   3.854   6.993
  659SOL     OW 2875   2.424   6.891   6.634
  659SOL    HW1 2876   2.343   6.933   6.674
  659SOL    HW2 2877   2.404   6.797   6.607
  660SOL     OW 2878   4.000   5.981   2.310
  660SOL    HW1 2879   3.930   6.044   2.276
  660SOL    HW2 2880   3.972   5.945   2.399
  661SOL     OW 2881   4.531   5.563   2.914
  661SOL    HW1 2882   4.452   5.580   2.972
  661SOL    HW2 2883   4.540   5.636   2.846
  662SOL     OW 2884   3.619   1.116   5.868
  662SOL    HW1 2885   3.522   1.103   5.887
  662SOL    HW2 2886   3.631   1.189   5.801
  663SOL     OW 2887   1.902   4.405   4.790
  663SOL    HW1 2888   1.923   4.316   4.748
  663SOL    HW2 2889   1.901   4.475   4.719
  664SOL     OW 2890   0.435   6.314   6.668
  664SOL    HW1 2891   0.458   6.402   6.626
  664SOL    HW2 2892   0.426   6.244   6.597
  665SOL     OW 2893   3.427   5.585   3.671
  665SOL    HW1 2894   3.344   5.639   3.672
  665SOL    HW2 2895   3.412   5.500   3.620
  666SOL     OW 2896   4.096   0.875   2.668
  666SOL    HW1 2897   4.091   0.849   2.571
  666SOL    HW2 2898   4.005   0.902   2.700
  667SOL     OW 2899   0.663   5.218   1.873
  667SOL    HW1 2900   0.697   5.311   1.858
  667SOL    HW2 2901   0.564   5.216   1.860
  668SOL     OW 2902   5.501   4.680   5.840
  668SOL    HW1 2903   5.506   4.587   5.876
  668SOL    HW2 2904   5.454   4.739   5.906
  669SOL     OW 2905   5.831   1.243   2.646
  669SOL    HW1 2906   5.739   1.228   2.682
  669SOL    HW2 2907   5.878   1.311   2.702
  670SOL     OW 2908   1.923   1.788   3.507
  670SOL    HW1 2909   1.994   1.782   3.577
  670SOL    HW2 2910   1.965   1.792   3.416
  671SOL     OW 2911   2.459   6.488   1.677
  671SOL    HW1 2912   2.468   6.585   1.654
  671SOL    HW2 2913   2.539   6.438   1.646
  672SOL     OW 2914   0.535   5.731   2.232
  672SOL    HW1 2915   0.543   5.734   2.132
  672SOL    HW2 2916   0.619   5.764   2.274
  673SOL     OW 2917   5.421   6.849   1.011
  673SOL    HW1 2918   5.447   6.760   0.975
  673SOL    HW2 2919   5.496   6.886   1.066
  674SOL     OW 2920   6.575   1.509   5.149
  674SOL    HW1 2921   6.617   1.523   5.060
  674SOL    HW2 2922   6.634   1.450   5.205
  675SOL     OW 2923   5.793   2.610   2.202
  675SOL    HW1 2924   5.726   2.597   2.129
  675SOL    HW2 2925   5.754   2.579   2.288
  676SOL     OW 2926   2.572   4.642   4.937
  676SOL    HW1 2927   2.521   4.566   4.897
  676SOL    HW2 2928   2.652   4.607   4.986
  677SOL     OW 2929   4.809   0.776   1.449
  677SOL    HW1 2930   4.773   0.833   1.376
  677SOL    HW2 2931   4.756   0.789   1.532
  678SOL     OW 2932   2.727   4.504   5.362
  678SOL    HW1 2933   2.737   4.602   5.374
  678SOL    HW2 2934   2.801   4.470   5.303
  679SOL     OW 2935   5.639   1.638   4.728
  679SOL    HW1 2936   5.714   1.660   4.790
  679SOL    HW2 2937   5.674   1.589   4.649
  680SOL     OW 2938   5.340   6.324   4.349
  680SOL    HW1 2939   5.324   6.308   4.251
  680SOL    HW2 2940   5.257   6.301   4.400
  681SOL     OW 2941   5.155   6.000   2.398
  681SOL    HW1 2942   5.214   5.963   2.325
  681SOL    HW2 2943   5.211   6.018   2.479
  682SOL     OW 2944   0.122   1.069   2.192
  682SOL    HW1 2945   0.086   1.018   2.115
  682SOL    HW2 2946   0.221   1.078   2.184
  683SOL     OW 2947   4.227   3.414   1.495
  683SOL    HW1 2948   4.251   3.428   1.591
  683SOL    HW2 2949   4.257   3.494   1.442
  684SOL     OW 2950   6.233   0.498   6.521
  684SOL    HW1 2951   6.285   0.484   6.606
  684SOL    HW2 2952   6.288   0.466   6.444
  685SOL     OW 2953   3.566   1.187   3.784
  685SOL    HW1 2954   3.480   1.188   3.733
  685SOL    HW2 2955   3.614   1.274   3.770
  686SOL     OW 2956   4.339   1.281   3.970
  686SOL    HW1 2957   4.344   1.261   4.068
  686SOL    HW2 2958   4.377   1.372   3.953
  687SOL     OW 2959   0.605   2.009   4.173
  687SOL    HW1 2960   0.567   2.086   4.121
  687SOL    HW2 2961   0.673   1.962   4.116
  688SOL     OW 2962   0.481   1.248   6.259
  688SOL    HW1 2963   0.478   1.312   6.336
  688SOL    HW2 2964   0.389   1.234   6.224
  689SOL     OW 2965   1.033   4.856   5.196
  689SOL    HW1 2966   0.955   4.918   5.205
  689SOL    HW2 2967   1.072   4.838   5.286
  690SOL     OW 2968   6.267   3.202   2.991
  690SOL    HW1 2969   6.291   3.110   3.022
  690SOL    HW2 2970   6.290   3.213   2.895
  691SOL     OW 2971   4.021   1.501   6.889
  691SOL    HW1 2972   4.058   1.534   6.976
  691SOL    HW2 2973   3.930   1.462   6.904
  692SOL     OW 2974   3.081   1.443   5.693
  692SOL    HW1 2975   3.112   1.364   5.640
  692SOL    HW2 2976   2.983   1.456   5.680
  693SOL     OW 2977   4.680   5.780   3.131
  693SOL    HW1 2978   4.687   5.807   3.035
  693SOL    HW2 2979   4.724   5.849   3.189
  694SOL     OW 2980   3.667   6.487   4.585
  694SOL    HW1 2981   3.634   6.581   4.594
  694SOL    HW2 2982   3.754   6.477   4.633
  695SOL     OW 2983   3.287   6.294   4.370
  695SOL    HW1 2984   3.278   6.256   4.278
  695SOL    HW2 2985   3.383   6.294   4.398
  696SOL     OW 2986   5.234   4.212   3.258
  696SOL    HW1 2987   5.294   4.271   3.204
  696SOL    HW2 2988   5.214   4.257   3.345
  697SOL     OW 2989   0.810   4.060   1.685
  697SOL    HW1 2990   0.908   4.052   1.707
  697SOL    HW2 2991   0.799   4.064   1.585
  698SOL     OW 2992   5.076   6.782   1.004
  698SOL    HW1 2993   5.022   6.852   1.051
  698SOL    HW2 2994   5.119   6.822   0.923
  699SOL     OW 2995   2.365   3.211   6.840
  699SOL    HW1 2996   2.275   3.182   6.873
  699SOL    HW2 2997   2.358   3.240   6.744
  700SOL     OW 2998   3.162   6.987   2.468
  700SOL    HW1 2999   3.161   0.053   2.420
  700SOL    HW2 3000   3.148   6.914   2.402
  701SOL     OW 3001   6.195   4.610   0.818
  701SOL    HW1 3002   6.127   4.680   0.840
  701SOL    HW2 3003   6.163   4.521   0.850
  702SOL     OW 3004   2.740   0.685   4.646
  702SOL    HW1 3005   2.643   0.662   4.636
  702SOL    HW2 3006   2.779   0.631   4.720
  703SOL     OW 3007   2.866   3.150   5.610
  703SOL    HW1 3008   2.821   3.138   5.522
  703SOL    HW2 3009   2.897   3.245   5.620
  704SOL     OW 3010   1.130   3.146   6.392
  704SOL    HW1 3011   1.072   3.083   6.443
  704SOL    HW2 3012   1.224   3.139   6.425
  705SOL     OW 3013   6.635   6.413   4.296
  705SOL    HW1 3014   6.655   6.510   4.312
  705SOL    HW2 3015   6.672   6.387   4.207
  706SOL     OW 3016   4.135   1.167   5.477
  706SOL    HW1 3017   4.127   1.074   5.442
  706SOL    HW2 3018   4.044   1.205   5.493
  707SOL     OW 3019   4.034   5.466   3.318
  707SOL    HW1 3020   3.960   5.531   3.336
  707SOL    HW2 3021   4.098   5.466   3.395
  708SOL     OW 3022   3.236   0.913   3.447
  708SOL    HW1 3023   3.141   0.913   3.479
  708SOL    HW2 3024   3.247   0.976   3.371
  709SOL     OW 3025   1.627   6.741   1.665
  709SOL    HW1 3026   1.536   6.699   1.654
  709SOL    HW2 3027   1.641   6.764   1.761
  710SOL     OW 3028   4.839   2.727   1.577
  710SOL    HW1 3029   4.810   2.678   1.659
  710SOL    HW2 3030   4.857   2.822   1.600
  711SOL     OW 3031   0.199   2.946   5.632
  711SOL    HW1 3032   0.205   2.978   5.537
  711SOL    HW2 3033   0.112   2.899   5.645
  712SOL     OW 3034   4.236   3.177   1.317
  712SOL    HW1 3035   4.171   3.199   1.244
  712SOL    HW2 3036   4.240   3.253   1.382
  713SOL     OW 3037   4.274   2.704   5.298
  713SOL    HW1 3038   4.223   2.790   5.303
  713SOL    HW2 3039   4.210   2.629   5.277
  714SOL     OW 3040   5.906   4.803   3.379
  714SOL    HW1 3041   5.992   4.843   3.346
  714SOL    HW2 3042   5.926   4.715   3.423
  715SOL     OW 3043   6.458   5.121   5.677
  715SOL    HW1 3044   6.435   5.070   5.594
  715SOL    HW2 3045   6.524   5.193   5.654
  716SOL     OW 3046   2.021   1.135   2.544
  716SOL    HW1 3047   1.962   1.079   2.602
  716SOL    HW2 3048   1.967   1.208   2.502
  717SOL     OW 3049   5.998   4.606   3.948
  717SOL    HW1 3050   6.016   4.571   3.856
  717SOL    HW2 3051   6.084   4.615   3.998
  718SOL     OW 3052   4.482   2.344   4.319
  718SOL    HW1 3053   4.567   2.392   4.336
  718SOL    HW2 3054   4.438   2.322   4.407
  719SOL     OW 3055   6.665   0.486   2.569
  719SOL    HW1 3056   6.732   0.423   2.608
  719SOL    HW2 3057   6.702   0.525   2.484
  720SOL     OW 3058   1.681   0.616   6.000
  720SOL    HW1 3059   1.670   0.541   6.065
  720SOL    HW2 3060   1.766   0.665   6.019
  721SOL     OW 3061   0.718   2.209   2.118
  721SOL    HW1 3062   0.762   2.176   2.035
  721SOL    HW2 3063   0.775   2.187   2.197
  722SOL     OW 3064   4.385   0.392   6.354
  722SOL    HW1 3065   4.393   0.422   6.448
  722SOL    HW2 3066   4.343   0.464   6.299
  723SOL     OW 3067   2.626   5.939   3.723
  723SOL    HW1 3068   2.677   6.008   3.671
  723SOL    HW2 3069   2.553   5.902   3.665
  724SOL     OW 3070   0.832   0.995   3.179
  724SOL    HW1 3071   0.895   0.983   3.255
  724SOL    HW2 3072   0.864   0.941   3.100
  725SOL     OW 3073   2.575   4.626   2.074
  725SOL    HW1 3074   2.567   4.592   1.980
  725SOL    HW2 3075   2.661   4.676   2.084
  726SOL     OW 3076   2.760   5.088   0.480
  726SOL    HW1 3077   2.750   5.182   0.512
  726SOL    HW2 3078   2.857   5.066   0.467
  727SOL     OW 3079   4.784   5.215   6.433
  727SOL    HW1 3080   4.825   5.168   6.355
  727SOL    HW2 3081   4.714   5.278   6.401
  728SOL     OW 3082   0.067   3.122   4.561
  728SOL    HW1 3083   7.016   3.188   4.551
  728SOL    HW2 3084   0.114   3.137   4.648
  729SOL     OW 3085   0.132   2.849   0.835
  729SOL    HW1 3086   0.064   2.848   0.908
  729SOL    HW2 3087   0.134   2.760   0.790
  730SOL     OW 3088   5.162   0.464   3.201
  730SOL    HW1 3089   5.173   0.562   3.218
  730SOL    HW2 3090   5.078   0.449   3.149
  731SOL     OW 3091   4.636   4.039   6.444
  731SOL    HW1 3092   4.629   3.940   6.459
  731SOL    HW2 3093   4.582   4.086   6.514
  732SOL     OW 3094   5.234   2.002   2.616
  732SOL    HW1 3095   5.227   1.918   2.670
  732SOL    HW2 3096   5.308   2.059   2.652
  733SOL     OW 3097   5.708   6.894   3.937
  733SOL    HW1 3098   5.627   6.927   3.888
  733SOL    HW2 3099   5.680   6.856   4.026
  734SOL     OW 3100   6.439   4.573   2.607
  734SOL    HW1 3101   6.479   4.482   2.618
  734SOL    HW2 3102   6.393   4.599   2.692
  735SOL     OW 3103   5.674   0.560   1.539
  735SOL    HW1 3104   5.746   0.493   1.522
  735SOL    HW2 3105   5.702   0.620   1.614
  736SOL     OW 3106   1.571   1.640   4.047
  736SOL    HW1 3107   1.522   1.556   4.067
  736SOL    HW2 3108   1.558   1.664   3.951
  737SOL     OW 3109   5.699   1.542   5.659
  737SOL    HW1 3110   5.706   1.479   5.737
  737SOL    HW2 3111   5.605   1.573   5.650
  738SOL     OW 3112   2.912   4.029   0.983
  738SOL    HW1 3113   2.959   3.943   0.964
  738SOL    HW2 3114   2.960   4.078   1.055
  739SOL     OW 3115   3.079   6.686   5.187
  739SOL    HW1 3116   3.099   6.772   5.233
  739SOL    HW2 3117   3.118   6.610   5.239
  740SOL     OW 3118   5.544   1.945   3.104
  740SOL    HW1 3119   5.640   1.936   3.132
  740SOL    HW2 3120   5.537   2.012   3.030
  741SOL     OW 3121   2.265   0.803   4.845
  741SOL    HW1 3122   2.293   0.848   4.760
  741SOL    HW2 3123   2.184   0.850   4.882
  742SOL     OW 3124   1.315   6.030   0.709
  742SOL    HW1 3125   1.233   5.974   0.719
  742SOL    HW2 3126   1.373   6.019   0.789
  743SOL     OW 3127   0.652   6.379   3.627
  743SOL    HW1 3128   0.704   6.420   3.553
  743SOL    HW2 3129   0.639   6.447   3.700
  744SOL     OW 3130   6.547   1.126   0.693
  744SOL    HW1 3131   6.559   1.163   0.601
  744SOL    HW2 3132   6.461   1.076   0.699
  745SOL     OW 3133   1.755   5.617   5.078
  745SOL    HW1 3134   1.676   5.670   5.046
  745SOL    HW2 3135   1.824   5.613   5.006
  746SOL     OW 3136   5.270   4.006   5.087
  746SOL    HW1 3137   5.176   4.024   5.058
  746SOL    HW2 3138   5.333   4.044   5.020
  747SOL     OW 3139   5.323   5.357   3.513
  747SOL    HW1 3140   5.378   5.391   3.437
  747SOL    HW2 3141   5.243   5.308   3.478
  748SOL     OW 3142   4.876   5.001   2.662
  748SOL    HW1 3143   4.898   5.085   2.711
  748SOL    HW2 3144   4.894   5.014   2.564
  749SOL     OW 3145   4.954   3.449   3.588
  749SOL    HW1 3146   4.916   3.370   3.539
  749SOL    HW2 3147   5.036   3.420   3.638
  750SOL     OW 3148   2.515   1.351   1.272
  750SOL    HW1 3149   2.484   1.374   1.364
  750SOL    HW2 3150   2.614   1.334   1.273
  751SOL     OW 3151   5.104   2.402   0.682
  751SOL    HW1 3152   5.163   2.450   0.747
  751SOL    HW2 3153   5.093   2.459   0.600
  752SOL     OW 3154   3.507   2.266   5.679
  752SOL    HW1 3155   3.479   2.240   5.772
  752SOL    HW2 3156   3.595   2.313   5.683
  753SOL     OW 3157   3.376   3.528   5.260
  753SOL    HW1 3158   3.316   3.449   5.243
  753SOL    HW2 3159   3.462   3.497   5.301
  754SOL     OW 3160   6.058   0.964   6.405
  754SOL    HW1 3161   6.120   0.994   6.478
  754SOL    HW2 3162   5.981   0.915   6.446
  755SOL     OW 3163   3.001   4.262   5.273
  755SOL    HW1 3164   3.095   4.260   5.307
  755SOL    HW2 3165   2.974   4.356   5.252
  756SOL     OW 3166   2.939   5.083   6.820
  756SOL    HW1 3167   2.934   4.986   6.793
  756SOL    HW2 3168   2.935   5.090   6.920
  757SOL     OW 3169   2.101   6.670   2.438
  757SOL    HW1 3170   2.118   6.572   2.455
  757SOL    HW2 3171   2.032   6.679   2.366
  758SOL     OW 3172   4.157   1.369   3.740
  758SOL    HW1 3173   4.240   1.340   3.787
  758SOL    HW2 3174   4.177   1.449   3.683
  759SOL     OW 3175   6.963   2.848   3.266
  759SOL    HW1 3176   7.000   2.757   3.286
  759SOL    HW2 3177   7.020   2.892   3.196
  760SOL     OW 3178   6.623   6.486   3.829
  760SOL    HW1 3179   6.546   6.446   3.779
  760SOL    HW2 3180   6.685   6.530   3.764
  761SOL     OW 3181   5.284   4.236   5.441
  761SOL    HW1 3182   5.189   4.241   5.474
  761SOL    HW2 3183   5.343   4.207   5.516
  762SOL     OW 3184   3.001   6.242   5.779
  762SOL    HW1 3185   2.987   6.331   5.823
  762SOL    HW2 3186   2.931   6.228   5.709
  763SOL     OW 3187   5.419   0.396   6.872
  763SOL    HW1 3188   5.404   0.491   6.843
  763SOL    HW2 3189   5.482   0.351   6.808
  764SOL     OW 3190   5.710   1.100   5.619
  764SOL    HW1 3191   5.725   1.005   5.646
  764SOL    HW2 3192   5.651   1.145   5.686
  765SOL     OW 3193   0.864   6.843   0.710
  765SOL    HW1 3194   0.877   6.883   0.801
  765SOL    HW2 3195   0.950   6.805   0.678
  766SOL     OW 3196   2.507   2.047   5.089
  766SOL    HW1 3197   2.568   1.993   5.032
  766SOL    HW2 3198   2.413   2.041   5.053
  767SOL     OW 3199   6.729   6.703   3.702
  767SOL    HW1 3200   6.630   6.711   3.691
  767SOL    HW2 3201   6.767   6.648   3.627
  768SOL     OW 3202   2.350   6.096   2.693
  768SOL    HW1 3203   2.361   6.195   2.685
  768SOL    HW2 3204   2.397   6.063   2.775
  769SOL     OW 3205   3.653   1.812   5.474
  769SOL    HW1 3206   3.690   1.858   5.556
  769SOL    HW2 3207   3.715   1.827   5.397
  770SOL     OW 3208   1.983   5.279   4.236
  770SOL    HW1 3209   1.891   5.281   4.276
  770SOL    HW2 3210   1.996   5.193   4.187
  771SOL     OW 3211   1.262   5.117   3.374
  771SOL    HW1 3212   1.264   5.195   3.311
  771SOL    HW2 3213   1.355   5.092   3.400
  772SOL     OW 3214   5.391   4.926   0.114
  772SOL    HW1 3215   5.306   4.898   0.069
  772SOL    HW2 3216   5.407   5.023   0.096
  773SOL     OW 3217   1.354   3.710   3.398
  773SOL    HW1 3218   1.375   3.617   3.369
  773SOL    HW2 3219   1.260   3.733   3.372
  774SOL     OW 3220   2.266   2.036   4.009
  774SOL    HW1 3221   2.346   2.048   4.068
  774SOL    HW2 3222   2.236   1.941   4.012
  775SOL     OW 3223   2.182   3.805   4.156
  775SOL    HW1 3224   2.264   3.862   4.163
  775SOL    HW2 3225   2.195   3.722   4.210
  776SOL     OW 3226   0.823   6.685   6.085
  776SOL    HW1 3227   0.815   6.688   6.185
  776SOL    HW2 3228   0.884   6.758   6.054
  777SOL     OW 3229   1.719   3.748   0.216
  777SOL    HW1 3230   1.664   3.708   0.290
  777SOL    HW2 3231   1.699   3.846   0.209
  778SOL     OW 3232   3.416   6.825   1.772
  778SOL    HW1 3233   3.370   6.817   1.860
  778SOL    HW2 3234   3.364   6.887   1.713
  779SOL     OW 3235   0.556   2.957   2.185
  779SOL    HW1 3236   0.551   3.002   2.096
  779SOL    HW2 3237   0.642   2.907   2.193
  780SOL     OW 3238   1.438   1.988   4.617
  780SOL    HW1 3239   1.445   1.908   4.676
  780SOL    HW2 3240   1.448   1.960   4.522
  781SOL     OW 3241   0.203   4.620   0.466
  781SOL    HW1 3242   0.155   4.702   0.496
  781SOL    HW2 3243   0.167   4.592   0.377
  782SOL     OW 3244   1.412   3.995   5.566
  782SOL    HW1 3245   1.402   3.957   5.473
  782SOL    HW2 3246   1.506   4.024   5.580
  783SOL     OW 3247   5.316   4.674   6.350
  783SOL    HW1 3248   5.340   4.631   6.437
  783SOL    HW2 3249   5.227   4.640   6.319
  784SOL     OW 3250   2.857   6.120   2.006
  784SOL    HW1 3251   2.789   6.163   1.947
  784SOL    HW2 3252   2.816   6.099   2.094
  785SOL     OW 3253   1.095   0.269   4.223
  785SOL    HW1 3254   1.144   0.284   4.137
  785SOL    HW2 3255   1.001   0.303   4.215
  786SOL     OW 3256   6.515   0.829   3.674
  786SOL    HW1 3257   6.506   0.902   3.605
  786SOL    HW2 3258   6.611   0.804   3.683
  787SOL     OW 3259   2.487   0.631   6.936
  787SOL    HW1 3260   2.485   0.721   6.980
  787SOL    HW2 3261   2.438   0.565   6.994
  788SOL     OW 3262   3.895   2.960   1.483
  788SOL    HW1 3263   3.891   3.029   1.556
  788SOL    HW2 3264   3.802   2.928   1.463
  789SOL     OW 3265   4.488   5.388   1.951
  789SOL    HW1 3266   4.493   5.412   2.048
  789SOL    HW2 3267   4.576   5.354   1.920
  790SOL     OW 3268   0.864   2.927   1.868
  790SOL    HW1 3269   0.891   2.831   1.878
  790SOL    HW2 3270   0.861   2.971   1.958
  791SOL     OW 3271   2.635   5.428   5.225
  791SOL    HW1 3272   2.660   5.395   5.316
  791SOL    HW2 3273   2.617   5.350   5.165
  792SOL     OW 3274   0.768   1.349   0.528
  792SOL    HW1 3275   0.794   1.264   0.573
  792SOL    HW2 3276   0.714   1.405   0.591
  793SOL     OW 3277   4.150   5.820   3.572
  793SOL    HW1 3278   4.102   5.828   3.485
  793SOL    HW2 3279   4.178   5.911   3.604
  794SOL     OW 3280   2.910   3.641   3.836
  794SOL    HW1 3281   2.903   3.639   3.736
  794SOL    HW2 3282   2.926   3.735   3.866
  795SOL     OW 3283   3.670   0.723   6.153
  795SOL    HW1 3284   3.695   0.632   6.119
  795SOL    HW2 3285   3.715   0.793   6.098
  796SOL     OW 3286   1.344   3.043   6.605
  796SOL    HW1 3287   1.312   2.950   6.623
  796SOL    HW2 3288   1.271   3.108   6.628
  797SOL     OW 3289   4.597   0.106   1.098
  797SOL    HW1 3290   4.562   0.032   1.041
  797SOL    HW2 3291   4.652   0.168   1.042
  798SOL     OW 3292   2.851   6.222   1.415
  798SOL    HW1 3293   2.942   6.263   1.408
  798SOL    HW2 3294   2.860   6.125   1.438
  799SOL     OW 3295   0.853   2.171   6.442
  799SOL    HW1 3296   0.952   2.158   6.439
  799SOL    HW2 3297   0.808   2.082   6.430
  800SOL     OW 3298   6.029   1.110   1.886
  800SOL    HW1 3299   6.034   1.209   1.876
  800SOL    HW2 3300   6.030   1.067   1.795
  801SOL     OW 3301   1.903   5.568   5.756
  801SOL    HW1 3302   1.945   5.486   5.717
  801SOL    HW2 3303   1.970   5.643   5.755
  802SOL     OW 3304   5.660   2.099   6.887
  802SOL    HW1 3305   5.568   2.134   6.901
  802SOL    HW2 3306   5.676   2.082   6.790
  803SOL     OW 3307   2.725   0.666   5.766
  803SOL    HW1 3308   2.721   0.748   5.709
  803SOL    HW2 3309   2.796   0.605   5.731
  804SOL     OW 3310   6.145   0.226   1.787
  804SOL    HW1 3311   6.143   0.316   1.744
  804SOL    HW2 3312   6.051   0.198   1.811
  805SOL     OW 3313   2.573   0.826   3.375
  805SOL    HW1 3314   2.539   0.878   3.297
  805SOL    HW2 3315   2.604   0.889   3.446
  806SOL     OW 3316   0.858   6.860   5.201
  806SOL    HW1 3317   0.925   6.896   5.136
  806SOL    HW2 3318   0.771   6.908   5.188
  807SOL     OW 3319   0.976   6.230   4.921
  807SOL    HW1 3320   0.895   6.273   4.880
  807SOL    HW2 3321   0.983   6.257   5.017
  808SOL     OW 3322   5.858   2.975   0.616
  808SOL    HW1 3323   5.791   3.018   0.555
  808SOL    HW2 3324   5.886   2.886   0.578
  809SOL     OW 3325   0.505   4.886   0.038
  809SOL    HW1 3326   0.604   4.899   0.048
  809SOL    HW2 3327   0.457   4.955   0.092
  810SOL     OW 3328   2.650   3.508   0.407
  810SOL    HW1 3329   2.615   3.415   0.393
  810SOL    HW2 3330   2.655   3.555   0.319
  811SOL     OW 3331   5.372   5.106   5.066
  811SOL    HW1 3332   5.380   5.164   4.985
  811SOL    HW2 3333   5.297   5.139   5.123
  812SOL     OW 3334   0.892   2.170   2.315
  812SOL    HW1 3335   0.943   2.084   2.316
  812SOL    HW2 3336   0.952   2.244   2.281
  813SOL     OW 3337   2.173   1.120   4.618
  813SOL    HW1 3338   2.238   1.124   4.542
  813SOL    HW2 3339   2.219   1.143   4.703
  814SOL     OW 3340   0.180   5.543   2.946
  814SOL    HW1 3341   0.219   5.457   2.982
  814SOL    HW2 3342   0.253   5.611   2.937
  815SOL     OW 3343   4.980   2.211   3.723
  815SOL    HW1 3344   4.943   2.300   3.697
  815SOL    HW2 3345   4.962   2.194   3.820
  816SOL     OW 3346   4.442   3.923   0.413
  816SOL    HW1 3347   4.430   3.870   0.498
  816SOL    HW2 3348   4.506   3.998   0.429
  817SOL     OW 3349   0.884   5.398   1.088
  817SOL    HW1 3350   0.976   5.369   1.062
  817SOL    HW2 3351   0.817   5.339   1.043
  818SOL     OW 3352   5.801   2.596   3.510
  818SOL    HW1 3353   5.783   2.565   3.603
  818SOL    HW2 3354   5.889   2.561   3.479
  819SOL     OW 3355   5.870   2.387   1.642
  819SOL    HW1 3356   5.900   2.319   1.576
  819SOL    HW2 3357   5.804   2.346   1.705
  820SOL     OW 3358   2.406   1.974   4.241
  820SOL    HW1 3359   2.440   1.881   4.229
  820SOL    HW2 3360   2.324   1.973   4.298
  821SOL     OW 3361   6.010   4.092   4.781
  821SOL    HW1 3362   5.985   4.021   4.714
  821SOL    HW2 3363   5.969   4.070   4.869
  822SOL     OW 3364   0.777   4.311   3.444
  822SOL    HW1 3365   0.764   4.410   3.444
  822SOL    HW2 3366   0.738   4.273   3.528
  823SOL     OW 3367   1.149   3.344   5.703
  823SOL    HW1 3368   1.222   3.338   5.770
  823SOL    HW2 3369   1.100   3.431   5.714
  824SOL     OW 3370   5.376   1.190   5.084
  824SOL    HW1 3371   5.472   1.201   5.056
  824SOL    HW2 3372   5.371   1.124   5.159
  825SOL     OW 3373   5.965   6.321   0.667
  825SOL    HW1 3374   6.040   6.342   0.730
  825SOL    HW2 3375   5.938   6.225   0.678
  826SOL     OW 3376   3.901   1.414   5.818
  826SOL    HW1 3377   3.998   1.424   5.797
  826SOL    HW2 3378   3.857   1.503   5.817
  827SOL     OW 3379   3.108   3.965   4.461
  827SOL    HW1 3380   3.109   3.877   4.508
  827SOL    HW2 3381   3.187   4.019   4.490
  828SOL     OW 3382   6.179   5.314   4.236
  828SOL    HW1 3383   6.130   5.353   4.158
  828SOL    HW2 3384   6.267   5.279   4.206
  829SOL     OW 3385   3.429   2.830   2.399
  829SOL    HW1 3386   3.447   2.801   2.305
  829SOL    HW2 3387   3.499   2.893   2.429
  830SOL     OW 3388   6.066   4.667   6.824
  830SOL    HW1 3389   6.165   4.678   6.824
  830SOL    HW2 3390   6.029   4.692   6.734
  831SOL     OW 3391   5.321   6.122   1.385
  831SOL    HW1 3392   5.345   6.060   1.460
  831SOL    HW2 3393   5.223   6.117   1.367
  832SOL     OW 3394   3.977   1.448   4.898
  832SOL    HW1 3395   3.890   1.412   4.866
  832SOL    HW2 3396   4.025   1.377   4.949
  833SOL     OW 3397   1.183   3.926   6.184
  833SOL    HW1 3398   1.260   3.873   6.147
  833SOL    HW2 3399   1.216   4.014   6.216
  834SOL     OW 3400   4.585   3.657   6.788
  834SOL    HW1 3401   4.539   3.632   6.873
  834SOL    HW2 3402   4.682   3.631   6.792
  835SOL     OW 3403   1.642   0.226   4.178
  835SOL    HW1 3404   1.602   0.301   4.231
  835SOL    HW2 3405   1.636   0.141   4.230
  836SOL     OW 3406   3.422   2.079   5.481
  836SOL    HW1 3407   3.441   2.130   5.565
  836SOL    HW2 3408   3.383   1.990   5.505
  837SOL     OW 3409   1.539   0.438   1.343
  837SOL    HW1 3410   1.499   0.503   1.408
  837SOL    HW2 3411   1.468   0.374   1.313
  838SOL     OW 3412   2.432   5.611   4.089
  838SOL    HW1 3413   2.495   5.633   4.015
  838SOL    HW2 3414   2.338   5.621   4.056
  839SOL     OW 3415   2.278   1.094   0.848
  839SOL    HW1 3416   2.247   1.175   0.899
  839SOL    HW2 3417   2.376   1.082   0.863
  840SOL     OW 3418   6.014   5.408   6.656
  840SOL    HW1 3419   5.988   5.376   6.564
  840SOL    HW2 3420   5.932   5.412   6.713
  841SOL     OW 3421   4.432   5.346   5.751
  841SOL    HW1 3422   4.391   5.285   5.684
  841SOL    HW2 3423   4.472   5.425   5.705
  842SOL     OW 3424   3.131   6.956   6.656
  842SOL    HW1 3425   3.172   7.012   6.728
  842SOL    HW2 3426   3.032   6.953   6.668
  843SOL     OW 3427   1.544   1.832   1.392
  843SOL    HW1 3428   1.484   1.768   1.441
  843SOL    HW2 3429   1.634   1.834   1.436
  844SOL     OW 3430   0.439   6.708   1.401
  844SOL    HW1 3431   0.412   6.718   1.305
  844SOL    HW2 3432   0.525   6.756   1.416
  845SOL     OW 3433   4.045   1.817   2.688
  845SOL    HW1 3434   3.992   1.739   2.655
  845SOL    HW2 3435   4.057   1.883   2.614
  846SOL     OW 3436   2.860   1.249   6.571
  846SOL    HW1 3437   2.780   1.190   6.567
  846SOL    HW2 3438   2.833   1.343   6.546
  847SOL     OW 3439   2.506   3.442   1.625
  847SOL    HW1 3440   2.471   3.479   1.711
  847SOL    HW2 3441   2.511   3.342   1.632
  848SOL     OW 3442   5.935   6.783   5.964
  848SOL    HW1 3443   5.845   6.823   5.945
  848SOL    HW2 3444   5.934   6.685   5.941
  849SOL     OW 3445   5.670   3.700   0.206
  849SOL    HW1 3446   5.609   3.697   0.285
  849SOL    HW2 3447   5.762   3.675   0.234
  850SOL     OW 3448   6.334   0.881   4.930
  850SOL    HW1 3449   6.283   0.904   4.847
  850SOL    HW2 3450   6.320   0.784   4.952
  851SOL     OW 3451   6.524   3.265   0.026
  851SOL    HW1 3452   6.482   3.263   0.117
  851SOL    HW2 3453   6.508   3.177   7.003
  852SOL     OW 3454   6.749   4.289   1.043
  852SOL    HW1 3455   6.706   4.373   1.010
  852SOL    HW2 3456   6.849   4.300   1.043
  853SOL     OW 3457   2.002   4.361   0.475
  853SOL    HW1 3458   1.962   4.391   0.562
  853SOL    HW2 3459   1.956   4.277   0.445
  854SOL     OW 3460   6.154   6.411   0.023
  854SOL    HW1 3461   6.069   6.359   0.020
  854SOL    HW2 3462   6.142   6.492   0.081
  855SOL     OW 3463   0.117   0.775   0.162
  855SOL    HW1 3464   0.098   0.816   0.251
  855SOL    HW2 3465   0.031   0.744   0.121
  856SOL     OW 3466   1.915   6.642   6.541
  856SOL    HW1 3467   1.985   6.584   6.500
  856SOL    HW2 3468   1.909   6.729   6.491
  857SOL     OW 3469   0.101   4.341   3.369
  857SOL    HW1 3470   0.100   4.241   3.378
  857SOL    HW2 3471   0.012   4.373   3.340
  858SOL     OW 3472   3.623   3.498   0.698
  858SOL    HW1 3473   3.590   3.592   0.697
  858SOL    HW2 3474   3.615   3.458   0.607
  859SOL     OW 3475   4.779   6.144   5.563
  859SOL    HW1 3476   4.821   6.170   5.650
  859SOL    HW2 3477   4.681   6.165   5.566
  860SOL     OW 3478   5.481   2.811   5.610
  860SOL    HW1 3479   5.464   2.784   5.705
  860SOL    HW2 3480   5.396   2.802   5.557
  861SOL     OW 3481   2.197   5.405   2.838
  861SOL    HW1 3482   2.163   5.486   2.792
  861SOL    HW2 3483   2.127   5.333   2.836
  862SOL     OW 3484   1.881   4.580   3.735
  862SOL    HW1 3485   1.905   4.624   3.821
  862SOL    HW2 3486   1.917   4.487   3.734
  863SOL     OW 3487   6.724   0.030   5.793
  863SOL    HW1 3488   6.656   0.093   5.829
  863SOL    HW2 3489   6.798   0.082   5.750
  864SOL     OW 3490   4.369   6.780   5.965
  864SOL    HW1 3491   4.313   6.856   5.995
  864SOL    HW2 3492   4.400   6.728   6.044
  865SOL     OW 3493   2.201   5.929   4.825
  865SOL    HW1 3494   2.101   5.934   4.833
  865SOL    HW2 3495   2.226   5.840   4.786
  866SOL     OW 3496   2.630   6.961   0.600
  866SOL    HW1 3497   2.678   0.007   0.654
  866SOL    HW2 3498   2.595   6.889   0.660
  867SOL     OW 3499   6.005   2.216   0.882
  867SOL    HW1 3500   5.912   2.240   0.853
  867SOL    HW2 3501   6.059   2.188   0.803
  868SOL     OW 3502   0.693   1.943   2.200
  868SOL    HW1 3503   0.753   1.863   2.190
  868SOL    HW2 3504   0.730   2.019   2.145
  869SOL     OW 3505   6.920   3.800   3.907
  869SOL    HW1 3506   6.902   3.771   4.001
  869SOL    HW2 3507   6.986   3.875   3.907
  870SOL     OW 3508   3.508   5.080   1.643
  870SOL    HW1 3509   3.587   5.043   1.594
  870SOL    HW2 3510   3.451   5.005   1.676
  871SOL     OW 3511   4.661   2.159   4.260
  871SOL    HW1 3512   4.669   2.132   4.164
  871SOL    HW2 3513   4.586   2.225   4.270
  872SOL     OW 3514   6.811   2.105   4.737
  872SOL    HW1 3515   6.826   2.110   4.638
  872SOL    HW2 3516   6.719   2.138   4.759
  873SOL     OW 3517   4.949   6.578   5.787
  873SOL    HW1 3518   5.032   6.572   5.842
  873SOL    HW2 3519   4.906   6.667   5.802
  874SOL     OW 3520   6.252   4.122   6.676
  874SOL    HW1 3521   6.247   4.220   6.658
  874SOL    HW2 3522   6.282   4.107   6.771
  875SOL     OW 3523   5.616   5.151   1.050
  875SOL    HW1 3524   5.607   5.158   1.150
  875SOL    HW2 3525   5.623   5.054   1.025
  876SOL     OW 3526   0.585   5.449   2.068
  876SOL    HW1 3527   0.680   5.477   2.085
  876SOL    HW2 3528   0.563   5.461   1.971
  877SOL     OW 3529   2.967   4.812   6.770
  877SOL    HW1 3530   2.881   4.801   6.820
  877SOL    HW2 3531   2.947   4.836   6.675
  878SOL     OW 3532   4.281   6.815   4.202
  878SOL    HW1 3533   4.183   6.818   4.222
  878SOL    HW2 3534   4.329   6.875   4.266
  879SOL     OW 3535   3.828   0.441   1.594
  879SOL    HW1 3536   3.848   0.525   1.545
  879SOL    HW2 3537   3.892   0.430   1.669
  880SOL     OW 3538   3.396   4.135   3.652
  880SOL    HW1 3539   3.442   4.140   3.564
  880SOL    HW2 3540   3.464   4.131   3.725
  881SOL     OW 3541   4.499   2.607   5.206
  881SOL    HW1 3542   4.530   2.653   5.123
  881SOL    HW2 3543   4.404   2.633   5.225
  882SOL     OW 3544   0.966   3.431   4.569
  882SOL    HW1 3545   0.887   3.492   4.562
  882SOL    HW2 3546   1.045   3.475   4.528
  883SOL     OW 3547   2.786   0.671   2.475
  883SOL    HW1 3548   2.759   0.754   2.524
  883SOL    HW2 3549   2.843   0.696   2.396
  884SOL     OW 3550   5.059   2.920   5.593
  884SOL    HW1 3551   4.974   2.870   5.574
  884SOL    HW2 3552   5.061   3.004   5.539
  885SOL     OW 3553   3.156   1.096   5.833
  885SOL    HW1 3554   3.199   1.092   5.743
  885SOL    HW2 3555   3.078   1.035   5.836
  886SOL     OW 3556   3.708   0.282   0.053
  886SOL    HW1 3557   3.620   0.238   0.070
  886SOL    HW2 3558   3.703   0.334   6.990
  887SOL     OW 3559   4.062   6.948   4.002
  887SOL    HW1 3560   4.041   6.950   4.100
  887SOL    HW2 3561   4.006   7.016   3.955
  888SOL     OW 3562   0.639   5.837   2.700
  888SOL    HW1 3563   0.582   5.835   2.619
  888SOL    HW2 3564   0.712   5.769   2.693
  889SOL     OW 3565   0.653   3.967   0.632
  889SOL    HW1 3566   0.662   3.876   0.674
  889SOL    HW2 3567   0.666   4.037   0.701
  890SOL     OW 3568   2.031   4.989   3.640
  890SOL    HW1 3569   2.099   5.053   3.675
  890SOL    HW2 3570   2.014   5.009   3.543
  891SOL     OW 3571   5.544   5.776   0.663
  891SOL    HW1 3572   5.573   5.821   0.578
  891SOL    HW2 3573   5.452   5.738   0.651
  892SOL     OW 3574   2.578   3.698   5.532
  892SOL    HW1 3575   2.615   3.751   5.455
  892SOL    HW2 3576   2.531   3.760   5.595
  893SOL     OW 3577   2.573   6.959   3.070
  893SOL    HW1 3578   2.627   0.014   3.105
  893SOL    HW2 3579   2.616   6.874   3.100
  894SOL     OW 3580   0.916   3.239   1.473
  894SOL    HW1 3581   0.977   3.285   1.409
  894SOL    HW2 3582   0.869   3.306   1.530
  895SOL     OW 3583   0.519   4.087   3.221
  895SOL    HW1 3584   0.455   4.156   3.186
  895SOL    HW2 3585   0.498   3.998   3.180
  896SOL     OW 3586   5.934   4.875   0.535
  896SOL    HW1 3587   5.951   4.839   0.443
  896SOL    HW2 3588   5.841   4.851   0.564
  897SOL     OW 3589   4.746   1.263   0.188
  897SOL    HW1 3590   4.818   1.194   0.198
  897SOL    HW2 3591   4.688   1.240   0.110
  898SOL     OW 3592   3.292   6.246   2.622
  898SOL    HW1 3593   3.292   6.169   2.687
  898SOL    HW2 3594   3.205   6.294   2.629
  899SOL     OW 3595   0.202   5.919   6.588
  899SOL    HW1 3596   0.250   6.002   6.558
  899SOL    HW2 3597   0.131   5.943   6.654
  900SOL     OW 3598   6.138   6.626   0.186
  900SOL    HW1 3599   6.065   6.679   0.141
  900SOL    HW2 3600   6.196   6.687   0.239
  901SOL     OW 3601   2.213   1.021   3.001
  901SOL    HW1 3602   2.142   0.953   2.983
  901SOL    HW2 3603   2.175   1.113   2.989
  902SOL     OW 3604   6.828   2.905   0.746
  902SOL    HW1 3605   6.910   2.920   0.690
  902SOL    HW2 3606   6.833   2.815   0.789
  903SOL     OW 3607   6.765   2.115   6.691
  903SOL    HW1 3608   6.814   2.036   6.728
  903SOL    HW2 3609   6.675   2.122   6.734
  904SOL     OW 3610   2.746   2.391   3.288
  904SOL    HW1 3611   2.659   2.378   3.335
  904SOL    HW2 3612   2.821   2.381   3.354
  905SOL     OW 3613   5.070   2.150   0.082
  905SOL    HW1 3614   5.122   2.168   7.022
  905SOL    HW2 3615   5.081   2.226   0.146
  906SOL     OW 3616   0.277   2.309   5.792
  906SOL    HW1 3617   0.358   2.283   5.741
  906SOL    HW2 3618   0.234   2.227   5.831
  907SOL     OW 3619   5.089   3.615   0.081
  907SOL    HW1 3620   5.125   3.695   0.129
  907SOL    HW2 3621   4.998   3.593   0.117
  908SOL     OW 3622   2.684   4.915   2.750
  908SOL    HW1 3623   2.671   4.965   2.664
  908SOL    HW2 3624   2.775   4.875   2.752
  909SOL     OW 3625   4.408   5.805   0.763
  909SOL    HW1 3626   4.330   5.815   0.700
  909SOL    HW2 3627   4.470   5.736   0.727
  910SOL     OW 3628   3.202   2.741   1.247
  910SOL    HW1 3629   3.236   2.648   1.258
  910SOL    HW2 3630   3.114   2.750   1.295
  911SOL     OW 3631   1.187   6.142   6.755
  911SOL    HW1 3632   1.221   6.210   6.820
  911SOL    HW2 3633   1.089   6.155   6.741
  912SOL     OW 3634   5.606   2.218   2.943
  912SOL    HW1 3635   5.690   2.197   2.893
  912SOL    HW2 3636   5.627   2.281   3.019
  913SOL     OW 3637   4.730   5.858   2.870
  913SOL    HW1 3638   4.795   5.795   2.828
  913SOL    HW2 3639   4.727   5.943   2.817
  914SOL     OW 3640   1.699   0.355   6.221
  914SOL    HW1 3641   1.673   0.289   6.150
  914SOL    HW2 3642   1.729   0.305   6.302
  915SOL     OW 3643   6.070   4.261   6.180
  915SOL    HW1 3644   6.154   4.217   6.212
  915SOL    HW2 3645   6.068   4.261   6.080
  916SOL     OW 3646   1.532   2.594   1.834
  916SOL    HW1 3647   1.565   2.688   1.845
  916SOL    HW2 3648   1.449   2.594   1.779
  917SOL     OW 3649   6.933   6.228   0.667
  917SOL    HW1 3650   7.017   6.282   0.675
  917SOL    HW2 3651   6.855   6.290   0.659
  918SOL     OW 3652   3.011   6.939   0.364
  918SOL    HW1 3653   3.026   6.982   0.453
  918SOL    HW2 3654   3.092   6.885   0.338
  919SOL     OW 3655   5.412   1.205   2.960
  919SOL    HW1 3656   5.326   1.188   3.008
  919SOL    HW2 3657   5.473   1.126   2.972
  920SOL     OW 3658   1.888   4.861   1.741
  920SOL    HW1 3659   1.940   4.928   1.688
  920SOL    HW2 3660   1.948   4.818   1.808
  921SOL     OW 3661   5.047   5.435   4.613
  921SOL    HW1 3662   5.101   5.357   4.646
  921SOL    HW2 3663   4.956   5.403   4.588
  922SOL     OW 3664   3.506   3.656   4.475
  922SOL    HW1 3665   3.540   3.715   4.402
  922SOL    HW2 3666   3.494   3.563   4.441
  923SOL     OW 3667   2.377   2.692   5.951
  923SOL    HW1 3668   2.440   2.632   5.902
  923SOL    HW2 3669   2.400   2.787   5.931
  924SOL     OW 3670   6.380   3.794   2.111
  924SOL    HW1 3671   6.384   3.830   2.204
  924SOL    HW2 3672   6.462   3.739   2.094
  925SOL     OW 3673   6.481   2.486   0.167
  925SOL    HW1 3674   6.453   2.578   0.193
  925SOL    HW2 3675   6.557   2.456   0.226
  926SOL     OW 3676   6.826   1.690   0.902
  926SOL    HW1 3677   6.804   1.607   0.952
  926SOL    HW2 3678   6.747   1.751   0.902
  927SOL     OW 3679   5.877   3.928   3.554
  927SOL    HW1 3680   5.813   3.904   3.482
  927SOL    HW2 3681   5.828   3.973   3.629
  928SOL     OW 3682   2.665   6.333   0.521
  928SOL    HW1 3683   2.704   6.385   0.445
  928SOL    HW2 3684   2.665   6.235   0.497
  929SOL     OW 3685   6.888   0.714   0.035
  929SOL    HW1 3686   6.905   0.625   0.078
  929SOL    HW2 3687   6.865   0.701   6.962
  930SOL     OW 3688   4.354   5.496   6.489
  930SOL    HW1 3689   4.285   5.440   6.444
  930SOL    HW2 3690   4.434   5.440   6.510
  931SOL     OW 3691   6.306   2.143   3.935
  931SOL    HW1 3692   6.276   2.148   4.030
  931SOL    HW2 3693   6.266   2.062   3.891
  932SOL     OW 3694   3.265   1.531   3.795
  932SOL    HW1 3695   3.289   1.478   3.714
  932SOL    HW2 3696   3.168   1.553   3.794
  933SOL     OW 3697   1.512   4.431   2.811
  933SOL    HW1 3698   1.558   4.520   2.802
  933SOL    HW2 3699   1.501   4.391   2.720
  934SOL     OW 3700   2.523   5.988   6.156
  934SOL    HW1 3701   2.491   5.901   6.195
  934SOL    HW2 3702   2.580   5.970   6.077
  935SOL     OW 3703   5.161   3.933   3.344
  935SOL    HW1 3704   5.170   4.030   3.319
  935SOL    HW2 3705   5.157   3.877   3.261
  936SOL     OW 3706   1.578   0.103   6.105
  936SOL    HW1 3707   1.496   0.084   6.159
  936SOL    HW2 3708   1.652   0.043   6.135
  937SOL     OW 3709   4.776   1.429   5.808
  937SOL    HW1 3710   4.869   1.408   5.838
  937SOL    HW2 3711   4.762   1.396   5.715
  938SOL     OW 3712   6.914   6.132   3.852
  938SOL    HW1 3713   6.828   6.093   3.886
  938SOL    HW2 3714   6.989   6.105   3.912
  939SOL     OW 3715   6.936   6.924   4.565
  939SOL    HW1 3716   6.928   6.843   4.507
  939SOL    HW2 3717   0.007   6.960   4.560
  940SOL     OW 3718   0.839   4.820   1.307
  940SOL    HW1 3719   0.763   4.884   1.316
  940SOL    HW2 3720   0.829   4.767   1.223
  941SOL     OW 3721   4.891   0.193   6.902
  941SOL    HW1 3722   4.903   0.256   6.826
  941SOL    HW2 3723   4.796   0.197   6.934
  942SOL     OW 3724   6.677   6.413   1.366
  942SOL    HW1 3725   6.712   6.321   1.346
  942SOL    HW2 3726   6.706   6.476   1.294
  943SOL     OW 3727   2.675   5.054   2.519
  943SOL    HW1 3728   2.616   5.134   2.527
  943SOL    HW2 3729   2.738   5.066   2.442
  944SOL     OW 3730   0.536   5.957   4.310
  944SOL    HW1 3731   0.615   5.937   4.252
  944SOL    HW2 3732   0.567   5.991   4.398
  945SOL     OW 3733   0.722   5.101   5.291
  945SOL    HW1 3734   0.813   5.085   5.329
  945SOL    HW2 3735   0.731   5.132   5.196
  946SOL     OW 3736   5.016   4.716   4.341
  946SOL    HW1 3737   4.956   4.794   4.323
  946SOL    HW2 3738   5.110   4.741   4.315
  947SOL     OW 3739   4.101   3.251   3.679
  947SOL    HW1 3740   4.010   3.210   3.674
  947SOL    HW2 3741   4.167   3.182   3.706
  948SOL     OW 3742   5.106   1.192   2.613
  948SOL    HW1 3743   5.086   1.121   2.680
  948SOL    HW2 3744   5.036   1.191   2.542
  949SOL     OW 3745   2.850   6.552   0.325
  949SOL    HW1 3746   2.924   6.486   0.319
  949SOL    HW2 3747   2.860   6.606   0.409
  950SOL     OW 3748   6.219   5.755   2.046
  950SOL    HW1 3749   6.256   5.669   2.079
  950SOL    HW2 3750   6.281   5.830   2.070
  951SOL     OW 3751   1.558   0.158   3.757
  951SOL    HW1 3752   1.513   0.132   3.842
  951SOL    HW2 3753   1.639   0.212   3.777
  952SOL     OW 3754   3.829   1.801   2.385
  952SOL    HW1 3755   3.737   1.766   2.369
  952SOL    HW2 3756   3.828   1.901   2.386
  953SOL     OW 3757   0.153   5.975   4.921
  953SOL    HW1 3758   0.131   6.072   4.931
  953SOL    HW2 3759   0.192   5.941   5.006
  954SOL     OW 3760   4.609   5.461   2.257
  954SOL    HW1 3761   4.628   5.505   2.345
  954SOL    HW2 3762   4.646   5.517   2.183
  955SOL     OW 3763   1.690   4.246   0.324
  955SOL    HW1 3764   1.654   4.322   0.377
  955SOL    HW2 3765   1.746   4.281   0.249
  956SOL     OW 3766   0.467   0.947   0.963
  956SOL    HW1 3767   0.521   0.943   1.048
  956SOL    HW2 3768   0.501   1.020   0.905
  957SOL     OW 3769   6.265   1.043   1.973
  957SOL    HW1 3770   6.173   1.073   1.948
  957SOL    HW2 3771   6.261   0.984   2.053
  958SOL     OW 3772   5.210   6.441   1.784
  958SOL    HW1 3773   5.137   6.409   1.845
  958SOL    HW2 3774   5.216   6.381   1.705
  959SOL     OW 3775   3.659   6.860   4.859
  959SOL    HW1 3776   3.697   6.939   4.811
  959SOL    HW2 3777   3.722   6.832   4.932
  960SOL     OW 3778   1.016   0.821   0.857
  960SOL    HW1 3779   1.009   0.838   0.955
  960SOL    HW2 3780   0.973   0.733   0.835
  961SOL     OW 3781   3.124   6.865   3.216
  961SOL    HW1 3782   3.153   6.959   3.196
  961SOL    HW2 3783   3.162   6.803   3.148
  962SOL     OW 3784   6.427   6.970   4.892
  962SOL    HW1 3785   6.377   0.019   4.843
  962SOL    HW2 3786   6.518   7.003   4.916
  963SOL     OW 3787   4.818   1.991   1.452
  963SOL    HW1 3788   4.758   1.990   1.372
  963SOL    HW2 3789   4.815   1.902   1.497
  964SOL     OW 3790   5.001   4.757   4.856
  964SOL    HW1 3791   4.975   4.813   4.934
  964SOL    HW2 3792   4.937   4.681   4.846
  965SOL     OW 3793   5.739   2.255   2.364
  965SOL    HW1 3794   5.716   2.176   2.307
  965SOL    HW2 3795   5.818   2.233   2.421
  966SOL     OW 3796   4.896   1.989   3.576
  966SOL    HW1 3797   4.933   2.066   3.628
  966SOL    HW2 3798   4.864   2.022   3.487
  967SOL     OW 3799   4.066   4.753   5.995
  967SOL    HW1 3800   4.059   4.658   6.024
  967SOL    HW2 3801   4.082   4.811   6.075
  968SOL     OW 3802   3.360   0.174   1.929
  968SOL    HW1 3803   3.417   0.154   1.849
  968SOL    HW2 3804   3.309   0.259   1.912
  969SOL     OW 3805   3.498   5.308   6.182
  969SOL    HW1 3806   3.596   5.327   6.175
  969SOL    HW2 3807   3.460   5.299   6.090
  970SOL     OW 3808   6.242   0.779   5.344
  970SOL    HW1 3809   6.327   0.726   5.344
  970SOL    HW2 3810   6.177   0.739   5.280
  971SOL     OW 3811   6.807   4.292   2.755
  971SOL    HW1 3812   6.715   4.265   2.782
  971SOL    HW2 3813   6.833   4.377   2.802
  972SOL     OW 3814   6.622   2.552   1.181
  972SOL    HW1 3815   6.596   2.534   1.086
  972SOL    HW2 3816   6.617   2.467   1.233
  973SOL     OW 3817   0.429   4.379   5.992
  973SOL    HW1 3818   0.375   4.444   5.939
  973SOL    HW2 3819   0.525   4.385   5.964
  974SOL     OW 3820   0.449   4.808   3.662
  974SOL    HW1 3821   0.479   4.829   3.569
  974SOL    HW2 3822   0.379   4.873   3.690
  975SOL     OW 3823   2.217   6.813   1.585
  975SOL    HW1 3824   2.181   6.867   1.508
  975SOL    HW2 3825   2.300   6.766   1.557
  976SOL     OW 3826   6.433   4.251   1.752
  976SOL    HW1 3827   6.374   4.171   1.764
  976SOL    HW2 3828   6.383   4.333   1.777
  977SOL     OW 3829   0.857   1.693   2.180
  977SOL    HW1 3830   0.926   1.692   2.108
  977SOL    HW2 3831   0.792   1.618   2.165
  978SOL     OW 3832   5.741   2.085   1.713
  978SOL    HW1 3833   5.703   2.152   1.777
  978SOL    HW2 3834   5.838   2.103   1.698
  979SOL     OW 3835   0.007   3.143   6.183
  979SOL    HW1 3836   7.021   3.219   6.247
  979SOL    HW2 3837   6.961   3.074   6.203
  980SOL     OW 3838   4.339   1.344   4.935
  980SOL    HW1 3839   4.282   1.412   4.890
  980SOL    HW2 3840   4.280   1.282   4.988
  981SOL     OW 3841   6.915   0.162   4.747
  981SOL    HW1 3842   6.999   0.114   4.771
  981SOL    HW2 3843   6.843   0.096   4.730
  982SOL     OW 3844   0.431   2.011   5.359
  982SOL    HW1 3845   0.519   2.006   5.407
  982SOL    HW2 3846   0.362   1.960   5.410
  983SOL     OW 3847   6.713   3.630   3.240
  983SOL    HW1 3848   6.706   3.548   3.297
  983SOL    HW2 3849   6.642   3.695   3.266
  984SOL     OW 3850   1.902   2.204   3.030
  984SOL    HW1 3851   1.871   2.117   3.067
  984SOL    HW2 3852   1.825   2.268   3.026
  985SOL     OW 3853   5.995   3.601   3.899
  985SOL    HW1 3854   6.058   3.552   3.839
  985SOL    HW2 3855   5.906   3.610   3.853
  986SOL     OW 3856   4.833   4.111   1.391
  986SOL    HW1 3857   4.734   4.115   1.381
  986SOL    HW2 3858   4.862   4.015   1.395
  987SOL     OW 3859   5.438   6.038   3.433
  987SOL    HW1 3860   5.364   6.010   3.493
  987SOL    HW2 3861   5.400   6.061   3.343
  988SOL     OW 3862   3.662   3.942   1.721
  988SOL    HW1 3863   3.645   3.905   1.812
  988SOL    HW2 3864   3.648   4.041   1.722
  989SOL     OW 3865   6.737   2.594   0.634
  989SOL    HW1 3866   6.702   2.506   0.667
  989SOL    HW2 3867   6.666   2.663   0.641
  990SOL     OW 3868   3.249   0.647   3.083
  990SOL    HW1 3869   3.162   0.636   3.130
  990SOL    HW2 3870   3.275   0.561   3.040
  991SOL     OW 3871   6.618   4.134   3.839
  991SOL    HW1 3872   6.655   4.203   3.901
  991SOL    HW2 3873   6.651   4.044   3.866
  992SOL     OW 3874   1.004   2.913   1.036
  992SOL    HW1 3875   1.095   2.900   1.074
  992SOL    HW2 3876   0.947   2.962   1.101
  993SOL     OW 3877   1.235   4.050   1.426
  993SOL    HW1 3878   1.310   3.995   1.391
  993SOL    HW2 3879   1.195   4.104   1.352
  994SOL     OW 3880   3.774   6.386   1.353
  994SOL    HW1 3881   3.675   6.375   1.359
  994SOL    HW2 3882   3.811   6.403   1.444
  995SOL     OW 3883   4.750   3.578   5.955
  995SOL    HW1 3884   4.775   3.506   6.020
  995SOL    HW2 3885   4.766   3.546   5.862
  996SOL     OW 3886   4.190   6.231   5.792
  996SOL    HW1 3887   4.154   6.170   5.721
  996SOL    HW2 3888   4.240   6.177   5.859
  997SOL     OW 3889   1.648   6.633   3.333
  997SOL    HW1 3890   1.588   6.564   3.292
  997SOL    HW2 3891   1.735   6.590   3.358
  998SOL     OW 3892   6.288   6.997   6.289
  998SOL    HW1 3893   6.227   6.939   6.235
  998SOL    HW2 3894   6.240   0.060   6.312
  999SOL     OW 3895   4.779   3.550   1.307
  999SOL    HW1 3896   4.825   3.540   1.395
  999SOL    HW2 3897   4.702   3.613   1.317
 1000SOL     OW 3898   4.068   1.359   1.047
 1000SOL    HW1 3899   4.108   1.446   1.077
 1000SOL    HW2 3900   4.027   1.371   0.957
 1001SOL     OW 3901   2.480   6.569   1.926
 1001SOL    HW1 3902   2.467   6.519   1.841
 1001SOL    HW2 3903   2.495   6.504   2.001
 1002SOL     OW 3904   4.874   2.388   2.027
 1002SOL    HW1 3905   4.892   2.455   1.955
 1002SOL    HW2 3906   4.960   2.363   2.071
 1003SOL     OW 3907   1.443   5.980   2.655
 1003SOL    HW1 3908   1.503   5.973   2.575
 1003SOL    HW2 3909   1.387   6.063   2.647
 1004SOL     OW 3910   6.651   1.269   2.804
 1004SOL    HW1 3911   6.601   1.320   2.733
 1004SOL    HW2 3912   6.640   1.171   2.787
 1005SOL     OW 3913   1.680   4.587   4.168
 1005SOL    HW1 3914   1.771   4.546   4.162
 1005SOL    HW2 3915   1.641   4.595   4.076
 1006SOL     OW 3916   2.244   4.242   0.687
 1006SOL    HW1 3917   2.203   4.182   0.619
 1006SOL    HW2 3918   2.343   4.228   0.689
 1007SOL     OW 3919   4.640   1.677   6.981
 1007SOL    HW1 3920   4.616   1.678   6.884
 1007SOL    HW2 3921   4.738   1.660   6.991
 1008SOL     OW 3922   0.696   4.184   5.144
 1008SOL    HW1 3923   0.784   4.205   5.186
 1008SOL    HW2 3924   0.705   4.189   5.044
 1009SOL     OW 3925   5.906   5.009   5.291
 1009SOL    HW1 3926   5.878   4.925   5.337
 1009SOL    HW2 3927   5.935   5.076   5.359
 1010SOL     OW 3928   1.950   2.803   1.636
 1010SOL    HW1 3929   1.884   2.818   1.562
 1010SOL    HW2 3930   2.042   2.818   1.602
 1011SOL     OW 3931   1.187   5.366   2.677
 1011SOL    HW1 3932   1.127   5.288   2.657
 1011SOL    HW2 3933   1.134   5.451   2.671
 1012SOL     OW 3934   6.422   0.110   2.429
 1012SOL    HW1 3935   6.447   0.205   2.411
 1012SOL    HW2 3936   6.499   0.050   2.406
 1013SOL     OW 3937   6.866   0.930   6.263
 1013SOL    HW1 3938   6.893   0.934   6.166
 1013SOL    HW2 3939   6.816   1.014   6.287
 1014SOL     OW 3940   1.246   4.595   4.156
 1014SOL    HW1 3941   1.215   4.588   4.251
 1014SOL    HW2 3942   1.263   4.504   4.120
 1015SOL     OW 3943   2.938   0.207   6.426
 1015SOL    HW1 3944   3.029   0.165   6.432
 1015SOL    HW2 3945   2.879   0.149   6.370
 1016SOL     OW 3946   5.160   3.983   1.236
 1016SOL    HW1 3947   5.188   4.005   1.142
 1016SOL    HW2 3948   5.083   3.919   1.233
 1017SOL     OW 3949   2.321   1.562   2.047
 1017SOL    HW1 3950   2.226   1.561   2.014
 1017SOL    HW2 3951   2.331   1.631   2.119
 1018SOL     OW 3952   0.077   4.677   3.614
 1018SOL    HW1 3953   0.149   4.608   3.620
 1018SOL    HW2 3954   0.098   4.740   3.539
 1019SOL     OW 3955   6.548   5.043   0.578
 1019SOL    HW1 3956   6.602   5.126   0.586
 1019SOL    HW2 3957   6.605   4.964   0.597
 1020SOL     OW 3958   6.895   0.640   1.559
 1020SOL    HW1 3959   6.966   0.697   1.517
 1020SOL    HW2 3960   6.833   0.605   1.489
 1021SOL     OW 3961   6.412   5.912   2.136
 1021SOL    HW1 3962   6.509   5.893   2.119
 1021SOL    HW2 3963   6.393   5.901   2.233
 1022SOL     OW 3964   2.789   6.236   6.104
 1022SOL    HW1 3965   2.739   6.288   6.174
 1022SOL    HW2 3966   2.784   6.285   6.017
 1023SOL     OW 3967   6.690   1.014   2.744
 1023SOL    HW1 3968   6.748   1.013   2.662
 1023SOL    HW2 3969   6.696   0.925   2.790
 1024SOL     OW 3970   0.959   0.975   4.754
 1024SOL    HW1 3971   0.965   0.946   4.850
 1024SOL    HW2 3972   0.901   1.056   4.747
 1025SOL     OW 3973   5.191   3.347   6.701
 1025SOL    HW1 3974   5.186   3.446   6.714
 1025SOL    HW2 3975   5.135   3.302   6.771
 1026SOL     OW 3976   3.131   2.457   1.701
 1026SOL    HW1 3977   3.187   2.374   1.698
 1026SOL    HW2 3978   3.055   2.444   1.765
 1027SOL     OW 3979   1.141   6.210   1.676
 1027SOL    HW1 3980   1.164   6.199   1.772
 1027SOL    HW2 3981   1.097   6.127   1.642
 1028SOL     OW 3982   1.326   6.094   3.318
 1028SOL    HW1 3983   1.386   6.028   3.364
 1028SOL    HW2 3984   1.369   6.125   3.233
 1029SOL     OW 3985   1.145   1.912   5.672
 1029SOL    HW1 3986   1.121   1.973   5.747
 1029SOL    HW2 3987   1.090   1.935   5.591
 1030SOL     OW 3988   3.208   3.145   1.783
 1030SOL    HW1 3989   3.197   3.191   1.695
 1030SOL    HW2 3990   3.154   3.061   1.783
 1031SOL     OW 3991   3.635   3.268   1.728
 1031SOL    HW1 3992   3.581   3.197   1.773
 1031SOL    HW2 3993   3.576   3.346   1.708
 1032SOL     OW 3994   2.318   1.409   5.379
 1032SOL    HW1 3995   2.238   1.457   5.342
 1032SOL    HW2 3996   2.323   1.317   5.339
 1033SOL     OW 3997   1.405   5.906   2.303
 1033SOL    HW1 3998   1.320   5.905   2.357
 1033SOL    HW2 3999   1.410   5.990   2.250
 1034SOL     OW 4000   3.032   6.371   4.319
 1034SOL    HW1 4001   3.128   6.341   4.316
 1034SOL    HW2 4002   3.023   6.448   4.382
 1035SOL     OW 4003   0.631   2.638   5.930
 1035SOL    HW1 4004   0.710   2.583   5.957
 1035SOL    HW2 4005   0.597   2.689   6.010
 1036SOL     OW 4006   4.973   1.149   1.285
 1036SOL    HW1 4007   5.038   1.075   1.271
 1036SOL    HW2 4008   4.891   1.132   1.230
 1037SOL     OW 4009   1.995   2.306   2.532
 1037SOL    HW1 4010   2.066   2.359   2.485
 1037SOL    HW2 4011   1.907   2.320   2.486
 1038SOL     OW 4012   2.182   0.986   6.959
 1038SOL    HW1 4013   2.148   0.895   6.936
 1038SOL    HW2 4014   2.166   1.048   6.883
 1039SOL     OW 4015   3.131   2.992   3.716
 1039SOL    HW1 4016   3.096   2.937   3.792
 1039SOL    HW2 4017   3.074   3.073   3.705
 1040SOL     OW 4018   5.102   0.965   3.328
 1040SOL    HW1 4019   5.177   1.027   3.352
 1040SOL    HW2 4020   5.024   0.981   3.388
 1041SOL     OW 4021   6.753   6.684   4.310
 1041SOL    HW1 4022   6.702   6.739   4.244
 1041SOL    HW2 4023   6.851   6.692   4.291
 1042SOL     OW 4024   4.387   5.059   2.472
 1042SOL    HW1 4025   4.295   5.040   2.505
 1042SOL    HW2 4026   4.442   4.976   2.476
 1043SOL     OW 4027   3.506   1.385   3.590
 1043SOL    HW1 4028   3.412   1.388   3.555
 1043SOL    HW2 4029   3.570   1.406   3.515
 1044SOL     OW 4030   6.091   5.405   1.445
 1044SOL    HW1 4031   6.082   5.367   1.353
 1044SOL    HW2 4032   6.064   5.501   1.445
 1045SOL     OW 4033   2.352   0.135   3.520
 1045SOL    HW1 4034   2.362   0.147   3.421
 1045SOL    HW2 4035   2.423   0.072   3.553
 1046SOL     OW 4036   2.527   1.024   1.302
 1046SOL    HW1 4037   2.517   0.972   1.217
 1046SOL    HW2 4038   2.575   1.109   1.284
 1047SOL     OW 4039   3.453   6.675   3.989
 1047SOL    HW1 4040   3.457   6.739   3.912
 1047SOL    HW2 4041   3.510   6.595   3.968
 1048SOL     OW 4042   2.536   6.315   2.047
 1048SOL    HW1 4043   2.483   6.232   2.027
 1048SOL    HW2 4044   2.519   6.344   2.141
 1049SOL     OW 4045   4.545   0.013   4.268
 1049SOL    HW1 4046   4.468   0.018   4.332
 1049SOL    HW2 4047   4.600   0.096   4.275
 1050SOL     OW 4048   3.967   4.992   3.033
 1050SOL    HW1 4049   3.978   5.089   3.056
 1050SOL    HW2 4050   4.016   4.936   3.100
 1051SOL     OW 4051   6.899   6.646   0.584
 1051SOL    HW1 4052   6.918   6.603   0.495
 1051SOL    HW2 4053   6.811   6.693   0.580
 1052SOL     OW 4054   4.062   0.471   6.162
 1052SOL    HW1 4055   4.041   0.407   6.235
 1052SOL    HW2 4056   4.100   0.422   6.084
 1053SOL     OW 4057   5.426   3.774   2.038
 1053SOL    HW1 4058   5.373   3.764   1.954
 1053SOL    HW2 4059   5.365   3.807   2.111
 1054SOL     OW 4060   3.091   3.810   0.879
 1054SOL    HW1 4061   3.063   3.828   0.785
 1054SOL    HW2 4062   3.027   3.745   0.921
 1055SOL     OW 4063   5.202   5.518   6.539
 1055SOL    HW1 4064   5.193   5.419   6.552
 1055SOL    HW2 4065   5.148   5.566   6.608
 1056SOL     OW 4066   1.928   4.018   0.788
 1056SOL    HW1 4067   1.964   4.024   0.695
 1056SOL    HW2 4068   1.950   3.928   0.826
 1057SOL     OW 4069   3.317   1.525   2.007
 1057SOL    HW1 4070   3.316   1.479   1.918
 1057SOL    HW2 4071   3.357   1.464   2.075
 1058SOL     OW 4072   3.695   2.092   2.981
 1058SOL    HW1 4073   3.757   2.023   2.943
 1058SOL    HW2 4074   3.748   2.163   3.026
 1059SOL     OW 4075   2.155   6.400   1.720
 1059SOL    HW1 4076   2.248   6.414   1.687
 1059SOL    HW2 4077   2.119   6.487   1.755
 1060SOL     OW 4078   0.219   5.539   4.210
 1060SOL    HW1 4079   0.211   5.508   4.304
 1060SOL    HW2 4080   0.235   5.638   4.208
 1061SOL     OW 4081   6.499   4.287   6.926
 1061SOL    HW1 4082   6.595   4.281   6.954
 1061SOL    HW2 4083   6.454   4.199   6.942
 1062SOL     OW 4084   4.179   6.351   4.903
 1062SOL    HW1 4085   4.246   6.425   4.897
 1062SOL    HW2 4086   4.096   6.385   4.948
 1063SOL     OW 4087   0.941   6.900   5.841
 1063SOL    HW1 4088   1.037   6.913   5.863
 1063SOL    HW2 4089   0.930   6.821   5.780
 1064SOL     OW 4090   0.845   4.496   1.698
 1064SOL    HW1 4091   0.790   4.540   1.626
 1064SOL    HW2 4092   0.865   4.563   1.770
 1065SOL     OW 4093   3.836   1.158   3.802
 1065SOL    HW1 4094   3.755   1.100   3.803
 1065SOL    HW2 4095   3.915   1.106   3.835
 1066SOL     OW 4096   4.806   6.881   2.408
 1066SOL    HW1 4097   4.813   6.945   2.484
 1066SOL    HW2 4098   4.890   6.828   2.401
 1067SOL     OW 4099   2.712   1.354   0.294
 1067SOL    HW1 4100   2.641   1.424   0.307
 1067SOL    HW2 4101   2.679   1.285   0.230
 1068SOL     OW 4102   6.465   3.902   1.173
 1068SOL    HW1 4103   6.521   3.959   1.112
 1068SOL    HW2 4104   6.376   3.945   1.186
 1069SOL     OW 4105   5.791   4.609   0.777
 1069SOL    HW1 4106   5.741   4.673   0.719
 1069SOL    HW2 4107   5.833   4.538   0.721
 1070SOL     OW 4108   1.980   0.028   2.514
 1070SOL    HW1 4109   1.898   7.016   2.470
 1070SOL    HW2 4110   2.000   0.120   2.480
 1071SOL     OW 4111   0.367   2.195   4.831
 1071SOL    HW1 4112   0.432   2.170   4.759
 1071SOL    HW2 4113   0.396   2.153   4.917
 1072SOL     OW 4114   2.363   0.689   1.389
 1072SOL    HW1 4115   2.449   0.662   1.347
 1072SOL    HW2 4116   2.382   0.737   1.475
 1073SOL     OW 4117   5.600   1.634   3.077
 1073SOL    HW1 4118   5.551   1.709   3.033
 1073SOL    HW2 4119   5.692   1.664   3.101
 1074SOL     OW 4120   2.820   5.254   2.307
 1074SOL    HW1 4121   2.885   5.196   2.357
 1074SOL    HW2 4122   2.868   5.302   2.234
 1075SOL     OW 4123   5.664   1.541   5.059
 1075SOL    HW1 4124   5.576   1.560   5.102
 1075SOL    HW2 4125   5.684   1.612   4.992
 1076SOL     OW 4126   2.194   3.956   5.394
 1076SOL    HW1 4127   2.288   3.946   5.359
 1076SOL    HW2 4128   2.130   3.962   5.318
 1077SOL     OW 4129   0.259   0.634   0.404
 1077SOL    HW1 4130   0.211   0.645   0.316
 1077SOL    HW2 4131   0.336   0.571   0.393
 1078SOL     OW 4132   6.476   6.738   3.741
 1078SOL    HW1 4133   6.417   6.714   3.818
 1078SOL    HW2 4134   6.449   6.827   3.704
 1079SOL     OW 4135   1.401   5.199   2.628
 1079SOL    HW1 4136   1.363   5.219   2.538
 1079SOL    HW2 4137   1.354   5.255   2.697
 1080SOL     OW 4138   2.239   5.825   5.204
 1080SOL    HW1 4139   2.334   5.851   5.184
 1080SOL    HW2 4140   2.203   5.771   5.129
 1081SOL     OW 4141   6.976   5.856   4.592
 1081SOL    HW1 4142   6.879   5.877   4.579
 1081SOL    HW2 4143   7.005   5.886   4.682
 1082SOL     OW 4144   6.130   1.008   5.870
 1082SOL    HW1 4145   6.123   0.958   5.784
 1082SOL    HW2 4146   6.043   1.054   5.888
 1083SOL     OW 4147   4.896   4.498   0.342
 1083SOL    HW1 4148   4.844   4.549   0.410
 1083SOL    HW2 4149   4.896   4.401   0.367
 1084SOL     OW 4150   6.247   6.966   6.747
 1084SOL    HW1 4151   6.203   6.944   6.834
 1084SOL    HW2 4152   6.181   6.957   6.673
 1085SOL     OW 4153   1.733   3.343   4.415
 1085SOL    HW1 4154   1.643   3.353   4.372
 1085SOL    HW2 4155   1.784   3.429   4.409
 1086SOL     OW 4156   6.490   4.445   6.225
 1086SOL    HW1 4157   6.538   4.530   6.204
 1086SOL    HW2 4158   6.442   4.412   6.143
 1087SOL     OW 4159   1.092   1.413   5.089
 1087SOL    HW1 4160   1.132   1.420   5.181
 1087SOL    HW2 4161   1.142   1.344   5.036
 1088SOL     OW 4162   0.430   5.210   3.468
 1088SOL    HW1 4163   0.516   5.230   3.421
 1088SOL    HW2 4164   0.422   5.111   3.482
 1089SOL     OW 4165   0.190   5.254   4.990
 1089SOL    HW1 4166   0.280   5.296   4.984
 1089SOL    HW2 4167   0.148   5.252   4.899
 1090SOL     OW 4168   5.633   1.854   4.015
 1090SOL    HW1 4169   5.643   1.953   4.006
 1090SOL    HW2 4170   5.588   1.832   4.102
 1091SOL     OW 4171   2.148   3.273   3.754
 1091SOL    HW1 4172   2.165   3.234   3.845
 1091SOL    HW2 4173   2.232   3.269   3.700
 1092SOL     OW 4174   0.671   5.025   1.375
 1092SOL    HW1 4175   0.615   4.978   1.443
 1092SOL    HW2 4176   0.747   5.072   1.421
 1093SOL     OW 4177   2.707   6.819   1.352
 1093SOL    HW1 4178   2.796   6.800   1.311
 1093SOL    HW2 4179   2.698   6.768   1.438
 1094SOL     OW 4180   0.840   6.492   2.948
 1094SOL    HW1 4181   0.887   6.581   2.950
 1094SOL    HW2 4182   0.744   6.506   2.925
 1095SOL     OW 4183   0.205   2.237   6.394
 1095SOL    HW1 4184   0.216   2.309   6.325
 1095SOL    HW2 4185   0.139   2.266   6.463
 1096SOL     OW 4186   2.831   5.628   0.891
 1096SOL    HW1 4187   2.809   5.554   0.955
 1096SOL    HW2 4188   2.917   5.671   0.919
 1097SOL     OW 4189   2.290   5.612   3.621
 1097SOL    HW1 4190   2.284   5.589   3.718
 1097SOL    HW2 4191   2.244   5.542   3.567
 1098SOL     OW 4192   5.984   4.091   6.757
 1098SOL    HW1 4193   6.076   4.097   6.719
 1098SOL    HW2 4194   5.924   4.044   6.693
 1099SOL     OW 4195   4.323   1.348   6.158
 1099SOL    HW1 4196   4.304   1.292   6.077
 1099SOL    HW2 4197   4.356   1.438   6.129
 1100SOL     OW 4198   3.951   1.286   3.588
 1100SOL    HW1 4199   3.896   1.240   3.658
 1100SOL    HW2 4200   4.045   1.296   3.621
 1101SOL     OW 4201   5.463   3.571   5.126
 1101SOL    HW1 4202   5.390   3.509   5.153
 1101SOL    HW2 4203   5.522   3.590   5.204
 1102SOL     OW 4204   2.352   0.876   4.595
 1102SOL    HW1 4205   2.268   0.928   4.579
 1102SOL    HW2 4206   2.431   0.937   4.591
 1103SOL     OW 4207   2.813   1.848   6.914
 1103SOL    HW1 4208   2.748   1.812   6.982
 1103SOL    HW2 4209   2.770   1.924   6.865
 1104SOL     OW 4210   1.034   4.207   3.412
 1104SOL    HW1 4211   0.937   4.230   3.421
 1104SOL    HW2 4212   1.064   4.224   3.318
 1105SOL     OW 4213   5.576   2.326   5.311
 1105SOL    HW1 4214   5.496   2.271   5.285
 1105SOL    HW2 4215   5.547   2.398   5.373
 1106SOL     OW 4216   0.748   1.508   0.317
 1106SOL    HW1 4217   0.831   1.563   0.309
 1106SOL    HW2 4218   0.746   1.465   0.407
 1107SOL     OW 4219   1.333   0.074   6.366
 1107SOL    HW1 4220   1.356   7.008   6.325
 1107SOL    HW2 4221   1.305   0.137   6.294
 1108SOL     OW 4222   3.481   6.815   4.400
 1108SOL    HW1 4223   3.535   6.792   4.481
 1108SOL    HW2 4224   3.416   6.741   4.382
 1109SOL     OW 4225   6.147   1.356   3.653
 1109SOL    HW1 4226   6.202   1.322   3.730
 1109SOL    HW2 4227   6.109   1.278   3.602
 1110SOL     OW 4228   3.427   1.079   3.044
 1110SOL    HW1 4229   3.500   1.082   3.112
 1110SOL    HW2 4230   3.440   1.153   2.977
 1111SOL     OW 4231   4.656   4.103   6.170
 1111SOL    HW1 4232   4.587   4.175   6.158
 1111SOL    HW2 4233   4.648   4.065   6.263
 1112SOL     OW 4234   6.559   6.810   3.306
 1112SOL    HW1 4235   6.607   6.795   3.220
 1112SOL    HW2 4236   6.511   6.727   3.333
 1113SOL     OW 4237   6.736   3.768   2.490
 1113SOL    HW1 4238   6.748   3.820   2.574
 1113SOL    HW2 4239   6.706   3.675   2.512
 1114SOL     OW 4240   3.952   2.478   6.161
 1114SOL    HW1 4241   3.878   2.538   6.130
 1114SOL    HW2 4242   4.037   2.503   6.115
 1115SOL     OW 4243   3.587   4.375   5.633
 1115SOL    HW1 4244   3.685   4.362   5.621
 1115SOL    HW2 4245   3.543   4.383   5.543
 1116SOL     OW 4246   5.291   0.908   0.172
 1116SOL    HW1 4247   5.202   0.923   0.129
 1116SOL    HW2 4248   5.336   0.830   0.130
 1117SOL     OW 4249   1.026   2.421   1.385
 1117SOL    HW1 4250   1.022   2.436   1.286
 1117SOL    HW2 4251   1.113   2.380   1.408
 1118SOL     OW 4252   2.657   6.093   6.398
 1118SOL    HW1 4253   2.725   6.115   6.327
 1118SOL    HW2 4254   2.584   6.038   6.358
 1119SOL     OW 4255   4.530   4.590   2.648
 1119SOL    HW1 4256   4.571   4.640   2.724
 1119SOL    HW2 4257   4.465   4.650   2.601
 1120SOL     OW 4258   6.329   5.742   1.445
 1120SOL    HW1 4259   6.389   5.780   1.515
 1120SOL    HW2 4260   6.367   5.656   1.410
 1121SOL     OW 4261   0.667   5.524   4.555
 1121SOL    HW1 4262   0.573   5.504   4.585
 1121SOL    HW2 4263   0.669   5.531   4.455
 1122SOL     OW 4264   5.687   3.082   1.963
 1122SOL    HW1 4265   5.647   3.039   1.882
 1122SOL    HW2 4266   5.718   3.012   2.026
 1123SOL     OW 4267   4.540   2.182   2.917
 1123SOL    HW1 4268   4.502   2.261   2.964
 1123SOL    HW2 4269   4.483   2.102   2.933
 1124SOL     OW 4270   1.638   3.036   4.899
 1124SOL    HW1 4271   1.630   2.967   4.828
 1124SOL    HW2 4272   1.547   3.055   4.937
 1125SOL     OW 4273   1.589   3.647   5.159
 1125SOL    HW1 4274   1.602   3.733   5.209
 1125SOL    HW2 4275   1.550   3.667   5.069
 1126SOL     OW 4276   4.288   5.632   5.556
 1126SOL    HW1 4277   4.240   5.637   5.469
 1126SOL    HW2 4278   4.377   5.586   5.543
 1127SOL     OW 4279   5.346   6.245   4.101
 1127SOL    HW1 4280   5.427   6.206   4.056
 1127SOL    HW2 4281   5.316   6.326   4.050
 1128SOL     OW 4282   5.973   0.831   3.844
 1128SOL    HW1 4283   5.967   0.927   3.815
 1128SOL    HW2 4284   5.882   0.798   3.868
 1129SOL     OW 4285   1.754   6.795   0.863
 1129SOL    HW1 4286   1.848   6.761   0.855
 1129SOL    HW2 4287   1.698   6.751   0.793
 1130SOL     OW 4288   2.151   5.388   2.349
 1130SOL    HW1 4289   2.249   5.393   2.332
 1130SOL    HW2 4290   2.132   5.317   2.416
 1131SOL     OW 4291   1.320   6.899   3.949
 1131SOL    HW1 4292   1.366   6.861   3.869
 1131SOL    HW2 4293   1.369   6.980   3.980
 1132SOL     OW 4294   4.788   0.770   2.646
 1132SOL    HW1 4295   4.787   0.864   2.612
 1132SOL    HW2 4296   4.757   0.707   2.574
 1133SOL     OW 4297   1.601   0.327   5.231
 1133SOL    HW1 4298   1.549   0.413   5.230
 1133SOL    HW2 4299   1.540   0.252   5.257
 1134SOL     OW 4300   5.002   6.629   2.146
 1134SOL    HW1 4301   5.040   6.615   2.055
 1134SOL    HW2 4302   4.916   6.680   2.138
 1135SOL     OW 4303   2.814   6.448   4.201
 1135SOL    HW1 4304   2.843   6.497   4.118
 1135SOL    HW2 4305   2.895   6.413   4.249
 1136SOL     OW 4306   3.352   6.263   2.984
 1136SOL    HW1 4307   3.280   6.323   3.020
 1136SOL    HW2 4308   3.435   6.316   2.969
 1137SOL     OW 4309   0.858   6.223   0.015
 1137SOL    HW1 4310   0.914   6.211   0.096
 1137SOL    HW2 4311   0.796   6.146   0.005
 1138SOL     OW 4312   1.696   3.025   5.611
 1138SOL    HW1 4313   1.649   3.080   5.541
 1138SOL    HW2 4314   1.763   2.966   5.567
 1139SOL     OW 4315   2.396   4.775   4.268
 1139SOL    HW1 4316   2.421   4.858   4.219
 1139SOL    HW2 4317   2.306   4.744   4.236
 1140SOL     OW 4318   1.776   1.301   1.576
 1140SOL    HW1 4319   1.847   1.273   1.511
 1140SOL    HW2 4320   1.795   1.260   1.666
 1141SOL     OW 4321   5.933   5.242   6.166
 1141SOL    HW1 4322   5.839   5.251   6.135
 1141SOL    HW2 4323   5.936   5.241   6.266
 1142SOL     OW 4324   2.563   6.996   3.575
 1142SOL    HW1 4325   2.529   6.902   3.574
 1142SOL    HW2 4326   2.609   7.014   3.662
 1143SOL     OW 4327   1.387   3.567   1.976
 1143SOL    HW1 4328   1.318   3.602   2.039
 1143SOL    HW2 4329   1.345   3.499   1.916
 1144SOL     OW 4330   5.415   4.171   2.831
 1144SOL    HW1 4331   5.386   4.259   2.791
 1144SOL    HW2 4332   5.347   4.101   2.809
 1145SOL     OW 4333   1.443   2.622   0.904
 1145SOL    HW1 4334   1.436   2.525   0.883
 1145SOL    HW2 4335   1.382   2.645   0.980
 1146SOL     OW 4336   0.472   1.900   1.417
 1146SOL    HW1 4337   0.388   1.894   1.363
 1146SOL    HW2 4338   0.494   1.811   1.455
 1147SOL     OW 4339   2.875   5.884   1.087
 1147SOL    HW1 4340   2.802   5.929   1.036
 1147SOL    HW2 4341   2.837   5.844   1.171
 1148SOL     OW 4342   4.195   6.498   1.997
 1148SOL    HW1 4343   4.130   6.423   1.984
 1148SOL    HW2 4344   4.190   6.561   1.920
 1149SOL     OW 4345   6.154   2.997   1.837
 1149SOL    HW1 4346   6.109   3.064   1.778
 1149SOL    HW2 4347   6.097   2.916   1.845
 1150SOL     OW 4348   1.007   4.708   0.101
 1150SOL    HW1 4349   0.952   4.630   0.133
 1150SOL    HW2 4350   1.046   4.687   0.011
 1151SOL     OW 4351   6.322   5.239   3.994
 1151SOL    HW1 4352   6.264   5.313   3.960
 1151SOL    HW2 4353   6.267   5.158   4.012
 1152SOL     OW 4354   4.523   0.329   0.471
 1152SOL    HW1 4355   4.609   0.299   0.512
 1152SOL    HW2 4356   4.501   0.271   0.393
 1153SOL     OW 4357   0.239   0.328   1.129
 1153SOL    HW1 4358   0.285   0.242   1.150
 1153SOL    HW2 4359   0.307   0.398   1.106
 1154SOL     OW 4360   1.353   3.623   2.309
 1154SOL    HW1 4361   1.375   3.552   2.376
 1154SOL    HW2 4362   1.419   3.698   2.318
 1155SOL     OW 4363   2.002   6.243   4.815
 1155SOL    HW1 4364   1.956   6.163   4.776
 1155SOL    HW2 4365   2.016   6.312   4.744
 1156SOL     OW 4366   4.443   1.607   5.008
 1156SOL    HW1 4367   4.467   1.662   4.928
 1156SOL    HW2 4368   4.356   1.561   4.992
 1157SOL     OW 4369   4.426   0.353   5.329
 1157SOL    HW1 4370   4.406   0.435   5.276
 1157SOL    HW2 4371   4.490   0.375   5.402
 1158SOL     OW 4372   5.000   5.987   4.353
 1158SOL    HW1 4373   4.914   5.961   4.397
 1158SOL    HW2 4374   5.076   5.940   4.398
 1159SOL     OW 4375   6.438   6.252   2.932
 1159SOL    HW1 4376   6.426   6.229   2.836
 1159SOL    HW2 4377   6.533   6.277   2.950
 1160SOL     OW 4378   4.213   6.708   0.942
 1160SOL    HW1 4379   4.246   6.640   1.007
 1160SOL    HW2 4380   4.118   6.730   0.962
 1161SOL     OW 4381   6.616   5.002   6.047
 1161SOL    HW1 4382   6.572   5.086   6.077
 1161SOL    HW2 4383   6.713   5.020   6.030
 1162SOL     OW 4384   2.149   2.561   5.809
 1162SOL    HW1 4385   2.207   2.616   5.870
 1162SOL    HW2 4386   2.199   2.542   5.724
 1163SOL     OW 4387   5.856   4.191   1.818
 1163SOL    HW1 4388   5.849   4.123   1.746
 1163SOL    HW2 4389   5.826   4.151   1.905
 1164SOL     OW 4390   5.475   2.501   4.458
 1164SOL    HW1 4391   5.420   2.458   4.530
 1164SOL    HW2 4392   5.415   2.546   4.392
 1165SOL     OW 4393   4.612   6.082   3.498
 1165SOL    HW1 4394   4.654   6.166   3.462
 1165SOL    HW2 4395   4.514   6.084   3.482
 1166SOL     OW 4396   1.767   6.245   6.745
 1166SOL    HW1 4397   1.758   6.265   6.843
 1166SOL    HW2 4398   1.751   6.329   6.692
 1167SOL     OW 4399   4.795   4.074   1.971
 1167SOL    HW1 4400   4.789   4.161   2.022
 1167SOL    HW2 4401   4.722   4.070   1.903
 1168SOL     OW 4402   5.933   2.127   2.517
 1168SOL    HW1 4403   6.004   2.167   2.576
 1168SOL    HW2 4404   5.966   2.040   2.481
 1169SOL     OW 4405   5.970   1.705   6.051
 1169SOL    HW1 4406   5.972   1.662   5.960
 1169SOL    HW2 4407   6.062   1.737   6.074
 1170SOL     OW 4408   4.395   0.088   2.844
 1170SOL    HW1 4409   4.430   0.093   2.938
 1170SOL    HW2 4410   4.448   0.020   2.793
 1171SOL     OW 4411   2.226   0.169   0.346
 1171SOL    HW1 4412   2.174   0.219   0.416
 1171SOL    HW2 4413   2.317   0.149   0.381
 1172SOL     OW 4414   5.097   3.253   0.590
 1172SOL    HW1 4415   5.040   3.208   0.521
 1172SOL    HW2 4416   5.095   3.352   0.574
 1173SOL     OW 4417   2.251   0.767   1.015
 1173SOL    HW1 4418   2.214   0.850   1.056
 1173SOL    HW2 4419   2.187   0.734   0.945
 1174SOL     OW 4420   3.650   3.656   1.585
 1174SOL    HW1 4421   3.654   3.755   1.596
 1174SOL    HW2 4422   3.741   3.617   1.598
 1175SOL     OW 4423   4.263   3.115   5.706
 1175SOL    HW1 4424   4.177   3.167   5.705
 1175SOL    HW2 4425   4.243   3.020   5.730
 1176SOL     OW 4426   4.923   3.104   5.904
 1176SOL    HW1 4427   4.918   3.193   5.858
 1176SOL    HW2 4428   4.900   3.115   6.000
 1177SOL     OW 4429   6.520   3.430   5.428
 1177SOL    HW1 4430   6.519   3.339   5.386
 1177SOL    HW2 4431   6.434   3.445   5.478
 1178SOL     OW 4432   2.816   3.582   0.619
 1178SOL    HW1 4433   2.771   3.524   0.552
 1178SOL    HW2 4434   2.901   3.539   0.650
 1179SOL     OW 4435   2.011   6.019   0.178
 1179SOL    HW1 4436   2.070   5.942   0.150
 1179SOL    HW2 4437   2.037   6.048   0.270
 1180SOL     OW 4438   3.006   5.772   2.631
 1180SOL    HW1 4439   3.007   5.673   2.615
 1180SOL    HW2 4440   2.949   5.793   2.710
 1181SOL     OW 4441   0.200   5.257   6.727
 1181SOL    HW1 4442   0.162   5.220   6.643
 1181SOL    HW2 4443   0.129   5.262   6.797
 1182SOL     OW 4444   4.238   5.875   3.172
 1182SOL    HW1 4445   4.158   5.854   3.228
 1182SOL    HW2 4446   4.255   5.973   3.173
 1183SOL     OW 4447   1.953   4.439   0.745
 1183SOL    HW1 4448   1.919   4.521   0.792
 1183SOL    HW2 4449   2.019   4.392   0.804
 1184SOL     OW 4450   0.509   0.406   4.756
 1184SOL    HW1 4451   0.594   0.422   4.707
 1184SOL    HW2 4452   0.526   0.409   4.854
 1185SOL     OW 4453   0.551   0.833   6.887
 1185SOL    HW1 4454   0.469   0.816   6.942
 1185SOL    HW2 4455   0.556   0.766   6.813
 1186SOL     OW 4456   4.969   5.519   4.977
 1186SOL    HW1 4457   5.008   5.559   4.894
 1186SOL    HW2 4458   4.981   5.582   5.054
 1187SOL     OW 4459   6.510   6.476   0.233
 1187SOL    HW1 4460   6.551   6.566   0.224
 1187SOL    HW2 4461   6.455   6.473   0.317
 1188SOL     OW 4462   3.453   6.153   5.280
 1188SOL    HW1 4463   3.439   6.235   5.225
 1188SOL    HW2 4464   3.369   6.130   5.329
 1189SOL     OW 4465   6.769   3.097   2.929
 1189SOL    HW1 4466   6.745   3.067   3.022
 1189SOL    HW2 4467   6.715   3.046   2.863
 1190SOL     OW 4468   2.539   6.395   3.402
 1190SOL    HW1 4469   2.627   6.407   3.356
 1190SOL    HW2 4470   2.552   6.403   3.501
 1191SOL     OW 4471   4.469   4.865   3.559
 1191SOL    HW1 4472   4.470   4.929   3.636
 1191SOL    HW2 4473   4.375   4.841   3.537
 1192SOL     OW 4474   3.955   5.265   3.139
 1192SOL    HW1 4475   3.981   5.322   3.217
 1192SOL    HW2 4476   3.935   5.324   3.061
 1193SOL     OW 4477   6.087   4.167   4.363
 1193SOL    HW1 4478   6.147   4.219   4.424
 1193SOL    HW2 4479   6.113   4.070   4.365
 1194SOL     OW 4480   5.405   6.609   1.389
 1194SOL    HW1 4481   5.355   6.638   1.307
 1194SOL    HW2 4482   5.375   6.665   1.466
 1195SOL     OW 4483   6.252   4.245   1.452
 1195SOL    HW1 4484   6.200   4.326   1.426
 1195SOL    HW2 4485   6.329   4.272   1.511
 1196SOL     OW 4486   0.029   5.976   3.094
 1196SOL    HW1 4487   0.036   5.900   3.158
 1196SOL    HW2 4488   6.956   5.991   3.069
 1197SOL     OW 4489   3.734   0.645   6.390
 1197SOL    HW1 4490   3.689   0.672   6.305
 1197SOL    HW2 4491   3.825   0.686   6.394
 1198SOL     OW 4492   1.134   3.006   1.798
 1198SOL    HW1 4493   1.167   3.100   1.783
 1198SOL    HW2 4494   1.048   3.009   1.849
 1199SOL     OW 4495   4.615   4.825   1.920
 1199SOL    HW1 4496   4.561   4.883   1.981
 1199SOL    HW2 4497   4.680   4.771   1.974
 1200SOL     OW 4498   3.398   3.798   3.179
 1200SOL    HW1 4499   3.320   3.820   3.238
 1200SOL    HW2 4500   3.402   3.863   3.103
 1201SOL     OW 4501   1.232   1.138   4.491
 1201SOL    HW1 4502   1.311   1.198   4.476
 1201SOL    HW2 4503   1.162   1.158   4.423
 1202SOL     OW 4504   1.003   5.569   6.722
 1202SOL    HW1 4505   0.998   5.555   6.623
 1202SOL    HW2 4506   1.083   5.624   6.744
 1203SOL     OW 4507   5.672   6.045   6.827
 1203SOL    HW1 4508   5.630   6.091   6.749
 1203SOL    HW2 4509   5.601   5.997   6.879
 1204SOL     OW 4510   2.830   0.028   1.005
 1204SOL    HW1 4511   2.785   6.962   1.015
 1204SOL    HW2 4512   2.811   0.065   0.914
 1205SOL     OW 4513   5.570   3.956   1.441
 1205SOL    HW1 4514   5.550   3.935   1.537
 1205SOL    HW2 4515   5.484   3.976   1.394
 1206SOL     OW 4516   3.301   2.815   5.347
 1206SOL    HW1 4517   3.258   2.725   5.345
 1206SOL    HW2 4518   3.330   2.841   5.255
 1207SOL     OW 4519   1.749   0.000   1.073
 1207SOL    HW1 4520   1.752   6.945   1.011
 1207SOL    HW2 4521   1.832   0.055   1.063
 1208SOL     OW 4522   3.076   3.951   0.601
 1208SOL    HW1 4523   3.031   4.031   0.641
 1208SOL    HW2 4524   3.166   3.978   0.565
 1209SOL     OW 4525   4.111   0.880   5.207
 1209SOL    HW1 4526   4.016   0.849   5.212
 1209SOL    HW2 4527   4.150   0.886   5.299
 1210SOL     OW 4528   2.734   0.433   3.178
 1210SOL    HW1 4529   2.654   0.472   3.223
 1210SOL    HW2 4530   2.766   0.495   3.107
 1211SOL     OW 4531   1.737   3.722   1.386
 1211SOL    HW1 4532   1.748   3.819   1.405
 1211SOL    HW2 4533   1.709   3.709   1.290
 1212SOL     OW 4534   6.707   0.568   6.515
 1212SOL    HW1 4535   6.679   0.484   6.468
 1212SOL    HW2 4536   6.766   0.545   6.592
 1213SOL     OW 4537   6.343   2.412   0.513
 1213SOL    HW1 4538   6.302   2.491   0.467
 1213SOL    HW2 4539   6.320   2.414   0.610
 1214SOL     OW 4540   6.993   3.016   0.303
 1214SOL    HW1 4541   7.012   3.096   0.247
 1214SOL    HW2 4542   6.896   3.017   0.330
 1215SOL     OW 4543   1.445   3.866   4.061
 1215SOL    HW1 4544   1.479   3.954   4.094
 1215SOL    HW2 4545   1.455   3.861   3.962
 1216SOL     OW 4546   4.814   0.937   0.842
 1216SOL    HW1 4547   4.908   0.944   0.808
 1216SOL    HW2 4548   4.759   1.012   0.805
 1217SOL     OW 4549   1.284   4.951   1.073
 1217SOL    HW1 4550   1.202   4.954   1.130
 1217SOL    HW2 4551   1.364   4.976   1.128
 1218SOL     OW 4552   1.720   4.872   4.711
 1218SOL    HW1 4553   1.802   4.894   4.658
 1218SOL    HW2 4554   1.747   4.847   4.804
 1219SOL     OW 4555   5.399   5.286   2.093
 1219SOL    HW1 4556   5.429   5.248   2.181
 1219SOL    HW2 4557   5.397   5.385   2.098
 1220SOL     OW 4558   0.761   5.367   3.406
 1220SOL    HW1 4559   0.842   5.425   3.414
 1220SOL    HW2 4560   0.758   5.302   3.482
 1221SOL     OW 4561   4.861   3.338   5.746
 1221SOL    HW1 4562   4.839   3.403   5.673
 1221SOL    HW2 4563   4.796   3.263   5.746
 1222SOL     OW 4564   6.114   6.577   6.671
 1222SOL    HW1 4565   6.062   6.600   6.589
 1222SOL    HW2 4566   6.163   6.491   6.657
 1223SOL     OW 4567   3.909   0.359   0.988
 1223SOL    HW1 4568   3.913   0.391   1.083
 1223SOL    HW2 4569   3.833   0.405   0.941
 1224SOL     OW 4570   2.265   6.267   0.652
 1224SOL    HW1 4571   2.263   6.208   0.572
 1224SOL    HW2 4572   2.220   6.222   0.729
 1225SOL     OW 4573   3.739   4.105   6.177
 1225SOL    HW1 4574   3.736   4.205   6.176
 1225SOL    HW2 4575   3.651   4.069   6.144
 1226SOL     OW 4576   2.674   5.083   1.176
 1226SOL    HW1 4577   2.705   5.111   1.267
 1226SOL    HW2 4578   2.749   5.037   1.129
 1227SOL     OW 4579   7.003   3.358   6.378
 1227SOL    HW1 4580   0.022   3.298   6.447
 1227SOL    HW2 4581   0.032   3.443   6.373
 1228SOL     OW 4582   4.163   3.109   6.465
 1228SOL    HW1 4583   4.204   3.149   6.383
 1228SOL    HW2 4584   4.116   3.179   6.518
 1229SOL     OW 4585   3.701   4.746   6.236
 1229SOL    HW1 4586   3.755   4.671   6.272
 1229SOL    HW2 4587   3.722   4.830   6.287
 1230SOL     OW 4588   4.471   0.874   4.302
 1230SOL    HW1 4589   4.494   0.897   4.397
 1230SOL    HW2 4590   4.552   0.883   4.245
 1231SOL     OW 4591   0.865   3.876   5.033
 1231SOL    HW1 4592   0.819   3.852   5.118
 1231SOL    HW2 4593   0.915   3.962   5.045
 1232SOL     OW 4594   1.102   1.847   5.316
 1232SOL    HW1 4595   1.068   1.935   5.284
 1232SOL    HW2 4596   1.201   1.853   5.331
 1233SOL     OW 4597   1.780   3.271   4.868
 1233SOL    HW1 4598   1.738   3.184   4.894
 1233SOL    HW2 4599   1.854   3.293   4.931
 1234SOL     OW 4600   6.622   4.022   4.604
 1234SOL    HW1 4601   6.586   3.960   4.535
 1234SOL    HW2 4602   6.556   4.031   4.679
 1235SOL     OW 4603   0.027   6.107   2.422
 1235SOL    HW1 4604   0.080   6.027   2.447
 1235SOL    HW2 4605   0.082   6.166   2.363
 1236SOL     OW 4606   5.515   1.211   6.620
 1236SOL    HW1 4607   5.563   1.227   6.707
 1236SOL    HW2 4608   5.448   1.284   6.606
 1237SOL     OW 4609   2.504   5.250   6.701
 1237SOL    HW1 4610   2.483   5.169   6.646
 1237SOL    HW2 4611   2.560   5.225   6.779
 1238SOL     OW 4612   1.901   1.028   0.941
 1238SOL    HW1 4613   1.951   1.100   0.988
 1238SOL    HW2 4614   1.885   1.054   0.846
 1239SOL     OW 4615   6.991   6.357   6.401
 1239SOL    HW1 4616   6.893   6.364   6.379
 1239SOL    HW2 4617   0.018   6.327   6.320
 1240SOL     OW 4618   5.659   5.930   1.989
 1240SOL    HW1 4619   5.754   5.905   1.971
 1240SOL    HW2 4620   5.646   6.027   1.968
 1241SOL     OW 4621   6.528   3.199   4.223
 1241SOL    HW1 4622   6.521   3.238   4.315
 1241SOL    HW2 4623   6.598   3.249   4.171
 1242SOL     OW 4624   1.506   3.646   0.375
 1242SOL    HW1 4625   1.488   3.601   0.463
 1242SOL    HW2 4626   1.472   3.741   0.379
 1243SOL     OW 4627   1.399   6.034   5.529
 1243SOL    HW1 4628   1.478   6.094   5.540
 1243SOL    HW2 4629   1.350   6.058   5.445
 1244SOL     OW 4630   0.219   6.490   3.002
 1244SOL    HW1 4631   0.207   6.397   3.039
 1244SOL    HW2 4632   0.257   6.484   2.910
 1245SOL     OW 4633   4.181   3.972   6.174
 1245SOL    HW1 4634   4.175   3.902   6.102
 1245SOL    HW2 4635   4.230   3.934   6.252
 1246SOL     OW 4636   2.148   6.823   2.074
 1246SOL    HW1 4637   2.107   6.858   1.989
 1246SOL    HW2 4638   2.078   6.778   2.129
 1247SOL     OW 4639   2.916   0.222   6.727
 1247SOL    HW1 4640   2.936   0.259   6.637
 1247SOL    HW2 4641   2.896   0.124   6.719
 1248SOL     OW 4642   1.667   6.711   3.884
 1248SOL    HW1 4643   1.588   6.696   3.944
 1248SOL    HW2 4644   1.750   6.675   3.928
 1249SOL     OW 4645   5.540   2.903   2.265
 1249SOL    HW1 4646   5.513   2.991   2.304
 1249SOL    HW2 4647   5.502   2.829   2.320
 1250SOL     OW 4648   0.877   4.454   4.515
 1250SOL    HW1 4649   0.873   4.529   4.449
 1250SOL    HW2 4650   0.806   4.386   4.492
 1251SOL     OW 4651   4.257   0.278   4.889
 1251SOL    HW1 4652   4.279   0.242   4.980
 1251SOL    HW2 4653   4.218   0.204   4.833
 1252SOL     OW 4654   3.529   3.847   5.891
 1252SOL    HW1 4655   3.544   3.807   5.800
 1252SOL    HW2 4656   3.606   3.825   5.950
 1253SOL     OW 4657   3.811   5.714   1.727
 1253SOL    HW1 4658   3.800   5.806   1.765
 1253SOL    HW2 4659   3.748   5.651   1.773
 1254SOL     OW 4660   6.218   2.771   2.530
 1254SOL    HW1 4661   6.220   2.671   2.528
 1254SOL    HW2 4662   6.140   2.802   2.583
 1255SOL     OW 4663   6.549   0.972   5.120
 1255SOL    HW1 4664   6.637   0.933   5.094
 1255SOL    HW2 4665   6.476   0.932   5.064
 1256SOL     OW 4666   7.001   0.086   2.955
 1256SOL    HW1 4667   6.930   0.156   2.946
 1256SOL    HW2 4668   0.050   0.119   3.017
 1257SOL     OW 4669   0.383   0.009   3.366
 1257SOL    HW1 4670   0.430   0.098   3.361
 1257SOL    HW2 4671   0.430   6.974   3.433
 1258SOL     OW 4672   0.695   5.697   3.330
 1258SOL    HW1 4673   0.766   5.656   3.388
 1258SOL    HW2 4674   0.650   5.771   3.380
 1259SOL     OW 4675   3.871   1.821   4.771
 1259SOL    HW1 4676   3.939   1.773   4.716
 1259SOL    HW2 4677   3.917   1.882   4.835
 1260SOL     OW 4678   0.954   1.695   7.006
 1260SOL    HW1 4679   0.867   1.673   6.963
 1260SOL    HW2 4680   0.970   1.631   0.059
 1261SOL     OW 4681   6.985   5.503   0.161
 1261SOL    HW1 4682   6.995   5.448   0.078
 1261SOL    HW2 4683   6.995   5.599   0.139
 1262SOL     OW 4684   5.394   5.550   2.096
 1262SOL    HW1 4685   5.316   5.604   2.127
 1262SOL    HW2 4686   5.477   5.582   2.142
 1263SOL     OW 4687   0.597   1.598   2.386
 1263SOL    HW1 4688   0.649   1.680   2.410
 1263SOL    HW2 4689   0.506   1.625   2.354
 1264SOL     OW 4690   0.997   3.754   5.411
 1264SOL    HW1 4691   0.919   3.755   5.473
 1264SOL    HW2 4692   1.042   3.843   5.412
 1265SOL     OW 4693   6.467   5.520   4.475
 1265SOL    HW1 4694   6.454   5.421   4.477
 1265SOL    HW2 4695   6.494   5.549   4.383
 1266SOL     OW 4696   0.782   0.940   4.460
 1266SOL    HW1 4697   0.880   0.941   4.480
 1266SOL    HW2 4698   0.731   0.909   4.540
 1267SOL     OW 4699   5.146   0.501   1.922
 1267SOL    HW1 4700   5.221   0.436   1.918
 1267SOL    HW2 4701   5.085   0.478   1.998
 1268SOL     OW 4702   4.417   2.479   5.557
 1268SOL    HW1 4703   4.510   2.441   5.551
 1268SOL    HW2 4704   4.395   2.499   5.653
 1269SOL     OW 4705   5.213   2.553   4.375
 1269SOL    HW1 4706   5.131   2.499   4.396
 1269SOL    HW2 4707   5.188   2.649   4.362
 1270SOL     OW 4708   2.196   4.836   2.629
 1270SOL    HW1 4709   2.269   4.784   2.674
 1270SOL    HW2 4710   2.236   4.892   2.557
 1271SOL     OW 4711   1.818   0.768   1.031
 1271SOL    HW1 4712   1.837   0.863   1.008
 1271SOL    HW2 4713   1.836   0.752   1.128
 1272SOL     OW 4714   6.313   3.472   6.607
 1272SOL    HW1 4715   6.225   3.501   6.570
 1272SOL    HW2 4716   6.327   3.512   6.697
 1273SOL     OW 4717   1.307   4.528   4.709
 1273SOL    HW1 4718   1.339   4.476   4.630
 1273SOL    HW2 4719   1.385   4.559   4.763
 1274SOL     OW 4720   0.540   4.639   1.649
 1274SOL    HW1 4721   0.569   4.638   1.745
 1274SOL    HW2 4722   0.467   4.572   1.636
 1275SOL     OW 4723   3.047   0.872   3.914
 1275SOL    HW1 4724   3.079   0.814   3.839
 1275SOL    HW2 4725   2.984   0.941   3.879
 1276SOL     OW 4726   5.599   4.625   3.853
 1276SOL    HW1 4727   5.521   4.570   3.882
 1276SOL    HW2 4728   5.675   4.611   3.916
 1277SOL     OW 4729   0.640   5.714   0.095
 1277SOL    HW1 4730   0.620   5.695   0.191
 1277SOL    HW2 4731   0.714   5.654   0.064
 1278SOL     OW 4732   1.745   6.929   3.309
 1278SOL    HW1 4733   1.741   6.829   3.310
 1278SOL    HW2 4734   1.695   6.964   3.389
 1279SOL     OW 4735   2.946   3.854   6.079
 1279SOL    HW1 4736   2.974   3.805   5.997
 1279SOL    HW2 4737   3.007   3.932   6.093
 1280SOL     OW 4738   3.912   0.969   4.028
 1280SOL    HW1 4739   3.939   0.952   4.123
 1280SOL    HW2 4740   3.851   1.049   4.026
 1281SOL     OW 4741   3.367   6.092   3.844
 1281SOL    HW1 4742   3.435   6.107   3.916
 1281SOL    HW2 4743   3.289   6.042   3.883
 1282SOL     OW 4744   6.651   3.134   0.855
 1282SOL    HW1 4745   6.640   3.086   0.768
 1282SOL    HW2 4746   6.749   3.148   0.872
 1283SOL     OW 4747   6.217   4.092   5.213
 1283SOL    HW1 4748   6.307   4.054   5.195
 1283SOL    HW2 4749   6.218   4.142   5.300
 1284SOL     OW 4750   3.900   0.916   1.215
 1284SOL    HW1 4751   3.914   0.879   1.123
 1284SOL    HW2 4752   3.912   0.843   1.283
 1285SOL     OW 4753   3.407   1.387   4.801
 1285SOL    HW1 4754   3.423   1.482   4.775
 1285SOL    HW2 4755   3.376   1.383   4.896
 1286SOL     OW 4756   5.029   3.100   1.585
 1286SOL    HW1 4757   5.021   3.050   1.498
 1286SOL    HW2 4758   4.939   3.104   1.628
 1287SOL     OW 4759   5.830   4.757   4.898
 1287SOL    HW1 4760   5.755   4.724   4.842
 1287SOL    HW2 4761   5.887   4.680   4.927
 1288SOL     OW 4762   4.648   4.456   6.578
 1288SOL    HW1 4763   4.666   4.530   6.643
 1288SOL    HW2 4764   4.649   4.492   6.485
 1289SOL     OW 4765   6.764   0.461   1.327
 1289SOL    HW1 4766   6.677   0.500   1.356
 1289SOL    HW2 4767   6.804   0.519   1.256
 1290SOL     OW 4768   1.565   0.738   0.374
 1290SOL    HW1 4769   1.597   0.772   0.462
 1290SOL    HW2 4770   1.591   0.642   0.364
 1291SOL     OW 4771   6.525   5.058   4.148
 1291SOL    HW1 4772   6.463   5.013   4.211
 1291SOL    HW2 4773   6.484   5.060   4.056
 1292SOL     OW 4774   0.245   5.353   2.696
 1292SOL    HW1 4775   0.151   5.375   2.671
 1292SOL    HW2 4776   0.291   5.310   2.618
 1293SOL     OW 4777   2.277   1.700   6.983
 1293SOL    HW1 4778   2.347   1.721   0.028
 1293SOL    HW2 4779   2.316   1.707   6.892
 1294SOL     OW 4780   2.047   4.737   6.411
 1294SOL    HW1 4781   2.098   4.677   6.473
 1294SOL    HW2 4782   2.071   4.715   6.317
 1295SOL     OW 4783   0.501   3.597   0.928
 1295SOL    HW1 4784   0.421   3.628   0.980
 1295SOL    HW2 4785   0.555   3.534   0.983
 1296SOL     OW 4786   5.215   0.047   5.701
 1296SOL    HW1 4787   5.210   7.003   5.628
 1296SOL    HW2 4788   5.154   0.020   5.776
 1297SOL     OW 4789   0.822   6.952   2.627
 1297SOL    HW1 4790   0.778   6.907   2.550
 1297SOL    HW2 4791   0.922   6.948   2.616
 1298SOL     OW 4792   5.535   6.161   3.000
 1298SOL    HW1 4793   5.606   6.122   3.058
 1298SOL    HW2 4794   5.562   6.155   2.904
 1299SOL     OW 4795   2.111   3.123   4.378
 1299SOL    HW1 4796   2.145   3.054   4.315
 1299SOL    HW2 4797   2.129   3.095   4.472
 1300SOL     OW 4798   2.043   3.551   0.974
 1300SOL    HW1 4799   1.997   3.507   0.897
 1300SOL    HW2 4800   2.134   3.512   0.985
 1301SOL     OW 4801   0.658   0.699   1.531
 1301SOL    HW1 4802   0.590   0.652   1.588
 1301SOL    HW2 4803   0.743   0.709   1.582
 1302SOL     OW 4804   5.645   0.654   5.578
 1302SOL    HW1 4805   5.554   0.679   5.611
 1302SOL    HW2 4806   5.712   0.720   5.612
 1303SOL     OW 4807   3.693   6.918   1.881
 1303SOL    HW1 4808   3.649   6.860   1.813
 1303SOL    HW2 4809   3.774   6.961   1.841
 1304SOL     OW 4810   1.007   1.308   0.976
 1304SOL    HW1 4811   0.936   1.333   1.041
 1304SOL    HW2 4812   1.086   1.272   1.025
 1305SOL     OW 4813   5.126   4.278   6.007
 1305SOL    HW1 4814   5.192   4.342   6.045
 1305SOL    HW2 4815   5.100   4.308   5.915
 1306SOL     OW 4816   1.082   5.986   4.870
 1306SOL    HW1 4817   1.038   6.076   4.864
 1306SOL    HW2 4818   1.091   5.948   4.778
 1307SOL     OW 4819   1.788   3.199   4.130
 1307SOL    HW1 4820   1.860   3.268   4.122
 1307SOL    HW2 4821   1.807   3.140   4.209
 1308SOL     OW 4822   6.341   5.961   6.576
 1308SOL    HW1 4823   6.312   5.970   6.480
 1308SOL    HW2 4824   6.270   5.913   6.628
 1309SOL     OW 4825   5.089   4.879   5.903
 1309SOL    HW1 4826   5.008   4.855   5.850
 1309SOL    HW2 4827   5.170   4.874   5.844
 1310SOL     OW 4828   0.598   3.817   3.894
 1310SOL    HW1 4829   0.623   3.873   3.815
 1310SOL    HW2 4830   0.660   3.738   3.899
 1311SOL     OW 4831   6.355   5.606   0.038
 1311SOL    HW1 4832   6.332   5.636   0.131
 1311SOL    HW2 4833   6.276   5.558   7.022
 1312SOL     OW 4834   1.062   0.965   5.714
 1312SOL    HW1 4835   0.989   1.017   5.758
 1312SOL    HW2 4836   1.029   0.874   5.690
 1313SOL     OW 4837   5.963   5.367   3.216
 1313SOL    HW1 4838   5.953   5.459   3.177
 1313SOL    HW2 4839   5.874   5.331   3.241
 1314SOL     OW 4840   2.986   1.674   4.521
 1314SOL    HW1 4841   2.918   1.640   4.587
 1314SOL    HW2 4842   3.076   1.677   4.565
 1315SOL     OW 4843   6.782   0.796   3.723
 1315SOL    HW1 4844   6.862   0.844   3.686
 1315SOL    HW2 4845   6.801   0.771   3.818
 1316SOL     OW 4846   4.078   0.160   5.720
 1316SOL    HW1 4847   4.110   0.241   5.670
 1316SOL    HW2 4848   3.981   0.146   5.701
 1317SOL     OW 4849   1.961   4.410   5.694
 1317SOL    HW1 4850   2.023   4.440   5.623
 1317SOL    HW2 4851   1.867   4.438   5.672
 1318SOL     OW 4852   2.147   3.042   6.892
 1318SOL    HW1 4853   2.112   3.019   6.983
 1318SOL    HW2 4854   2.093   2.994   6.822
 1319SOL     OW 4855   0.044   6.039   0.200
 1319SOL    HW1 4856   6.987   6.086   0.164
 1319SOL    HW2 4857   0.108   6.019   0.125
 1320SOL     OW 4858   3.073   2.782   6.602
 1320SOL    HW1 4859   3.011   2.736   6.666
 1320SOL    HW2 4860   3.139   2.715   6.566
 1321SOL     OW 4861   4.852   1.965   6.957
 1321SOL    HW1 4862   4.918   1.897   6.925
 1321SOL    HW2 4863   4.898   2.030   7.017
 1322SOL     OW 4864   3.271   1.121   5.598
 1322SOL    HW1 4865   3.361   1.137   5.558
 1322SOL    HW2 4866   3.201   1.163   5.541
 1323SOL     OW 4867   3.387   6.878   0.646
 1323SOL    HW1 4868   3.408   6.825   0.564
 1323SOL    HW2 4869   3.339   6.820   0.711
 1324SOL     OW 4870   1.254   3.868   0.449
 1324SOL    HW1 4871   1.288   3.853   0.542
 1324SOL    HW2 4872   1.224   3.781   0.410
 1325SOL     OW 4873   2.988   5.877   5.623
 1325SOL    HW1 4874   3.063   5.907   5.683
 1325SOL    HW2 4875   3.026   5.824   5.547
 1326SOL     OW 4876   4.711   4.330   4.888
 1326SOL    HW1 4877   4.798   4.308   4.842
 1326SOL    HW2 4878   4.691   4.260   4.956
 1327SOL     OW 4879   0.398   0.122   1.218
 1327SOL    HW1 4880   0.466   0.051   1.199
 1327SOL    HW2 4881   0.424   0.172   1.301
 1328SOL     OW 4882   1.208   3.058   6.138
 1328SOL    HW1 4883   1.171   3.103   6.220
 1328SOL    HW2 4884   1.138   3.056   6.067
 1329SOL     OW 4885   0.604   1.656   2.745
 1329SOL    HW1 4886   0.656   1.678   2.663
 1329SOL    HW2 4887   0.510   1.689   2.734
 1330SOL     OW 4888   0.107   2.047   0.982
 1330SOL    HW1 4889   0.052   1.979   0.933
 1330SOL    HW2 4890   0.171   1.999   1.043
 1331SOL     OW 4891   4.526   1.929   2.593
 1331SOL    HW1 4892   4.585   1.852   2.617
 1331SOL    HW2 4893   4.576   2.014   2.607
 1332SOL     OW 4894   1.901   0.587   0.367
 1332SOL    HW1 4895   1.863   0.594   0.459
 1332SOL    HW2 4896   1.863   0.660   0.310
 1333SOL     OW 4897   3.503   4.179   3.135
 1333SOL    HW1 4898   3.473   4.097   3.088
 1333SOL    HW2 4899   3.578   4.221   3.084
 1334SOL     OW 4900   6.934   1.772   3.100
 1334SOL    HW1 4901   6.845   1.739   3.069
 1334SOL    HW2 4902   7.003   1.751   3.030
 1335SOL     OW 4903   1.690   3.064   1.319
 1335SOL    HW1 4904   1.754   3.139   1.300
 1335SOL    HW2 4905   1.735   2.995   1.375
 1336SOL     OW 4906   3.877   1.269   5.498
 1336SOL    HW1 4907   3.846   1.265   5.593
 1336SOL    HW2 4908   3.824   1.204   5.443
 1337SOL     OW 4909   6.859   1.229   2.985
 1337SOL    HW1 4910   6.796   1.245   2.908
 1337SOL    HW2 4911   6.935   1.173   2.954
 1338SOL     OW 4912   6.180   4.079   3.889
 1338SOL    HW1 4913   6.176   4.015   3.813
 1338SOL    HW2 4914   6.230   4.161   3.861
 1339SOL     OW 4915   0.327   0.501   0.069
 1339SOL    HW1 4916   0.258   0.433   0.045
 1339SOL    HW2 4917   0.304   0.589   0.027
 1340SOL     OW 4918   4.733   1.669   2.043
 1340SOL    HW1 4919   4.817   1.724   2.054
 1340SOL    HW2 4920   4.657   1.730   2.020
 1341SOL     OW 4921   4.728   6.404   0.496
 1341SOL    HW1 4922   4.711   6.490   0.448
 1341SOL    HW2 4923   4.820   6.370   0.472
 1342SOL     OW 4924   2.947   5.850   0.609
 1342SOL    HW1 4925   2.999   5.907   0.673
 1342SOL    HW2 4926   2.850   5.850   0.636
 1343SOL     OW 4927   5.841   5.356   2.921
 1343SOL    HW1 4928   5.837   5.436   2.862
 1343SOL    HW2 4929   5.936   5.325   2.928
 1344SOL     OW 4930   0.524   6.509   4.242
 1344SOL    HW1 4931   0.472   6.588   4.211
 1344SOL    HW2 4932   0.462   6.443   4.284
 1345SOL     OW 4933   0.667   4.853   2.111
 1345SOL    HW1 4934   0.572   4.883   2.096
 1345SOL    HW2 4935   0.729   4.910   2.057
 1346SOL     OW 4936   1.935   5.136   6.040
 1346SOL    HW1 4937   1.926   5.233   6.015
 1346SOL    HW2 4938   2.032   5.111   6.039
 1347SOL     OW 4939   1.561   0.387   5.703
 1347SOL    HW1 4940   1.637   0.450   5.686
 1347SOL    HW2 4941   1.476   0.438   5.710
 1348SOL     OW 4942   0.542   5.827   5.331
 1348SOL    HW1 4943   0.618   5.768   5.357
 1348SOL    HW2 4944   0.489   5.850   5.413
 1349SOL     OW 4945   5.488   3.082   3.984
 1349SOL    HW1 4946   5.554   3.084   3.909
 1349SOL    HW2 4947   5.537   3.092   4.071
 1350SOL     OW 4948   3.674   4.327   0.283
 1350SOL    HW1 4949   3.768   4.358   0.294
 1350SOL    HW2 4950   3.611   4.402   0.304
 1351SOL     OW 4951   6.156   1.936   3.793
 1351SOL    HW1 4952   6.192   1.879   3.719
 1351SOL    HW2 4953   6.057   1.926   3.797
 1352SOL     OW 4954   0.146   0.176   1.937
 1352SOL    HW1 4955   0.122   0.191   2.033
 1352SOL    HW2 4956   0.072   0.209   1.879
 1353SOL     OW 4957   0.526   2.147   0.866
 1353SOL    HW1 4958   0.439   2.189   0.892
 1353SOL    HW2 4959   0.516   2.047   0.867
 1354SOL     OW 4960   6.905   4.180   2.000
 1354SOL    HW1 4961   6.858   4.246   2.059
 1354SOL    HW2 4962   6.981   4.139   2.051
 1355SOL     OW 4963   6.082   3.707   4.159
 1355SOL    HW1 4964   6.060   3.690   4.063
 1355SOL    HW2 4965   6.135   3.792   4.166
 1356SOL     OW 4966   3.652   2.989   2.405
 1356SOL    HW1 4967   3.624   3.078   2.369
 1356SOL    HW2 4968   3.672   2.997   2.502
 1357SOL     OW 4969   6.850   3.395   6.135
 1357SOL    HW1 4970   6.800   3.468   6.089
 1357SOL    HW2 4971   6.870   3.421   6.229
 1358SOL     OW 4972   6.378   0.098   0.217
 1358SOL    HW1 4973   6.354   0.187   0.178
 1358SOL    HW2 4974   6.432   0.046   0.151
 1359SOL     OW 4975   6.068   4.447   1.385
 1359SOL    HW1 4976   6.094   4.518   1.451
 1359SOL    HW2 4977   6.014   4.488   1.312
 1360SOL     OW 4978   3.402   3.371   0.148
 1360SOL    HW1 4979   3.326   3.436   0.145
 1360SOL    HW2 4980   3.461   3.392   0.226
 1361SOL     OW 4981   6.976   4.897   4.972
 1361SOL    HW1 4982   0.044   4.936   4.985
 1361SOL    HW2 4983   6.945   4.857   5.059
 1362SOL     OW 4984   3.997   3.388   2.716
 1362SOL    HW1 4985   4.049   3.473   2.722
 1362SOL    HW2 4986   3.963   3.376   2.623
 1363SOL     OW 4987   0.081   5.373   5.301
 1363SOL    HW1 4988   0.037   5.355   5.389
 1363SOL    HW2 4989   0.028   5.331   5.227
 1364SOL     OW 4990   4.003   4.706   6.567
 1364SOL    HW1 4991   3.910   4.732   6.592
 1364SOL    HW2 4992   4.048   4.663   6.646
 1365SOL     OW 4993   0.949   4.416   6.241
 1365SOL    HW1 4994   0.854   4.387   6.238
 1365SOL    HW2 4995   0.996   4.369   6.315
 1366SOL     OW 4996   1.847   0.191   5.109
 1366SOL    HW1 4997   1.847   0.117   5.176
 1366SOL    HW2 4998   1.772   0.254   5.128
 1367SOL     OW 4999   1.557   1.733   2.599
 1367SOL    HW1 5000   1.536   1.823   2.561
 1367SOL    HW2 5001   1.499   1.664   2.555
 1368SOL     OW 5002   5.488   6.843   4.360
 1368SOL    HW1 5003   5.475   6.752   4.320
 1368SOL    HW2 5004   5.404   6.870   4.408
 1369SOL     OW 5005   0.907   6.395   3.262
 1369SOL    HW1 5006   0.848   6.329   3.216
 1369SOL    HW2 5007   0.972   6.433   3.197
 1370SOL     OW 5008   3.196   0.513   1.557
 1370SOL    HW1 5009   3.166   0.558   1.641
 1370SOL    HW2 5010   3.202   0.580   1.483
 1371SOL     OW 5011   4.426   0.748   5.917
 1371SOL    HW1 5012   4.360   0.757   5.992
 1371SOL    HW2 5013   4.514   0.721   5.954
 1372SOL     OW 5014   2.150   2.376   1.096
 1372SOL    HW1 5015   2.082   2.449   1.087
 1372SOL    HW2 5016   2.219   2.387   1.024
 1373SOL     OW 5017   0.204   5.113   0.864
 1373SOL    HW1 5018   0.224   5.197   0.914
 1373SOL    HW2 5019   0.108   5.089   0.874
 1374SOL     OW 5020   3.934   2.031   1.218
 1374SOL    HW1 5021   3.933   2.102   1.289
 1374SOL    HW2 5022   3.962   2.071   1.131
 1375SOL     OW 5023   6.876   5.066   6.000
 1375SOL    HW1 5024   6.949   5.045   5.934
 1375SOL    HW2 5025   6.831   5.151   5.972
 1376SOL     OW 5026   4.811   2.970   3.599
 1376SOL    HW1 5027   4.851   3.016   3.678
 1376SOL    HW2 5028   4.835   2.873   3.602
 1377SOL     OW 5029   0.367   4.786   5.404
 1377SOL    HW1 5030   0.431   4.863   5.403
 1377SOL    HW2 5031   0.350   4.756   5.310
 1378SOL     OW 5032   1.005   2.593   6.786
 1378SOL    HW1 5033   1.049   2.519   6.736
 1378SOL    HW2 5034   0.957   2.653   6.722
 1379SOL     OW 5035   3.601   6.179   3.072
 1379SOL    HW1 5036   3.667   6.104   3.079
 1379SOL    HW2 5037   3.508   6.141   3.070
 1380SOL     OW 5038   6.551   6.893   2.771
 1380SOL    HW1 5039   6.649   6.874   2.782
 1380SOL    HW2 5040   6.521   6.957   2.841
 1381SOL     OW 5041   6.068   2.768   0.231
 1381SOL    HW1 5042   6.052   2.725   0.142
 1381SOL    HW2 5043   6.134   2.842   0.220
 1382SOL     OW 5044   5.760   4.821   6.100
 1382SOL    HW1 5045   5.783   4.733   6.059
 1382SOL    HW2 5046   5.767   4.894   6.032
 1383SOL     OW 5047   1.007   0.535   0.146
 1383SOL    HW1 5048   0.953   0.466   0.194
 1383SOL    HW2 5049   1.051   0.595   0.213
 1384SOL     OW 5050   4.319   1.591   3.092
 1384SOL    HW1 5051   4.354   1.585   2.998
 1384SOL    HW2 5052   4.395   1.604   3.155
 1385SOL     OW 5053   6.394   2.804   2.858
 1385SOL    HW1 5054   6.404   2.867   2.780
 1385SOL    HW2 5055   6.310   2.750   2.845
 1386SOL     OW 5056   2.196   3.022   4.618
 1386SOL    HW1 5057   2.252   2.970   4.554
 1386SOL    HW2 5058   2.187   2.971   4.704
 1387SOL     OW 5059   3.434   0.457   5.221
 1387SOL    HW1 5060   3.490   0.384   5.259
 1387SOL    HW2 5061   3.426   0.532   5.287
 1388SOL     OW 5062   6.463   0.906   3.981
 1388SOL    HW1 5063   6.474   0.877   3.886
 1388SOL    HW2 5064   6.511   0.842   4.041
 1389SOL     OW 5065   5.850   7.005   4.942
 1389SOL    HW1 5066   5.834   0.030   4.856
 1389SOL    HW2 5067   5.946   6.975   4.945
 1390SOL     OW 5068   4.083   1.419   1.759
 1390SOL    HW1 5069   4.049   1.348   1.820
 1390SOL    HW2 5070   4.128   1.491   1.813
 1391SOL     OW 5071   5.932   0.614   4.315
 1391SOL    HW1 5072   5.926   0.658   4.405
 1391SOL    HW2 5073   5.980   0.674   4.251
 1392SOL     OW 5074   5.095   5.676   6.749
 1392SOL    HW1 5075   4.998   5.699   6.739
 1392SOL    HW2 5076   5.110   5.634   6.839
 1393SOL     OW 5077   6.717   1.172   6.141
 1393SOL    HW1 5078   6.684   1.140   6.052
 1393SOL    HW2 5079   6.812   1.203   6.132
 1394SOL     OW 5080   4.186   6.969   3.613
 1394SOL    HW1 5081   4.194   6.888   3.555
 1394SOL    HW2 5082   4.268   6.978   3.670
 1395SOL     OW 5083   1.654   4.798   2.870
 1395SOL    HW1 5084   1.734   4.772   2.817
 1395SOL    HW2 5085   1.636   4.728   2.940
 1396SOL     OW 5086   2.598   0.988   4.573
 1396SOL    HW1 5087   2.617   1.077   4.532
 1396SOL    HW2 5088   2.616   0.991   4.671
 1397SOL     OW 5089   0.465   5.428   4.099
 1397SOL    HW1 5090   0.388   5.490   4.113
 1397SOL    HW2 5091   0.431   5.338   4.073
 1398SOL     OW 5092   0.726   1.654   0.944
 1398SOL    HW1 5093   0.810   1.622   0.900
 1398SOL    HW2 5094   0.749   1.724   1.012
 1399SOL     OW 5095   3.861   0.439   0.656
 1399SOL    HW1 5096   3.810   0.420   0.572
 1399SOL    HW2 5097   3.912   0.358   0.684
 1400SOL     OW 5098   6.242   0.412   4.113
 1400SOL    HW1 5099   6.153   0.427   4.069
 1400SOL    HW2 5100   6.258   0.314   4.122
 1401SOL     OW 5101   5.582   0.185   2.925
 1401SOL    HW1 5102   5.550   0.275   2.893
 1401SOL    HW2 5103   5.669   0.196   2.973
 1402SOL     OW 5104   5.726   3.738   1.706
 1402SOL    HW1 5105   5.787   3.668   1.670
 1402SOL    HW2 5106   5.753   3.827   1.670
 1403SOL     OW 5107   3.576   2.899   0.056
 1403SOL    HW1 5108   3.578   2.803   0.083
 1403SOL    HW2 5109   3.482   2.927   0.038
 1404SOL     OW 5110   4.409   6.908   1.030
 1404SOL    HW1 5111   4.328   6.857   1.000
 1404SOL    HW2 5112   4.398   6.937   1.125
 1405SOL     OW 5113   2.399   2.979   1.361
 1405SOL    HW1 5114   2.456   2.904   1.393
 1405SOL    HW2 5115   2.439   3.018   1.278
 1406SOL     OW 5116   2.792   3.384   1.148
 1406SOL    HW1 5117   2.735   3.358   1.225
 1406SOL    HW2 5118   2.875   3.328   1.147
 1407SOL     OW 5119   0.279   3.020   0.978
 1407SOL    HW1 5120   0.236   2.965   0.907
 1407SOL    HW2 5121   0.375   3.036   0.955
 1408SOL     OW 5122   5.893   5.958   6.535
 1408SOL    HW1 5123   5.865   6.053   6.527
 1408SOL    HW2 5124   5.816   5.898   6.511
 1409SOL     OW 5125   0.005   1.384   6.045
 1409SOL    HW1 5126   7.008   1.326   6.123
 1409SOL    HW2 5127   0.014   1.479   6.075
 1410SOL     OW 5128   3.589   2.124   6.277
 1410SOL    HW1 5129   3.689   2.132   6.273
 1410SOL    HW2 5130   3.561   2.107   6.371
 1411SOL     OW 5131   4.103   5.870   0.647
 1411SOL    HW1 5132   4.021   5.880   0.590
 1411SOL    HW2 5133   4.156   5.791   0.617
 1412SOL     OW 5134   1.594   2.658   0.641
 1412SOL    HW1 5135   1.542   2.616   0.715
 1412SOL    HW2 5136   1.564   2.621   0.553
 1413SOL     OW 5137   1.779   1.623   4.756
 1413SOL    HW1 5138   1.839   1.593   4.682
 1413SOL    HW2 5139   1.835   1.647   4.836
 1414SOL     OW 5140   1.203   3.729   2.118
 1414SOL    HW1 5141   1.275   3.696   2.180
 1414SOL    HW2 5142   1.137   3.782   2.171
 1415SOL     OW 5143   1.795   2.126   3.959
 1415SOL    HW1 5144   1.816   2.093   3.867
 1415SOL    HW2 5145   1.842   2.069   4.026
 1416SOL     OW 5146   4.209   6.906   5.503
 1416SOL    HW1 5147   4.165   6.902   5.593
 1416SOL    HW2 5148   4.198   6.998   5.465
 1417SOL     OW 5149   3.869   3.101   5.916
 1417SOL    HW1 5150   3.772   3.119   5.932
 1417SOL    HW2 5151   3.890   3.118   5.820
 1418SOL     OW 5152   3.624   4.210   6.538
 1418SOL    HW1 5153   3.687   4.140   6.574
 1418SOL    HW2 5154   3.647   4.298   6.579
 1419SOL     OW 5155   2.116   4.709   3.521
 1419SOL    HW1 5156   2.023   4.746   3.530
 1419SOL    HW2 5157   2.125   4.664   3.432
 1420SOL     OW 5158   3.433   5.854   3.270
 1420SOL    HW1 5159   3.370   5.844   3.347
 1420SOL    HW2 5160   3.495   5.931   3.287
 1421SOL     OW 5161   1.486   5.492   5.715
 1421SOL    HW1 5162   1.545   5.436   5.773
 1421SOL    HW2 5163   1.410   5.436   5.681
 1422SOL     OW 5164   2.283   3.609   5.735
 1422SOL    HW1 5165   2.276   3.548   5.656
 1422SOL    HW2 5166   2.352   3.680   5.717
 1423SOL     OW 5167   4.610   1.376   4.895
 1423SOL    HW1 5168   4.514   1.359   4.916
 1423SOL    HW2 5169   4.668   1.328   4.961
 1424SOL     OW 5170   5.695   2.646   6.712
 1424SOL    HW1 5171   5.766   2.698   6.665
 1424SOL    HW2 5172   5.718   2.549   6.710
 1425SOL     OW 5173   4.480   6.445   3.479
 1425SOL    HW1 5174   4.403   6.504   3.501
 1425SOL    HW2 5175   4.465   6.355   3.518
 1426SOL     OW 5176   2.997   2.502   6.588
 1426SOL    HW1 5177   2.971   2.463   6.500
 1426SOL    HW2 5178   2.915   2.518   6.643
 1427SOL     OW 5179   1.691   1.356   3.224
 1427SOL    HW1 5180   1.754   1.294   3.177
 1427SOL    HW2 5181   1.622   1.389   3.160
 1428SOL     OW 5182   0.026   3.654   3.722
 1428SOL    HW1 5183   6.988   3.692   3.792
 1428SOL    HW2 5184   7.019   3.561   3.700
 1429SOL     OW 5185   5.779   0.799   0.710
 1429SOL    HW1 5186   5.852   0.811   0.643
 1429SOL    HW2 5187   5.708   0.739   0.672
 1430SOL     OW 5188   2.146   3.729   3.347
 1430SOL    HW1 5189   2.183   3.769   3.431
 1430SOL    HW2 5190   2.148   3.798   3.275
 1431SOL     OW 5191   1.949   1.698   5.817
 1431SOL    HW1 5192   1.909   1.690   5.908
 1431SOL    HW2 5193   2.037   1.650   5.815
 1432SOL     OW 5194   2.835   1.744   2.185
 1432SOL    HW1 5195   2.883   1.748   2.097
 1432SOL    HW2 5196   2.901   1.735   2.259
 1433SOL     OW 5197   2.903   0.073   4.456
 1433SOL    HW1 5198   2.962   0.118   4.523
 1433SOL    HW2 5199   2.957   0.051   4.375
 1434SOL     OW 5200   0.259   3.374   0.166
 1434SOL    HW1 5201   0.296   3.313   0.096
 1434SOL    HW2 5202   0.233   3.461   0.125
 1435SOL     OW 5203   0.951   0.149   4.681
 1435SOL    HW1 5204   0.999   0.150   4.593
 1435SOL    HW2 5205   0.867   0.095   4.672
 1436SOL     OW 5206   5.662   1.675   0.864
 1436SOL    HW1 5207   5.760   1.653   0.861
 1436SOL    HW2 5208   5.648   1.753   0.926
 1437SOL     OW 5209   4.757   0.569   5.866
 1437SOL    HW1 5210   4.708   0.583   5.952
 1437SOL    HW2 5211   4.854   0.555   5.885
 1438SOL     OW 5212   2.717   0.368   1.664
 1438SOL    HW1 5213   2.658   0.442   1.694
 1438SOL    HW2 5214   2.775   0.338   1.739
 1439SOL     OW 5215   0.071   5.054   0.185
 1439SOL    HW1 5216   0.032   4.968   0.153
 1439SOL    HW2 5217   0.002   5.106   0.235
 1440SOL     OW 5218   2.928   3.269   3.397
 1440SOL    HW1 5219   2.923   3.365   3.371
 1440SOL    HW2 5220   2.873   3.253   3.479
 1441SOL     OW 5221   6.833   2.666   3.494
 1441SOL    HW1 5222   6.822   2.750   3.547
 1441SOL    HW2 5223   6.874   2.595   3.552
 1442SOL     OW 5224   4.766   4.627   0.548
 1442SOL    HW1 5225   4.676   4.659   0.517
 1442SOL    HW2 5226   4.775   4.645   0.646
 1443SOL     OW 5227   0.740   2.185   3.448
 1443SOL    HW1 5228   0.835   2.212   3.463
 1443SOL    HW2 5229   0.680   2.256   3.483
 1444SOL     OW 5230   4.287   0.826   3.479
 1444SOL    HW1 5231   4.200   0.830   3.431
 1444SOL    HW2 5232   4.351   0.891   3.438
 1445SOL     OW 5233   6.399   2.742   1.939
 1445SOL    HW1 5234   6.357   2.807   1.875
 1445SOL    HW2 5235   6.434   2.663   1.889
 1446SOL     OW 5236   3.715   1.712   1.450
 1446SOL    HW1 5237   3.729   1.623   1.493
 1446SOL    HW2 5238   3.802   1.762   1.449
 1447SOL     OW 5239   6.357   1.031   4.550
 1447SOL    HW1 5240   6.331   1.082   4.467
 1447SOL    HW2 5241   6.317   1.075   4.630
 1448SOL     OW 5242   5.229   0.891   6.386
 1448SOL    HW1 5243   5.299   0.849   6.329
 1448SOL    HW2 5244   5.148   0.831   6.389
 1449SOL     OW 5245   4.926   5.707   1.233
 1449SOL    HW1 5246   4.859   5.738   1.166
 1449SOL    HW2 5247   4.884   5.703   1.324
 1450SOL     OW 5248   5.835   2.749   2.981
 1450SOL    HW1 5249   5.860   2.802   3.062
 1450SOL    HW2 5250   5.737   2.731   2.981
 1451SOL     OW 5251   1.569   6.339   2.741
 1451SOL    HW1 5252   1.620   6.366   2.660
 1451SOL    HW2 5253   1.478   6.307   2.714
 1452SOL     OW 5254   4.861   1.077   5.654
 1452SOL    HW1 5255   4.819   1.152   5.603
 1452SOL    HW2 5256   4.792   1.008   5.675
 1453SOL     OW 5257   5.451   4.641   5.099
 1453SOL    HW1 5258   5.358   4.605   5.087
 1453SOL    HW2 5259   5.446   4.735   5.134
 1454SOL     OW 5260   4.710   3.583   1.702
 1454SOL    HW1 5261   4.740   3.489   1.684
 1454SOL    HW2 5262   4.784   3.633   1.747
 1455SOL     OW 5263   1.356   2.118   1.942
 1455SOL    HW1 5264   1.407   2.167   2.014
 1455SOL    HW2 5265   1.352   2.174   1.860
 1456SOL     OW 5266   6.357   6.522   4.451
 1456SOL    HW1 5267   6.445   6.512   4.497
 1456SOL    HW2 5268   6.328   6.618   4.456
 1457SOL     OW 5269   1.754   0.625   3.316
 1457SOL    HW1 5270   1.796   0.534   3.320
 1457SOL    HW2 5271   1.666   0.624   3.364
 1458SOL     OW 5272   5.818   6.032   6.194
 1458SOL    HW1 5273   5.816   5.943   6.149
 1458SOL    HW2 5274   5.899   6.083   6.164
 1459SOL     OW 5275   2.372   6.387   6.940
 1459SOL    HW1 5276   2.437   6.456   6.973
 1459SOL    HW2 5277   2.282   6.406   6.979
 1460SOL     OW 5278   1.533   0.092   6.821
 1460SOL    HW1 5279   1.514   0.179   6.867
 1460SOL    HW2 5280   1.468   0.079   6.746
 1461SOL     OW 5281   5.304   4.417   2.241
 1461SOL    HW1 5282   5.236   4.348   2.267
 1461SOL    HW2 5283   5.257   4.496   2.201
 1462SOL     OW 5284   5.689   1.267   6.846
 1462SOL    HW1 5285   5.708   1.191   6.909
 1462SOL    HW2 5286   5.694   1.353   6.895
 1463SOL     OW 5287   0.828   0.934   5.086
 1463SOL    HW1 5288   0.834   1.031   5.062
 1463SOL    HW2 5289   0.916   0.903   5.121
 1464SOL     OW 5290   7.006   6.455   0.963
 1464SOL    HW1 5291   0.049   6.413   1.026
 1464SOL    HW2 5292   0.029   6.477   0.877
 1465SOL     OW 5293   0.161   0.094   4.756
 1465SOL    HW1 5294   0.167   0.153   4.837
 1465SOL    HW2 5295   0.249   0.094   4.709
 1466SOL     OW 5296   5.784   5.078   2.983
 1466SOL    HW1 5297   5.796   5.176   2.970
 1466SOL    HW2 5298   5.697   5.050   2.941
 1467SOL     OW 5299   0.455   1.796   3.371
 1467SOL    HW1 5300   0.413   1.855   3.440
 1467SOL    HW2 5301   0.541   1.837   3.340
 1468SOL     OW 5302   5.356   5.933   3.056
 1468SOL    HW1 5303   5.268   5.950   3.100
 1468SOL    HW2 5304   5.395   6.020   3.026
 1469SOL     OW 5305   0.686   1.408   2.215
 1469SOL    HW1 5306   0.736   1.341   2.271
 1469SOL    HW2 5307   0.654   1.482   2.274
 1470SOL     OW 5308   0.806   1.110   2.802
 1470SOL    HW1 5309   0.877   1.136   2.868
 1470SOL    HW2 5310   0.819   1.161   2.718
 1471SOL     OW 5311   0.750   0.117   0.072
 1471SOL    HW1 5312   0.793   0.108   0.161
 1471SOL    HW2 5313   0.675   0.182   0.078
 1472SOL     OW 5314   5.043   0.508   6.017
 1472SOL    HW1 5315   5.031   0.604   6.041
 1472SOL    HW2 5316   5.086   0.501   5.927
 1473SOL     OW 5317   6.134   3.724   3.071
 1473SOL    HW1 5318   6.144   3.772   2.984
 1473SOL    HW2 5319   6.207   3.656   3.081
 1474SOL     OW 5320   5.052   5.150   4.290
 1474SOL    HW1 5321   4.957   5.124   4.269
 1474SOL    HW2 5322   5.114   5.095   4.233
 1475SOL     OW 5323   0.003   0.977   2.843
 1475SOL    HW1 5324   0.036   0.939   2.929
 1475SOL    HW2 5325   7.004   0.903   2.779
 1476SOL     OW 5326   6.953   1.983   1.979
 1476SOL    HW1 5327   0.030   1.978   1.983
 1476SOL    HW2 5328   6.923   1.991   1.884
 1477SOL     OW 5329   2.746   5.875   4.999
 1477SOL    HW1 5330   2.673   5.895   5.065
 1477SOL    HW2 5331   2.758   5.776   4.992
 1478SOL     OW 5332   6.308   4.306   0.401
 1478SOL    HW1 5333   6.239   4.352   0.456
 1478SOL    HW2 5334   6.373   4.373   0.365
 1479SOL     OW 5335   1.787   4.729   0.313
 1479SOL    HW1 5336   1.693   4.705   0.287
 1479SOL    HW2 5337   1.786   4.770   0.404
 1480SOL     OW 5338   2.898   1.284   0.514
 1480SOL    HW1 5339   2.823   1.319   0.457
 1480SOL    HW2 5340   2.977   1.266   0.456
 1481SOL     OW 5341   5.615   2.230   6.240
 1481SOL    HW1 5342   5.676   2.172   6.186
 1481SOL    HW2 5343   5.669   2.287   6.301
 1482SOL     OW 5344   5.992   0.357   6.506
 1482SOL    HW1 5345   6.090   0.371   6.516
 1482SOL    HW2 5346   5.946   0.446   6.502
 1483SOL     OW 5347   5.745   1.984   0.500
 1483SOL    HW1 5348   5.702   1.905   0.543
 1483SOL    HW2 5349   5.791   1.954   0.416
 1484SOL     OW 5350   6.582   5.423   3.131
 1484SOL    HW1 5351   6.546   5.488   3.065
 1484SOL    HW2 5352   6.535   5.336   3.121
 1485SOL     OW 5353   5.037   2.585   3.805
 1485SOL    HW1 5354   5.107   2.516   3.788
 1485SOL    HW2 5355   5.080   2.672   3.830
 1486SOL     OW 5356   4.316   1.896   2.400
 1486SOL    HW1 5357   4.400   1.884   2.453
 1486SOL    HW2 5358   4.278   1.806   2.377
 1487SOL     OW 5359   6.459   1.147   5.614
 1487SOL    HW1 5360   6.445   1.057   5.572
 1487SOL    HW2 5361   6.396   1.213   5.573
 1488SOL     OW 5362   4.679   1.720   2.700
 1488SOL    HW1 5363   4.768   1.681   2.672
 1488SOL    HW2 5364   4.682   1.742   2.797
 1489SOL     OW 5365   3.292   5.552   4.936
 1489SOL    HW1 5366   3.225   5.564   5.009
 1489SOL    HW2 5367   3.288   5.458   4.901
 1490SOL     OW 5368   1.308   2.813   0.469
 1490SOL    HW1 5369   1.230   2.853   0.420
 1490SOL    HW2 5370   1.393   2.854   0.436
 1491SOL     OW 5371   6.648   2.634   3.862
 1491SOL    HW1 5372   6.558   2.669   3.835
 1491SOL    HW2 5373   6.715   2.709   3.861
 1492SOL     OW 5374   5.164   2.196   1.624
 1492SOL    HW1 5375   5.129   2.283   1.659
 1492SOL    HW2 5376   5.144   2.123   1.689
 1493SOL     OW 5377   5.088   7.012   5.245
 1493SOL    HW1 5378   5.024   0.052   5.201
 1493SOL    HW2 5379   5.047   6.921   5.252
 1494SOL     OW 5380   4.343   2.307   5.815
 1494SOL    HW1 5381   4.406   2.383   5.834
 1494SOL    HW2 5382   4.382   2.222   5.851
 1495SOL     OW 5383   1.329   3.118   2.600
 1495SOL    HW1 5384   1.322   3.200   2.657
 1495SOL    HW2 5385   1.425   3.105   2.573
 1496SOL     OW 5386   0.485   7.016   2.507
 1496SOL    HW1 5387   0.501   0.043   2.592
 1496SOL    HW2 5388   0.422   0.046   2.449
 1497SOL     OW 5389   6.486   5.263   4.407
 1497SOL    HW1 5390   6.526   5.209   4.333
 1497SOL    HW2 5391   6.552   5.271   4.482
 1498SOL     OW 5392   2.179   5.808   0.118
 1498SOL    HW1 5393   2.198   5.808   0.217
 1498SOL    HW2 5394   2.158   5.715   0.088
 1499SOL     OW 5395   1.326   3.808   5.277
 1499SOL    HW1 5396   1.413   3.826   5.323
 1499SOL    HW2 5397   1.253   3.857   5.325
 1500SOL     OW 5398   4.920   6.472   6.914
 1500SOL    HW1 5399   4.881   6.384   6.884
 1500SOL    HW2 5400   4.847   6.533   6.942
 1501SOL     OW 5401   3.992   6.771   5.998
 1501SOL    HW1 5402   4.044   6.809   6.075
 1501SOL    HW2 5403   4.045   6.780   5.914
 1502SOL     OW 5404   6.444   6.475   0.491
 1502SOL    HW1 5405   6.382   6.450   0.565
 1502SOL    HW2 5406   6.470   6.571   0.500
 1503SOL     OW 5407   3.221   2.944   6.401
 1503SOL    HW1 5408   3.185   2.921   6.491
 1503SOL    HW2 5409   3.148   2.982   6.344
 1504SOL     OW 5410   3.464   6.479   4.858
 1504SOL    HW1 5411   3.502   6.451   4.770
 1504SOL    HW2 5412   3.398   6.553   4.845
 1505SOL     OW 5413   5.774   5.739   6.287
 1505SOL    HW1 5414   5.816   5.649   6.293
 1505SOL    HW2 5415   5.687   5.733   6.240
 1506SOL     OW 5416   0.964   5.880   4.388
 1506SOL    HW1 5417   0.895   5.831   4.442
 1506SOL    HW2 5418   0.958   5.851   4.292
 1507SOL     OW 5419   2.063   1.402   4.990
 1507SOL    HW1 5420   2.060   1.462   4.910
 1507SOL    HW2 5421   2.157   1.391   5.020
 1508SOL     OW 5422   4.862   6.824   0.812
 1508SOL    HW1 5423   4.831   6.919   0.819
 1508SOL    HW2 5424   4.937   6.809   0.876
 1509SOL     OW 5425   4.458   3.156   0.373
 1509SOL    HW1 5426   4.483   3.224   0.442
 1509SOL    HW2 5427   4.401   3.199   0.303
 1510SOL     OW 5428   6.665   1.750   3.842
 1510SOL    HW1 5429   6.711   1.836   3.819
 1510SOL    HW2 5430   6.706   1.712   3.925
 1511SOL     OW 5431   2.579   3.004   0.465
 1511SOL    HW1 5432   2.663   2.956   0.490
 1511SOL    HW2 5433   2.559   3.074   0.534
 1512SOL     OW 5434   0.116   1.139   1.579
 1512SOL    HW1 5435   0.034   1.139   1.522
 1512SOL    HW2 5436   0.169   1.222   1.560
 1513SOL     OW 5437   3.488   0.647   3.581
 1513SOL    HW1 5438   3.508   0.744   3.593
 1513SOL    HW2 5439   3.449   0.631   3.490
 1514SOL     OW 5440   6.133   1.677   4.749
 1514SOL    HW1 5441   6.137   1.641   4.655
 1514SOL    HW2 5442   6.140   1.601   4.813
 1515SOL     OW 5443   6.888   4.891   4.710
 1515SOL    HW1 5444   6.956   4.867   4.780
 1515SOL    HW2 5445   6.920   4.859   4.621
 1516SOL     OW 5446   0.289   1.772   0.673
 1516SOL    HW1 5447   0.292   1.672   0.684
 1516SOL    HW2 5448   0.332   1.798   0.587
 1517SOL     OW 5449   4.680   5.496   3.190
 1517SOL    HW1 5450   4.587   5.459   3.191
 1517SOL    HW2 5451   4.680   5.586   3.147
 1518SOL     OW 5452   0.002   4.339   1.044
 1518SOL    HW1 5453   0.016   4.240   1.051
 1518SOL    HW2 5454   0.077   4.380   0.993
 1519SOL     OW 5455   5.989   4.196   0.172
 1519SOL    HW1 5456   6.078   4.189   0.218
 1519SOL    HW2 5457   5.980   4.123   0.104
 1520SOL     OW 5458   1.822   3.746   3.038
 1520SOL    HW1 5459   1.914   3.725   3.070
 1520SOL    HW2 5460   1.819   3.840   3.006
 1521SOL     OW 5461   2.493   3.566   6.590
 1521SOL    HW1 5462   2.472   3.506   6.667
 1521SOL    HW2 5463   2.481   3.661   6.617
 1522SOL     OW 5464   5.775   1.727   6.834
 1522SOL    HW1 5465   5.745   1.791   6.905
 1522SOL    HW2 5466   5.803   1.641   6.877
 1523SOL     OW 5467   6.521   2.579   1.731
 1523SOL    HW1 5468   6.490   2.509   1.667
 1523SOL    HW2 5469   6.542   2.663   1.682
 1524SOL     OW 5470   6.789   0.883   1.965
 1524SOL    HW1 5471   6.761   0.852   1.874
 1524SOL    HW2 5472   6.889   0.892   1.968
 1525SOL     OW 5473   4.742   2.205   6.237
 1525SOL    HW1 5474   4.647   2.213   6.267
 1525SOL    HW2 5475   4.797   2.275   6.280
 1526SOL     OW 5476   6.771   2.595   1.908
 1526SOL    HW1 5477   6.784   2.641   1.995
 1526SOL    HW2 5478   6.677   2.609   1.876
 1527SOL     OW 5479   3.294   1.832   5.563
 1527SOL    HW1 5480   3.346   1.751   5.591
 1527SOL    HW2 5481   3.242   1.867   5.642
 1528SOL     OW 5482   4.905   6.175   3.682
 1528SOL    HW1 5483   4.948   6.113   3.616
 1528SOL    HW2 5484   4.809   6.148   3.696
 1529SOL     OW 5485   3.370   0.213   6.084
 1529SOL    HW1 5486   3.278   0.248   6.102
 1529SOL    HW2 5487   3.437   0.272   6.128
 1530SOL     OW 5488   3.479   6.447   2.178
 1530SOL    HW1 5489   3.547   6.398   2.123
 1530SOL    HW2 5490   3.456   6.394   2.259
 1531SOL     OW 5491   6.119   6.937   4.974
 1531SOL    HW1 5492   6.109   6.868   5.046
 1531SOL    HW2 5493   6.214   6.939   4.943
 1532SOL     OW 5494   3.181   2.127   5.335
 1532SOL    HW1 5495   3.271   2.124   5.380
 1532SOL    HW2 5496   3.182   2.197   5.264
 1533SOL     OW 5497   6.462   3.020   6.537
 1533SOL    HW1 5498   6.501   2.994   6.626
 1533SOL    HW2 5499   6.408   3.103   6.549
 1534SOL     OW 5500   0.390   6.396   1.340
 1534SOL    HW1 5501   0.331   6.471   1.311
 1534SOL    HW2 5502   0.339   6.334   1.400
 1535SOL     OW 5503   4.339   4.653   4.271
 1535SOL    HW1 5504   4.386   4.724   4.219
 1535SOL    HW2 5505   4.395   4.623   4.348
 1536SOL     OW 5506   2.708   5.601   4.968
 1536SOL    HW1 5507   2.650   5.530   5.007
 1536SOL    HW2 5508   2.801   5.565   4.955
 1537SOL     OW 5509   1.719   5.553   4.738
 1537SOL    HW1 5510   1.679   5.484   4.799
 1537SOL    HW2 5511   1.714   5.521   4.644
 1538SOL     OW 5512   2.419   5.428   6.923
 1538SOL    HW1 5513   2.494   5.389   6.976
 1538SOL    HW2 5514   2.432   5.405   6.826
 1539SOL     OW 5515   3.605   4.486   1.670
 1539SOL    HW1 5516   3.701   4.482   1.643
 1539SOL    HW2 5517   3.593   4.555   1.741
 1540SOL     OW 5518   1.020   0.263   4.927
 1540SOL    HW1 5519   0.937   0.277   4.982
 1540SOL    HW2 5520   0.995   0.233   4.835
 1541SOL     OW 5521   4.916   2.282   0.969
 1541SOL    HW1 5522   4.893   2.368   1.015
 1541SOL    HW2 5523   4.889   2.287   0.873
 1542SOL     OW 5524   0.693   6.867   1.508
 1542SOL    HW1 5525   0.762   6.797   1.489
 1542SOL    HW2 5526   0.715   6.914   1.593
 1543SOL     OW 5527   3.452   3.849   4.055
 1543SOL    HW1 5528   3.371   3.792   4.042
 1543SOL    HW2 5529   3.495   3.867   3.967
 1544SOL     OW 5530   3.168   4.075   2.979
 1544SOL    HW1 5531   3.145   4.173   2.974
 1544SOL    HW2 5532   3.122   4.035   3.058
 1545SOL     OW 5533   5.822   0.144   4.677
 1545SOL    HW1 5534   5.753   0.195   4.626
 1545SOL    HW2 5535   5.878   0.206   4.732
 1546SOL     OW 5536   6.441   6.107   5.933
 1546SOL    HW1 5537   6.353   6.063   5.916
 1546SOL    HW2 5538   6.428   6.187   5.991
 1547SOL     OW 5539   3.088   5.918   2.046
 1547SOL    HW1 5540   3.087   6.017   2.034
 1547SOL    HW2 5541   3.183   5.886   2.042
 1548SOL     OW 5542   4.806   3.996   4.803
 1548SOL    HW1 5543   4.786   3.908   4.759
 1548SOL    HW2 5544   4.818   4.066   4.732
 1549SOL     OW 5545   6.754   2.296   1.226
 1549SOL    HW1 5546   6.719   2.246   1.305
 1549SOL    HW2 5547   6.852   2.313   1.238
 1550SOL     OW 5548   1.812   5.750   4.452
 1550SOL    HW1 5549   1.751   5.819   4.412
 1550SOL    HW2 5550   1.900   5.752   4.404
 1551SOL     OW 5551   2.162   2.603   0.827
 1551SOL    HW1 5552   2.182   2.641   0.737
 1551SOL    HW2 5553   2.167   2.676   0.895
 1552SOL     OW 5554   1.388   0.935   1.026
 1552SOL    HW1 5555   1.350   0.943   0.933
 1552SOL    HW2 5556   1.381   0.840   1.057
 1553SOL     OW 5557   5.890   1.802   6.558
 1553SOL    HW1 5558   5.990   1.805   6.559
 1553SOL    HW2 5559   5.856   1.797   6.652
 1554SOL     OW 5560   3.852   1.805   1.729
 1554SOL    HW1 5561   3.864   1.888   1.675
 1554SOL    HW2 5562   3.877   1.726   1.674
 1555SOL     OW 5563   3.597   1.578   5.612
 1555SOL    HW1 5564   3.556   1.622   5.691
 1555SOL    HW2 5565   3.594   1.641   5.534
 1556SOL     OW 5566   3.979   0.824   0.995
 1556SOL    HW1 5567   3.975   0.778   0.906
 1556SOL    HW2 5568   4.057   0.789   1.046
 1557SOL     OW 5569   1.686   1.969   1.164
 1557SOL    HW1 5570   1.780   1.936   1.166
 1557SOL    HW2 5571   1.643   1.953   1.253
 1558SOL     OW 5572   6.582   3.732   5.765
 1558SOL    HW1 5573   6.612   3.666   5.833
 1558SOL    HW2 5574   6.593   3.694   5.673
 1559SOL     OW 5575   1.846   4.740   3.212
 1559SOL    HW1 5576   1.876   4.686   3.290
 1559SOL    HW2 5577   1.920   4.746   3.145
 1560SOL     OW 5578   3.615   1.119   1.579
 1560SOL    HW1 5579   3.701   1.072   1.598
 1560SOL    HW2 5580   3.624   1.216   1.603
 1561SOL     OW 5581   5.895   5.646   1.833
 1561SOL    HW1 5582   5.909   5.744   1.850
 1561SOL    HW2 5583   5.965   5.614   1.769
 1562SOL     OW 5584   3.483   6.670   2.033
 1562SOL    HW1 5585   3.549   6.644   1.962
 1562SOL    HW2 5586   3.474   6.595   2.099
 1563SOL     OW 5587   3.907   2.115   4.092
 1563SOL    HW1 5588   3.929   2.022   4.064
 1563SOL    HW2 5589   3.967   2.179   4.045
 1564SOL     OW 5590   1.405   2.265   2.300
 1564SOL    HW1 5591   1.323   2.289   2.352
 1564SOL    HW2 5592   1.413   2.326   2.220
 1565SOL     OW 5593   3.762   0.727   4.244
 1565SOL    HW1 5594   3.787   0.662   4.172
 1565SOL    HW2 5595   3.843   0.779   4.271
 1566SOL     OW 5596   4.620   4.260   3.158
 1566SOL    HW1 5597   4.521   4.248   3.168
 1566SOL    HW2 5598   4.667   4.183   3.200
 1567SOL     OW 5599   5.138   6.512   5.459
 1567SOL    HW1 5600   5.081   6.513   5.376
 1567SOL    HW2 5601   5.117   6.431   5.513
 1568SOL     OW 5602   2.280   6.225   3.070
 1568SOL    HW1 5603   2.243   6.152   3.013
 1568SOL    HW2 5604   2.280   6.310   3.018
 1569SOL     OW 5605   2.418   6.989   3.954
 1569SOL    HW1 5606   2.430   0.059   3.989
 1569SOL    HW2 5607   2.334   6.984   3.900
 1570SOL     OW 5608   3.474   6.793   0.161
 1570SOL    HW1 5609   3.536   6.725   0.122
 1570SOL    HW2 5610   3.405   6.817   0.093
 1571SOL     OW 5611   1.036   2.341   3.907
 1571SOL    HW1 5612   1.052   2.338   3.809
 1571SOL    HW2 5613   1.102   2.283   3.954
 1572SOL     OW 5614   1.854   4.723   1.993
 1572SOL    HW1 5615   1.842   4.766   2.082
 1572SOL    HW2 5616   1.765   4.713   1.949
 1573SOL     OW 5617   4.981   4.894   0.904
 1573SOL    HW1 5618   4.989   4.949   0.987
 1573SOL    HW2 5619   4.977   4.798   0.928
 1574SOL     OW 5620   0.095   3.723   2.723
 1574SOL    HW1 5621   0.173   3.783   2.705
 1574SOL    HW2 5622   0.053   3.697   2.636
 1575SOL     OW 5623   0.819   1.076   0.563
 1575SOL    HW1 5624   0.853   0.984   0.545
 1575SOL    HW2 5625   0.731   1.088   0.516
 1576SOL     OW 5626   0.407   6.361   2.298
 1576SOL    HW1 5627   0.440   6.432   2.236
 1576SOL    HW2 5628   0.409   6.396   2.392
 1577SOL     OW 5629   4.262   0.004   6.088
 1577SOL    HW1 5630   4.287   0.029   6.182
 1577SOL    HW2 5631   4.232   0.085   6.038
 1578SOL     OW 5632   5.267   0.782   0.418
 1578SOL    HW1 5633   5.306   0.690   0.427
 1578SOL    HW2 5634   5.293   0.820   0.329
 1579SOL     OW 5635   1.767   2.779   1.453
 1579SOL    HW1 5636   1.714   2.707   1.497
 1579SOL    HW2 5637   1.764   2.767   1.354
 1580SOL     OW 5638   3.832   4.001   3.318
 1580SOL    HW1 5639   3.856   4.007   3.221
 1580SOL    HW2 5640   3.800   3.909   3.339
 1581SOL     OW 5641   0.051   4.420   5.989
 1581SOL    HW1 5642   0.117   4.468   5.932
 1581SOL    HW2 5643   0.073   4.322   5.989
 1582SOL     OW 5644   4.936   6.282   5.812
 1582SOL    HW1 5645   4.948   6.378   5.790
 1582SOL    HW2 5646   5.014   6.250   5.867
 1583SOL     OW 5647   1.249   5.752   5.499
 1583SOL    HW1 5648   1.235   5.759   5.400
 1583SOL    HW2 5649   1.343   5.723   5.516
 1584SOL     OW 5650   0.620   4.965   6.743
 1584SOL    HW1 5651   0.541   5.023   6.766
 1584SOL    HW2 5652   0.614   4.936   6.648
 1585SOL     OW 5653   4.072   6.961   3.210
 1585SOL    HW1 5654   3.980   6.924   3.226
 1585SOL    HW2 5655   4.083   6.982   3.113
 1586SOL     OW 5656   3.044   5.799   4.250
 1586SOL    HW1 5657   3.007   5.749   4.328
 1586SOL    HW2 5658   2.969   5.831   4.192
 1587SOL     OW 5659   2.299   6.204   6.145
 1587SOL    HW1 5660   2.353   6.120   6.148
 1587SOL    HW2 5661   2.325   6.257   6.064
 1588SOL     OW 5662   6.075   7.022   2.748
 1588SOL    HW1 5663   5.977   7.006   2.746
 1588SOL    HW2 5664   6.110   0.008   2.654
 1589SOL     OW 5665   6.650   4.232   3.107
 1589SOL    HW1 5666   6.725   4.278   3.153
 1589SOL    HW2 5667   6.576   4.215   3.173
 1590SOL     OW 5668   6.806   1.423   3.170
 1590SOL    HW1 5669   6.840   1.349   3.111
 1590SOL    HW2 5670   6.711   1.443   3.148
 1591SOL     OW 5671   0.795   6.121   1.707
 1591SOL    HW1 5672   0.740   6.140   1.788
 1591SOL    HW2 5673   0.879   6.175   1.710
 1592SOL     OW 5674   1.026   4.020   0.060
 1592SOL    HW1 5675   1.064   4.078   7.011
 1592SOL    HW2 5676   0.939   4.059   0.091
 1593SOL     OW 5677   1.261   0.364   6.627
 1593SOL    HW1 5678   1.299   0.275   6.650
 1593SOL    HW2 5679   1.317   0.436   6.669
 1594SOL     OW 5680   6.543   0.191   1.535
 1594SOL    HW1 5681   6.483   0.114   1.513
 1594SOL    HW2 5682   6.507   0.239   1.615
 1595SOL     OW 5683   1.129   4.158   6.829
 1595SOL    HW1 5684   1.140   4.149   6.730
 1595SOL    HW2 5685   1.149   4.252   6.857
 1596SOL     OW 5686   5.956   4.432   2.045
 1596SOL    HW1 5687   6.032   4.449   1.982
 1596SOL    HW2 5688   5.979   4.356   2.106
 1597SOL     OW 5689   3.266   6.459   0.468
 1597SOL    HW1 5690   3.219   6.455   0.556
 1597SOL    HW2 5691   3.203   6.431   0.396
 1598SOL     OW 5692   1.782   5.442   6.951
 1598SOL    HW1 5693   1.789   5.345   6.929
 1598SOL    HW2 5694   1.720   5.455   0.006
 1599SOL     OW 5695   4.101   5.141   4.013
 1599SOL    HW1 5696   4.063   5.097   3.931
 1599SOL    HW2 5697   4.138   5.071   4.074
 1600SOL     OW 5698   3.141   6.883   2.729
 1600SOL    HW1 5699   3.121   6.922   2.639
 1600SOL    HW2 5700   3.225   6.830   2.725
 1601SOL     OW 5701   5.599   6.310   4.456
 1601SOL    HW1 5702   5.517   6.297   4.401
 1601SOL    HW2 5703   5.656   6.381   4.414
 1602SOL     OW 5704   4.033   5.172   3.715
 1602SOL    HW1 5705   4.113   5.192   3.658
 1602SOL    HW2 5706   3.983   5.257   3.733
 1603SOL     OW 5707   3.079   5.941   3.916
 1603SOL    HW1 5708   3.103   5.849   3.886
 1603SOL    HW2 5709   2.999   5.973   3.865
 1604SOL     OW 5710   3.891   4.836   2.117
 1604SOL    HW1 5711   3.804   4.837   2.069
 1604SOL    HW2 5712   3.877   4.811   2.213
 1605SOL     OW 5713   4.454   4.927   1.367
 1605SOL    HW1 5714   4.413   4.868   1.437
 1605SOL    HW2 5715   4.553   4.917   1.368
 1606SOL     OW 5716   4.255   6.135   4.767
 1606SOL    HW1 5717   4.267   6.151   4.669
 1606SOL    HW2 5718   4.214   6.216   4.809
 1607SOL     OW 5719   5.032   5.791   3.065
 1607SOL    HW1 5720   4.977   5.874   3.056
 1607SOL    HW2 5721   5.025   5.755   3.158
 1608SOL     OW 5722   6.480   0.280   2.901
 1608SOL    HW1 5723   6.430   0.201   2.935
 1608SOL    HW2 5724   6.530   0.323   2.976
 1609SOL     OW 5725   2.777   6.502   1.022
 1609SOL    HW1 5726   2.829   6.584   1.045
 1609SOL    HW2 5727   2.783   6.486   0.923
 1610SOL     OW 5728   4.564   0.117   0.272
 1610SOL    HW1 5729   4.505   0.195   0.249
 1610SOL    HW2 5730   4.591   0.070   0.188
 1611SOL     OW 5731   1.093   3.822   1.076
 1611SOL    HW1 5732   1.024   3.894   1.082
 1611SOL    HW2 5733   1.060   3.740   1.122
 1612SOL     OW 5734   3.518   6.358   1.336
 1612SOL    HW1 5735   3.439   6.334   1.392
 1612SOL    HW2 5736   3.529   6.291   1.262
 1613SOL     OW 5737   0.126   5.634   2.473
 1613SOL    HW1 5738   0.088   5.551   2.513
 1613SOL    HW2 5739   0.053   5.687   2.429
 1614SOL     OW 5740   5.851   2.849   6.597
 1614SOL    HW1 5741   5.855   2.936   6.547
 1614SOL    HW2 5742   5.941   2.826   6.632
 1615SOL     OW 5743   0.637   5.094   6.314
 1615SOL    HW1 5744   0.644   5.191   6.337
 1615SOL    HW2 5745   0.656   5.082   6.216
 1616SOL     OW 5746   2.555   1.202   4.782
 1616SOL    HW1 5747   2.619   1.279   4.791
 1616SOL    HW2 5748   2.598   1.119   4.816
 1617SOL     OW 5749   4.987   6.575   3.534
 1617SOL    HW1 5750   5.027   6.631   3.607
 1617SOL    HW2 5751   4.916   6.516   3.574
 1618SOL     OW 5752   2.730   6.115   3.261
 1618SOL    HW1 5753   2.674   6.053   3.206
 1618SOL    HW2 5754   2.826   6.089   3.253
 1619SOL     OW 5755   1.084   5.113   0.126
 1619SOL    HW1 5756   1.040   5.181   0.184
 1619SOL    HW2 5757   1.142   5.053   0.181
 1620SOL     OW 5758   3.702   5.046   0.826
 1620SOL    HW1 5759   3.653   5.018   0.908
 1620SOL    HW2 5760   3.785   5.096   0.851
 1621SOL     OW 5761   5.779   6.589   0.890
 1621SOL    HW1 5762   5.792   6.688   0.886
 1621SOL    HW2 5763   5.807   6.556   0.980
 1622SOL     OW 5764   0.735   3.807   4.752
 1622SOL    HW1 5765   0.770   3.829   4.843
 1622SOL    HW2 5766   0.640   3.836   4.744
 1623SOL     OW 5767   0.556   2.131   4.630
 1623SOL    HW1 5768   0.484   2.136   4.560
 1623SOL    HW2 5769   0.634   2.186   4.600
 1624SOL     OW 5770   4.418   1.012   0.910
 1624SOL    HW1 5771   4.481   1.067   0.965
 1624SOL    HW2 5772   4.419   1.045   0.816
 1625SOL     OW 5773   2.112   4.813   0.988
 1625SOL    HW1 5774   2.209   4.834   0.996
 1625SOL    HW2 5775   2.063   4.894   0.955
 1626SOL     OW 5776   3.175   1.941   1.564
 1626SOL    HW1 5777   3.173   1.977   1.471
 1626SOL    HW2 5778   3.140   1.847   1.564
 1627SOL     OW 5779   4.485   2.430   3.834
 1627SOL    HW1 5780   4.551   2.505   3.827
 1627SOL    HW2 5781   4.416   2.440   3.762
 1628SOL     OW 5782   5.314   5.857   6.326
 1628SOL    HW1 5783   5.228   5.870   6.375
 1628SOL    HW2 5784   5.391   5.881   6.385
 1629SOL     OW 5785   2.688   1.557   2.617
 1629SOL    HW1 5786   2.782   1.543   2.649
 1629SOL    HW2 5787   2.688   1.566   2.518
 1630SOL     OW 5788   0.781   4.170   0.156
 1630SOL    HW1 5789   0.744   4.262   0.139
 1630SOL    HW2 5790   0.733   4.104   0.100
 1631SOL     OW 5791   0.512   3.502   0.567
 1631SOL    HW1 5792   0.496   3.459   0.478
 1631SOL    HW2 5793   0.610   3.502   0.586
 1632SOL     OW 5794   6.510   4.313   2.594
 1632SOL    HW1 5795   6.512   4.240   2.661
 1632SOL    HW2 5796   6.508   4.274   2.502
 1633SOL     OW 5797   5.088   3.363   3.822
 1633SOL    HW1 5798   5.165   3.303   3.842
 1633SOL    HW2 5799   5.082   3.434   3.893
 1634SOL     OW 5800   4.899   0.690   4.869
 1634SOL    HW1 5801   4.947   0.655   4.949
 1634SOL    HW2 5802   4.903   0.623   4.795
 1635SOL     OW 5803   3.526   5.329   4.898
 1635SOL    HW1 5804   3.563   5.302   4.810
 1635SOL    HW2 5805   3.462   5.259   4.931
 1636SOL     OW 5806   5.251   5.719   1.440
 1636SOL    HW1 5807   5.201   5.657   1.501
 1636SOL    HW2 5808   5.298   5.665   1.370
 1637SOL     OW 5809   0.265   0.104   2.354
 1637SOL    HW1 5810   0.207   0.183   2.336
 1637SOL    HW2 5811   0.315   0.079   2.271
 1638SOL     OW 5812   6.870   3.230   1.743
 1638SOL    HW1 5813   6.791   3.280   1.708
 1638SOL    HW2 5814   6.854   3.204   1.838
 1639SOL     OW 5815   5.699   3.708   2.309
 1639SOL    HW1 5816   5.612   3.728   2.353
 1639SOL    HW2 5817   5.692   3.623   2.256
 1640SOL     OW 5818   6.610   0.411   0.598
 1640SOL    HW1 5819   6.532   0.426   0.538
 1640SOL    HW2 5820   6.616   0.314   0.622
 1641SOL     OW 5821   0.012   2.144   2.610
 1641SOL    HW1 5822   0.032   2.228   2.659
 1641SOL    HW2 5823   6.938   2.143   2.584
 1642SOL     OW 5824   5.283   2.360   5.747
 1642SOL    HW1 5825   5.362   2.379   5.805
 1642SOL    HW2 5826   5.199   2.386   5.795
 1643SOL     OW 5827   3.501   5.463   4.241
 1643SOL    HW1 5828   3.465   5.370   4.249
 1643SOL    HW2 5829   3.446   5.525   4.298
 1644SOL     OW 5830   6.125   3.127   0.560
 1644SOL    HW1 5831   6.109   3.041   0.607
 1644SOL    HW2 5832   6.038   3.166   0.529
 1645SOL     OW 5833   2.669   0.984   5.960
 1645SOL    HW1 5834   2.642   1.028   5.874
 1645SOL    HW2 5835   2.597   0.922   5.989
 1646SOL     OW 5836   0.843   5.577   0.623
 1646SOL    HW1 5837   0.913   5.640   0.589
 1646SOL    HW2 5838   0.877   5.484   0.620
 1647SOL     OW 5839   6.054   2.644   4.485
 1647SOL    HW1 5840   6.074   2.720   4.547
 1647SOL    HW2 5841   5.979   2.670   4.424
 1648SOL     OW 5842   5.385   6.427   0.488
 1648SOL    HW1 5843   5.355   6.349   0.542
 1648SOL    HW2 5844   5.314   6.498   0.490
 1649SOL     OW 5845   2.856   0.507   3.645
 1649SOL    HW1 5846   2.786   0.487   3.714
 1649SOL    HW2 5847   2.833   0.592   3.599
 1650SOL     OW 5848   2.837   5.531   6.793
 1650SOL    HW1 5849   2.775   5.598   6.753
 1650SOL    HW2 5850   2.928   5.572   6.805
 1651SOL     OW 5851   0.938   3.104   3.911
 1651SOL    HW1 5852   0.961   3.071   4.003
 1651SOL    HW2 5853   0.947   3.204   3.908
 1652SOL     OW 5854   0.788   3.017   1.568
 1652SOL    HW1 5855   0.838   3.087   1.517
 1652SOL    HW2 5856   0.825   3.009   1.660
 1653SOL     OW 5857   0.011   4.923   2.841
 1653SOL    HW1 5858   6.935   4.930   2.848
 1653SOL    HW2 5859   0.049   5.010   2.809
 1654SOL     OW 5860   0.428   3.203   2.215
 1654SOL    HW1 5861   0.427   3.122   2.273
 1654SOL    HW2 5862   0.518   3.214   2.173
 1655SOL     OW 5863   6.705   0.699   4.605
 1655SOL    HW1 5864   6.612   0.735   4.597
 1655SOL    HW2 5865   6.711   0.639   4.685
 1656SOL     OW 5866   2.081   5.637   4.378
 1656SOL    HW1 5867   2.100   5.562   4.442
 1656SOL    HW2 5868   2.077   5.601   4.285
 1657SOL     OW 5869   0.310   0.013   5.759
 1657SOL    HW1 5870   0.224   0.001   5.808
 1657SOL    HW2 5871   0.340   6.947   5.723
 1658SOL     OW 5872   6.755   0.071   0.292
 1658SOL    HW1 5873   6.667   0.034   0.323
 1658SOL    HW2 5874   6.785   0.143   0.356
 1659SOL     OW 5875   4.144   6.568   6.449
 1659SOL    HW1 5876   4.189   6.484   6.421
 1659SOL    HW2 5877   4.213   6.637   6.473
 1660SOL     OW 5878   1.419   6.751   1.942
 1660SOL    HW1 5879   1.511   6.757   1.982
 1660SOL    HW2 5880   1.426   6.717   1.848
 1661SOL     OW 5881   3.880   5.169   2.805
 1661SOL    HW1 5882   3.783   5.184   2.823
 1661SOL    HW2 5883   3.897   5.071   2.794
 1662SOL     OW 5884   6.938   1.235   5.523
 1662SOL    HW1 5885   7.022   1.194   5.557
 1662SOL    HW2 5886   6.945   1.249   5.424
 1663SOL     OW 5887   4.600   4.438   0.923
 1663SOL    HW1 5888   4.642   4.528   0.911
 1663SOL    HW2 5889   4.501   4.446   0.909
 1664SOL     OW 5890   0.528   0.110   5.007
 1664SOL    HW1 5891   0.438   0.145   5.035
 1664SOL    HW2 5892   0.560   0.043   5.074
 1665SOL     OW 5893   2.096   3.706   1.315
 1665SOL    HW1 5894   2.123   3.694   1.411
 1665SOL    HW2 5895   2.142   3.637   1.259
 1666SOL     OW 5896   5.624   0.647   6.321
 1666SOL    HW1 5897   5.528   0.635   6.296
 1666SOL    HW2 5898   5.680   0.580   6.272
 1667SOL     OW 5899   0.494   6.350   0.856
 1667SOL    HW1 5900   0.580   6.305   0.830
 1667SOL    HW2 5901   0.501   6.383   0.950
 1668SOL     OW 5902   4.985   4.135   3.749
 1668SOL    HW1 5903   5.043   4.054   3.758
 1668SOL    HW2 5904   4.900   4.121   3.801
 1669SOL     OW 5905   0.058   3.718   5.385
 1669SOL    HW1 5906   0.018   3.631   5.412
 1669SOL    HW2 5907   0.001   3.762   5.316
 1670SOL     OW 5908   2.240   4.231   5.974
 1670SOL    HW1 5909   2.173   4.282   5.920
 1670SOL    HW2 5910   2.260   4.282   6.058
 1671SOL     OW 5911   4.626   1.623   1.781
 1671SOL    HW1 5912   4.678   1.603   1.865
 1671SOL    HW2 5913   4.575   1.542   1.754
 1672SOL     OW 5914   0.681   3.069   0.162
 1672SOL    HW1 5915   0.687   3.098   0.067
 1672SOL    HW2 5916   0.606   3.117   0.207
 1673SOL     OW 5917   2.313   1.381   4.211
 1673SOL    HW1 5918   2.331   1.372   4.309
 1673SOL    HW2 5919   2.268   1.468   4.193
 1674SOL     OW 5920   4.644   2.698   2.726
 1674SOL    HW1 5921   4.585   2.652   2.660
 1674SOL    HW2 5922   4.684   2.780   2.684
 1675SOL     OW 5923   5.529   0.495   1.199
 1675SOL    HW1 5924   5.474   0.451   1.128
 1675SOL    HW2 5925   5.555   0.587   1.170
 1676SOL     OW 5926   2.165   1.983   2.685
 1676SOL    HW1 5927   2.195   1.905   2.741
 1676SOL    HW2 5928   2.154   2.063   2.744
 1677SOL     OW 5929   4.156   3.514   3.713
 1677SOL    HW1 5930   4.149   3.414   3.713
 1677SOL    HW2 5931   4.169   3.547   3.620
 1678SOL     OW 5932   0.363   6.633   0.810
 1678SOL    HW1 5933   0.379   6.558   0.874
 1678SOL    HW2 5934   0.437   6.699   0.818
 1679SOL     OW 5935   1.970   1.673   4.974
 1679SOL    HW1 5936   1.919   1.635   5.052
 1679SOL    HW2 5937   1.971   1.773   4.981
 1680SOL     OW 5938   4.558   2.594   4.517
 1680SOL    HW1 5939   4.644   2.600   4.568
 1680SOL    HW2 5940   4.489   2.548   4.573
 1681SOL     OW 5941   2.151   5.885   3.870
 1681SOL    HW1 5942   2.112   5.816   3.808
 1681SOL    HW2 5943   2.102   5.971   3.859
 1682SOL     OW 5944   2.484   6.638   5.585
 1682SOL    HW1 5945   2.411   6.659   5.521
 1682SOL    HW2 5946   2.531   6.554   5.557
 1683SOL     OW 5947   5.781   4.908   2.417
 1683SOL    HW1 5948   5.867   4.959   2.409
 1683SOL    HW2 5949   5.801   4.810   2.426
 1684SOL     OW 5950   1.743   4.988   1.977
 1684SOL    HW1 5951   1.790   4.939   1.903
 1684SOL    HW2 5952   1.758   4.940   2.063
 1685SOL     OW 5953   0.768   1.614   5.445
 1685SOL    HW1 5954   0.746   1.623   5.348
 1685SOL    HW2 5955   0.744   1.699   5.493
 1686SOL     OW 5956   5.081   5.190   3.507
 1686SOL    HW1 5957   5.164   5.135   3.510
 1686SOL    HW2 5958   5.009   5.139   3.460
 1687SOL     OW 5959   6.691   3.491   2.526
 1687SOL    HW1 5960   6.692   3.475   2.624
 1687SOL    HW2 5961   6.758   3.432   2.482
 1688SOL     OW 5962   2.082   2.228   3.560
 1688SOL    HW1 5963   2.097   2.309   3.616
 1688SOL    HW2 5964   2.007   2.245   3.497
 1689SOL     OW 5965   6.005   0.923   2.234
 1689SOL    HW1 5966   6.097   0.892   2.209
 1689SOL    HW2 5967   5.942   0.908   2.158
 1690SOL     OW 5968   0.535   4.242   4.244
 1690SOL    HW1 5969   0.531   4.339   4.269
 1690SOL    HW2 5970   0.488   4.188   4.313
 1691SOL     OW 5971   5.427   2.943   5.100
 1691SOL    HW1 5972   5.502   2.984   5.047
 1691SOL    HW2 5973   5.461   2.862   5.148
 1692SOL     OW 5974   5.899   5.033   2.032
 1692SOL    HW1 5975   5.834   5.030   1.956
 1692SOL    HW2 5976   5.943   4.944   2.042
 1693SOL     OW 5977   6.504   0.759   5.675
 1693SOL    HW1 5978   6.462   0.669   5.675
 1693SOL    HW2 5979   6.459   0.817   5.607
 1694SOL     OW 5980   5.504   0.781   4.618
 1694SOL    HW1 5981   5.411   0.813   4.636
 1694SOL    HW2 5982   5.535   0.724   4.695
 1695SOL     OW 5983   4.021   0.205   6.732
 1695SOL    HW1 5984   4.115   0.175   6.722
 1695SOL    HW2 5985   4.016   0.304   6.716
 1696SOL     OW 5986   4.713   5.493   0.027
 1696SOL    HW1 5987   4.755   5.492   6.959
 1696SOL    HW2 5988   4.681   5.402   0.050
 1697SOL     OW 5989   5.923   1.866   1.327
 1697SOL    HW1 5990   5.841   1.904   1.370
 1697SOL    HW2 5991   5.933   1.771   1.354
 1698SOL     OW 5992   2.961   0.693   2.245
 1698SOL    HW1 5993   3.060   0.700   2.260
 1698SOL    HW2 5994   2.930   0.771   2.192
 1699SOL     OW 5995   2.605   0.969   6.944
 1699SOL    HW1 5996   2.569   1.047   6.893
 1699SOL    HW2 5997   2.704   0.966   6.934
 1700SOL     OW 5998   6.179   3.368   3.187
 1700SOL    HW1 5999   6.220   3.311   3.116
 1700SOL    HW2 6000   6.166   3.313   3.270
 1701SOL     OW 6001   6.631   4.836   4.761
 1701SOL    HW1 6002   6.627   4.736   4.756
 1701SOL    HW2 6003   6.727   4.865   4.754
 1702SOL     OW 6004   1.734   2.136   5.630
 1702SOL    HW1 6005   1.707   2.228   5.603
 1702SOL    HW2 6006   1.831   2.122   5.610
 1703SOL     OW 6007   3.077   1.622   6.554
 1703SOL    HW1 6008   3.155   1.668   6.597
 1703SOL    HW2 6009   3.102   1.528   6.532
 1704SOL     OW 6010   3.107   1.557   0.827
 1704SOL    HW1 6011   3.021   1.508   0.818
 1704SOL    HW2 6012   3.173   1.521   0.760
 1705SOL     OW 6013   3.627   1.423   1.947
 1705SOL    HW1 6014   3.557   1.419   2.018
 1705SOL    HW2 6015   3.645   1.518   1.923
 1706SOL     OW 6016   4.438   2.085   0.795
 1706SOL    HW1 6017   4.388   2.001   0.813
 1706SOL    HW2 6018   4.392   2.161   0.840
 1707SOL     OW 6019   4.537   1.125   2.456
 1707SOL    HW1 6020   4.531   1.196   2.387
 1707SOL    HW2 6021   4.467   1.140   2.526
 1708SOL     OW 6022   3.357   5.120   1.975
 1708SOL    HW1 6023   3.360   5.219   1.977
 1708SOL    HW2 6024   3.436   5.083   2.025
 1709SOL     OW 6025   5.133   5.922   0.628
 1709SOL    HW1 6026   5.212   5.983   0.631
 1709SOL    HW2 6027   5.156   5.840   0.577
 1710SOL     OW 6028   4.513   5.229   2.659
 1710SOL    HW1 6029   4.489   5.162   2.589
 1710SOL    HW2 6030   4.522   5.183   2.748
 1711SOL     OW 6031   3.287   5.516   6.189
 1711SOL    HW1 6032   3.269   5.561   6.276
 1711SOL    HW2 6033   3.340   5.433   6.205
 1712SOL     OW 6034   0.303   2.152   4.114
 1712SOL    HW1 6035   0.218   2.172   4.162
 1712SOL    HW2 6036   0.380   2.192   4.163
 1713SOL     OW 6037   3.759   0.685   3.031
 1713SOL    HW1 6038   3.855   0.666   3.053
 1713SOL    HW2 6039   3.728   0.623   2.959
 1714SOL     OW 6040   3.494   2.888   6.516
 1714SOL    HW1 6041   3.410   2.856   6.473
 1714SOL    HW2 6042   3.549   2.810   6.544
 1715SOL     OW 6043   1.443   6.266   2.269
 1715SOL    HW1 6044   1.425   6.355   2.226
 1715SOL    HW2 6045   1.391   6.259   2.355
 1716SOL     OW 6046   4.449   0.472   4.148
 1716SOL    HW1 6047   4.416   0.524   4.228
 1716SOL    HW2 6048   4.384   0.399   4.127
 1717SOL     OW 6049   3.784   6.053   5.678
 1717SOL    HW1 6050   3.714   6.090   5.618
 1717SOL    HW2 6051   3.740   6.000   5.751
 1718SOL     OW 6052   1.908   2.617   1.849
 1718SOL    HW1 6053   1.956   2.650   1.930
 1718SOL    HW2 6054   1.870   2.694   1.798
 1719SOL     OW 6055   0.831   5.077   2.027
 1719SOL    HW1 6056   0.773   5.114   1.954
 1719SOL    HW2 6057   0.918   5.127   2.029
 1720SOL     OW 6058   6.991   2.770   5.587
 1720SOL    HW1 6059   6.957   2.677   5.601
 1720SOL    HW2 6060   6.918   2.826   5.547
 1721SOL     OW 6061   1.168   1.801   1.729
 1721SOL    HW1 6062   1.247   1.860   1.710
 1721SOL    HW2 6063   1.118   1.784   1.644
 1722SOL     OW 6064   3.017   2.117   2.906
 1722SOL    HW1 6065   2.992   2.167   2.824
 1722SOL    HW2 6066   2.987   2.168   2.987
 1723SOL     OW 6067   5.051   2.503   6.986
 1723SOL    HW1 6068   4.956   2.475   6.997
 1723SOL    HW2 6069   5.083   2.548   0.047
 1724SOL     OW 6070   6.415   2.090   1.307
 1724SOL    HW1 6071   6.371   2.177   1.287
 1724SOL    HW2 6072   6.362   2.015   1.266
 1725SOL     OW 6073   2.527   5.734   6.522
 1725SOL    HW1 6074   2.535   5.635   6.528
 1725SOL    HW2 6075   2.431   5.760   6.516
 1726SOL     OW 6076   5.544   3.853   3.879
 1726SOL    HW1 6077   5.524   3.815   3.970
 1726SOL    HW2 6078   5.463   3.899   3.844
 1727SOL     OW 6079   3.419   3.633   3.466
 1727SOL    HW1 6080   3.508   3.588   3.454
 1727SOL    HW2 6081   3.367   3.629   3.381
 1728SOL     OW 6082   4.945   2.774   5.278
 1728SOL    HW1 6083   4.943   2.865   5.320
 1728SOL    HW2 6084   4.892   2.710   5.335
 1729SOL     OW 6085   2.199   3.902   1.893
 1729SOL    HW1 6086   2.131   3.968   1.861
 1729SOL    HW2 6087   2.212   3.913   1.992
 1730SOL     OW 6088   2.679   4.750   5.882
 1730SOL    HW1 6089   2.668   4.829   5.943
 1730SOL    HW2 6090   2.608   4.683   5.901
 1731SOL     OW 6091   5.744   4.008   3.803
 1731SOL    HW1 6092   5.782   4.040   3.890
 1731SOL    HW2 6093   5.683   3.931   3.819
 1732SOL     OW 6094   1.824   4.942   6.443
 1732SOL    HW1 6095   1.899   4.877   6.452
 1732SOL    HW2 6096   1.860   5.033   6.421
 1733SOL     OW 6097   2.887   3.726   0.186
 1733SOL    HW1 6098   2.883   3.711   0.285
 1733SOL    HW2 6099   2.903   3.638   0.140
 1734SOL     OW 6100   6.906   2.889   1.408
 1734SOL    HW1 6101   6.902   2.843   1.320
 1734SOL    HW2 6102   6.813   2.909   1.440
 1735SOL     OW 6103   3.815   5.514   6.562
 1735SOL    HW1 6104   3.871   5.432   6.571
 1735SOL    HW2 6105   3.737   5.495   6.502
 1736SOL     OW 6106   4.695   3.603   0.847
 1736SOL    HW1 6107   4.737   3.512   0.855
 1736SOL    HW2 6108   4.764   3.670   0.820
 1737SOL     OW 6109   4.610   1.574   4.720
 1737SOL    HW1 6110   4.635   1.525   4.636
 1737SOL    HW2 6111   4.582   1.509   4.790
 1738SOL     OW 6112   1.152   3.705   4.252
 1738SOL    HW1 6113   1.070   3.718   4.309
 1738SOL    HW2 6114   1.206   3.789   4.254
 1739SOL     OW 6115   5.256   0.230   4.143
 1739SOL    HW1 6116   5.318   0.153   4.157
 1739SOL    HW2 6117   5.240   0.244   4.046
 1740SOL     OW 6118   6.864   2.149   4.459
 1740SOL    HW1 6119   6.843   2.245   4.440
 1740SOL    HW2 6120   6.962   2.133   4.447
 1741SOL     OW 6121   0.869   1.913   4.543
 1741SOL    HW1 6122   0.958   1.934   4.583
 1741SOL    HW2 6123   0.878   1.906   4.444
 1742SOL     OW 6124   6.206   5.799   6.149
 1742SOL    HW1 6125   6.284   5.751   6.188
 1742SOL    HW2 6126   6.187   5.881   6.202
 1743SOL     OW 6127   1.499   1.277   2.862
 1743SOL    HW1 6128   1.467   1.189   2.826
 1743SOL    HW2 6129   1.461   1.351   2.806
 1744SOL     OW 6130   4.799   2.383   3.640
 1744SOL    HW1 6131   4.745   2.321   3.697
 1744SOL    HW2 6132   4.767   2.477   3.654
 1745SOL     OW 6133   6.495   6.487   1.544
 1745SOL    HW1 6134   6.497   6.579   1.583
 1745SOL    HW2 6135   6.577   6.473   1.489
 1746SOL     OW 6136   1.618   4.211   3.227
 1746SOL    HW1 6137   1.538   4.167   3.188
 1746SOL    HW2 6138   1.683   4.142   3.257
 1747SOL     OW 6139   3.313   1.081   2.424
 1747SOL    HW1 6140   3.263   1.166   2.406
 1747SOL    HW2 6141   3.387   1.100   2.490
 1748SOL     OW 6142   0.072   1.642   4.126
 1748SOL    HW1 6143   0.075   1.695   4.211
 1748SOL    HW2 6144   0.088   1.703   4.048
 1749SOL     OW 6145   2.351   5.198   1.401
 1749SOL    HW1 6146   2.325   5.102   1.403
 1749SOL    HW2 6147   2.275   5.254   1.434
 1750SOL     OW 6148   4.608   0.649   5.605
 1750SOL    HW1 6149   4.606   0.561   5.557
 1750SOL    HW2 6150   4.613   0.633   5.703
 1751SOL     OW 6151   6.067   2.525   5.118
 1751SOL    HW1 6152   6.042   2.539   5.214
 1751SOL    HW2 6153   5.985   2.537   5.061
 1752SOL     OW 6154   6.655   0.791   1.289
 1752SOL    HW1 6155   6.741   0.759   1.249
 1752SOL    HW2 6156   6.579   0.764   1.230
 1753SOL     OW 6157   6.069   0.994   1.629
 1753SOL    HW1 6158   6.106   0.902   1.643
 1753SOL    HW2 6159   6.029   0.999   1.537
 1754SOL     OW 6160   2.557   5.564   5.755
 1754SOL    HW1 6161   2.464   5.578   5.789
 1754SOL    HW2 6162   2.570   5.468   5.730
 1755SOL     OW 6163   6.023   0.260   5.152
 1755SOL    HW1 6164   5.997   0.221   5.240
 1755SOL    HW2 6165   6.119   0.289   5.156
 1756SOL     OW 6166   5.656   0.522   5.916
 1756SOL    HW1 6167   5.589   0.500   5.845
 1756SOL    HW2 6168   5.674   0.441   5.971
 1757SOL     OW 6169   2.218   4.964   5.084
 1757SOL    HW1 6170   2.214   5.061   5.058
 1757SOL    HW2 6171   2.256   4.911   5.008
 1758SOL     OW 6172   2.259   6.243   4.463
 1758SOL    HW1 6173   2.267   6.147   4.434
 1758SOL    HW2 6174   2.180   6.254   4.522
 1759SOL     OW 6175   1.377   6.165   0.382
 1759SOL    HW1 6176   1.294   6.124   0.420
 1759SOL    HW2 6177   1.406   6.240   0.441
 1760SOL     OW 6178   6.181   1.017   5.135
 1760SOL    HW1 6179   6.217   0.965   5.212
 1760SOL    HW2 6180   6.225   0.985   5.051
 1761SOL     OW 6181   6.589   1.987   1.764
 1761SOL    HW1 6182   6.571   2.051   1.689
 1761SOL    HW2 6183   6.636   1.906   1.728
 1762SOL     OW 6184   0.329   1.539   5.245
 1762SOL    HW1 6185   0.401   1.505   5.305
 1762SOL    HW2 6186   0.366   1.613   5.188
 1763SOL     OW 6187   0.491   3.810   4.193
 1763SOL    HW1 6188   0.496   3.889   4.254
 1763SOL    HW2 6189   0.562   3.818   4.123
 1764SOL     OW 6190   1.565   4.852   2.365
 1764SOL    HW1 6191   1.630   4.896   2.303
 1764SOL    HW2 6192   1.584   4.881   2.459
 1765SOL     OW 6193   5.622   3.184   1.637
 1765SOL    HW1 6194   5.676   3.268   1.642
 1765SOL    HW2 6195   5.682   3.105   1.634
 1766SOL     OW 6196   3.995   5.126   4.369
 1766SOL    HW1 6197   3.925   5.195   4.390
 1766SOL    HW2 6198   3.997   5.110   4.271
 1767SOL     OW 6199   0.362   4.897   2.738
 1767SOL    HW1 6200   0.353   4.985   2.785
 1767SOL    HW2 6201   0.289   4.835   2.769
 1768SOL     OW 6202   5.028   6.722   2.406
 1768SOL    HW1 6203   5.044   6.693   2.312
 1768SOL    HW2 6204   5.105   6.693   2.464
 1769SOL     OW 6205   5.345   7.023   6.399
 1769SOL    HW1 6206   5.353   0.097   6.375
 1769SOL    HW2 6207   5.401   7.004   6.480
 1770SOL     OW 6208   2.264   5.147   6.338
 1770SOL    HW1 6209   2.264   5.058   6.383
 1770SOL    HW2 6210   2.262   5.219   6.407
 1771SOL     OW 6211   0.740   3.997   5.901
 1771SOL    HW1 6212   0.713   3.949   5.984
 1771SOL    HW2 6213   0.680   3.969   5.826
 1772SOL     OW 6214   2.159   4.656   4.218
 1772SOL    HW1 6215   2.100   4.654   4.299
 1772SOL    HW2 6216   2.191   4.563   4.198
 1773SOL     OW 6217   0.604   6.920   5.168
 1773SOL    HW1 6218   0.562   6.833   5.140
 1773SOL    HW2 6219   0.558   6.954   5.250
 1774SOL     OW 6220   5.915   5.636   1.172
 1774SOL    HW1 6221   5.985   5.571   1.141
 1774SOL    HW2 6222   5.828   5.589   1.183
 1775SOL     OW 6223   2.263   5.531   6.060
 1775SOL    HW1 6224   2.180   5.492   6.099
 1775SOL    HW2 6225   2.255   5.533   5.960
 1776SOL     OW 6226   4.024   1.146   5.953
 1776SOL    HW1 6227   3.963   1.218   5.986
 1776SOL    HW2 6228   3.984   1.057   5.971
 1777SOL     OW 6229   4.639   6.667   6.681
 1777SOL    HW1 6230   4.681   6.679   6.771
 1777SOL    HW2 6231   4.629   6.757   6.637
 1778SOL     OW 6232   6.224   0.110   4.129
 1778SOL    HW1 6233   6.149   0.056   4.167
 1778SOL    HW2 6234   6.265   0.061   4.052
 1779SOL     OW 6235   5.497   5.958   3.793
 1779SOL    HW1 6236   5.398   5.969   3.787
 1779SOL    HW2 6237   5.531   6.007   3.873
 1780SOL     OW 6238   1.736   5.366   5.213
 1780SOL    HW1 6239   1.735   5.460   5.178
 1780SOL    HW2 6240   1.720   5.366   5.311
 1781SOL     OW 6241   4.319   0.219   4.107
 1781SOL    HW1 6242   4.317   0.199   4.205
 1781SOL    HW2 6243   4.226   0.238   4.076
 1782SOL     OW 6244   1.821   1.936   2.960
 1782SOL    HW1 6245   1.873   1.851   2.968
 1782SOL    HW2 6246   1.838   1.977   2.870
 1783SOL     OW 6247   1.705   4.348   6.437
 1783SOL    HW1 6248   1.707   4.320   6.533
 1783SOL    HW2 6249   1.722   4.269   6.378
 1784SOL     OW 6250   2.604   0.592   0.730
 1784SOL    HW1 6251   2.547   0.637   0.661
 1784SOL    HW2 6252   2.546   0.561   0.805
 1785SOL     OW 6253   1.447   6.619   4.038
 1785SOL    HW1 6254   1.453   6.572   3.949
 1785SOL    HW2 6255   1.387   6.568   4.099
 1786SOL     OW 6256   1.044   5.762   0.835
 1786SOL    HW1 6257   0.989   5.732   0.913
 1786SOL    HW2 6258   0.988   5.819   0.775
 1787SOL     OW 6259   1.784   3.841   5.647
 1787SOL    HW1 6260   1.762   3.764   5.588
 1787SOL    HW2 6261   1.836   3.809   5.726
 1788SOL     OW 6262   4.671   3.968   0.749
 1788SOL    HW1 6263   4.740   3.981   0.820
 1788SOL    HW2 6264   4.628   4.056   0.728
 1789SOL     OW 6265   6.760   3.942   1.972
 1789SOL    HW1 6266   6.808   4.029   1.980
 1789SOL    HW2 6267   6.662   3.958   1.969
 1790SOL     OW 6268   2.661   2.201   4.469
 1790SOL    HW1 6269   2.697   2.294   4.458
 1790SOL    HW2 6270   2.562   2.201   4.453
 1791SOL     OW 6271   5.568   6.882   3.552
 1791SOL    HW1 6272   5.505   6.840   3.486
 1791SOL    HW2 6273   5.626   6.947   3.504
 1792SOL     OW 6274   6.819   1.369   5.144
 1792SOL    HW1 6275   6.825   1.412   5.054
 1792SOL    HW2 6276   6.850   1.433   5.214
 1793SOL     OW 6277   0.203   1.260   5.842
 1793SOL    HW1 6278   0.194   1.169   5.881
 1793SOL    HW2 6279   0.143   1.323   5.891
 1794SOL     OW 6280   0.458   6.713   6.238
 1794SOL    HW1 6281   0.415   6.749   6.156
 1794SOL    HW2 6282   0.458   6.783   6.309
 1795SOL     OW 6283   6.027   5.158   6.820
 1795SOL    HW1 6284   6.028   5.191   6.725
 1795SOL    HW2 6285   6.119   5.126   6.844
 1796SOL     OW 6286   0.647   6.435   6.072
 1796SOL    HW1 6287   0.572   6.442   6.006
 1796SOL    HW2 6288   0.683   6.526   6.091
 1797SOL     OW 6289   2.521   5.773   4.829
 1797SOL    HW1 6290   2.520   5.814   4.738
 1797SOL    HW2 6291   2.614   5.747   4.854
 1798SOL     OW 6292   2.867   3.603   4.498
 1798SOL    HW1 6293   2.790   3.652   4.537
 1798SOL    HW2 6294   2.898   3.532   4.563
 1799SOL     OW 6295   3.306   1.055   0.189
 1799SOL    HW1 6296   3.366   1.129   0.217
 1799SOL    HW2 6297   3.308   1.045   0.089
 1800SOL     OW 6298   5.190   3.210   4.965
 1800SOL    HW1 6299   5.209   3.226   4.868
 1800SOL    HW2 6300   5.105   3.256   4.990
 1801SOL     OW 6301   1.111   1.974   2.367
 1801SOL    HW1 6302   1.121   1.986   2.269
 1801SOL    HW2 6303   1.140   1.881   2.392
 1802SOL     OW 6304   0.163   4.942   3.746
 1802SOL    HW1 6305   0.081   4.958   3.802
 1802SOL    HW2 6306   0.155   4.854   3.701
 1803SOL     OW 6307   1.456   6.816   3.245
 1803SOL    HW1 6308   1.422   6.871   3.321
 1803SOL    HW2 6309   1.524   6.751   3.279
 1804SOL     OW 6310   2.273   3.458   5.525
 1804SOL    HW1 6311   2.353   3.472   5.468
 1804SOL    HW2 6312   2.236   3.366   5.509
 1805SOL     OW 6313   0.402   6.127   6.453
 1805SOL    HW1 6314   0.451   6.040   6.450
 1805SOL    HW2 6315   0.427   6.183   6.374
 1806SOL     OW 6316   6.599   1.755   2.318
 1806SOL    HW1 6317   6.539   1.722   2.245
 1806SOL    HW2 6318   6.653   1.832   2.284
 1807SOL     OW 6319   6.603   3.377   1.824
 1807SOL    HW1 6320   6.588   3.340   1.916
 1807SOL    HW2 6321   6.526   3.435   1.798
 1808SOL     OW 6322   5.189   1.843   5.745
 1808SOL    HW1 6323   5.268   1.843   5.806
 1808SOL    HW2 6324   5.185   1.928   5.694
 1809SOL     OW 6325   3.961   1.645   6.093
 1809SOL    HW1 6326   3.884   1.686   6.044
 1809SOL    HW2 6327   4.043   1.700   6.079
 1810SOL     OW 6328   0.345   0.234   3.826
 1810SOL    HW1 6329   0.355   0.322   3.781
 1810SOL    HW2 6330   0.264   0.237   3.886
 1811SOL     OW 6331   4.616   5.812   2.363
 1811SOL    HW1 6332   4.577   5.766   2.442
 1811SOL    HW2 6333   4.544   5.859   2.313
 1812SOL     OW 6334   4.743   0.023   4.993
 1812SOL    HW1 6335   4.802   6.966   4.981
 1812SOL    HW2 6336   4.691   0.013   5.078
 1813SOL     OW 6337   4.528   4.444   2.420
 1813SOL    HW1 6338   4.528   4.486   2.511
 1813SOL    HW2 6339   4.438   4.455   2.379
 1814SOL     OW 6340   0.057   6.495   0.707
 1814SOL    HW1 6341   7.009   6.553   0.668
 1814SOL    HW2 6342   0.145   6.515   0.664
 1815SOL     OW 6343   5.937   6.026   1.705
 1815SOL    HW1 6344   5.933   6.117   1.663
 1815SOL    HW2 6345   5.917   5.957   1.635
 1816SOL     OW 6346   4.592   5.398   6.294
 1816SOL    HW1 6347   4.629   5.366   6.206
 1816SOL    HW2 6348   4.508   5.449   6.278
 1817SOL     OW 6349   1.233   1.964   3.732
 1817SOL    HW1 6350   1.165   1.900   3.695
 1817SOL    HW2 6351   1.218   1.975   3.830
 1818SOL     OW 6352   2.070   6.765   0.899
 1818SOL    HW1 6353   2.137   6.808   0.839
 1818SOL    HW2 6354   2.095   6.669   0.914
 1819SOL     OW 6355   2.515   4.889   3.439
 1819SOL    HW1 6356   2.513   4.869   3.341
 1819SOL    HW2 6357   2.429   4.932   3.466
 1820SOL     OW 6358   3.606   0.500   4.454
 1820SOL    HW1 6359   3.540   0.433   4.418
 1820SOL    HW2 6360   3.648   0.548   4.377
 1821SOL     OW 6361   3.921   2.096   2.259
 1821SOL    HW1 6362   3.859   2.152   2.205
 1821SOL    HW2 6363   3.876   2.068   2.344
 1822SOL     OW 6364   0.207   3.017   2.279
 1822SOL    HW1 6365   0.261   3.077   2.220
 1822SOL    HW2 6366   0.110   3.029   2.259
 1823SOL     OW 6367   3.779   6.943   2.541
 1823SOL    HW1 6368   3.729   6.900   2.616
 1823SOL    HW2 6369   3.723   6.943   2.458
 1824SOL     OW 6370   3.708   2.918   0.870
 1824SOL    HW1 6371   3.675   2.989   0.808
 1824SOL    HW2 6372   3.741   2.840   0.817
 1825SOL     OW 6373   2.134   1.585   4.749
 1825SOL    HW1 6374   2.082   1.634   4.819
 1825SOL    HW2 6375   2.072   1.523   4.699
 1826SOL     OW 6376   3.667   2.173   1.679
 1826SOL    HW1 6377   3.661   2.254   1.738
 1826SOL    HW2 6378   3.601   2.105   1.709
 1827SOL     OW 6379   5.480   4.242   0.564
 1827SOL    HW1 6380   5.522   4.161   0.604
 1827SOL    HW2 6381   5.525   4.265   0.477
 1828SOL     OW 6382   1.420   3.345   5.141
 1828SOL    HW1 6383   1.501   3.382   5.186
 1828SOL    HW2 6384   1.363   3.420   5.108
 1829SOL     OW 6385   3.532   0.926   3.596
 1829SOL    HW1 6386   3.589   0.998   3.556
 1829SOL    HW2 6387   3.445   0.965   3.624
 1830SOL     OW 6388   5.368   6.509   5.308
 1830SOL    HW1 6389   5.283   6.469   5.341
 1830SOL    HW2 6390   5.439   6.501   5.378
 1831SOL     OW 6391   4.726   5.435   1.665
 1831SOL    HW1 6392   4.738   5.378   1.584
 1831SOL    HW2 6393   4.774   5.522   1.652
 1832SOL     OW 6394   2.865   3.296   0.487
 1832SOL    HW1 6395   2.766   3.295   0.501
 1832SOL    HW2 6396   2.910   3.323   0.572
 1833SOL     OW 6397   5.183   0.297   0.808
 1833SOL    HW1 6398   5.230   0.378   0.842
 1833SOL    HW2 6399   5.200   0.220   0.870
 1834SOL     OW 6400   2.127   2.523   6.672
 1834SOL    HW1 6401   2.215   2.540   6.627
 1834SOL    HW2 6402   2.059   2.588   6.637
 1835SOL     OW 6403   7.012   5.800   0.940
 1835SOL    HW1 6404   6.974   5.890   0.917
 1835SOL    HW2 6405   6.964   5.764   1.020
 1836SOL     OW 6406   5.512   2.339   1.569
 1836SOL    HW1 6407   5.526   2.324   1.667
 1836SOL    HW2 6408   5.549   2.429   1.544
 1837SOL     OW 6409   2.674   1.775   6.390
 1837SOL    HW1 6410   2.737   1.795   6.315
 1837SOL    HW2 6411   2.643   1.860   6.432
 1838SOL     OW 6412   6.460   0.783   0.590
 1838SOL    HW1 6413   6.381   0.836   0.622
 1838SOL    HW2 6414   6.503   0.737   0.667
 1839SOL     OW 6415   6.418   0.978   6.927
 1839SOL    HW1 6416   6.391   0.995   6.832
 1839SOL    HW2 6417   6.385   0.888   6.955
 1840SOL     OW 6418   4.713   6.797   3.589
 1840SOL    HW1 6419   4.656   6.835   3.516
 1840SOL    HW2 6420   4.750   6.872   3.644
 1841SOL     OW 6421   1.987   1.301   2.162
 1841SOL    HW1 6422   2.084   1.277   2.163
 1841SOL    HW2 6423   1.956   1.316   2.256
 1842SOL     OW 6424   1.639   5.399   0.143
 1842SOL    HW1 6425   1.585   5.339   0.084
 1842SOL    HW2 6426   1.607   5.390   0.238
 1843SOL     OW 6427   3.783   1.055   4.849
 1843SOL    HW1 6428   3.818   0.986   4.785
 1843SOL    HW2 6429   3.697   1.092   4.814
 1844SOL     OW 6430   5.441   1.736   7.017
 1844SOL    HW1 6431   5.538   1.760   7.018
 1844SOL    HW2 6432   5.395   1.781   0.071
 1845SOL     OW 6433   1.355   1.070   2.508
 1845SOL    HW1 6434   1.268   1.025   2.527
 1845SOL    HW2 6435   1.339   1.157   2.462
 1846SOL     OW 6436   4.401   1.204   2.034
 1846SOL    HW1 6437   4.393   1.276   1.965
 1846SOL    HW2 6438   4.440   1.243   2.118
 1847SOL     OW 6439   2.399   0.258   5.620
 1847SOL    HW1 6440   2.437   0.166   5.617
 1847SOL    HW2 6441   2.334   0.265   5.696
 1848SOL     OW 6442   2.532   5.827   4.536
 1848SOL    HW1 6443   2.475   5.887   4.592
 1848SOL    HW2 6444   2.595   5.881   4.481
 1849SOL     OW 6445   4.901   2.805   1.979
 1849SOL    HW1 6446   4.820   2.855   1.949
 1849SOL    HW2 6447   4.972   2.870   2.008
 1850SOL     OW 6448   4.931   1.369   1.449
 1850SOL    HW1 6449   4.855   1.420   1.410
 1850SOL    HW2 6450   4.966   1.304   1.381
 1851SOL     OW 6451   6.809   3.908   5.041
 1851SOL    HW1 6452   6.732   3.956   5.082
 1851SOL    HW2 6453   6.783   3.874   4.950
 1852SOL     OW 6454   1.525   5.664   2.330
 1852SOL    HW1 6455   1.461   5.740   2.320
 1852SOL    HW2 6456   1.550   5.629   2.239
 1853SOL     OW 6457   0.111   2.497   4.382
 1853SOL    HW1 6458   0.197   2.543   4.358
 1853SOL    HW2 6459   0.091   2.514   4.478
 1854SOL     OW 6460   0.258   6.705   3.897
 1854SOL    HW1 6461   0.255   6.779   3.829
 1854SOL    HW2 6462   0.348   6.662   3.894
 1855SOL     OW 6463   4.988   3.389   5.065
 1855SOL    HW1 6464   4.961   3.311   5.007
 1855SOL    HW2 6465   4.920   3.461   5.056
 1856SOL     OW 6466   3.639   2.626   6.820
 1856SOL    HW1 6467   3.673   2.720   6.816
 1856SOL    HW2 6468   3.707   2.565   6.780
 1857SOL     OW 6469   4.735   1.159   0.665
 1857SOL    HW1 6470   4.652   1.205   0.633
 1857SOL    HW2 6471   4.803   1.227   0.691
 1858SOL     OW 6472   4.213   2.122   4.340
 1858SOL    HW1 6473   4.164   2.050   4.389
 1858SOL    HW2 6474   4.149   2.194   4.313
 1859SOL     OW 6475   5.653   2.128   4.005
 1859SOL    HW1 6476   5.572   2.168   4.049
 1859SOL    HW2 6477   5.735   2.174   4.039
 1860SOL     OW 6478   1.208   1.157   4.833
 1860SOL    HW1 6479   1.253   1.114   4.911
 1860SOL    HW2 6480   1.136   1.097   4.799
 1861SOL     OW 6481   6.595   0.299   3.331
 1861SOL    HW1 6482   6.663   0.339   3.393
 1861SOL    HW2 6483   6.596   0.200   3.340
 1862SOL     OW 6484   2.357   6.101   6.568
 1862SOL    HW1 6485   2.438   6.158   6.573
 1862SOL    HW2 6486   2.293   6.126   6.640
 1863SOL     OW 6487   0.832   3.054   1.201
 1863SOL    HW1 6488   0.752   3.101   1.164
 1863SOL    HW2 6489   0.870   3.109   1.277
 1864SOL     OW 6490   3.635   5.907   2.762
 1864SOL    HW1 6491   3.538   5.884   2.756
 1864SOL    HW2 6492   3.665   5.947   2.676
 1865SOL     OW 6493   5.615   0.851   6.070
 1865SOL    HW1 6494   5.542   0.790   6.100
 1865SOL    HW2 6495   5.699   0.831   6.121
 1866SOL     OW 6496   0.181   4.828   3.343
 1866SOL    HW1 6497   0.137   4.917   3.354
 1866SOL    HW2 6498   0.172   4.797   3.249
 1867SOL     OW 6499   2.558   2.206   0.926
 1867SOL    HW1 6500   2.611   2.261   0.991
 1867SOL    HW2 6501   2.548   2.113   0.962
 1868SOL     OW 6502   5.865   4.206   5.595
 1868SOL    HW1 6503   5.784   4.148   5.601
 1868SOL    HW2 6504   5.862   4.277   5.666
 1869SOL     OW 6505   5.016   1.629   4.117
 1869SOL    HW1 6506   4.962   1.639   4.034
 1869SOL    HW2 6507   5.101   1.581   4.096
 1870SOL     OW 6508   0.378   4.939   4.223
 1870SOL    HW1 6509   0.446   4.881   4.269
 1870SOL    HW2 6510   0.320   4.983   4.291
 1871SOL     OW 6511   0.931   6.455   0.603
 1871SOL    HW1 6512   0.925   6.373   0.547
 1871SOL    HW2 6513   0.839   6.482   0.633
 1872SOL     OW 6514   2.831   2.561   1.019
 1872SOL    HW1 6515   2.913   2.546   1.075
 1872SOL    HW2 6516   2.851   2.630   0.949
 1873SOL     OW 6517   6.839   1.210   0.161
 1873SOL    HW1 6518   6.831   1.160   0.075
 1873SOL    HW2 6519   6.787   1.295   0.156
 1874SOL     OW 6520   0.480   6.245   0.077
 1874SOL    HW1 6521   0.426   6.263   7.018
 1874SOL    HW2 6522   0.434   6.177   0.134
 1875SOL     OW 6523   6.435   4.749   0.356
 1875SOL    HW1 6524   6.466   4.841   0.335
 1875SOL    HW2 6525   6.392   4.748   0.447
 1876SOL     OW 6526   0.021   6.027   6.780
 1876SOL    HW1 6527   6.978   5.962   6.819
 1876SOL    HW2 6528   6.994   6.095   6.725
 1877SOL     OW 6529   0.150   0.665   2.066
 1877SOL    HW1 6530   0.181   0.626   1.979
 1877SOL    HW2 6531   0.094   0.598   2.115
 1878SOL     OW 6532   6.584   4.525   3.502
 1878SOL    HW1 6533   6.679   4.544   3.524
 1878SOL    HW2 6534   6.557   4.438   3.542
 1879SOL     OW 6535   4.476   5.658   4.507
 1879SOL    HW1 6536   4.537   5.736   4.494
 1879SOL    HW2 6537   4.480   5.627   4.601
 1880SOL     OW 6538   0.828   1.323   3.897
 1880SOL    HW1 6539   0.773   1.287   3.972
 1880SOL    HW2 6540   0.769   1.361   3.826
 1881SOL     OW 6541   1.434   1.428   4.112
 1881SOL    HW1 6542   1.451   1.402   4.207
 1881SOL    HW2 6543   1.410   1.346   4.060
 1882SOL     OW 6544   1.476   5.723   6.979
 1882SOL    HW1 6545   1.429   5.788   6.920
 1882SOL    HW2 6546   1.574   5.743   6.979
 1883SOL     OW 6547   1.605   3.104   2.819
 1883SOL    HW1 6548   1.551   3.041   2.875
 1883SOL    HW2 6549   1.652   3.170   2.877
 1884SOL     OW 6550   3.427   0.407   0.090
 1884SOL    HW1 6551   3.337   0.381   0.127
 1884SOL    HW2 6552   3.446   0.502   0.114
 1885SOL     OW 6553   0.035   2.154   1.304
 1885SOL    HW1 6554   0.070   2.066   1.336
 1885SOL    HW2 6555   0.032   2.154   1.204
 1886SOL     OW 6556   2.907   3.021   6.570
 1886SOL    HW1 6557   2.969   3.049   6.497
 1886SOL    HW2 6558   2.957   2.965   6.636
 1887SOL     OW 6559   0.931   6.410   5.595
 1887SOL    HW1 6560   0.858   6.357   5.638
 1887SOL    HW2 6561   1.015   6.356   5.595
 1888SOL     OW 6562   1.968   2.358   5.753
 1888SOL    HW1 6563   1.880   2.400   5.771
 1888SOL    HW2 6564   2.042   2.419   5.782
 1889SOL     OW 6565   4.247   2.692   0.321
 1889SOL    HW1 6566   4.172   2.753   0.295
 1889SOL    HW2 6567   4.284   2.721   0.409
 1890SOL     OW 6568   6.528   5.324   6.645
 1890SOL    HW1 6569   6.435   5.361   6.644
 1890SOL    HW2 6570   6.524   5.224   6.637
 1891SOL     OW 6571   6.192   3.783   5.694
 1891SOL    HW1 6572   6.248   3.813   5.617
 1891SOL    HW2 6573   6.248   3.778   5.777
 1892SOL     OW 6574   4.157   5.942   1.987
 1892SOL    HW1 6575   4.139   5.893   1.901
 1892SOL    HW2 6576   4.137   5.882   2.064
 1893SOL     OW 6577   3.956   1.862   4.049
 1893SOL    HW1 6578   3.917   1.820   4.130
 1893SOL    HW2 6579   3.924   1.814   3.967
 1894SOL     OW 6580   3.967   3.603   0.818
 1894SOL    HW1 6581   3.984   3.700   0.838
 1894SOL    HW2 6582   3.877   3.577   0.853
 1895SOL     OW 6583   5.605   0.231   3.263
 1895SOL    HW1 6584   5.698   0.247   3.230
 1895SOL    HW2 6585   5.543   0.296   3.220
 1896SOL     OW 6586   6.857   1.535   5.362
 1896SOL    HW1 6587   6.955   1.518   5.357
 1896SOL    HW2 6588   6.835   1.577   5.450
 1897SOL     OW 6589   6.009   4.948   2.999
 1897SOL    HW1 6590   5.929   5.008   2.995
 1897SOL    HW2 6591   6.045   4.947   3.093
 1898SOL     OW 6592   6.184   4.469   0.577
 1898SOL    HW1 6593   6.169   4.526   0.496
 1898SOL    HW2 6594   6.211   4.527   0.654
 1899SOL     OW 6595   1.103   2.971   2.669
 1899SOL    HW1 6596   1.055   3.004   2.749
 1899SOL    HW2 6597   1.181   3.031   2.649
 1900SOL     OW 6598   1.956   5.575   6.221
 1900SOL    HW1 6599   1.859   5.597   6.216
 1900SOL    HW2 6600   1.989   5.594   6.314
 1901SOL     OW 6601   1.380   1.267   6.563
 1901SOL    HW1 6602   1.316   1.342   6.549
 1901SOL    HW2 6603   1.330   1.181   6.568
 1902SOL     OW 6604   0.681   2.966   4.631
 1902SOL    HW1 6605   0.675   2.867   4.645
 1902SOL    HW2 6606   0.765   3.000   4.673
 1903SOL     OW 6607   6.572   3.098   3.940
 1903SOL    HW1 6608   6.529   3.161   3.876
 1903SOL    HW2 6609   6.540   3.116   4.033
 1904SOL     OW 6610   6.163   6.461   3.760
 1904SOL    HW1 6611   6.197   6.555   3.753
 1904SOL    HW2 6612   6.198   6.419   3.844
 1905SOL     OW 6613   6.644   2.380   3.741
 1905SOL    HW1 6614   6.726   2.373   3.684
 1905SOL    HW2 6615   6.645   2.466   3.792
 1906SOL     OW 6616   2.623   0.433   6.775
 1906SOL    HW1 6617   2.719   0.412   6.790
 1906SOL    HW2 6618   2.593   0.503   6.840
 1907SOL     OW 6619   3.773   6.328   3.801
 1907SOL    HW1 6620   3.821   6.407   3.839
 1907SOL    HW2 6621   3.820   6.297   3.718
 1908SOL     OW 6622   4.624   1.164   6.695
 1908SOL    HW1 6623   4.558   1.227   6.736
 1908SOL    HW2 6624   4.715   1.206   6.694
 1909SOL     OW 6625   2.385   5.321   4.394
 1909SOL    HW1 6626   2.374   5.326   4.295
 1909SOL    HW2 6627   2.414   5.411   4.429
 1910SOL     OW 6628   5.292   1.535   6.018
 1910SOL    HW1 6629   5.381   1.546   5.974
 1910SOL    HW2 6630   5.303   1.539   6.117
 1911SOL     OW 6631   6.236   2.837   4.840
 1911SOL    HW1 6632   6.263   2.901   4.912
 1911SOL    HW2 6633   6.317   2.808   4.789
 1912SOL     OW 6634   3.530   6.988   3.142
 1912SOL    HW1 6635   3.446   6.977   3.196
 1912SOL    HW2 6636   3.572   0.053   3.166
 1913SOL     OW 6637   1.540   5.179   5.826
 1913SOL    HW1 6638   1.599   5.253   5.857
 1913SOL    HW2 6639   1.556   5.161   5.729
 1914SOL     OW 6640   3.639   2.383   6.058
 1914SOL    HW1 6641   3.716   2.322   6.078
 1914SOL    HW2 6642   3.674   2.474   6.037
 1915SOL     OW 6643   3.616   7.010   5.539
 1915SOL    HW1 6644   3.535   6.957   5.515
 1915SOL    HW2 6645   3.696   6.950   5.541
 1916SOL     OW 6646   3.328   6.203   1.475
 1916SOL    HW1 6647   3.362   6.189   1.568
 1916SOL    HW2 6648   3.359   6.127   1.417
 1917SOL     OW 6649   3.056   3.225   4.223
 1917SOL    HW1 6650   2.987   3.273   4.169
 1917SOL    HW2 6651   3.132   3.287   4.243
 1918SOL     OW 6652   5.370   5.951   4.204
 1918SOL    HW1 6653   5.318   6.037   4.203
 1918SOL    HW2 6654   5.390   5.926   4.298
 1919SOL     OW 6655   6.810   6.546   1.726
 1919SOL    HW1 6656   6.734   6.487   1.755
 1919SOL    HW2 6657   6.880   6.549   1.798
 1920SOL     OW 6658   6.697   6.154   4.118
 1920SOL    HW1 6659   6.723   6.246   4.091
 1920SOL    HW2 6660   6.600   6.140   4.099
 1921SOL     OW 6661   1.109   6.671   6.890
 1921SOL    HW1 6662   1.190   6.678   6.949
 1921SOL    HW2 6663   1.038   6.620   6.937
 1922SOL     OW 6664   3.750   4.013   0.710
 1922SOL    HW1 6665   3.753   4.110   0.733
 1922SOL    HW2 6666   3.822   3.964   0.758
 1923SOL     OW 6667   1.621   1.491   0.583
 1923SOL    HW1 6668   1.678   1.428   0.634
 1923SOL    HW2 6669   1.588   1.564   0.644
 1924SOL     OW 6670   0.639   4.560   1.994
 1924SOL    HW1 6671   0.673   4.492   2.058
 1924SOL    HW2 6672   0.716   4.601   1.944
 1925SOL     OW 6673   2.919   4.277   1.392
 1925SOL    HW1 6674   2.830   4.313   1.418
 1925SOL    HW2 6675   2.989   4.312   1.455
 1926SOL     OW 6676   1.376   6.562   3.597
 1926SOL    HW1 6677   1.387   6.469   3.632
 1926SOL    HW2 6678   1.418   6.627   3.661
 1927SOL     OW 6679   3.205   3.889   6.694
 1927SOL    HW1 6680   3.285   3.905   6.636
 1927SOL    HW2 6681   3.142   3.966   6.686
 1928SOL     OW 6682   6.505   4.368   5.877
 1928SOL    HW1 6683   6.511   4.462   5.912
 1928SOL    HW2 6684   6.430   4.362   5.811
 1929SOL     OW 6685   0.797   6.618   1.465
 1929SOL    HW1 6686   0.894   6.595   1.456
 1929SOL    HW2 6687   0.770   6.612   1.561
 1930SOL     OW 6688   5.585   4.421   5.861
 1930SOL    HW1 6689   5.551   4.338   5.816
 1930SOL    HW2 6690   5.610   4.400   5.955
 1931SOL     OW 6691   0.606   2.853   4.035
 1931SOL    HW1 6692   0.583   2.944   4.072
 1931SOL    HW2 6693   0.671   2.808   4.097
 1932SOL     OW 6694   5.372   4.143   1.199
 1932SOL    HW1 6695   5.306   4.071   1.218
 1932SOL    HW2 6696   5.452   4.104   1.155
 1933SOL     OW 6697   3.250   4.324   1.054
 1933SOL    HW1 6698   3.276   4.351   0.960
 1933SOL    HW2 6699   3.319   4.358   1.118
 1934SOL     OW 6700   1.035   6.238   6.073
 1934SOL    HW1 6701   0.951   6.185   6.085
 1934SOL    HW2 6702   1.016   6.320   6.019
 1935SOL     OW 6703   2.629   0.443   3.832
 1935SOL    HW1 6704   2.567   0.428   3.909
 1935SOL    HW2 6705   2.578   0.438   3.746
 1936SOL     OW 6706   6.193   5.742   4.974
 1936SOL    HW1 6707   6.245   5.799   4.911
 1936SOL    HW2 6708   6.202   5.646   4.948
 1937SOL     OW 6709   3.983   6.311   1.911
 1937SOL    HW1 6710   4.053   6.253   1.870
 1937SOL    HW2 6711   3.895   6.292   1.867
 1938SOL     OW 6712   4.382   1.151   3.739
 1938SOL    HW1 6713   4.355   1.055   3.730
 1938SOL    HW2 6714   4.390   1.174   3.836
 1939SOL     OW 6715   1.729   1.175   3.897
 1939SOL    HW1 6716   1.716   1.270   3.871
 1939SOL    HW2 6717   1.660   1.118   3.852
 1940SOL     OW 6718   6.535   5.359   0.237
 1940SOL    HW1 6719   6.506   5.364   0.332
 1940SOL    HW2 6720   6.629   5.394   0.229
 1941SOL     OW 6721   5.396   4.053   2.133
 1941SOL    HW1 6722   5.404   4.044   2.034
 1941SOL    HW2 6723   5.313   4.102   2.156
 1942SOL     OW 6724   6.457   4.859   2.340
 1942SOL    HW1 6725   6.372   4.906   2.363
 1942SOL    HW2 6726   6.517   4.859   2.420
 1943SOL     OW 6727   2.687   4.669   3.525
 1943SOL    HW1 6728   2.739   4.690   3.609
 1943SOL    HW2 6729   2.619   4.741   3.510
 1944SOL     OW 6730   6.558   0.865   0.104
 1944SOL    HW1 6731   6.550   0.927   0.026
 1944SOL    HW2 6732   6.536   0.914   0.189
 1945SOL     OW 6733   3.826   5.367   3.800
 1945SOL    HW1 6734   3.796   5.289   3.745
 1945SOL    HW2 6735   3.749   5.428   3.818
 1946SOL     OW 6736   1.449   0.339   6.929
 1946SOL    HW1 6737   1.436   0.431   6.893
 1946SOL    HW2 6738   1.365   0.309   6.974
 1947SOL     OW 6739   5.308   5.792   3.349
 1947SOL    HW1 6740   5.251   5.857   3.298
 1947SOL    HW2 6741   5.387   5.767   3.293
 1948SOL     OW 6742   6.756   6.019   4.572
 1948SOL    HW1 6743   6.664   5.985   4.554
 1948SOL    HW2 6744   6.802   6.041   4.486
 1949SOL     OW 6745   4.338   4.130   6.542
 1949SOL    HW1 6746   4.419   4.167   6.588
 1949SOL    HW2 6747   4.263   4.123   6.609
 1950SOL     OW 6748   3.301   3.952   6.283
 1950SOL    HW1 6749   3.210   3.912   6.291
 1950SOL    HW2 6750   3.369   3.887   6.315
 1951SOL     OW 6751   6.036   1.256   6.356
 1951SOL    HW1 6752   6.030   1.156   6.358
 1951SOL    HW2 6753   6.072   1.289   6.443
 1952SOL     OW 6754   3.879   2.035   0.346
 1952SOL    HW1 6755   3.960   2.060   0.399
 1952SOL    HW2 6756   3.805   2.099   0.366
 1953SOL     OW 6757   6.941   2.369   6.324
 1953SOL    HW1 6758   0.015   2.371   6.299
 1953SOL    HW2 6759   6.919   2.282   6.368
 1954SOL     OW 6760   3.663   2.142   3.882
 1954SOL    HW1 6761   3.723   2.160   3.960
 1954SOL    HW2 6762   3.572   2.116   3.915
 1955SOL     OW 6763   0.141   6.297   2.249
 1955SOL    HW1 6764   0.126   6.298   2.150
 1955SOL    HW2 6765   0.237   6.318   2.268
 1956SOL     OW 6766   5.625   5.848   2.767
 1956SOL    HW1 6767   5.555   5.788   2.806
 1956SOL    HW2 6768   5.692   5.872   2.837
 1957SOL     OW 6769   0.717   6.267   4.834
 1957SOL    HW1 6770   0.680   6.315   4.913
 1957SOL    HW2 6771   0.684   6.312   4.750
 1958SOL     OW 6772   5.463   3.564   5.624
 1958SOL    HW1 6773   5.520   3.558   5.542
 1958SOL    HW2 6774   5.367   3.571   5.597
 1959SOL     OW 6775   1.325   2.341   6.372
 1959SOL    HW1 6776   1.405   2.398   6.354
 1959SOL    HW2 6777   1.351   2.266   6.434
 1960SOL     OW 6778   5.907   5.177   0.506
 1960SOL    HW1 6779   5.907   5.083   0.542
 1960SOL    HW2 6780   5.889   5.241   0.580
 1961SOL     OW 6781   5.961   4.210   3.632
 1961SOL    HW1 6782   6.039   4.157   3.599
 1961SOL    HW2 6783   5.994   4.293   3.678
 1962SOL     OW 6784   1.593   5.995   3.205
 1962SOL    HW1 6785   1.644   6.058   3.264
 1962SOL    HW2 6786   1.547   6.047   3.133
 1963SOL     OW 6787   0.919   0.403   2.560
 1963SOL    HW1 6788   0.982   0.337   2.601
 1963SOL    HW2 6789   0.960   0.494   2.560
 1964SOL     OW 6790   4.423   2.241   2.366
 1964SOL    HW1 6791   4.342   2.257   2.310
 1964SOL    HW2 6792   4.407   2.278   2.458
 1965SOL     OW 6793   1.226   3.477   3.034
 1965SOL    HW1 6794   1.136   3.449   3.068
 1965SOL    HW2 6795   1.224   3.574   3.011
 1966SOL     OW 6796   7.020   5.305   5.552
 1966SOL    HW1 6797   6.949   5.365   5.591
 1966SOL    HW2 6798   6.984   5.212   5.544
 1967SOL     OW 6799   4.405   2.785   5.539
 1967SOL    HW1 6800   4.373   2.717   5.473
 1967SOL    HW2 6801   4.387   2.877   5.504
 1968SOL     OW 6802   2.790   6.372   7.003
 1968SOL    HW1 6803   2.747   6.306   6.942
 1968SOL    HW2 6804   2.744   6.370   0.069
 1969SOL     OW 6805   6.517   2.441   1.458
 1969SOL    HW1 6806   6.608   2.480   1.441
 1969SOL    HW2 6807   6.449   2.490   1.404
 1970SOL     OW 6808   1.982   6.979   4.499
 1970SOL    HW1 6809   2.022   6.889   4.517
 1970SOL    HW2 6810   2.040   0.027   4.540
 1971SOL     OW 6811   0.437   6.611   6.889
 1971SOL    HW1 6812   0.431   6.582   6.985
 1971SOL    HW2 6813   0.528   6.592   6.854
 1972SOL     OW 6814   0.636   4.551   3.519
 1972SOL    HW1 6815   0.621   4.480   3.588
 1972SOL    HW2 6816   0.549   4.577   3.477
 1973SOL     OW 6817   3.527   2.599   1.449
 1973SOL    HW1 6818   3.561   2.680   1.497
 1973SOL    HW2 6819   3.535   2.519   1.509
 1974SOL     OW 6820   5.434   0.499   3.928
 1974SOL    HW1 6821   5.449   0.400   3.927
 1974SOL    HW2 6822   5.448   0.534   4.020
 1975SOL     OW 6823   3.280   0.574   3.849
 1975SOL    HW1 6824   3.264   0.662   3.804
 1975SOL    HW2 6825   3.378   0.565   3.870
 1976SOL     OW 6826   0.399   6.263   0.606
 1976SOL    HW1 6827   0.333   6.189   0.618
 1976SOL    HW2 6828   0.426   6.298   0.695
 1977SOL     OW 6829   1.075   2.410   4.655
 1977SOL    HW1 6830   1.051   2.330   4.599
 1977SOL    HW2 6831   1.141   2.383   4.726
 1978SOL     OW 6832   0.106   1.452   4.548
 1978SOL    HW1 6833   0.037   1.524   4.554
 1978SOL    HW2 6834   0.191   1.484   4.590
 1979SOL     OW 6835   6.883   4.537   4.359
 1979SOL    HW1 6836   6.982   4.535   4.373
 1979SOL    HW2 6837   6.852   4.446   4.330
 1980SOL     OW 6838   3.572   0.314   1.359
 1980SOL    HW1 6839   3.549   0.384   1.428
 1980SOL    HW2 6840   3.597   0.359   1.274
 1981SOL     OW 6841   5.044   3.021   2.016
 1981SOL    HW1 6842   5.057   3.043   1.920
 1981SOL    HW2 6843   4.954   3.053   2.047
 1982SOL     OW 6844   5.771   5.064   4.593
 1982SOL    HW1 6845   5.823   5.089   4.675
 1982SOL    HW2 6846   5.673   5.064   4.615
 1983SOL     OW 6847   1.197   2.792   3.401
 1983SOL    HW1 6848   1.188   2.891   3.385
 1983SOL    HW2 6849   1.122   2.744   3.355
 1984SOL     OW 6850   4.499   1.870   6.126
 1984SOL    HW1 6851   4.427   1.907   6.068
 1984SOL    HW2 6852   4.459   1.812   6.197
 1985SOL     OW 6853   1.332   0.781   1.692
 1985SOL    HW1 6854   1.400   0.808   1.760
 1985SOL    HW2 6855   1.296   0.862   1.647
 1986SOL     OW 6856   1.378   2.218   0.064
 1986SOL    HW1 6857   1.467   2.245   0.027
 1986SOL    HW2 6858   1.305   2.265   0.015
 1987SOL     OW 6859   2.609   3.288   1.351
 1987SOL    HW1 6860   2.650   3.231   1.422
 1987SOL    HW2 6861   2.525   3.330   1.385
 1988SOL     OW 6862   5.011   3.392   6.936
 1988SOL    HW1 6863   4.975   3.326   7.002
 1988SOL    HW2 6864   5.047   3.472   6.985
 1989SOL     OW 6865   2.072   0.136   4.704
 1989SOL    HW1 6866   2.098   0.169   4.795
 1989SOL    HW2 6867   2.110   0.197   4.634
 1990SOL     OW 6868   2.947   1.010   1.279
 1990SOL    HW1 6869   2.910   0.936   1.223
 1990SOL    HW2 6870   3.041   0.987   1.306
 1991SOL     OW 6871   3.482   5.613   4.736
 1991SOL    HW1 6872   3.500   5.710   4.748
 1991SOL    HW2 6873   3.429   5.579   4.814
 1992SOL     OW 6874   2.271   6.952   5.058
 1992SOL    HW1 6875   2.258   6.960   5.157
 1992SOL    HW2 6876   2.355   6.999   5.031
 1993SOL     OW 6877   3.404   3.724   5.446
 1993SOL    HW1 6878   3.377   3.681   5.360
 1993SOL    HW2 6879   3.434   3.818   5.428
 1994SOL     OW 6880   6.527   1.964   2.016
 1994SOL    HW1 6881   6.561   1.958   1.922
 1994SOL    HW2 6882   6.600   1.998   2.076
 1995SOL     OW 6883   6.282   1.801   1.464
 1995SOL    HW1 6884   6.241   1.867   1.402
 1995SOL    HW2 6885   6.223   1.721   1.472
 1996SOL     OW 6886   3.438   4.279   0.083
 1996SOL    HW1 6887   3.392   4.292   0.171
 1996SOL    HW2 6888   3.494   4.360   0.062
 1997SOL     OW 6889   5.510   0.631   4.836
 1997SOL    HW1 6890   5.577   0.557   4.835
 1997SOL    HW2 6891   5.550   0.711   4.881
 1998SOL     OW 6892   2.837   3.975   6.565
 1998SOL    HW1 6893   2.753   3.942   6.522
 1998SOL    HW2 6894   2.855   3.923   6.649
 1999SOL     OW 6895   2.382   7.003   1.839
 1999SOL    HW1 6896   2.315   6.982   1.768
 1999SOL    HW2 6897   2.372   0.075   1.868
 2000SOL     OW 6898   4.328   0.999   5.081
 2000SOL    HW1 6899   4.339   1.071   5.150
 2000SOL    HW2 6900   4.253   0.939   5.108
 2001SOL     OW 6901   3.079   1.652   1.501
 2001SOL    HW1 6902   3.085   1.569   1.445
 2001SOL    HW2 6903   2.983   1.671   1.522
 2002SOL     OW 6904   2.009   6.256   5.879
 2002SOL    HW1 6905   1.976   6.166   5.908
 2002SOL    HW2 6906   2.024   6.255   5.780
 2003SOL     OW 6907   5.583   6.496   3.403
 2003SOL    HW1 6908   5.530   6.566   3.451
 2003SOL    HW2 6909   5.550   6.488   3.310
 2004SOL     OW 6910   3.276   0.849   5.619
 2004SOL    HW1 6911   3.191   0.813   5.580
 2004SOL    HW2 6912   3.282   0.947   5.600
 2005SOL     OW 6913   2.098   6.427   6.191
 2005SOL    HW1 6914   2.150   6.344   6.173
 2005SOL    HW2 6915   2.014   6.426   6.137
 2006SOL     OW 6916   4.230   4.970   4.162
 2006SOL    HW1 6917   4.165   4.905   4.201
 2006SOL    HW2 6918   4.322   4.930   4.163
 2007SOL     OW 6919   5.197   5.334   0.092
 2007SOL    HW1 6920   5.287   5.295   0.113
 2007SOL    HW2 6921   5.134   5.314   0.167
 2008SOL     OW 6922   6.576   6.433   3.282
 2008SOL    HW1 6923   6.488   6.475   3.305
 2008SOL    HW2 6924   6.584   6.344   3.326
 2009SOL     OW 6925   0.154   0.610   1.773
 2009SOL    HW1 6926   0.118   0.585   1.683
 2009SOL    HW2 6927   0.194   0.701   1.769
 2010SOL     OW 6928   0.909   0.902   1.105
 2010SOL    HW1 6929   0.834   0.891   1.170
 2010SOL    HW2 6930   0.875   0.952   1.025
 2011SOL     OW 6931   6.357   2.189   5.047
 2011SOL    HW1 6932   6.327   2.108   5.096
 2011SOL    HW2 6933   6.278   2.234   5.005
 2012SOL     OW 6934   1.380   4.242   1.843
 2012SOL    HW1 6935   1.416   4.315   1.785
 2012SOL    HW2 6936   1.361   4.162   1.787
 2013SOL     OW 6937   6.019   1.756   2.712
 2013SOL    HW1 6938   5.923   1.784   2.719
 2013SOL    HW2 6939   6.065   1.775   2.798
 2014SOL     OW 6940   1.760   6.040   3.718
 2014SOL    HW1 6941   1.851   6.074   3.743
 2014SOL    HW2 6942   1.742   5.954   3.766
 2015SOL     OW 6943   3.656   0.464   0.281
 2015SOL    HW1 6944   3.675   0.393   0.348
 2015SOL    HW2 6945   3.690   0.436   0.191
 2016SOL     OW 6946   0.638   5.564   3.927
 2016SOL    HW1 6947   0.735   5.548   3.944
 2016SOL    HW2 6948   0.583   5.507   3.989
 2017SOL     OW 6949   2.181   5.800   3.227
 2017SOL    HW1 6950   2.202   5.703   3.233
 2017SOL    HW2 6951   2.227   5.849   3.301
 2018SOL     OW 6952   0.505   5.623   6.018
 2018SOL    HW1 6953   0.541   5.534   5.989
 2018SOL    HW2 6954   0.423   5.645   5.965
 2019SOL     OW 6955   5.749   2.306   0.857
 2019SOL    HW1 6956   5.691   2.280   0.934
 2019SOL    HW2 6957   5.740   2.405   0.841
 2020SOL     OW 6958   2.218   5.176   3.976
 2020SOL    HW1 6959   2.189   5.237   3.902
 2020SOL    HW2 6960   2.289   5.221   4.031
 2021SOL     OW 6961   1.612   1.017   2.581
 2021SOL    HW1 6962   1.518   1.021   2.547
 2021SOL    HW2 6963   1.664   1.093   2.544
 2022SOL     OW 6964   2.635   3.698   1.585
 2022SOL    HW1 6965   2.568   3.753   1.636
 2022SOL    HW2 6966   2.603   3.604   1.578
 2023SOL     OW 6967   0.009   1.257   6.568
 2023SOL    HW1 6968   7.021   1.280   6.665
 2023SOL    HW2 6969   0.064   1.174   6.559
 2024SOL     OW 6970   6.390   0.589   3.548
 2024SOL    HW1 6971   6.425   0.511   3.601
 2024SOL    HW2 6972   6.435   0.673   3.578
 2025SOL     OW 6973   0.398   2.199   1.181
 2025SOL    HW1 6974   0.495   2.217   1.194
 2025SOL    HW2 6975   0.347   2.285   1.188
 2026SOL     OW 6976   2.324   2.052   5.485
 2026SOL    HW1 6977   2.388   2.115   5.530
 2026SOL    HW2 6978   2.288   2.094   5.403
 2027SOL     OW 6979   1.055   1.235   2.195
 2027SOL    HW1 6980   1.001   1.250   2.278
 2027SOL    HW2 6981   1.120   1.310   2.184
 2028SOL     OW 6982   3.837   1.754   0.390
 2028SOL    HW1 6983   3.853   1.852   0.379
 2028SOL    HW2 6984   3.782   1.739   0.473
 2029SOL     OW 6985   1.002   1.275   6.485
 2029SOL    HW1 6986   1.074   1.314   6.427
 2029SOL    HW2 6987   1.024   1.295   6.581
 2030SOL     OW 6988   1.631   2.599   3.836
 2030SOL    HW1 6989   1.616   2.500   3.835
 2030SOL    HW2 6990   1.562   2.643   3.779
 2031SOL     OW 6991   5.563   6.092   2.235
 2031SOL    HW1 6992   5.651   6.047   2.251
 2031SOL    HW2 6993   5.521   6.115   2.323
 2032SOL     OW 6994   5.051   6.110   0.220
 2032SOL    HW1 6995   4.992   6.095   0.141
 2032SOL    HW2 6996   4.995   6.132   0.300
 2033SOL     OW 6997   5.049   4.615   6.279
 2033SOL    HW1 6998   5.001   4.574   6.201
 2033SOL    HW2 6999   5.006   4.702   6.302
 2034SOL     OW 7000   2.521   6.428   3.124
 2034SOL    HW1 7001   2.517   6.450   3.221
 2034SOL    HW2 7002   2.517   6.329   3.112
 2035SOL     OW 7003   0.338   1.631   2.697
 2035SOL    HW1 7004   0.304   1.678   2.616
 2035SOL    HW2 7005   0.270   1.637   2.770
 2036SOL     OW 7006   0.218   5.378   0.968
 2036SOL    HW1 7007   0.166   5.460   0.992
 2036SOL    HW2 7008   0.312   5.404   0.945
 2037SOL     OW 7009   6.703   2.269   5.382
 2037SOL    HW1 7010   6.667   2.247   5.291
 2037SOL    HW2 7011   6.638   2.238   5.451
 2038SOL     OW 7012   0.344   1.798   4.871
 2038SOL    HW1 7013   0.269   1.810   4.936
 2038SOL    HW2 7014   0.430   1.785   4.921
 2039SOL     OW 7015   6.217   5.908   3.958
 2039SOL    HW1 7016   6.250   5.820   3.993
 2039SOL    HW2 7017   6.121   5.899   3.931
 2040SOL     OW 7018   4.002   3.162   4.683
 2040SOL    HW1 7019   4.001   3.261   4.690
 2040SOL    HW2 7020   4.004   3.122   4.775
 2041SOL     OW 7021   5.965   4.644   6.017
 2041SOL    HW1 7022   6.053   4.601   6.039
 2041SOL    HW2 7023   5.980   4.718   5.951
 2042SOL     OW 7024   5.216   5.058   0.847
 2042SOL    HW1 7025   5.132   5.005   0.830
 2042SOL    HW2 7026   5.200   5.124   0.920
 2043SOL     OW 7027   6.293   5.288   2.570
 2043SOL    HW1 7028   6.204   5.274   2.526
 2043SOL    HW2 7029   6.312   5.212   2.632
 2044SOL     OW 7030   5.587   6.876   2.004
 2044SOL    HW1 7031   5.523   6.887   1.929
 2044SOL    HW2 7032   5.676   6.914   1.978
 2045SOL     OW 7033   2.263   4.507   6.362
 2045SOL    HW1 7034   2.274   4.408   6.368
 2045SOL    HW2 7035   2.241   4.544   6.452
 2046SOL     OW 7036   6.676   0.553   4.371
 2046SOL    HW1 7037   6.670   0.611   4.453
 2046SOL    HW2 7038   6.623   0.469   4.386
 2047SOL     OW 7039   4.858   2.437   1.416
 2047SOL    HW1 7040   4.773   2.471   1.376
 2047SOL    HW2 7041   4.927   2.509   1.414
 2048SOL     OW 7042   3.848   0.136   0.239
 2048SOL    HW1 7043   3.806   0.185   0.162
 2048SOL    HW2 7044   3.821   0.040   0.237
 2049SOL     OW 7045   4.711   1.510   6.562
 2049SOL    HW1 7046   4.631   1.565   6.588
 2049SOL    HW2 7047   4.756   1.551   6.482
 2050SOL     OW 7048   5.809   2.550   3.790
 2050SOL    HW1 7049   5.890   2.562   3.848
 2050SOL    HW2 7050   5.727   2.566   3.844
 2051SOL     OW 7051   1.002   5.421   0.105
 2051SOL    HW1 7052   0.916   5.381   0.071
 2051SOL    HW2 7053   1.052   5.461   0.028
 2052SOL     OW 7054   0.678   2.809   6.993
 2052SOL    HW1 7055   0.607   2.857   0.021
 2052SOL    HW2 7056   0.768   2.833   0.008
 2053SOL     OW 7057   6.370   0.527   0.504
 2053SOL    HW1 7058   6.345   0.545   0.599
 2053SOL    HW2 7059   6.417   0.607   0.467
 2054SOL     OW 7060   5.951   3.102   0.848
 2054SOL    HW1 7061   6.034   3.048   0.831
 2054SOL    HW2 7062   5.880   3.074   0.783
 2055SOL     OW 7063   5.590   2.557   3.351
 2055SOL    HW1 7064   5.565   2.652   3.370
 2055SOL    HW2 7065   5.674   2.533   3.399
 2056SOL     OW 7066   2.188   1.324   3.064
 2056SOL    HW1 7067   2.165   1.362   3.153
 2056SOL    HW2 7068   2.264   1.375   3.023
 2057SOL     OW 7069   5.908   2.233   4.113
 2057SOL    HW1 7070   5.907   2.163   4.184
 2057SOL    HW2 7071   5.911   2.323   4.155
 2058SOL     OW 7072   0.111   1.899   3.475
 2058SOL    HW1 7073   0.107   1.990   3.514
 2058SOL    HW2 7074   0.169   1.840   3.532
 2059SOL     OW 7075   1.891   0.947   6.529
 2059SOL    HW1 7076   1.929   1.035   6.499
 2059SOL    HW2 7077   1.962   0.894   6.576
 2060SOL     OW 7078   0.251   4.681   1.897
 2060SOL    HW1 7079   0.332   4.625   1.911
 2060SOL    HW2 7080   0.235   4.693   1.799
 2061SOL     OW 7081   6.888   1.206   2.201
 2061SOL    HW1 7082   6.824   1.199   2.125
 2061SOL    HW2 7083   6.982   1.207   2.166
 2062SOL     OW 7084   4.625   0.166   2.398
 2062SOL    HW1 7085   4.531   0.185   2.370
 2062SOL    HW2 7086   4.685   0.239   2.366
 2063SOL     OW 7087   1.740   2.574   6.208
 2063SOL    HW1 7088   1.691   2.541   6.289
 2063SOL    HW2 7089   1.789   2.498   6.165
 2064SOL     OW 7090   0.947   2.063   5.513
 2064SOL    HW1 7091   0.936   2.068   5.414
 2064SOL    HW2 7092   0.978   2.151   5.548
 2065SOL     OW 7093   6.078   3.436   2.231
 2065SOL    HW1 7094   6.154   3.371   2.228
 2065SOL    HW2 7095   6.048   3.457   2.138
 2066SOL     OW 7096   0.596   6.106   4.539
 2066SOL    HW1 7097   0.537   6.163   4.482
 2066SOL    HW2 7098   0.572   6.119   4.635
 2067SOL     OW 7099   6.602   6.719   0.923
 2067SOL    HW1 7100   6.575   6.718   1.019
 2067SOL    HW2 7101   6.649   6.634   0.901
 2068SOL     OW 7102   2.572   1.481   5.464
 2068SOL    HW1 7103   2.554   1.505   5.559
 2068SOL    HW2 7104   2.485   1.473   5.415
 2069SOL     OW 7105   0.691   2.726   2.663
 2069SOL    HW1 7106   0.600   2.745   2.624
 2069SOL    HW2 7107   0.759   2.784   2.618
 2070SOL     OW 7108   1.150   0.456   2.369
 2070SOL    HW1 7109   1.206   0.467   2.451
 2070SOL    HW2 7110   1.062   0.414   2.394
 2071SOL     OW 7111   0.833   6.535   3.480
 2071SOL    HW1 7112   0.889   6.480   3.419
 2071SOL    HW2 7113   0.846   6.632   3.459
 2072SOL     OW 7114   4.871   6.020   2.106
 2072SOL    HW1 7115   4.910   5.944   2.157
 2072SOL    HW2 7116   4.793   5.987   2.052
 2073SOL     OW 7117   4.038   6.982   4.771
 2073SOL    HW1 7118   4.024   6.884   4.758
 2073SOL    HW2 7119   3.985   7.013   4.850
 2074SOL     OW 7120   6.724   2.069   0.437
 2074SOL    HW1 7121   6.682   2.123   0.364
 2074SOL    HW2 7122   6.654   2.011   0.480
 2075SOL     OW 7123   4.535   3.299   1.195
 2075SOL    HW1 7124   4.533   3.309   1.295
 2075SOL    HW2 7125   4.455   3.247   1.165
 2076SOL     OW 7126   5.474   5.898   6.970
 2076SOL    HW1 7127   5.430   5.833   6.908
 2076SOL    HW2 7128   5.543   5.851   0.002
 2077SOL     OW 7129   5.286   1.892   2.369
 2077SOL    HW1 7130   5.312   1.796   2.359
 2077SOL    HW2 7131   5.293   1.919   2.465
 2078SOL     OW 7132   2.894   5.777   6.200
 2078SOL    HW1 7133   2.949   5.802   6.280
 2078SOL    HW2 7134   2.950   5.725   6.136
 2079SOL     OW 7135   5.664   0.786   3.582
 2079SOL    HW1 7136   5.675   0.694   3.619
 2079SOL    HW2 7137   5.578   0.825   3.614
 2080SOL     OW 7138   2.830   2.255   4.839
 2080SOL    HW1 7139   2.837   2.215   4.930
 2080SOL    HW2 7140   2.743   2.303   4.830
 2081SOL     OW 7141   0.886   6.594   5.153
 2081SOL    HW1 7142   0.886   6.572   5.056
 2081SOL    HW2 7143   0.866   6.691   5.166
 2082SOL     OW 7144   5.651   0.297   1.340
 2082SOL    HW1 7145   5.604   0.365   1.284
 2082SOL    HW2 7146   5.584   0.235   1.380
 2083SOL     OW 7147   3.713   5.596   0.177
 2083SOL    HW1 7148   3.698   5.682   0.128
 2083SOL    HW2 7149   3.627   5.545   0.183
 2084SOL     OW 7150   6.960   2.289   3.275
 2084SOL    HW1 7151   6.888   2.234   3.231
 2084SOL    HW2 7152   7.002   2.349   3.208
 2085SOL     OW 7153   4.774   0.911   6.769
 2085SOL    HW1 7154   4.697   0.968   6.741
 2085SOL    HW2 7155   4.753   0.815   6.748
 2086SOL     OW 7156   3.184   4.633   6.541
 2086SOL    HW1 7157   3.232   4.639   6.628
 2086SOL    HW2 7158   3.149   4.723   6.516
 2087SOL     OW 7159   5.121   6.607   2.868
 2087SOL    HW1 7160   5.080   6.531   2.918
 2087SOL    HW2 7161   5.068   6.624   2.784
 2088SOL     OW 7162   3.183   6.492   0.956
 2088SOL    HW1 7163   3.231   6.552   1.019
 2088SOL    HW2 7164   3.156   6.408   1.004
 2089SOL     OW 7165   4.591   1.525   0.183
 2089SOL    HW1 7166   4.596   1.586   0.104
 2089SOL    HW2 7167   4.652   1.447   0.168
 2090SOL     OW 7168   3.831   4.043   4.510
 2090SOL    HW1 7169   3.804   4.049   4.414
 2090SOL    HW2 7170   3.763   4.089   4.567
 2091SOL     OW 7171   0.460   5.913   0.545
 2091SOL    HW1 7172   0.365   5.932   0.523
 2091SOL    HW2 7173   0.473   5.921   0.644
 2092SOL     OW 7174   5.628   6.143   0.608
 2092SOL    HW1 7175   5.539   6.111   0.639
 2092SOL    HW2 7176   5.619   6.183   0.517
 2093SOL     OW 7177   1.397   2.316   2.628
 2093SOL    HW1 7178   1.329   2.278   2.566
 2093SOL    HW2 7179   1.448   2.389   2.582
 2094SOL     OW 7180   5.803   0.518   2.044
 2094SOL    HW1 7181   5.809   0.418   2.039
 2094SOL    HW2 7182   5.721   0.548   1.995
 2095SOL     OW 7183   5.241   6.302   3.714
 2095SOL    HW1 7184   5.242   6.297   3.614
 2095SOL    HW2 7185   5.162   6.356   3.744
 2096SOL     OW 7186   4.828   3.815   2.557
 2096SOL    HW1 7187   4.788   3.732   2.596
 2096SOL    HW2 7188   4.833   3.807   2.458
 2097SOL     OW 7189   0.614   2.762   6.726
 2097SOL    HW1 7190   0.567   2.838   6.681
 2097SOL    HW2 7191   0.633   2.786   6.821
 2098SOL     OW 7192   4.074   6.193   4.145
 2098SOL    HW1 7193   4.054   6.097   4.165
 2098SOL    HW2 7194   4.140   6.228   4.211
 2099SOL     OW 7195   2.904   0.924   5.129
 2099SOL    HW1 7196   2.808   0.923   5.158
 2099SOL    HW2 7197   2.946   1.011   5.155
 2100SOL     OW 7198   3.763   3.885   6.730
 2100SOL    HW1 7199   3.790   3.901   6.635
 2100SOL    HW2 7200   3.683   3.939   6.752
 2101SOL     OW 7201   0.780   0.100   2.824
 2101SOL    HW1 7202   0.695   0.073   2.870
 2101SOL    HW2 7203   0.802   0.034   2.753
 2102SOL     OW 7204   0.387   5.587   2.710
 2102SOL    HW1 7205   0.427   5.612   2.622
 2102SOL    HW2 7206   0.310   5.525   2.695
 2103SOL     OW 7207   3.090   3.483   6.986
 2103SOL    HW1 7208   3.122   3.547   6.917
 2103SOL    HW2 7209   3.109   3.520   0.054
 2104SOL     OW 7210   1.809   3.371   6.247
 2104SOL    HW1 7211   1.899   3.381   6.204
 2104SOL    HW2 7212   1.764   3.289   6.212
 2105SOL     OW 7213   5.475   5.621   2.869
 2105SOL    HW1 7214   5.402   5.635   2.936
 2105SOL    HW2 7215   5.533   5.546   2.898
 2106SOL     OW 7216   4.166   5.127   6.679
 2106SOL    HW1 7217   4.260   5.105   6.651
 2106SOL    HW2 7218   4.169   5.190   6.757
 2107SOL     OW 7219   3.853   3.563   5.549
 2107SOL    HW1 7220   3.942   3.598   5.518
 2107SOL    HW2 7221   3.808   3.515   5.473
 2108SOL     OW 7222   6.155   5.672   5.438
 2108SOL    HW1 7223   6.056   5.678   5.428
 2108SOL    HW2 7224   6.179   5.587   5.484
 2109SOL     OW 7225   5.258   6.293   3.443
 2109SOL    HW1 7226   5.228   6.362   3.378
 2109SOL    HW2 7227   5.358   6.294   3.449
 2110SOL     OW 7228   2.558   4.916   6.813
 2110SOL    HW1 7229   2.586   4.932   6.719
 2110SOL    HW2 7230   2.470   4.868   6.814
 2111SOL     OW 7231   0.855   2.504   6.072
 2111SOL    HW1 7232   0.945   2.527   6.108
 2111SOL    HW2 7233   0.815   2.430   6.126
 2112SOL     OW 7234   4.161   2.553   1.743
 2112SOL    HW1 7235   4.066   2.585   1.731
 2112SOL    HW2 7236   4.221   2.632   1.749
 2113SOL     OW 7237   1.677   6.915   2.899
 2113SOL    HW1 7238   1.662   6.979   2.974
 2113SOL    HW2 7239   1.773   6.918   2.870
 2114SOL     OW 7240   1.415   4.019   0.668
 2114SOL    HW1 7241   1.328   3.998   0.714
 2114SOL    HW2 7242   1.438   4.115   0.683
 2115SOL     OW 7243   2.331   4.450   3.544
 2115SOL    HW1 7244   2.394   4.439   3.467
 2115SOL    HW2 7245   2.253   4.505   3.516
 2116SOL     OW 7246   6.408   3.966   3.087
 2116SOL    HW1 7247   6.423   4.054   3.131
 2116SOL    HW2 7248   6.457   3.963   3.000
 2117SOL     OW 7249   0.106   4.688   1.639
 2117SOL    HW1 7250   0.130   4.630   1.562
 2117SOL    HW2 7251   0.015   4.664   1.672
 2118SOL     OW 7252   0.047   3.378   1.948
 2118SOL    HW1 7253   0.040   3.280   1.962
 2118SOL    HW2 7254   0.066   3.398   1.852
 2119SOL     OW 7255   1.994   5.619   0.873
 2119SOL    HW1 7256   2.025   5.635   0.779
 2119SOL    HW2 7257   2.061   5.564   0.921
 2120SOL     OW 7258   6.202   4.337   2.609
 2120SOL    HW1 7259   6.153   4.318   2.694
 2120SOL    HW2 7260   6.300   4.316   2.621
 2121SOL     OW 7261   0.518   5.345   5.296
 2121SOL    HW1 7262   0.465   5.420   5.257
 2121SOL    HW2 7263   0.606   5.338   5.249
 2122SOL     OW 7264   5.972   4.606   5.250
 2122SOL    HW1 7265   6.034   4.547   5.301
 2122SOL    HW2 7266   5.888   4.555   5.228
 2123SOL     OW 7267   6.972   4.095   2.698
 2123SOL    HW1 7268   6.917   4.174   2.724
 2123SOL    HW2 7269   0.046   4.119   2.702
 2124SOL     OW 7270   1.385   1.684   1.533
 2124SOL    HW1 7271   1.348   1.715   1.621
 2124SOL    HW2 7272   1.336   1.602   1.504
 2125SOL     OW 7273   1.561   1.199   7.011
 2125SOL    HW1 7274   1.573   1.130   6.940
 2125SOL    HW2 7275   1.578   1.158   0.078
 2126SOL     OW 7276   2.559   1.234   6.824
 2126SOL    HW1 7277   2.522   1.294   6.754
 2126SOL    HW2 7278   2.659   1.236   6.820
 2127SOL     OW 7279   5.935   2.329   4.483
 2127SOL    HW1 7280   5.973   2.397   4.420
 2127SOL    HW2 7281   5.981   2.336   4.572
 2128SOL     OW 7282   0.390   4.520   4.577
 2128SOL    HW1 7283   0.308   4.551   4.625
 2128SOL    HW2 7284   0.448   4.468   4.639
 2129SOL     OW 7285   4.840   2.767   5.590
 2129SOL    HW1 7286   4.873   2.688   5.642
 2129SOL    HW2 7287   4.769   2.739   5.527
 2130SOL     OW 7288   5.225   6.752   2.597
 2130SOL    HW1 7289   5.219   6.849   2.575
 2130SOL    HW2 7290   5.307   6.734   2.651
 2131SOL     OW 7291   0.252   1.387   0.303
 2131SOL    HW1 7292   0.187   1.312   0.290
 2131SOL    HW2 7293   0.277   1.392   0.400
 2132SOL     OW 7294   3.329   3.057   0.832
 2132SOL    HW1 7295   3.289   3.147   0.853
 2132SOL    HW2 7296   3.409   3.043   0.891
 2133SOL     OW 7297   2.603   2.230   5.960
 2133SOL    HW1 7298   2.645   2.304   5.907
 2133SOL    HW2 7299   2.504   2.233   5.950
 2134SOL     OW 7300   6.667   1.964   1.320
 2134SOL    HW1 7301   6.640   1.873   1.352
 2134SOL    HW2 7302   6.587   2.024   1.321
 2135SOL     OW 7303   0.801   4.324   4.117
 2135SOL    HW1 7304   0.723   4.308   4.177
 2135SOL    HW2 7305   0.873   4.373   4.168
 2136SOL     OW 7306   2.912   5.670   1.690
 2136SOL    HW1 7307   2.840   5.604   1.669
 2136SOL    HW2 7308   2.888   5.721   1.772
 2137SOL     OW 7309   3.051   5.348   4.730
 2137SOL    HW1 7310   2.969   5.330   4.675
 2137SOL    HW2 7311   3.131   5.352   4.670
 2138SOL     OW 7312   6.081   0.992   3.338
 2138SOL    HW1 7313   6.159   0.951   3.292
 2138SOL    HW2 7314   6.020   0.920   3.372
 2139SOL     OW 7315   3.308   0.849   5.172
 2139SOL    HW1 7316   3.370   0.926   5.186
 2139SOL    HW2 7317   3.229   0.879   5.118
 2140SOL     OW 7318   2.970   0.698   5.265
 2140SOL    HW1 7319   3.043   0.656   5.211
 2140SOL    HW2 7320   2.946   0.787   5.225
 2141SOL     OW 7321   6.322   3.921   2.345
 2141SOL    HW1 7322   6.249   3.950   2.406
 2141SOL    HW2 7323   6.411   3.936   2.389
 2142SOL     OW 7324   1.534   2.744   4.318
 2142SOL    HW1 7325   1.591   2.765   4.397
 2142SOL    HW2 7326   1.582   2.770   4.234
 2143SOL     OW 7327   2.205   5.714   1.275
 2143SOL    HW1 7328   2.106   5.729   1.269
 2143SOL    HW2 7329   2.227   5.624   1.236
 2144SOL     OW 7330   0.049   5.365   4.756
 2144SOL    HW1 7331   0.028   5.460   4.733
 2144SOL    HW2 7332   6.991   5.308   4.741
 2145SOL     OW 7333   3.880   6.807   4.488
 2145SOL    HW1 7334   3.953   6.762   4.540
 2145SOL    HW2 7335   3.798   6.813   4.544
 2146SOL     OW 7336   2.350   2.383   0.918
 2146SOL    HW1 7337   2.366   2.465   0.974
 2146SOL    HW2 7338   2.424   2.318   0.931
 2147SOL     OW 7339   6.561   1.730   5.648
 2147SOL    HW1 7340   6.577   1.632   5.644
 2147SOL    HW2 7341   6.585   1.772   5.561
 2148SOL     OW 7342   0.191   2.937   6.607
 2148SOL    HW1 7343   0.212   2.909   6.513
 2148SOL    HW2 7344   0.135   3.021   6.604
 2149SOL     OW 7345   1.249   0.955   0.808
 2149SOL    HW1 7346   1.233   1.020   0.735
 2149SOL    HW2 7347   1.164   0.905   0.827
 2150SOL     OW 7348   2.624   2.728   1.700
 2150SOL    HW1 7349   2.634   2.648   1.760
 2150SOL    HW2 7350   2.537   2.773   1.719
 2151SOL     OW 7351   1.129   6.490   0.188
 2151SOL    HW1 7352   1.049   6.532   0.145
 2151SOL    HW2 7353   1.143   6.531   0.278
 2152SOL     OW 7354   4.218   5.764   2.244
 2152SOL    HW1 7355   4.136   5.805   2.286
 2152SOL    HW2 7356   4.190   5.690   2.183
 2153SOL     OW 7357   4.285   1.126   2.666
 2153SOL    HW1 7358   4.227   1.177   2.728
 2153SOL    HW2 7359   4.254   1.031   2.662
 2154SOL     OW 7360   2.892   6.785   3.365
 2154SOL    HW1 7361   2.990   6.765   3.376
 2154SOL    HW2 7362   2.839   6.715   3.412
 2155SOL     OW 7363   4.334   6.987   1.290
 2155SOL    HW1 7364   4.392   0.002   1.362
 2155SOL    HW2 7365   4.238   6.998   1.315
 2156SOL     OW 7366   6.784   1.344   3.457
 2156SOL    HW1 7367   6.699   1.313   3.414
 2156SOL    HW2 7368   6.834   1.402   3.393
 2157SOL     OW 7369   4.394   5.821   3.852
 2157SOL    HW1 7370   4.310   5.870   3.871
 2157SOL    HW2 7371   4.463   5.884   3.817
 2158SOL     OW 7372   4.117   0.287   0.525
 2158SOL    HW1 7373   4.048   0.242   0.468
 2158SOL    HW2 7374   4.103   0.263   0.621
 2159SOL     OW 7375   1.228   0.655   5.417
 2159SOL    HW1 7376   1.326   0.656   5.438
 2159SOL    HW2 7377   1.177   0.636   5.501
 2160SOL     OW 7378   5.027   5.419   0.302
 2160SOL    HW1 7379   4.932   5.396   0.325
 2160SOL    HW2 7380   5.031   5.512   0.267
 2161SOL     OW 7381   1.037   3.886   2.272
 2161SOL    HW1 7382   0.978   3.823   2.323
 2161SOL    HW2 7383   1.125   3.894   2.318
 2162SOL     OW 7384   2.845   0.013   3.501
 2162SOL    HW1 7385   2.884   6.953   3.461
 2162SOL    HW2 7386   2.745   0.007   3.500
 2163SOL     OW 7387   1.725   3.241   0.284
 2163SOL    HW1 7388   1.663   3.295   0.227
 2163SOL    HW2 7389   1.758   3.296   0.359
 2164SOL     OW 7390   2.608   2.422   0.266
 2164SOL    HW1 7391   2.638   2.468   0.350
 2164SOL    HW2 7392   2.535   2.475   0.222
 2165SOL     OW 7393   0.619   1.470   4.197
 2165SOL    HW1 7394   0.639   1.375   4.173
 2165SOL    HW2 7395   0.543   1.502   4.140
 2166SOL     OW 7396   0.643   4.353   3.712
 2166SOL    HW1 7397   0.587   4.305   3.779
 2166SOL    HW2 7398   0.728   4.383   3.754
 2167SOL     OW 7399   1.372   2.796   3.999
 2167SOL    HW1 7400   1.354   2.707   4.042
 2167SOL    HW2 7401   1.466   2.823   4.016
 2168SOL     OW 7402   1.016   2.161   3.274
 2168SOL    HW1 7403   1.083   2.193   3.207
 2168SOL    HW2 7404   1.001   2.231   3.343
 2169SOL     OW 7405   0.616   1.107   1.235
 2169SOL    HW1 7406   0.655   1.034   1.292
 2169SOL    HW2 7407   0.560   1.166   1.292
 2170SOL     OW 7408   0.520   4.414   4.813
 2170SOL    HW1 7409   0.604   4.463   4.836
 2170SOL    HW2 7410   0.536   4.315   4.817
 2171SOL     OW 7411   0.120   5.613   1.529
 2171SOL    HW1 7412   0.078   5.606   1.438
 2171SOL    HW2 7413   0.219   5.618   1.519
 2172SOL     OW 7414   0.506   2.099   5.078
 2172SOL    HW1 7415   0.574   2.046   5.028
 2172SOL    HW2 7416   0.487   2.055   5.166
 2173SOL     OW 7417   5.685   0.351   5.592
 2173SOL    HW1 7418   5.728   0.441   5.584
 2173SOL    HW2 7419   5.694   0.302   5.506
 2174SOL     OW 7420   0.638   6.051   5.209
 2174SOL    HW1 7421   0.597   5.969   5.247
 2174SOL    HW2 7422   0.736   6.053   5.231
 2175SOL     OW 7423   2.253   2.834   5.611
 2175SOL    HW1 7424   2.340   2.879   5.594
 2175SOL    HW2 7425   2.187   2.863   5.541
 2176SOL     OW 7426   4.991   2.690   1.343
 2176SOL    HW1 7427   5.035   2.780   1.333
 2176SOL    HW2 7428   4.928   2.693   1.420
 2177SOL     OW 7429   6.806   0.774   3.058
 2177SOL    HW1 7430   6.737   0.843   3.079
 2177SOL    HW2 7431   6.885   0.785   3.118
 2178SOL     OW 7432   1.100   1.484   1.778
 2178SOL    HW1 7433   1.051   1.515   1.697
 2178SOL    HW2 7434   1.036   1.444   1.843
 2179SOL     OW 7435   2.024   4.212   6.683
 2179SOL    HW1 7436   1.952   4.142   6.692
 2179SOL    HW2 7437   1.997   4.278   6.614
 2180SOL     OW 7438   1.705   4.032   2.356
 2180SOL    HW1 7439   1.729   4.095   2.282
 2180SOL    HW2 7440   1.777   4.033   2.425
 2181SOL     OW 7441   4.724   4.687   4.703
 2181SOL    HW1 7442   4.637   4.639   4.692
 2181SOL    HW2 7443   4.796   4.637   4.655
 2182SOL     OW 7444   0.761   4.678   3.284
 2182SOL    HW1 7445   0.749   4.667   3.383
 2182SOL    HW2 7446   0.823   4.607   3.250
 2183SOL     OW 7447   2.996   3.263   6.790
 2183SOL    HW1 7448   3.067   3.325   6.822
 2183SOL    HW2 7449   3.037   3.177   6.759
 2184SOL     OW 7450   5.886   0.505   0.325
 2184SOL    HW1 7451   5.853   0.599   0.330
 2184SOL    HW2 7452   5.872   0.469   0.233
 2185SOL     OW 7453   0.737   1.227   6.653
 2185SOL    HW1 7454   0.670   1.178   6.708
 2185SOL    HW2 7455   0.771   1.167   6.580
 2186SOL     OW 7456   6.421   5.232   5.196
 2186SOL    HW1 7457   6.383   5.322   5.219
 2186SOL    HW2 7458   6.346   5.168   5.180
 2187SOL     OW 7459   0.278   5.096   2.878
 2187SOL    HW1 7460   0.219   5.152   2.819
 2187SOL    HW2 7461   0.339   5.157   2.930
 2188SOL     OW 7462   2.447   5.702   6.963
 2188SOL    HW1 7463   2.394   5.736   0.019
 2188SOL    HW2 7464   2.427   5.605   6.949
 2189SOL     OW 7465   2.628   1.326   2.228
 2189SOL    HW1 7466   2.681   1.323   2.143
 2189SOL    HW2 7467   2.576   1.241   2.238
 2190SOL     OW 7468   6.828   3.535   2.081
 2190SOL    HW1 7469   6.894   3.465   2.055
 2190SOL    HW2 7470   6.876   3.620   2.103
 2191SOL     OW 7471   2.374   1.451   4.941
 2191SOL    HW1 7472   2.425   1.535   4.919
 2191SOL    HW2 7473   2.340   1.409   4.857
 2192SOL     OW 7474   5.593   0.293   2.440
 2192SOL    HW1 7475   5.573   0.379   2.486
 2192SOL    HW2 7476   5.511   0.236   2.438
 2193SOL     OW 7477   6.345   6.613   6.466
 2193SOL    HW1 7478   6.340   6.712   6.482
 2193SOL    HW2 7479   6.401   6.571   6.537
 2194SOL     OW 7480   0.363   3.984   5.266
 2194SOL    HW1 7481   0.411   4.072   5.271
 2194SOL    HW2 7482   0.329   3.961   5.357
 2195SOL     OW 7483   0.170   5.591   6.092
 2195SOL    HW1 7484   0.117   5.526   6.037
 2195SOL    HW2 7485   0.110   5.665   6.123
 2196SOL     OW 7486   2.803   6.283   5.125
 2196SOL    HW1 7487   2.793   6.363   5.065
 2196SOL    HW2 7488   2.715   6.236   5.132
 2197SOL     OW 7489   2.716   3.060   6.039
 2197SOL    HW1 7490   2.809   3.089   6.015
 2197SOL    HW2 7491   2.720   2.971   6.085
 2198SOL     OW 7492   6.842   0.045   0.048
 2198SOL    HW1 7493   6.752   0.044   0.003
 2198SOL    HW2 7494   6.829   0.055   0.146
 2199SOL     OW 7495   5.024   6.917   4.865
 2199SOL    HW1 7496   5.018   7.017   4.857
 2199SOL    HW2 7497   5.115   6.887   4.839
 2200SOL     OW 7498   3.515   1.174   4.051
 2200SOL    HW1 7499   3.608   1.161   4.087
 2200SOL    HW2 7500   3.514   1.155   3.953
 2201SOL     OW 7501   6.130   2.887   3.330
 2201SOL    HW1 7502   6.145   2.835   3.246
 2201SOL    HW2 7503   6.173   2.840   3.407
 2202SOL     OW 7504   3.249   5.155   2.429
 2202SOL    HW1 7505   3.312   5.208   2.372
 2202SOL    HW2 7506   3.301   5.100   2.493
 2203SOL     OW 7507   2.540   4.149   1.364
 2203SOL    HW1 7508   2.602   4.106   1.430
 2203SOL    HW2 7509   2.499   4.231   1.404
 2204SOL     OW 7510   4.048   2.691   0.976
 2204SOL    HW1 7511   4.114   2.698   1.051
 2204SOL    HW2 7512   3.958   2.723   1.008
 2205SOL     OW 7513   1.650   6.642   0.528
 2205SOL    HW1 7514   1.721   6.665   0.462
 2205SOL    HW2 7515   1.561   6.644   0.483
 2206SOL     OW 7516   2.284   4.225   6.396
 2206SOL    HW1 7517   2.221   4.172   6.452
 2206SOL    HW2 7518   2.315   4.170   6.319
 2207SOL     OW 7519   3.116   5.958   0.790
 2207SOL    HW1 7520   3.152   5.884   0.846
 2207SOL    HW2 7521   3.057   6.017   0.846
 2208SOL     OW 7522   0.834   5.887   3.183
 2208SOL    HW1 7523   0.866   5.859   3.092
 2208SOL    HW2 7524   0.782   5.814   3.225
 2209SOL     OW 7525   2.435   6.013   4.714
 2209SOL    HW1 7526   2.348   6.041   4.755
 2209SOL    HW2 7527   2.511   6.039   4.775
 2210SOL     OW 7528   6.364   5.886   2.412
 2210SOL    HW1 7529   6.409   5.889   2.501
 2210SOL    HW2 7530   6.265   5.874   2.424
 2211SOL     OW 7531   6.287   1.036   0.667
 2211SOL    HW1 7532   6.210   0.994   0.619
 2211SOL    HW2 7533   6.260   1.055   0.762
 2212SOL     OW 7534   1.995   5.634   6.478
 2212SOL    HW1 7535   1.917   5.692   6.497
 2212SOL    HW2 7536   2.048   5.620   6.562
 2213SOL     OW 7537   4.792   2.656   4.683
 2213SOL    HW1 7538   4.858   2.607   4.626
 2213SOL    HW2 7539   4.787   2.613   4.773
 2214SOL     OW 7540   3.577   2.988   5.559
 2214SOL    HW1 7541   3.490   3.028   5.587
 2214SOL    HW2 7542   3.620   3.046   5.489
 2215SOL     OW 7543   5.581   1.809   6.414
 2215SOL    HW1 7544   5.673   1.786   6.384
 2215SOL    HW2 7545   5.536   1.727   6.450
 2216SOL     OW 7546   0.641   6.733   5.670
 2216SOL    HW1 7547   0.623   6.745   5.768
 2216SOL    HW2 7548   0.738   6.748   5.651
 2217SOL     OW 7549   4.476   0.655   3.926
 2217SOL    HW1 7550   4.450   0.602   4.007
 2217SOL    HW2 7551   4.494   0.593   3.850
 2218SOL     OW 7552   0.069   4.903   6.983
 2218SOL    HW1 7553   0.087   4.987   0.012
 2218SOL    HW2 7554   0.024   4.927   6.896
 2219SOL     OW 7555   6.308   1.826   0.784
 2219SOL    HW1 7556   6.251   1.861   0.710
 2219SOL    HW2 7557   6.372   1.759   0.748
 2220SOL     OW 7558   2.085   6.255   5.629
 2220SOL    HW1 7559   2.158   6.200   5.587
 2220SOL    HW2 7560   2.086   6.347   5.591
 2221SOL     OW 7561   6.930   1.632   4.540
 2221SOL    HW1 7562   6.858   1.565   4.557
 2221SOL    HW2 7563   6.930   1.657   4.443
 2222SOL     OW 7564   6.051   6.632   0.629
 2222SOL    HW1 7565   5.999   6.555   0.667
 2222SOL    HW2 7566   6.149   6.611   0.635
 2223SOL     OW 7567   6.792   1.170   5.867
 2223SOL    HW1 7568   6.774   1.125   5.779
 2223SOL    HW2 7569   6.851   1.249   5.852
 2224SOL     OW 7570   5.928   3.734   2.054
 2224SOL    HW1 7571   5.840   3.779   2.036
 2224SOL    HW2 7572   5.949   3.740   2.151
 2225SOL     OW 7573   0.105   6.723   2.944
 2225SOL    HW1 7574   0.149   6.793   2.999
 2225SOL    HW2 7575   0.138   6.633   2.973
 2226SOL     OW 7576   3.763   5.626   0.898
 2226SOL    HW1 7577   3.855   5.649   0.932
 2226SOL    HW2 7578   3.769   5.604   0.800
 2227SOL     OW 7579   4.435   2.664   1.508
 2227SOL    HW1 7580   4.413   2.568   1.492
 2227SOL    HW2 7581   4.456   2.677   1.605
 2228SOL     OW 7582   4.765   5.366   0.329
 2228SOL    HW1 7583   4.689   5.424   0.356
 2228SOL    HW2 7584   4.736   5.305   0.255
 2229SOL     OW 7585   3.483   3.598   4.955
 2229SOL    HW1 7586   3.430   3.645   4.885
 2229SOL    HW2 7587   3.465   3.638   5.044
 2230SOL     OW 7588   5.369   5.923   1.583
 2230SOL    HW1 7589   5.391   5.921   1.681
 2230SOL    HW2 7590   5.316   5.841   1.560
 2231SOL     OW 7591   0.934   0.714   6.454
 2231SOL    HW1 7592   0.961   0.739   6.546
 2231SOL    HW2 7593   1.010   0.728   6.391
 2232SOL     OW 7594   0.347   1.247   4.949
 2232SOL    HW1 7595   0.404   1.179   4.904
 2232SOL    HW2 7596   0.348   1.233   5.048
 2233SOL     OW 7597   3.038   3.388   0.669
 2233SOL    HW1 7598   3.113   3.369   0.606
 2233SOL    HW2 7599   3.042   3.324   0.746
 2234SOL     OW 7600   4.060   1.712   0.631
 2234SOL    HW1 7601   4.072   1.796   0.684
 2234SOL    HW2 7602   4.009   1.733   0.547
 2235SOL     OW 7603   2.449   0.719   2.411
 2235SOL    HW1 7604   2.447   0.647   2.480
 2235SOL    HW2 7605   2.466   0.807   2.455
 2236SOL     OW 7606   1.887   3.710   5.852
 2236SOL    HW1 7607   1.843   3.622   5.874
 2236SOL    HW2 7608   1.985   3.702   5.868
 2237SOL     OW 7609   6.288   4.656   4.385
 2237SOL    HW1 7610   6.201   4.609   4.385
 2237SOL    HW2 7611   6.306   4.695   4.475
 2238SOL     OW 7612   4.849   4.883   2.316
 2238SOL    HW1 7613   4.824   4.837   2.230
 2238SOL    HW2 7614   4.775   4.871   2.382
 2239SOL     OW 7615   4.403   5.410   3.943
 2239SOL    HW1 7616   4.450   5.460   3.870
 2239SOL    HW2 7617   4.345   5.339   3.902
 2240SOL     OW 7618   3.724   5.675   2.249
 2240SOL    HW1 7619   3.773   5.740   2.307
 2240SOL    HW2 7620   3.788   5.610   2.210
 2241SOL     OW 7621   6.625   6.944   1.924
 2241SOL    HW1 7622   6.642   0.019   1.936
 2241SOL    HW2 7623   6.589   6.906   2.009
 2242SOL     OW 7624   5.228   3.470   2.431
 2242SOL    HW1 7625   5.288   3.391   2.427
 2242SOL    HW2 7626   5.269   3.546   2.380
 2243SOL     OW 7627   1.783   6.539   0.028
 2243SOL    HW1 7628   1.842   6.494   0.095
 2243SOL    HW2 7629   1.836   6.562   6.969
 2244SOL     OW 7630   2.964   0.320   1.197
 2244SOL    HW1 7631   2.881   0.269   1.222
 2244SOL    HW2 7632   2.997   0.369   1.278
 2245SOL     OW 7633   6.770   1.645   0.462
 2245SOL    HW1 7634   6.828   1.719   0.429
 2245SOL    HW2 7635   6.817   1.597   0.536
 2246SOL     OW 7636   1.969   0.752   4.085
 2246SOL    HW1 7637   1.880   0.741   4.130
 2246SOL    HW2 7638   2.042   0.729   4.149
 2247SOL     OW 7639   3.135   3.680   2.606
 2247SOL    HW1 7640   3.201   3.690   2.531
 2247SOL    HW2 7641   3.115   3.770   2.645
 2248SOL     OW 7642   6.593   4.320   4.452
 2248SOL    HW1 7643   6.528   4.317   4.527
 2248SOL    HW2 7644   6.660   4.246   4.462
 2249SOL     OW 7645   4.154   6.707   3.905
 2249SOL    HW1 7646   4.254   6.698   3.905
 2249SOL    HW2 7647   4.129   6.795   3.944
 2250SOL     OW 7648   3.195   3.820   5.647
 2250SOL    HW1 7649   3.210   3.723   5.633
 2250SOL    HW2 7650   3.121   3.851   5.586
 2251SOL     OW 7651   5.454   0.109   6.021
 2251SOL    HW1 7652   5.405   0.022   6.024
 2251SOL    HW2 7653   5.417   0.165   5.947
 2252SOL     OW 7654   5.246   1.852   2.851
 2252SOL    HW1 7655   5.275   1.942   2.885
 2252SOL    HW2 7656   5.164   1.823   2.899
 2253SOL     OW 7657   0.075   3.460   6.860
 2253SOL    HW1 7658   0.034   3.543   6.822
 2253SOL    HW2 7659   0.123   3.482   6.945
 2254SOL     OW 7660   3.652   3.477   3.343
 2254SOL    HW1 7661   3.719   3.518   3.405
 2254SOL    HW2 7662   3.622   3.389   3.379
 2255SOL     OW 7663   2.931   3.416   5.614
 2255SOL    HW1 7664   3.003   3.414   5.683
 2255SOL    HW2 7665   2.938   3.501   5.561
 2256SOL     OW 7666   4.781   6.780   2.163
 2256SOL    HW1 7667   4.783   6.809   2.259
 2256SOL    HW2 7668   4.767   6.860   2.104
 2257SOL     OW 7669   0.990   1.180   4.323
 2257SOL    HW1 7670   0.918   1.112   4.308
 2257SOL    HW2 7671   0.963   1.242   4.396
 2258SOL     OW 7672   2.192   5.633   3.942
 2258SOL    HW1 7673   2.113   5.588   3.983
 2258SOL    HW2 7674   2.179   5.732   3.945
 2259SOL     OW 7675   5.141   2.614   5.216
 2259SOL    HW1 7676   5.068   2.679   5.238
 2259SOL    HW2 7677   5.125   2.528   5.264
 2260SOL     OW 7678   0.726   3.600   1.261
 2260SOL    HW1 7679   0.665   3.561   1.330
 2260SOL    HW2 7680   0.711   3.554   1.174
 2261SOL     OW 7681   6.712   4.473   0.615
 2261SOL    HW1 7682   6.810   4.452   0.621
 2261SOL    HW2 7683   6.700   4.568   0.587
 2262SOL     OW 7684   6.328   0.097   3.112
 2262SOL    HW1 7685   6.267   0.149   3.052
 2262SOL    HW2 7686   6.280   0.015   3.144
 2263SOL     OW 7687   1.979   5.913   0.461
 2263SOL    HW1 7688   1.899   5.958   0.500
 2263SOL    HW2 7689   1.978   5.816   0.484
 2264SOL     OW 7690   2.617   0.072   6.602
 2264SOL    HW1 7691   2.564   0.156   6.596
 2264SOL    HW2 7692   2.559   7.016   6.580
 2265SOL     OW 7693   2.146   0.706   4.321
 2265SOL    HW1 7694   2.238   0.693   4.358
 2265SOL    HW2 7695   2.129   0.804   4.309
 2266SOL     OW 7696   4.840   1.685   6.353
 2266SOL    HW1 7697   4.889   1.665   6.269
 2266SOL    HW2 7698   4.778   1.762   6.338
 2267SOL     OW 7699   4.823   2.700   5.033
 2267SOL    HW1 7700   4.833   2.725   5.129
 2267SOL    HW2 7701   4.879   2.761   4.977
 2268SOL     OW 7702   6.157   3.949   6.410
 2268SOL    HW1 7703   6.231   3.919   6.471
 2268SOL    HW2 7704   6.186   4.031   6.360
 2269SOL     OW 7705   0.993   3.667   4.925
 2269SOL    HW1 7706   0.952   3.751   4.961
 2269SOL    HW2 7707   1.010   3.603   5.001
 2270SOL     OW 7708   3.771   3.222   6.419
 2270SOL    HW1 7709   3.870   3.229   6.430
 2270SOL    HW2 7710   3.744   3.267   6.334
 2271SOL     OW 7711   5.671   4.642   0.054
 2271SOL    HW1 7712   5.665   4.615   0.150
 2271SOL    HW2 7713   5.752   4.601   0.013
 2272SOL     OW 7714   6.920   1.211   6.828
 2272SOL    HW1 7715   6.865   1.143   6.877
 2272SOL    HW2 7716   6.986   1.253   6.891
 2273SOL     OW 7717   1.758   2.322   2.378
 2273SOL    HW1 7718   1.750   2.306   2.280
 2273SOL    HW2 7719   1.687   2.385   2.408
 2274SOL     OW 7720   0.536   1.686   6.484
 2274SOL    HW1 7721   0.459   1.747   6.504
 2274SOL    HW2 7722   0.601   1.734   6.425
 2275SOL     OW 7723   5.916   6.215   2.877
 2275SOL    HW1 7724   5.945   6.305   2.843
 2275SOL    HW2 7725   5.976   6.187   2.951
 2276SOL     OW 7726   1.447   5.931   1.384
 2276SOL    HW1 7727   1.444   6.004   1.453
 2276SOL    HW2 7728   1.446   5.972   1.292
 2277SOL     OW 7729   3.295   3.670   4.755
 2277SOL    HW1 7730   3.224   3.718   4.703
 2277SOL    HW2 7731   3.308   3.578   4.717
 2278SOL     OW 7732   6.028   2.526   3.982
 2278SOL    HW1 7733   6.116   2.568   4.001
 2278SOL    HW2 7734   6.042   2.441   3.930
 2279SOL     OW 7735   6.541   6.712   5.285
 2279SOL    HW1 7736   6.623   6.686   5.335
 2279SOL    HW2 7737   6.539   6.811   5.272
 2280SOL     OW 7738   6.397   0.508   4.773
 2280SOL    HW1 7739   6.314   0.452   4.772
 2280SOL    HW2 7740   6.401   0.563   4.690
 2281SOL     OW 7741   3.060   0.711   1.802
 2281SOL    HW1 7742   3.004   0.770   1.861
 2281SOL    HW2 7743   3.093   0.633   1.855
 2282SOL     OW 7744   5.413   6.114   5.662
 2282SOL    HW1 7745   5.400   6.115   5.563
 2282SOL    HW2 7746   5.415   6.207   5.697
 2283SOL     OW 7747   1.531   0.601   1.964
 2283SOL    HW1 7748   1.472   0.594   2.044
 2283SOL    HW2 7749   1.589   0.682   1.972
 2284SOL     OW 7750   1.100   3.478   6.027
 2284SOL    HW1 7751   1.107   3.453   6.124
 2284SOL    HW2 7752   1.034   3.418   5.982
 2285SOL     OW 7753   1.314   3.204   0.173
 2285SOL    HW1 7754   1.396   3.147   0.171
 2285SOL    HW2 7755   1.338   3.299   0.155
 2286SOL     OW 7756   5.602   0.257   3.530
 2286SOL    HW1 7757   5.615   0.356   3.541
 2286SOL    HW2 7758   5.634   0.229   3.440
 2287SOL     OW 7759   2.699   0.891   3.969
 2287SOL    HW1 7760   2.753   0.955   3.915
 2287SOL    HW2 7761   2.727   0.798   3.947
 2288SOL     OW 7762   7.007   5.297   3.847
 2288SOL    HW1 7763   0.061   5.305   3.911
 2288SOL    HW2 7764   7.023   5.357   3.768
 2289SOL     OW 7765   6.940   5.102   0.882
 2289SOL    HW1 7766   6.947   5.183   0.825
 2289SOL    HW2 7767   6.901   5.126   0.970
 2290SOL     OW 7768   0.457   4.014   1.343
 2290SOL    HW1 7769   0.479   4.109   1.321
 2290SOL    HW2 7770   0.533   3.955   1.318
 2291SOL     OW 7771   2.620   2.399   5.576
 2291SOL    HW1 7772   2.577   2.316   5.611
 2291SOL    HW2 7773   2.585   2.418   5.484
 2292SOL     OW 7774   1.906   1.404   4.398
 2292SOL    HW1 7775   1.848   1.484   4.416
 2292SOL    HW2 7776   1.965   1.422   4.320
 2293SOL     OW 7777   5.266   5.815   1.985
 2293SOL    HW1 7778   5.214   5.735   2.015
 2293SOL    HW2 7779   5.204   5.881   1.944
 2294SOL     OW 7780   3.218   0.124   6.836
 2294SOL    HW1 7781   3.237   0.222   6.846
 2294SOL    HW2 7782   3.230   0.079   6.925
 2295SOL     OW 7783   0.318   1.584   2.296
 2295SOL    HW1 7784   0.253   1.617   2.365
 2295SOL    HW2 7785   0.329   1.485   2.305
 2296SOL     OW 7786   2.939   6.779   0.796
 2296SOL    HW1 7787   2.994   6.858   0.769
 2296SOL    HW2 7788   2.891   6.742   0.716
 2297SOL     OW 7789   3.605   4.263   5.114
 2297SOL    HW1 7790   3.702   4.240   5.126
 2297SOL    HW2 7791   3.596   4.337   5.048
 2298SOL     OW 7792   3.595   2.680   1.813
 2298SOL    HW1 7793   3.499   2.699   1.792
 2298SOL    HW2 7794   3.616   2.584   1.791
 2299SOL     OW 7795   5.846   0.630   6.549
 2299SOL    HW1 7796   5.764   0.680   6.578
 2299SOL    HW2 7797   5.881   0.670   6.464
 2300SOL     OW 7798   2.234   5.274   1.800
 2300SOL    HW1 7799   2.222   5.266   1.899
 2300SOL    HW2 7800   2.332   5.272   1.778
 2301SOL     OW 7801   2.884   3.428   3.002
 2301SOL    HW1 7802   2.885   3.436   2.902
 2301SOL    HW2 7803   2.812   3.364   3.029
 2302SOL     OW 7804   3.576   0.158   2.287
 2302SOL    HW1 7805   3.632   0.240   2.274
 2302SOL    HW2 7806   3.574   0.106   2.202
 2303SOL     OW 7807   1.453   3.236   5.706
 2303SOL    HW1 7808   1.396   3.155   5.717
 2303SOL    HW2 7809   1.504   3.230   5.621
 2304SOL     OW 7810   2.511   0.534   3.313
 2304SOL    HW1 7811   2.507   0.633   3.319
 2304SOL    HW2 7812   2.507   0.494   3.404
 2305SOL     OW 7813   3.587   5.613   3.174
 2305SOL    HW1 7814   3.510   5.666   3.209
 2305SOL    HW2 7815   3.630   5.662   3.098
 2306SOL     OW 7816   2.120   5.790   1.572
 2306SOL    HW1 7817   2.122   5.889   1.586
 2306SOL    HW2 7818   2.110   5.770   1.475
 2307SOL     OW 7819   2.488   4.567   2.571
 2307SOL    HW1 7820   2.580   4.588   2.537
 2307SOL    HW2 7821   2.442   4.505   2.507
 2308SOL     OW 7822   1.161   6.902   6.710
 2308SOL    HW1 7823   1.100   6.877   6.635
 2308SOL    HW2 7824   1.176   6.822   6.769
 2309SOL     OW 7825   2.687   6.699   0.166
 2309SOL    HW1 7826   2.713   6.792   0.189
 2309SOL    HW2 7827   2.735   6.635   0.226
 2310SOL     OW 7828   6.079   6.144   1.385
 2310SOL    HW1 7829   6.154   6.107   1.330
 2310SOL    HW2 7830   6.115   6.216   1.446
 2311SOL     OW 7831   2.802   6.542   2.308
 2311SOL    HW1 7832   2.839   6.635   2.311
 2311SOL    HW2 7833   2.877   6.477   2.319
 2312SOL     OW 7834   3.366   6.902   3.368
 2312SOL    HW1 7835   3.341   6.811   3.400
 2312SOL    HW2 7836   3.284   6.949   3.336
 2313SOL     OW 7837   4.733   5.265   1.923
 2313SOL    HW1 7838   4.777   5.213   1.851
 2313SOL    HW2 7839   4.792   5.269   2.004
 2314SOL     OW 7840   5.898   0.792   3.409
 2314SOL    HW1 7841   5.957   0.751   3.478
 2314SOL    HW2 7842   5.803   0.788   3.440
 2315SOL     OW 7843   5.233   3.398   5.158
 2315SOL    HW1 7844   5.137   3.424   5.157
 2315SOL    HW2 7845   5.254   3.343   5.077
 2316SOL     OW 7846   2.744   1.662   5.304
 2316SOL    HW1 7847   2.698   1.576   5.286
 2316SOL    HW2 7848   2.682   1.738   5.282
 2317SOL     OW 7849   6.409   6.345   3.685
 2317SOL    HW1 7850   6.325   6.399   3.681
 2317SOL    HW2 7851   6.391   6.259   3.733
 2318SOL     OW 7852   2.115   3.383   4.491
 2318SOL    HW1 7853   2.114   3.303   4.430
 2318SOL    HW2 7854   2.131   3.352   4.585
 2319SOL     OW 7855   3.168   5.329   5.304
 2319SOL    HW1 7856   3.106   5.321   5.382
 2319SOL    HW2 7857   3.130   5.282   5.225
 2320SOL     OW 7858   0.953   2.229   5.004
 2320SOL    HW1 7859   0.929   2.228   4.907
 2320SOL    HW2 7860   0.989   2.319   5.029
 2321SOL     OW 7861   2.175   5.619   6.683
 2321SOL    HW1 7862   2.128   5.683   6.744
 2321SOL    HW2 7863   2.208   5.541   6.736
 2322SOL     OW 7864   2.161   4.553   2.288
 2322SOL    HW1 7865   2.113   4.489   2.227
 2322SOL    HW2 7866   2.259   4.539   2.281
 2323SOL     OW 7867   3.384   4.818   1.721
 2323SOL    HW1 7868   3.460   4.761   1.753
 2323SOL    HW2 7869   3.298   4.778   1.752
 2324SOL     OW 7870   6.541   6.300   1.062
 2324SOL    HW1 7871   6.488   6.308   1.147
 2324SOL    HW2 7872   6.542   6.388   1.016
 2325SOL     OW 7873   0.379   4.571   1.185
 2325SOL    HW1 7874   0.452   4.600   1.247
 2325SOL    HW2 7875   0.364   4.473   1.195
 2326SOL     OW 7876   1.276   6.262   6.447
 2326SOL    HW1 7877   1.355   6.323   6.440
 2326SOL    HW2 7878   1.277   6.216   6.536
 2327SOL     OW 7879   0.528   1.106   2.927
 2327SOL    HW1 7880   0.581   1.104   2.842
 2327SOL    HW2 7881   0.586   1.137   3.002
 2328SOL     OW 7882   1.543   1.874   2.880
 2328SOL    HW1 7883   1.549   1.896   2.783
 2328SOL    HW2 7884   1.631   1.892   2.924
 2329SOL     OW 7885   0.790   4.451   4.885
 2329SOL    HW1 7886   0.888   4.454   4.863
 2329SOL    HW2 7887   0.777   4.473   4.981
 2330SOL     OW 7888   6.857   2.630   0.950
 2330SOL    HW1 7889   6.862   2.532   0.969
 2330SOL    HW2 7890   6.825   2.678   1.032
 2331SOL     OW 7891   3.579   5.185   0.276
 2331SOL    HW1 7892   3.527   5.265   0.246
 2331SOL    HW2 7893   3.673   5.212   0.296
 2332SOL     OW 7894   0.088   6.963   5.898
 2332SOL    HW1 7895   0.072   6.904   5.819
 2332SOL    HW2 7896   0.021   6.942   5.969
 2333SOL     OW 7897   6.856   4.686   3.100
 2333SOL    HW1 7898   6.778   4.667   3.158
 2333SOL    HW2 7899   6.859   4.618   3.025
 2334SOL     OW 7900   1.658   0.939   6.629
 2334SOL    HW1 7901   1.749   0.946   6.590
 2334SOL    HW2 7902   1.612   0.858   6.593
 2335SOL     OW 7903   5.803   0.269   3.794
 2335SOL    HW1 7904   5.809   0.178   3.751
 2335SOL    HW2 7905   5.757   0.332   3.732
 2336SOL     OW 7906   4.102   1.264   5.061
 2336SOL    HW1 7907   4.157   1.256   5.144
 2336SOL    HW2 7908   4.019   1.210   5.070
 2337SOL     OW 7909   4.179   0.491   1.462
 2337SOL    HW1 7910   4.187   0.435   1.544
 2337SOL    HW2 7911   4.268   0.496   1.417
 2338SOL     OW 7912   0.456   2.953   4.331
 2338SOL    HW1 7913   0.538   3.004   4.304
 2338SOL    HW2 7914   0.400   3.009   4.392
 2339SOL     OW 7915   3.754   4.095   3.568
 2339SOL    HW1 7916   3.676   4.151   3.543
 2339SOL    HW2 7917   3.793   4.053   3.486
 2340SOL     OW 7918   6.504   4.402   6.686
 2340SOL    HW1 7919   6.502   4.359   6.776
 2340SOL    HW2 7920   6.599   4.424   6.662
 2341SOL     OW 7921   3.066   4.842   2.197
 2341SOL    HW1 7922   3.071   4.884   2.107
 2341SOL    HW2 7923   3.158   4.824   2.231
 2342SOL     OW 7924   1.546   0.031   5.044
 2342SOL    HW1 7925   1.617   7.013   4.986
 2342SOL    HW2 7926   1.530   0.125   5.015
 2343SOL     OW 7927   1.644   5.536   2.129
 2343SOL    HW1 7928   1.723   5.490   2.170
 2343SOL    HW2 7929   1.653   5.532   2.029
 2344SOL     OW 7930   0.431   5.815   6.971
 2344SOL    HW1 7931   0.482   5.762   0.016
 2344SOL    HW2 7932   0.470   5.800   6.880
 2345SOL     OW 7933   2.372   5.368   5.066
 2345SOL    HW1 7934   2.311   5.333   4.995
 2345SOL    HW2 7935   2.336   5.455   5.101
 2346SOL     OW 7936   3.314   3.057   6.005
 2346SOL    HW1 7937   3.289   3.154   6.002
 2346SOL    HW2 7938   3.234   3.001   5.984
 2347SOL     OW 7939   2.709   2.495   1.383
 2347SOL    HW1 7940   2.671   2.587   1.372
 2347SOL    HW2 7941   2.808   2.501   1.392
 2348SOL     OW 7942   1.835   5.916   3.479
 2348SOL    HW1 7943   1.797   5.971   3.554
 2348SOL    HW2 7944   1.848   5.974   3.399
 2349SOL     OW 7945   0.801   4.710   5.772
 2349SOL    HW1 7946   0.869   4.714   5.845
 2349SOL    HW2 7947   0.841   4.669   5.691
 2350SOL     OW 7948   6.369   5.542   6.045
 2350SOL    HW1 7949   6.272   5.541   6.071
 2350SOL    HW2 7950   6.425   5.521   6.125
 2351SOL     OW 7951   2.939   5.311   4.282
 2351SOL    HW1 7952   2.902   5.227   4.323
 2351SOL    HW2 7953   2.919   5.389   4.341
 2352SOL     OW 7954   0.349   3.862   2.679
 2352SOL    HW1 7955   0.408   3.811   2.741
 2352SOL    HW2 7956   0.384   3.955   2.668
 2353SOL     OW 7957   3.345   5.541   4.505
 2353SOL    HW1 7958   3.397   5.586   4.578
 2353SOL    HW2 7959   3.326   5.446   4.531
 2354SOL     OW 7960   2.589   1.756   4.770
 2354SOL    HW1 7961   2.513   1.722   4.715
 2354SOL    HW2 7962   2.604   1.853   4.749
 2355SOL     OW 7963   2.203   0.023   5.993
 2355SOL    HW1 7964   2.231   6.950   6.002
 2355SOL    HW2 7965   2.104   0.028   5.991
 2356SOL     OW 7966   1.148   3.408   6.285
 2356SOL    HW1 7967   1.128   3.316   6.320
 2356SOL    HW2 7968   1.202   3.458   6.352
 2357SOL     OW 7969   4.025   0.282   2.785
 2357SOL    HW1 7970   3.985   0.352   2.726
 2357SOL    HW2 7971   4.007   0.192   2.747
 2358SOL     OW 7972   2.986   5.288   5.526
 2358SOL    HW1 7973   2.973   5.357   5.597
 2358SOL    HW2 7974   3.031   5.207   5.566
 2359SOL     OW 7975   6.749   0.825   5.549
 2359SOL    HW1 7976   6.768   0.923   5.558
 2359SOL    HW2 7977   6.673   0.800   5.607
 2360SOL     OW 7978   5.545   3.113   6.761
 2360SOL    HW1 7979   5.459   3.086   6.805
 2360SOL    HW2 7980   5.540   3.091   6.663
 2361SOL     OW 7981   2.172   0.752   6.149
 2361SOL    HW1 7982   2.159   0.682   6.218
 2361SOL    HW2 7983   2.216   0.712   6.068
 2362SOL     OW 7984   2.561   5.704   3.839
 2362SOL    HW1 7985   2.613   5.788   3.832
 2362SOL    HW2 7986   2.468   5.719   3.805
 2363SOL     OW 7987   4.872   1.892   4.976
 2363SOL    HW1 7988   4.860   1.799   4.939
 2363SOL    HW2 7989   4.783   1.928   5.006
 2364SOL     OW 7990   1.046   2.495   2.472
 2364SOL    HW1 7991   1.080   2.589   2.480
 2364SOL    HW2 7992   0.969   2.482   2.534
 2365SOL     OW 7993   6.807   2.385   6.732
 2365SOL    HW1 7994   6.741   2.415   6.800
 2365SOL    HW2 7995   6.800   2.286   6.719
 2366SOL     OW 7996   2.647   5.695   6.266
 2366SOL    HW1 7997   2.633   5.699   6.365
 2366SOL    HW2 7998   2.741   5.722   6.245
 2367SOL     OW 7999   2.678   3.921   1.085
 2367SOL    HW1 8000   2.757   3.966   1.042
 2367SOL    HW2 8001   2.594   3.951   1.041
 2368SOL     OW 8002   4.482   6.874   4.809
 2368SOL    HW1 8003   4.532   6.936   4.749
 2368SOL    HW2 8004   4.511   6.779   4.791
 2369SOL     OW 8005   2.213   0.826   5.274
 2369SOL    HW1 8006   2.236   0.811   5.370
 2369SOL    HW2 8007   2.194   0.739   5.229
 2370SOL     OW 8008   4.799   2.793   0.257
 2370SOL    HW1 8009   4.701   2.808   0.270
 2370SOL    HW2 8010   4.827   2.829   0.168
 2371SOL     OW 8011   1.001   6.862   1.449
 2371SOL    HW1 8012   1.060   6.781   1.447
 2371SOL    HW2 8013   0.991   6.898   1.356
 2372SOL     OW 8014   6.984   2.832   1.740
 2372SOL    HW1 8015   6.901   2.803   1.786
 2372SOL    HW2 8016   7.011   2.923   1.772
 2373SOL     OW 8017   1.064   2.610   6.246
 2373SOL    HW1 8018   1.060   2.511   6.261
 2373SOL    HW2 8019   1.071   2.657   6.334
 2374SOL     OW 8020   6.324   1.541   3.838
 2374SOL    HW1 8021   6.315   1.638   3.817
 2374SOL    HW2 8022   6.285   1.486   3.764
 2375SOL     OW 8023   3.184   6.451   4.703
 2375SOL    HW1 8024   3.207   6.354   4.713
 2375SOL    HW2 8025   3.219   6.502   4.782
 2376SOL     OW 8026   6.804   2.408   4.466
 2376SOL    HW1 8027   6.718   2.430   4.421
 2376SOL    HW2 8028   6.865   2.487   4.462
 2377SOL     OW 8029   4.051   3.474   3.981
 2377SOL    HW1 8030   4.090   3.540   4.045
 2377SOL    HW2 8031   4.104   3.475   3.896
 2378SOL     OW 8032   5.122   1.716   0.898
 2378SOL    HW1 8033   5.023   1.716   0.903
 2378SOL    HW2 8034   5.160   1.670   0.978
 2379SOL     OW 8035   6.674   1.439   0.191
 2379SOL    HW1 8036   6.576   1.446   0.168
 2379SOL    HW2 8037   6.702   1.521   0.241
 2380SOL     OW 8038   0.402   1.640   6.844
 2380SOL    HW1 8039   0.424   1.722   6.897
 2380SOL    HW2 8040   0.480   1.577   6.846
 2381SOL     OW 8041   1.846   5.194   4.739
 2381SOL    HW1 8042   1.910   5.120   4.717
 2381SOL    HW2 8043   1.871   5.233   4.828
 2382SOL     OW 8044   2.153   3.833   4.562
 2382SOL    HW1 8045   2.176   3.922   4.523
 2382SOL    HW2 8046   2.151   3.839   4.662
 2383SOL     OW 8047   4.830   6.242   0.739
 2383SOL    HW1 8048   4.754   6.180   0.719
 2383SOL    HW2 8049   4.795   6.334   0.751
 2384SOL     OW 8050   6.136   1.165   2.864
 2384SOL    HW1 8051   6.109   1.260   2.849
 2384SOL    HW2 8052   6.077   1.125   2.935
 2385SOL     OW 8053   1.069   6.711   0.569
 2385SOL    HW1 8054   1.034   6.749   0.483
 2385SOL    HW2 8055   1.032   6.619   0.583
 2386SOL     OW 8056   6.317   5.837   4.251
 2386SOL    HW1 8057   6.273   5.781   4.320
 2386SOL    HW2 8058   6.325   5.785   4.166
 2387SOL     OW 8059   1.523   1.937   4.300
 2387SOL    HW1 8060   1.507   1.986   4.215
 2387SOL    HW2 8061   1.446   1.877   4.320
 2388SOL     OW 8062   0.705   2.174   4.401
 2388SOL    HW1 8063   0.683   2.087   4.355
 2388SOL    HW2 8064   0.658   2.249   4.354
 2389SOL     OW 8065   4.790   4.029   2.958
 2389SOL    HW1 8066   4.766   4.074   3.044
 2389SOL    HW2 8067   4.802   3.931   2.974
 2390SOL     OW 8068   3.807   2.903   3.532
 2390SOL    HW1 8069   3.872   2.827   3.540
 2390SOL    HW2 8070   3.714   2.869   3.548
 2391SOL     OW 8071   4.948   3.859   5.893
 2391SOL    HW1 8072   4.851   3.833   5.893
 2391SOL    HW2 8073   4.965   3.922   5.968
 2392SOL     OW 8074   4.019   6.049   5.375
 2392SOL    HW1 8075   4.069   6.100   5.306
 2392SOL    HW2 8076   3.922   6.074   5.371
 2393SOL     OW 8077   4.912   3.685   6.199
 2393SOL    HW1 8078   4.908   3.748   6.121
 2393SOL    HW2 8079   4.924   3.592   6.166
 2394SOL     OW 8080   0.984   3.935   4.568
 2394SOL    HW1 8081   0.935   3.944   4.655
 2394SOL    HW2 8082   0.984   4.023   4.521
 2395SOL     OW 8083   5.403   1.811   5.910
 2395SOL    HW1 8084   5.417   1.772   5.818
 2395SOL    HW2 8085   5.426   1.743   5.979
 2396SOL     OW 8086   3.458   5.342   1.089
 2396SOL    HW1 8087   3.381   5.405   1.091
 2396SOL    HW2 8088   3.541   5.391   1.117
 2397SOL     OW 8089   6.925   3.790   5.788
 2397SOL    HW1 8090   6.874   3.720   5.737
 2397SOL    HW2 8091   6.957   3.861   5.725
 2398SOL     OW 8092   3.500   4.005   6.796
 2398SOL    HW1 8093   3.447   4.039   6.719
 2398SOL    HW2 8094   3.458   3.921   6.831
 2399SOL     OW 8095   4.480   0.936   1.587
 2399SOL    HW1 8096   4.413   0.947   1.661
 2399SOL    HW2 8097   4.478   0.841   1.555
 2400SOL     OW 8098   2.818   4.196   0.793
 2400SOL    HW1 8099   2.786   4.272   0.850
 2400SOL    HW2 8100   2.852   4.123   0.852
 2401SOL     OW 8101   5.137   6.140   6.639
 2401SOL    HW1 8102   5.189   6.181   6.565
 2401SOL    HW2 8103   5.197   6.121   6.717
 2402SOL     OW 8104   0.496   0.511   3.284
 2402SOL    HW1 8105   0.477   0.507   3.186
 2402SOL    HW2 8106   0.429   0.571   3.329
 2403SOL     OW 8107   2.020   2.282   6.773
 2403SOL    HW1 8108   2.052   2.246   6.860
 2403SOL    HW2 8109   2.072   2.363   6.749
 2404SOL     OW 8110   2.772   1.198   1.256
 2404SOL    HW1 8111   2.817   1.282   1.226
 2404SOL    HW2 8112   2.839   1.125   1.264
 2405SOL     OW 8113   3.555   3.474   2.384
 2405SOL    HW1 8114   3.551   3.420   2.468
 2405SOL    HW2 8115   3.605   3.559   2.401
 2406SOL     OW 8116   2.536   0.231   2.204
 2406SOL    HW1 8117   2.454   0.173   2.192
 2406SOL    HW2 8118   2.567   0.223   2.299
 2407SOL     OW 8119   5.670   1.541   2.710
 2407SOL    HW1 8120   5.589   1.483   2.713
 2407SOL    HW2 8121   5.688   1.568   2.615
 2408SOL     OW 8122   4.638   4.613   3.228
 2408SOL    HW1 8123   4.599   4.572   3.145
 2408SOL    HW2 8124   4.653   4.542   3.296
 2409SOL     OW 8125   2.063   4.608   1.853
 2409SOL    HW1 8126   1.976   4.634   1.895
 2409SOL    HW2 8127   2.138   4.648   1.906
 2410SOL     OW 8128   4.155   3.287   5.440
 2410SOL    HW1 8129   4.151   3.349   5.361
 2410SOL    HW2 8130   4.247   3.251   5.450
 2411SOL     OW 8131   5.050   5.874   4.913
 2411SOL    HW1 8132   5.093   5.803   4.858
 2411SOL    HW2 8133   5.012   5.945   4.853
 2412SOL     OW 8134   5.344   4.643   1.144
 2412SOL    HW1 8135   5.361   4.556   1.189
 2412SOL    HW2 8136   5.415   4.709   1.170
 2413SOL     OW 8137   6.240   1.329   0.569
 2413SOL    HW1 8138   6.201   1.242   0.599
 2413SOL    HW2 8139   6.339   1.319   0.559
 2414SOL     OW 8140   4.728   4.297   2.850
 2414SOL    HW1 8141   4.715   4.284   2.752
 2414SOL    HW2 8142   4.732   4.208   2.895
 2415SOL     OW 8143   6.619   0.980   3.093
 2415SOL    HW1 8144   6.536   0.937   3.057
 2415SOL    HW2 8145   6.636   1.066   3.043
 2416SOL     OW 8146   5.035   2.322   4.964
 2416SOL    HW1 8147   4.953   2.340   5.017
 2416SOL    HW2 8148   5.115   2.327   5.023
 2417SOL     OW 8149   3.800   3.691   4.913
 2417SOL    HW1 8150   3.755   3.733   4.992
 2417SOL    HW2 8151   3.743   3.703   4.832
 2418SOL     OW 8152   3.705   2.835   4.961
 2418SOL    HW1 8153   3.720   2.737   4.973
 2418SOL    HW2 8154   3.746   2.865   4.875
 2419SOL     OW 8155   0.143   0.037   4.417
 2419SOL    HW1 8156   0.144   0.039   4.317
 2419SOL    HW2 8157   0.104   0.123   4.452
 2420SOL     OW 8158   3.039   0.542   2.549
 2420SOL    HW1 8159   2.961   0.582   2.501
 2420SOL    HW2 8160   3.107   0.613   2.568
 2421SOL     OW 8161   2.056   2.464   5.342
 2421SOL    HW1 8162   2.124   2.490   5.410
 2421SOL    HW2 8163   2.096   2.401   5.276
 2422SOL     OW 8164   5.638   1.090   1.200
 2422SOL    HW1 8165   5.576   1.058   1.128
 2422SOL    HW2 8166   5.589   1.153   1.260
 2423SOL     OW 8167   1.855   5.900   2.674
 2423SOL    HW1 8168   1.940   5.936   2.712
 2423SOL    HW2 8169   1.841   5.937   2.582
 2424SOL     OW 8170   6.163   6.609   6.282
 2424SOL    HW1 8171   6.228   6.600   6.357
 2424SOL    HW2 8172   6.114   6.695   6.290
 2425SOL     OW 8173   5.779   0.484   4.143
 2425SOL    HW1 8174   5.681   0.488   4.164
 2425SOL    HW2 8175   5.830   0.531   4.214
 2426SOL     OW 8176   1.244   5.819   5.223
 2426SOL    HW1 8177   1.298   5.746   5.182
 2426SOL    HW2 8178   1.298   5.904   5.223
 2427SOL     OW 8179   5.073   5.729   5.480
 2427SOL    HW1 8180   5.137   5.654   5.494
 2427SOL    HW2 8181   4.993   5.717   5.539
 2428SOL     OW 8182   0.316   0.428   1.921
 2428SOL    HW1 8183   0.280   0.380   2.001
 2428SOL    HW2 8184   0.242   0.443   1.855
 2429SOL     OW 8185   5.748   5.565   2.744
 2429SOL    HW1 8186   5.710   5.483   2.703
 2429SOL    HW2 8187   5.674   5.631   2.762
 2430SOL     OW 8188   6.228   0.742   1.683
 2430SOL    HW1 8189   6.282   0.760   1.765
 2430SOL    HW2 8190   6.283   0.760   1.601
 2431SOL     OW 8191   3.755   0.781   2.132
 2431SOL    HW1 8192   3.751   0.828   2.044
 2431SOL    HW2 8193   3.695   0.828   2.198
 2432SOL     OW 8194   3.815   6.173   2.774
 2432SOL    HW1 8195   3.866   6.252   2.808
 2432SOL    HW2 8196   3.803   6.107   2.848
 2433SOL     OW 8197   4.101   1.625   0.112
 2433SOL    HW1 8198   4.056   1.588   0.193
 2433SOL    HW2 8199   4.174   1.687   0.139
 2434SOL     OW 8200   4.193   1.463   5.734
 2434SOL    HW1 8201   4.245   1.491   5.653
 2434SOL    HW2 8202   4.241   1.389   5.781
 2435SOL     OW 8203   4.585   4.806   5.602
 2435SOL    HW1 8204   4.559   4.794   5.698
 2435SOL    HW2 8205   4.520   4.869   5.559
 2436SOL     OW 8206   1.655   5.032   6.801
 2436SOL    HW1 8207   1.594   4.999   6.873
 2436SOL    HW2 8208   1.667   4.961   6.732
 2437SOL     OW 8209   5.743   6.782   6.712
 2437SOL    HW1 8210   5.696   6.698   6.739
 2437SOL    HW2 8211   5.828   6.792   6.763
 2438SOL     OW 8212   3.272   1.688   6.960
 2438SOL    HW1 8213   3.285   1.763   0.002
 2438SOL    HW2 8214   3.209   1.716   6.888
 2439SOL     OW 8215   0.873   4.736   6.405
 2439SOL    HW1 8216   0.789   4.681   6.404
 2439SOL    HW2 8217   0.892   4.768   6.312
 2440SOL     OW 8218   4.741   5.782   6.061
 2440SOL    HW1 8219   4.795   5.857   6.099
 2440SOL    HW2 8220   4.765   5.697   6.108
 2441SOL     OW 8221   6.856   2.545   6.502
 2441SOL    HW1 8222   6.826   2.477   6.569
 2441SOL    HW2 8223   6.887   2.500   6.419
 2442SOL     OW 8224   1.273   4.131   5.755
 2442SOL    HW1 8225   1.200   4.098   5.814
 2442SOL    HW2 8226   1.311   4.055   5.703
 2443SOL     OW 8227   3.553   4.938   6.443
 2443SOL    HW1 8228   3.495   4.895   6.512
 2443SOL    HW2 8229   3.527   4.904   6.352
 2444SOL     OW 8230   2.666   5.198   6.438
 2444SOL    HW1 8231   2.726   5.259   6.489
 2444SOL    HW2 8232   2.713   5.166   6.355
 2445SOL     OW 8233   0.088   1.325   1.331
 2445SOL    HW1 8234   0.168   1.278   1.368
 2445SOL    HW2 8235   0.101   1.424   1.339
 2446SOL     OW 8236   5.888   4.073   4.070
 2446SOL    HW1 8237   5.899   4.033   4.161
 2446SOL    HW2 8238   5.972   4.060   4.018
 2447SOL     OW 8239   2.301   2.813   6.760
 2447SOL    HW1 8240   2.311   2.901   6.805
 2447SOL    HW2 8241   2.211   2.807   6.716
 2448SOL     OW 8242   0.436   0.772   4.451
 2448SOL    HW1 8243   0.403   0.704   4.385
 2448SOL    HW2 8244   0.366   0.787   4.521
 2449SOL     OW 8245   0.035   3.875   0.395
 2449SOL    HW1 8246   0.112   3.841   0.341
 2449SOL    HW2 8247   0.048   3.972   0.414
 2450SOL     OW 8248   2.490   4.470   3.289
 2450SOL    HW1 8249   2.576   4.419   3.288
 2450SOL    HW2 8250   2.490   4.539   3.217
 2451SOL     OW 8251   2.004   6.172   4.124
 2451SOL    HW1 8252   1.962   6.145   4.211
 2451SOL    HW2 8253   2.069   6.246   4.141
 2452SOL     OW 8254   1.638   3.528   2.942
 2452SOL    HW1 8255   1.672   3.606   2.996
 2452SOL    HW2 8256   1.714   3.465   2.923
 2453SOL     OW 8257   6.458   4.679   1.398
 2453SOL    HW1 8258   6.419   4.672   1.490
 2453SOL    HW2 8259   6.449   4.590   1.352
 2454SOL     OW 8260   3.232   0.656   2.293
 2454SOL    HW1 8261   3.228   0.657   2.393
 2454SOL    HW2 8262   3.229   0.562   2.261
 2455SOL     OW 8263   5.580   5.251   0.525
 2455SOL    HW1 8264   5.655   5.203   0.571
 2455SOL    HW2 8265   5.496   5.238   0.577
 2456SOL     OW 8266   5.133   6.214   1.575
 2456SOL    HW1 8267   5.098   6.274   1.503
 2456SOL    HW2 8268   5.232   6.222   1.581
 2457SOL     OW 8269   6.152   7.002   0.409
 2457SOL    HW1 8270   6.176   0.064   0.456
 2457SOL    HW2 8271   6.074   6.960   0.455
 2458SOL     OW 8272   2.359   5.991   3.341
 2458SOL    HW1 8273   2.351   6.088   3.364
 2458SOL    HW2 8274   2.361   5.981   3.242
 2459SOL     OW 8275   1.990   0.202   0.563
 2459SOL    HW1 8276   2.035   0.234   0.646
 2459SOL    HW2 8277   1.918   0.136   0.586
 2460SOL     OW 8278   2.725   5.982   2.467
 2460SOL    HW1 8279   2.702   5.884   2.462
 2460SOL    HW2 8280   2.807   5.994   2.523
 2461SOL     OW 8281   5.399   0.120   2.139
 2461SOL    HW1 8282   5.484   0.069   2.128
 2461SOL    HW2 8283   5.404   0.175   2.223
 2462SOL     OW 8284   2.215   5.061   0.001
 2462SOL    HW1 8285   2.228   4.969   0.039
 2462SOL    HW2 8286   2.189   5.054   6.927
 2463SOL     OW 8287   6.767   2.011   3.038
 2463SOL    HW1 8288   6.851   1.960   3.056
 2463SOL    HW2 8289   6.708   1.959   2.976
 2464SOL     OW 8290   1.005   3.640   1.278
 2464SOL    HW1 8291   1.054   3.553   1.283
 2464SOL    HW2 8292   0.909   3.623   1.258
 2465SOL     OW 8293   0.400   5.543   2.435
 2465SOL    HW1 8294   0.452   5.553   2.350
 2465SOL    HW2 8295   0.313   5.592   2.427
 2466SOL     OW 8296   4.269   1.730   2.854
 2466SOL    HW1 8297   4.194   1.758   2.795
 2466SOL    HW2 8298   4.309   1.645   2.820
 2467SOL     OW 8299   0.046   0.692   6.114
 2467SOL    HW1 8300   6.977   0.690   6.151
 2467SOL    HW2 8301   0.045   0.659   6.019
 2468SOL     OW 8302   0.110   6.441   1.786
 2468SOL    HW1 8303   0.065   6.515   1.836
 2468SOL    HW2 8304   0.201   6.471   1.757
 2469SOL     OW 8305   2.890   3.854   5.162
 2469SOL    HW1 8306   2.976   3.892   5.195
 2469SOL    HW2 8307   2.893   3.754   5.170
 2470SOL     OW 8308   3.453   3.696   6.612
 2470SOL    HW1 8309   3.517   3.757   6.566
 2470SOL    HW2 8310   3.485   3.601   6.603
 2471SOL     OW 8311   0.367   6.463   2.558
 2471SOL    HW1 8312   0.309   6.544   2.552
 2471SOL    HW2 8313   0.325   6.397   2.620
 2472SOL     OW 8314   5.405   2.804   4.380
 2472SOL    HW1 8315   5.492   2.787   4.427
 2472SOL    HW2 8316   5.349   2.865   4.436
 2473SOL     OW 8317   0.382   5.764   4.189
 2473SOL    HW1 8318   0.428   5.832   4.246
 2473SOL    HW2 8319   0.428   5.758   4.100
 2474SOL     OW 8320   0.296   5.195   5.347
 2474SOL    HW1 8321   0.215   5.245   5.316
 2474SOL    HW2 8322   0.378   5.246   5.320
 2475SOL     OW 8323   4.344   2.488   0.487
 2475SOL    HW1 8324   4.251   2.459   0.511
 2475SOL    HW2 8325   4.343   2.530   0.396
 2476SOL     OW 8326   1.070   1.761   3.598
 2476SOL    HW1 8327   1.059   1.818   3.517
 2476SOL    HW2 8328   0.984   1.758   3.648
 2477SOL     OW 8329   5.465   5.424   1.390
 2477SOL    HW1 8330   5.403   5.455   1.317
 2477SOL    HW2 8331   5.486   5.501   1.451
 2478SOL     OW 8332   6.410   6.585   2.406
 2478SOL    HW1 8333   6.438   6.582   2.502
 2478SOL    HW2 8334   6.328   6.641   2.398
 2479SOL     OW 8335   6.995   2.504   0.519
 2479SOL    HW1 8336   6.993   2.411   0.482
 2479SOL    HW2 8337   6.905   2.527   0.556
 2480SOL     OW 8338   6.750   3.931   1.305
 2480SOL    HW1 8339   6.719   3.903   1.214
 2480SOL    HW2 8340   6.681   3.906   1.373
 2481SOL     OW 8341   4.149   5.556   2.068
 2481SOL    HW1 8342   4.186   5.479   2.120
 2481SOL    HW2 8343   4.053   5.539   2.047
 2482SOL     OW 8344   5.264   3.313   5.455
 2482SOL    HW1 8345   5.363   3.296   5.454
 2482SOL    HW2 8346   5.225   3.290   5.366
 2483SOL     OW 8347   1.017   1.339   0.056
 2483SOL    HW1 8348   1.093   1.297   0.006
 2483SOL    HW2 8349   1.037   1.337   0.154
 2484SOL     OW 8350   3.530   1.146   0.703
 2484SOL    HW1 8351   3.596   1.192   0.762
 2484SOL    HW2 8352   3.562   1.146   0.609
 2485SOL     OW 8353   0.362   5.233   2.491
 2485SOL    HW1 8354   0.446   5.189   2.520
 2485SOL    HW2 8355   0.384   5.308   2.427
 2486SOL     OW 8356   1.821   5.371   2.783
 2486SOL    HW1 8357   1.771   5.448   2.822
 2486SOL    HW2 8358   1.903   5.405   2.736
 2487SOL     OW 8359   4.380   0.294   1.156
 2487SOL    HW1 8360   4.311   0.291   1.084
 2487SOL    HW2 8361   4.426   0.206   1.161
 2488SOL     OW 8362   2.517   5.169   1.823
 2488SOL    HW1 8363   2.589   5.129   1.880
 2488SOL    HW2 8364   2.445   5.101   1.807
 2489SOL     OW 8365   1.539   5.744   4.984
 2489SOL    HW1 8366   1.476   5.666   4.978
 2489SOL    HW2 8367   1.505   5.818   4.925
 2490SOL     OW 8368   6.332   3.849   0.799
 2490SOL    HW1 8369   6.401   3.795   0.751
 2490SOL    HW2 8370   6.241   3.823   0.767
 2491SOL     OW 8371   2.959   5.036   3.132
 2491SOL    HW1 8372   3.009   4.958   3.170
 2491SOL    HW2 8373   3.016   5.118   3.139
 2492SOL     OW 8374   4.610   2.989   6.390
 2492SOL    HW1 8375   4.568   3.002   6.480
 2492SOL    HW2 8376   4.634   2.892   6.379
 2493SOL     OW 8377   5.977   1.697   3.156
 2493SOL    HW1 8378   5.911   1.651   3.216
 2493SOL    HW2 8379   6.044   1.631   3.123
 2494SOL     OW 8380   4.663   2.561   2.429
 2494SOL    HW1 8381   4.654   2.491   2.357
 2494SOL    HW2 8382   4.658   2.652   2.388
 2495SOL     OW 8383   5.254   1.018   4.924
 2495SOL    HW1 8384   5.290   1.085   4.990
 2495SOL    HW2 8385   5.286   0.927   4.949
 2496SOL     OW 8386   1.014   5.871   0.079
 2496SOL    HW1 8387   1.085   5.939   0.061
 2496SOL    HW2 8388   0.926   5.916   0.095
 2497SOL     OW 8389   6.387   1.636   6.695
 2497SOL    HW1 8390   6.466   1.692   6.718
 2497SOL    HW2 8391   6.418   1.550   6.655
 2498SOL     OW 8392   1.852   2.796   4.690
 2498SOL    HW1 8393   1.764   2.760   4.723
 2498SOL    HW2 8394   1.903   2.834   4.766
 2499SOL     OW 8395   5.172   0.705   4.297
 2499SOL    HW1 8396   5.172   0.804   4.306
 2499SOL    HW2 8397   5.215   0.663   4.377
 2500SOL     OW 8398   4.797   3.133   6.183
 2500SOL    HW1 8399   4.702   3.103   6.173
 2500SOL    HW2 8400   4.832   3.101   6.271
 2501SOL     OW 8401   6.391   4.455   0.099
 2501SOL    HW1 8402   6.415   4.395   0.023
 2501SOL    HW2 8403   6.296   4.486   0.089
 2502SOL     OW 8404   2.398   0.023   2.833
 2502SOL    HW1 8405   2.424   6.967   2.777
 2502SOL    HW2 8406   2.460   0.031   2.910
 2503SOL     OW 8407   4.051   5.109   5.599
 2503SOL    HW1 8408   4.058   5.065   5.689
 2503SOL    HW2 8409   3.974   5.173   5.599
 2504SOL     OW 8410   1.683   4.843   4.289
 2504SOL    HW1 8411   1.667   4.757   4.240
 2504SOL    HW2 8412   1.605   4.862   4.349
 2505SOL     OW 8413   4.566   5.297   4.412
 2505SOL    HW1 8414   4.510   5.265   4.488
 2505SOL    HW2 8415   4.560   5.396   4.405
 2506SOL     OW 8416   6.569   2.460   6.074
 2506SOL    HW1 8417   6.469   2.458   6.078
 2506SOL    HW2 8418   6.600   2.548   6.040
 2507SOL     OW 8419   6.384   5.855   0.666
 2507SOL    HW1 8420   6.309   5.910   0.702
 2507SOL    HW2 8421   6.468   5.874   0.717
 2508SOL     OW 8422   2.469   2.355   2.203
 2508SOL    HW1 8423   2.386   2.305   2.177
 2508SOL    HW2 8424   2.548   2.314   2.158
 2509SOL     OW 8425   5.450   2.765   3.462
 2509SOL    HW1 8426   5.395   2.821   3.399
 2509SOL    HW2 8427   5.395   2.688   3.495
 2510SOL     OW 8428   3.907   5.196   0.923
 2510SOL    HW1 8429   4.005   5.190   0.902
 2510SOL    HW2 8430   3.895   5.229   1.017
 2511SOL     OW 8431   0.455   0.711   5.242
 2511SOL    HW1 8432   0.441   0.790   5.183
 2511SOL    HW2 8433   0.460   0.628   5.186
 2512SOL     OW 8434   5.088   3.530   4.774
 2512SOL    HW1 8435   5.087   3.582   4.859
 2512SOL    HW2 8436   5.180   3.492   4.759
 2513SOL     OW 8437   0.656   2.543   7.022
 2513SOL    HW1 8438   0.675   2.639   7.000
 2513SOL    HW2 8439   0.632   2.535   0.095
 2514SOL     OW 8440   1.170   1.101   4.136
 2514SOL    HW1 8441   1.111   1.153   4.198
 2514SOL    HW2 8442   1.187   1.154   4.053
 2515SOL     OW 8443   0.617   5.647   0.808
 2515SOL    HW1 8444   0.625   5.745   0.824
 2515SOL    HW2 8445   0.692   5.615   0.751
 2516SOL     OW 8446   5.455   6.481   3.672
 2516SOL    HW1 8447   5.551   6.454   3.684
 2516SOL    HW2 8448   5.397   6.400   3.684
 2517SOL     OW 8449   2.264   4.317   0.376
 2517SOL    HW1 8450   2.177   4.333   0.423
 2517SOL    HW2 8451   2.258   4.234   0.321
 2518SOL     OW 8452   2.213   2.754   6.449
 2518SOL    HW1 8453   2.199   2.726   6.354
 2518SOL    HW2 8454   2.307   2.786   6.461
 2519SOL     OW 8455   4.603   4.865   4.942
 2519SOL    HW1 8456   4.618   4.772   4.976
 2519SOL    HW2 8457   4.614   4.866   4.842
 2520SOL     OW 8458   2.453   4.180   1.753
 2520SOL    HW1 8459   2.547   4.160   1.726
 2520SOL    HW2 8460   2.390   4.129   1.694
 2521SOL     OW 8461   5.965   0.138   5.388
 2521SOL    HW1 8462   5.874   0.136   5.347
 2521SOL    HW2 8463   5.956   0.150   5.487
 2522SOL     OW 8464   0.589   3.209   4.451
 2522SOL    HW1 8465   0.493   3.193   4.429
 2522SOL    HW2 8466   0.635   3.122   4.467
 2523SOL     OW 8467   0.592   3.546   0.125
 2523SOL    HW1 8468   0.562   3.475   0.190
 2523SOL    HW2 8469   0.638   3.620   0.175
 2524SOL     OW 8470   1.692   6.300   3.896
 2524SOL    HW1 8471   1.738   6.325   3.982
 2524SOL    HW2 8472   1.731   6.215   3.861
 2525SOL     OW 8473   1.033   3.712   3.764
 2525SOL    HW1 8474   0.987   3.680   3.846
 2525SOL    HW2 8475   1.099   3.644   3.733
 2526SOL     OW 8476   0.102   1.389   3.965
 2526SOL    HW1 8477   0.022   1.392   3.905
 2526SOL    HW2 8478   0.098   1.467   4.029
 2527SOL     OW 8479   5.422   6.600   4.226
 2527SOL    HW1 8480   5.436   6.508   4.263
 2527SOL    HW2 8481   5.385   6.593   4.133
 2528SOL     OW 8482   6.080   5.725   0.181
 2528SOL    HW1 8483   6.051   5.820   0.174
 2528SOL    HW2 8484   6.097   5.702   0.277
 2529SOL     OW 8485   5.297   4.380   4.260
 2529SOL    HW1 8486   5.211   4.408   4.217
 2529SOL    HW2 8487   5.356   4.460   4.272
 2530SOL     OW 8488   1.332   0.773   3.491
 2530SOL    HW1 8489   1.266   0.777   3.566
 2530SOL    HW2 8490   1.360   0.678   3.477
 2531SOL     OW 8491   3.923   1.126   6.325
 2531SOL    HW1 8492   3.966   1.216   6.324
 2531SOL    HW2 8493   3.885   1.108   6.415
 2532SOL     OW 8494   1.281   4.736   6.853
 2532SOL    HW1 8495   1.185   4.708   6.861
 2532SOL    HW2 8496   1.305   4.745   6.757
 2533SOL     OW 8497   6.113   6.426   6.096
 2533SOL    HW1 8498   6.113   6.461   6.002
 2533SOL    HW2 8499   6.142   6.499   6.158
 2534SOL     OW 8500   1.255   1.061   3.031
 2534SOL    HW1 8501   1.215   0.986   3.084
 2534SOL    HW2 8502   1.320   1.024   2.965
 2535SOL     OW 8503   2.460   1.420   3.680
 2535SOL    HW1 8504   2.486   1.509   3.644
 2535SOL    HW2 8505   2.535   1.382   3.734
 2536SOL     OW 8506   6.024   1.093   3.923
 2536SOL    HW1 8507   6.057   1.153   3.850
 2536SOL    HW2 8508   5.935   1.127   3.956
 2537SOL     OW 8509   5.027   5.387   1.476
 2537SOL    HW1 8510   5.087   5.414   1.552
 2537SOL    HW2 8511   5.069   5.414   1.390
 2538SOL     OW 8512   1.986   4.799   4.517
 2538SOL    HW1 8513   2.085   4.786   4.526
 2538SOL    HW2 8514   1.965   4.845   4.431
 2539SOL     OW 8515   3.835   6.807   5.634
 2539SOL    HW1 8516   3.800   6.815   5.727
 2539SOL    HW2 8517   3.823   6.713   5.602
 2540SOL     OW 8518   5.643   1.397   1.931
 2540SOL    HW1 8519   5.669   1.306   1.901
 2540SOL    HW2 8520   5.557   1.424   1.887
 2541SOL     OW 8521   1.086   6.417   6.318
 2541SOL    HW1 8522   1.151   6.358   6.366
 2541SOL    HW2 8523   1.063   6.377   6.230
 2542SOL     OW 8524   3.435   1.664   4.796
 2542SOL    HW1 8525   3.401   1.721   4.870
 2542SOL    HW2 8526   3.519   1.704   4.759
 2543SOL     OW 8527   0.967   1.736   3.098
 2543SOL    HW1 8528   0.890   1.672   3.091
 2543SOL    HW2 8529   1.049   1.685   3.123
 2544SOL     OW 8530   6.592   5.455   1.581
 2544SOL    HW1 8531   6.509   5.400   1.589
 2544SOL    HW2 8532   6.667   5.408   1.628
 2545SOL     OW 8533   0.599   1.938   1.182
 2545SOL    HW1 8534   0.563   1.945   1.275
 2545SOL    HW2 8535   0.530   1.895   1.123
 2546SOL     OW 8536   6.991   3.922   1.652
 2546SOL    HW1 8537   6.957   4.015   1.669
 2546SOL    HW2 8538   0.065   3.917   1.677
 2547SOL     OW 8539   5.506   3.714   0.419
 2547SOL    HW1 8540   5.426   3.772   0.406
 2547SOL    HW2 8541   5.515   3.691   0.516
 2548SOL     OW 8542   6.795   0.006   5.351
 2548SOL    HW1 8543   6.830   6.956   5.292
 2548SOL    HW2 8544   6.863   0.029   5.421
 2549SOL     OW 8545   2.618   2.365   0.712
 2549SOL    HW1 8546   2.590   2.313   0.793
 2549SOL    HW2 8547   2.575   2.455   0.714
 2550SOL     OW 8548   4.334   6.764   6.525
 2550SOL    HW1 8549   4.267   6.826   6.484
 2550SOL    HW2 8550   4.395   6.815   6.584
 2551SOL     OW 8551   2.982   5.869   6.900
 2551SOL    HW1 8552   3.011   5.965   6.897
 2551SOL    HW2 8553   2.882   5.865   6.899
 2552SOL     OW 8554   1.870   6.051   0.830
 2552SOL    HW1 8555   1.833   6.057   0.738
 2552SOL    HW2 8556   1.942   6.120   0.841
 2553SOL     OW 8557   4.246   1.631   6.738
 2553SOL    HW1 8558   4.155   1.604   6.768
 2553SOL    HW2 8559   4.315   1.582   6.792
 2554SOL     OW 8560   1.656   5.763   1.490
 2554SOL    HW1 8561   1.577   5.806   1.446
 2554SOL    HW2 8562   1.628   5.681   1.538
 2555SOL     OW 8563   5.825   6.121   5.244
 2555SOL    HW1 8564   5.878   6.062   5.184
 2555SOL    HW2 8565   5.888   6.177   5.299
 2556SOL     OW 8566   3.993   6.705   1.563
 2556SOL    HW1 8567   4.029   6.699   1.470
 2556SOL    HW2 8568   3.935   6.787   1.571
 2557SOL     OW 8569   4.118   6.896   6.998
 2557SOL    HW1 8570   4.052   6.927   6.930
 2557SOL    HW2 8571   4.096   6.802   0.003
 2558SOL     OW 8572   5.840   4.080   6.181
 2558SOL    HW1 8573   5.921   4.136   6.197
 2558SOL    HW2 8574   5.823   4.022   6.261
 2559SOL     OW 8575   1.210   4.406   3.772
 2559SOL    HW1 8576   1.146   4.342   3.728
 2559SOL    HW2 8577   1.302   4.387   3.739
 2560SOL     OW 8578   4.790   2.084   3.328
 2560SOL    HW1 8579   4.856   2.062   3.256
 2560SOL    HW2 8580   4.774   2.182   3.330
 2561SOL     OW 8581   3.383   0.546   4.702
 2561SOL    HW1 8582   3.346   0.529   4.611
 2561SOL    HW2 8583   3.478   0.512   4.705
 2562SOL     OW 8584   3.268   0.173   3.460
 2562SOL    HW1 8585   3.179   0.219   3.467
 2562SOL    HW2 8586   3.296   0.169   3.364
 2563SOL     OW 8587   3.694   1.129   0.481
 2563SOL    HW1 8588   3.749   1.099   0.559
 2563SOL    HW2 8589   3.688   1.054   0.414
 2564SOL     OW 8590   1.580   1.548   0.332
 2564SOL    HW1 8591   1.597   1.494   0.415
 2564SOL    HW2 8592   1.667   1.575   0.291
 2565SOL     OW 8593   1.149   2.413   6.621
 2565SOL    HW1 8594   1.091   2.333   6.606
 2565SOL    HW2 8595   1.213   2.422   6.545
 2566SOL     OW 8596   2.713   0.885   0.702
 2566SOL    HW1 8597   2.803   0.856   0.736
 2566SOL    HW2 8598   2.679   0.818   0.636
 2567SOL     OW 8599   1.233   6.983   0.054
 2567SOL    HW1 8600   1.217   0.038   0.115
 2567SOL    HW2 8601   1.320   6.996   0.006
 2568SOL     OW 8602   2.691   6.283   1.186
 2568SOL    HW1 8603   2.736   6.269   1.274
 2568SOL    HW2 8604   2.724   6.367   1.144
 2569SOL     OW 8605   0.835   1.138   1.517
 2569SOL    HW1 8606   0.868   1.100   1.431
 2569SOL    HW2 8607   0.877   1.091   1.594
 2570SOL     OW 8608   5.557   6.155   6.611
 2570SOL    HW1 8609   5.547   6.093   6.533
 2570SOL    HW2 8610   5.489   6.132   6.680
 2571SOL     OW 8611   3.796   3.403   4.592
 2571SOL    HW1 8612   3.788   3.455   4.507
 2571SOL    HW2 8613   3.752   3.452   4.667
 2572SOL     OW 8614   2.073   6.352   1.336
 2572SOL    HW1 8615   2.002   6.367   1.405
 2572SOL    HW2 8616   2.159   6.391   1.368
 2573SOL     OW 8617   6.579   2.208   3.949
 2573SOL    HW1 8618   6.600   2.285   3.889
 2573SOL    HW2 8619   6.485   2.179   3.933
 2574SOL     OW 8620   0.256   3.843   1.431
 2574SOL    HW1 8621   0.161   3.872   1.419
 2574SOL    HW2 8622   0.317   3.912   1.392
 2575SOL     OW 8623   5.796   3.867   0.490
 2575SOL    HW1 8624   5.851   3.940   0.448
 2575SOL    HW2 8625   5.848   3.782   0.490
 2576SOL     OW 8626   2.395   6.731   3.190
 2576SOL    HW1 8627   2.345   6.817   3.190
 2576SOL    HW2 8628   2.454   6.727   3.109
 2577SOL     OW 8629   2.529   6.811   2.743
 2577SOL    HW1 8630   2.541   6.764   2.655
 2577SOL    HW2 8631   2.613   6.862   2.765
 2578SOL     OW 8632   5.359   2.763   4.765
 2578SOL    HW1 8633   5.301   2.737   4.842
 2578SOL    HW2 8634   5.300   2.786   4.687
 2579SOL     OW 8635   0.254   2.471   6.985
 2579SOL    HW1 8636   0.339   2.488   6.935
 2579SOL    HW2 8637   0.182   2.448   6.920
 2580SOL     OW 8638   1.570   2.642   6.558
 2580SOL    HW1 8639   1.545   2.590   6.639
 2580SOL    HW2 8640   1.600   2.734   6.584
 2581SOL     OW 8641   5.968   6.105   2.448
 2581SOL    HW1 8642   5.937   6.023   2.496
 2581SOL    HW2 8643   6.006   6.080   2.359
 2582SOL     OW 8644   0.976   5.289   2.517
 2582SOL    HW1 8645   1.013   5.198   2.497
 2582SOL    HW2 8646   0.977   5.344   2.433
 2583SOL     OW 8647   1.264   0.124   0.727
 2583SOL    HW1 8648   1.288   0.027   0.717
 2583SOL    HW2 8649   1.240   0.162   0.638
 2584SOL     OW 8650   3.511   6.043   1.330
 2584SOL    HW1 8651   3.563   6.026   1.246
 2584SOL    HW2 8652   3.469   5.957   1.361
 2585SOL     OW 8653   3.310   0.214   1.269
 2585SOL    HW1 8654   3.271   0.278   1.202
 2585SOL    HW2 8655   3.402   0.243   1.293
 2586SOL     OW 8656   6.123   2.331   3.815
 2586SOL    HW1 8657   6.191   2.274   3.862
 2586SOL    HW2 8658   6.152   2.346   3.720
 2587SOL     OW 8659   5.897   6.463   4.147
 2587SOL    HW1 8660   5.883   6.375   4.101
 2587SOL    HW2 8661   5.856   6.460   4.238
 2588SOL     OW 8662   5.366   0.290   1.899
 2588SOL    HW1 8663   5.365   0.212   1.961
 2588SOL    HW2 8664   5.364   0.257   1.804
 2589SOL     OW 8665   6.676   6.638   5.513
 2589SOL    HW1 8666   6.755   6.641   5.575
 2589SOL    HW2 8667   6.620   6.559   5.536
 2590SOL     OW 8668   4.822   6.644   3.315
 2590SOL    HW1 8669   4.723   6.651   3.320
 2590SOL    HW2 8670   4.860   6.632   3.407
 2591SOL     OW 8671   5.101   6.009   1.914
 2591SOL    HW1 8672   5.040   6.026   1.836
 2591SOL    HW2 8673   5.050   6.020   1.999
 2592SOL     OW 8674   3.353   5.795   2.006
 2592SOL    HW1 8675   3.451   5.810   2.009
 2592SOL    HW2 8676   3.330   5.714   2.059
 2593SOL     OW 8677   3.508   6.467   2.636
 2593SOL    HW1 8678   3.570   6.510   2.571
 2593SOL    HW2 8679   3.451   6.400   2.589
 2594SOL     OW 8680   0.196   0.135   6.688
 2594SOL    HW1 8681   0.137   0.145   6.768
 2594SOL    HW2 8682   0.221   0.039   6.677
 2595SOL     OW 8683   6.535   3.069   4.928
 2595SOL    HW1 8684   6.563   3.123   5.008
 2595SOL    HW2 8685   6.439   3.044   4.937
 2596SOL     OW 8686   3.897   2.112   1.864
 2596SOL    HW1 8687   3.913   2.026   1.912
 2596SOL    HW2 8688   3.824   2.163   1.911
 2597SOL     OW 8689   2.545   3.590   0.807
 2597SOL    HW1 8690   2.560   3.622   0.900
 2597SOL    HW2 8691   2.627   3.544   0.774
 2598SOL     OW 8692   6.779   2.932   3.473
 2598SOL    HW1 8693   6.829   2.858   3.429
 2598SOL    HW2 8694   6.832   2.968   3.549
 2599SOL     OW 8695   3.897   5.508   0.336
 2599SOL    HW1 8696   3.978   5.557   0.303
 2599SOL    HW2 8697   3.816   5.539   0.285
 2600SOL     OW 8698   5.966   3.536   3.194
 2600SOL    HW1 8699   6.018   3.451   3.191
 2600SOL    HW2 8700   6.026   3.612   3.166
 2601SOL     OW 8701   3.727   3.745   6.047
 2601SOL    HW1 8702   3.764   3.770   6.136
 2601SOL    HW2 8703   3.765   3.656   6.019
 2602SOL     OW 8704   6.997   4.923   3.972
 2602SOL    HW1 8705   0.019   4.962   4.052
 2602SOL    HW2 8706   6.933   4.852   4.001
 2603SOL     OW 8707   2.927   2.135   1.201
 2603SOL    HW1 8708   2.851   2.154   1.139
 2603SOL    HW2 8709   2.900   2.159   1.295
 2604SOL     OW 8710   5.454   0.700   1.453
 2604SOL    HW1 8711   5.537   0.664   1.495
 2604SOL    HW2 8712   5.439   0.656   1.365
 2605SOL     OW 8713   4.089   4.802   4.299
 2605SOL    HW1 8714   4.068   4.826   4.394
 2605SOL    HW2 8715   4.140   4.716   4.297
 2606SOL     OW 8716   6.442   4.102   0.777
 2606SOL    HW1 8717   6.494   4.115   0.692
 2606SOL    HW2 8718   6.380   4.024   0.765
 2607SOL     OW 8719   1.115   0.517   3.184
 2607SOL    HW1 8720   1.022   0.531   3.219
 2607SOL    HW2 8721   1.114   0.446   3.113
 2608SOL     OW 8722   5.411   0.663   1.769
 2608SOL    HW1 8723   5.403   0.621   1.679
 2608SOL    HW2 8724   5.341   0.733   1.781
 2609SOL     OW 8725   0.540   2.167   2.715
 2609SOL    HW1 8726   0.624   2.178   2.768
 2609SOL    HW2 8727   0.520   2.070   2.704
 2610SOL     OW 8728   6.193   5.466   4.961
 2610SOL    HW1 8729   6.159   5.417   5.041
 2610SOL    HW2 8730   6.191   5.406   4.881
 2611SOL     OW 8731   5.453   6.426   1.112
 2611SOL    HW1 8732   5.513   6.404   1.189
 2611SOL    HW2 8733   5.405   6.511   1.132
 2612SOL     OW 8734   5.064   6.739   3.750
 2612SOL    HW1 8735   5.154   6.699   3.771
 2612SOL    HW2 8736   4.994   6.693   3.803
 2613SOL     OW 8737   3.567   0.568   2.510
 2613SOL    HW1 8738   3.495   0.573   2.579
 2613SOL    HW2 8739   3.652   0.539   2.552
 2614SOL     OW 8740   6.365   6.583   5.815
 2614SOL    HW1 8741   6.436   6.602   5.884
 2614SOL    HW2 8742   6.393   6.623   5.728
 2615SOL     OW 8743   4.988   4.870   2.896
 2615SOL    HW1 8744   4.950   4.901   2.810
 2615SOL    HW2 8745   4.918   4.819   2.947
 2616SOL     OW 8746   3.973   3.075   2.657
 2616SOL    HW1 8747   4.019   3.159   2.684
 2616SOL    HW2 8748   3.937   3.085   2.564
 2617SOL     OW 8749   3.372   5.935   1.070
 2617SOL    HW1 8750   3.362   5.929   1.169
 2617SOL    HW2 8751   3.380   6.031   1.043
 2618SOL     OW 8752   0.417   0.513   1.035
 2618SOL    HW1 8753   0.351   0.552   0.971
 2618SOL    HW2 8754   0.439   0.580   1.106
 2619SOL     OW 8755   4.118   1.685   2.032
 2619SOL    HW1 8756   4.145   1.647   2.120
 2619SOL    HW2 8757   4.194   1.736   1.992
 2620SOL     OW 8758   1.163   4.927   3.776
 2620SOL    HW1 8759   1.253   4.969   3.781
 2620SOL    HW2 8760   1.172   4.827   3.784
 2621SOL     OW 8761   0.641   6.098   3.666
 2621SOL    HW1 8762   0.629   6.197   3.657
 2621SOL    HW2 8763   0.736   6.079   3.692
 2622SOL     OW 8764   2.366   3.305   6.554
 2622SOL    HW1 8765   2.416   3.334   6.472
 2622SOL    HW2 8766   2.271   3.285   6.530
 2623SOL     OW 8767   3.520   1.141   5.518
 2623SOL    HW1 8768   3.566   1.224   5.549
 2623SOL    HW2 8769   3.536   1.128   5.420
 2624SOL     OW 8770   6.021   2.579   3.224
 2624SOL    HW1 8771   5.961   2.545   3.151
 2624SOL    HW2 8772   5.998   2.534   3.310
 2625SOL     OW 8773   2.535   2.800   5.610
 2625SOL    HW1 8774   2.578   2.885   5.641
 2625SOL    HW2 8775   2.563   2.725   5.670
 2626SOL     OW 8776   2.115   6.435   3.405
 2626SOL    HW1 8777   2.172   6.357   3.380
 2626SOL    HW2 8778   2.107   6.496   3.326
 2627SOL     OW 8779   0.209   0.448   4.650
 2627SOL    HW1 8780   0.306   0.427   4.663
 2627SOL    HW2 8781   0.199   0.545   4.628
 2628SOL     OW 8782   3.672   6.602   0.066
 2628SOL    HW1 8783   3.743   6.587   0.135
 2628SOL    HW2 8784   3.714   6.615   7.000
 2629SOL     OW 8785   3.881   3.959   1.546
 2629SOL    HW1 8786   3.834   4.016   1.479
 2629SOL    HW2 8787   3.817   3.933   1.619
 2630SOL     OW 8788   3.581   1.664   2.308
 2630SOL    HW1 8789   3.621   1.691   2.220
 2630SOL    HW2 8790   3.481   1.662   2.300
 2631SOL     OW 8791   4.631   6.408   4.363
 2631SOL    HW1 8792   4.665   6.472   4.432
 2631SOL    HW2 8793   4.583   6.332   4.409
 2632SOL     OW 8794   3.498   1.557   6.838
 2632SOL    HW1 8795   3.552   1.567   6.922
 2632SOL    HW2 8796   3.428   1.628   6.836
 2633SOL     OW 8797   5.971   2.374   6.633
 2633SOL    HW1 8798   5.905   2.327   6.575
 2633SOL    HW2 8799   6.018   2.445   6.581
 2634SOL     OW 8800   1.675   4.049   1.448
 2634SOL    HW1 8801   1.727   4.027   1.531
 2634SOL    HW2 8802   1.692   4.145   1.424
 2635SOL     OW 8803   5.556   5.061   4.296
 2635SOL    HW1 8804   5.652   5.034   4.310
 2635SOL    HW2 8805   5.548   5.112   4.211
 2636SOL     OW 8806   5.265   0.384   6.137
 2636SOL    HW1 8807   5.291   0.313   6.071
 2636SOL    HW2 8808   5.178   0.424   6.110
 2637SOL     OW 8809   5.354   6.723   3.746
 2637SOL    HW1 8810   5.425   6.792   3.762
 2637SOL    HW2 8811   5.396   6.634   3.735
 2638SOL     OW 8812   5.526   6.129   0.931
 2638SOL    HW1 8813   5.448   6.165   0.982
 2638SOL    HW2 8814   5.493   6.084   0.847
 2639SOL     OW 8815   5.853   6.511   1.145
 2639SOL    HW1 8816   5.801   6.432   1.179
 2639SOL    HW2 8817   5.951   6.494   1.158
 2640SOL     OW 8818   0.098   6.273   5.008
 2640SOL    HW1 8819   0.112   6.231   5.098
 2640SOL    HW2 8820   0.185   6.306   4.973
 2641SOL     OW 8821   5.073   3.718   6.598
 2641SOL    HW1 8822   5.143   3.708   6.527
 2641SOL    HW2 8823   5.114   3.698   6.687
 2642SOL     OW 8824   4.900   0.370   4.151
 2642SOL    HW1 8825   4.921   0.345   4.245
 2642SOL    HW2 8826   4.830   0.442   4.151
 2643SOL     OW 8827   0.207   6.662   3.385
 2643SOL    HW1 8828   0.211   6.564   3.364
 2643SOL    HW2 8829   0.119   6.683   3.427
 2644SOL     OW 8830   0.816   5.123   5.682
 2644SOL    HW1 8831   0.818   5.143   5.584
 2644SOL    HW2 8832   0.722   5.105   5.710
 2645SOL     OW 8833   5.388   6.708   5.777
 2645SOL    HW1 8834   5.398   6.770   5.854
 2645SOL    HW2 8835   5.310   6.737   5.721
 2646SOL     OW 8836   6.975   0.212   6.590
 2646SOL    HW1 8837   0.043   0.180   6.617
 2646SOL    HW2 8838   6.961   0.191   6.493
 2647SOL     OW 8839   4.546   1.820   0.963
 2647SOL    HW1 8840   4.547   1.781   0.871
 2647SOL    HW2 8841   4.602   1.904   0.964
 2648SOL     OW 8842   6.239   6.937   2.532
 2648SOL    HW1 8843   6.283   0.002   2.512
 2648SOL    HW2 8844   6.247   6.877   2.452
 2649SOL     OW 8845   3.371   1.391   6.117
 2649SOL    HW1 8846   3.329   1.464   6.171
 2649SOL    HW2 8847   3.299   1.340   6.069
 2650SOL     OW 8848   0.288   5.438   3.468
 2650SOL    HW1 8849   0.358   5.482   3.413
 2650SOL    HW2 8850   0.327   5.359   3.516
 2651SOL     OW 8851   0.034   1.256   1.813
 2651SOL    HW1 8852   0.074   1.208   1.735
 2651SOL    HW2 8853   6.957   1.251   1.807
 2652SOL     OW 8854   3.148   3.315   2.958
 2652SOL    HW1 8855   3.133   3.289   2.863
 2652SOL    HW2 8856   3.065   3.357   2.994
 2653SOL     OW 8857   5.645   6.802   6.327
 2653SOL    HW1 8858   5.650   6.761   6.236
 2653SOL    HW2 8859   5.587   6.745   6.385
 2654SOL     OW 8860   5.113   1.752   6.109
 2654SOL    HW1 8861   5.133   1.735   6.205
 2654SOL    HW2 8862   5.185   1.711   6.052
 2655SOL     OW 8863   4.110   5.905   4.779
 2655SOL    HW1 8864   4.138   5.828   4.722
 2655SOL    HW2 8865   4.190   5.959   4.804
 2656SOL     OW 8866   5.350   3.891   3.528
 2656SOL    HW1 8867   5.269   3.902   3.471
 2656SOL    HW2 8868   5.412   3.824   3.485
 2657SOL     OW 8869   1.700   4.256   6.703
 2657SOL    HW1 8870   1.610   4.270   6.745
 2657SOL    HW2 8871   1.727   4.161   6.713
 2658SOL     OW 8872   6.078   4.224   5.888
 2658SOL    HW1 8873   6.011   4.277   5.836
 2658SOL    HW2 8874   6.065   4.127   5.870
 2659SOL     OW 8875   6.732   2.433   4.728
 2659SOL    HW1 8876   6.756   2.412   4.633
 2659SOL    HW2 8877   6.814   2.462   4.777
 2660SOL     OW 8878   6.073   2.531   2.305
 2660SOL    HW1 8879   6.047   2.455   2.245
 2660SOL    HW2 8880   6.059   2.618   2.256
 2661SOL     OW 8881   3.340   5.626   1.098
 2661SOL    HW1 8882   3.368   5.715   1.063
 2661SOL    HW2 8883   3.365   5.620   1.195
 2662SOL     OW 8884   4.433   6.147   5.042
 2662SOL    HW1 8885   4.442   6.053   5.074
 2662SOL    HW2 8886   4.337   6.166   5.021
 2663SOL     OW 8887   2.263   4.990   2.392
 2663SOL    HW1 8888   2.244   4.921   2.323
 2663SOL    HW2 8889   2.329   5.056   2.356
 2664SOL     OW 8890   3.773   4.096   2.663
 2664SOL    HW1 8891   3.741   4.109   2.569
 2664SOL    HW2 8892   3.738   4.010   2.699
 2665SOL     OW 8893   3.631   1.538   5.103
 2665SOL    HW1 8894   3.728   1.565   5.104
 2665SOL    HW2 8895   3.578   1.605   5.154
 2666SOL     OW 8896   5.121   4.242   1.066
 2666SOL    HW1 8897   5.128   4.285   0.976
 2666SOL    HW2 8898   5.198   4.270   1.123
 2667SOL     OW 8899   2.004   5.957   5.147
 2667SOL    HW1 8900   1.932   5.942   5.215
 2667SOL    HW2 8901   2.092   5.929   5.184
 2668SOL     OW 8902   6.688   3.317   4.822
 2668SOL    HW1 8903   6.670   3.220   4.809
 2668SOL    HW2 8904   6.604   3.369   4.809
 2669SOL     OW 8905   4.411   4.951   5.453
 2669SOL    HW1 8906   4.480   4.969   5.382
 2669SOL    HW2 8907   4.320   4.968   5.415
 2670SOL     OW 8908   0.397   1.049   0.212
 2670SOL    HW1 8909   0.311   1.040   0.163
 2670SOL    HW2 8910   0.456   1.116   0.166
 2671SOL     OW 8911   2.566   3.843   6.735
 2671SOL    HW1 8912   2.590   3.902   6.658
 2671SOL    HW2 8913   2.618   3.870   6.815
 2672SOL     OW 8914   1.937   5.124   0.489
 2672SOL    HW1 8915   1.887   5.124   0.402
 2672SOL    HW2 8916   2.033   5.144   0.471
 2673SOL     OW 8917   4.068   2.140   2.981
 2673SOL    HW1 8918   3.994   2.081   2.949
 2673SOL    HW2 8919   4.085   2.121   3.078
 2674SOL     OW 8920   0.485   5.212   4.444
 2674SOL    HW1 8921   0.518   5.155   4.370
 2674SOL    HW2 8922   0.385   5.216   4.441
 2675SOL     OW 8923   0.096   4.337   5.354
 2675SOL    HW1 8924   0.113   4.239   5.366
 2675SOL    HW2 8925   0.049   4.352   5.267
 2676SOL     OW 8926   4.468   1.331   2.273
 2676SOL    HW1 8927   4.566   1.346   2.263
 2676SOL    HW2 8928   4.420   1.419   2.261
 2677SOL     OW 8929   1.450   4.743   1.521
 2677SOL    HW1 8930   1.549   4.740   1.504
 2677SOL    HW2 8931   1.402   4.702   1.443
 2678SOL     OW 8932   1.466   5.173   6.492
 2678SOL    HW1 8933   1.369   5.163   6.510
 2678SOL    HW2 8934   1.502   5.089   6.451
 2679SOL     OW 8935   3.369   4.981   0.737
 2679SOL    HW1 8936   3.438   4.915   0.765
 2679SOL    HW2 8937   3.387   5.069   0.781
 2680SOL     OW 8938   2.102   1.775   0.672
 2680SOL    HW1 8939   2.131   1.714   0.745
 2680SOL    HW2 8940   2.008   1.754   0.646
 2681SOL     OW 8941   0.935   3.264   4.334
 2681SOL    HW1 8942   0.981   3.332   4.277
 2681SOL    HW2 8943   0.912   3.306   4.423
 2682SOL     OW 8944   5.270   3.029   2.153
 2682SOL    HW1 8945   5.192   3.033   2.091
 2682SOL    HW2 8946   5.282   2.935   2.186
 2683SOL     OW 8947   0.511   5.130   1.178
 2683SOL    HW1 8948   0.460   5.075   1.112
 2683SOL    HW2 8949   0.545   5.071   1.251
 2684SOL     OW 8950   3.849   6.662   2.937
 2684SOL    HW1 8951   3.835   6.576   2.888
 2684SOL    HW2 8952   3.870   6.643   3.033
 2685SOL     OW 8953   5.184   6.247   4.830
 2685SOL    HW1 8954   5.263   6.306   4.816
 2685SOL    HW2 8955   5.151   6.215   4.741
 2686SOL     OW 8956   2.327   2.758   4.071
 2686SOL    HW1 8957   2.402   2.703   4.034
 2686SOL    HW2 8958   2.265   2.700   4.123
 2687SOL     OW 8959   3.842   4.817   2.398
 2687SOL    HW1 8960   3.873   4.898   2.447
 2687SOL    HW2 8961   3.742   4.814   2.399
 2688SOL     OW 8962   4.861   4.835   6.546
 2688SOL    HW1 8963   4.821   4.916   6.588
 2688SOL    HW2 8964   4.867   4.847   6.447
 2689SOL     OW 8965   1.284   2.467   3.424
 2689SOL    HW1 8966   1.353   2.506   3.363
 2689SOL    HW2 8967   1.194   2.478   3.382
 2690SOL     OW 8968   3.551   2.886   3.613
 2690SOL    HW1 8969   3.553   2.856   3.708
 2690SOL    HW2 8970   3.486   2.962   3.604
 2691SOL     OW 8971   1.871   5.227   1.999
 2691SOL    HW1 8972   1.822   5.140   1.992
 2691SOL    HW2 8973   1.850   5.270   2.087
 2692SOL     OW 8974   6.894   5.565   3.962
 2692SOL    HW1 8975   6.856   5.559   3.870
 2692SOL    HW2 8976   6.873   5.481   4.013
 2693SOL     OW 8977   1.946   3.716   3.813
 2693SOL    HW1 8978   1.865   3.759   3.852
 2693SOL    HW2 8979   1.930   3.617   3.804
 2694SOL     OW 8980   3.247   0.070   3.121
 2694SOL    HW1 8981   3.323   0.020   3.080
 2694SOL    HW2 8982   3.177   0.087   3.052
 2695SOL     OW 8983   4.902   2.066   2.673
 2695SOL    HW1 8984   4.955   2.097   2.594
 2695SOL    HW2 8985   4.805   2.087   2.658
 2696SOL     OW 8986   3.614   3.743   5.645
 2696SOL    HW1 8987   3.695   3.701   5.603
 2696SOL    HW2 8988   3.531   3.704   5.604
 2697SOL     OW 8989   4.141   2.275   3.260
 2697SOL    HW1 8990   4.182   2.343   3.199
 2697SOL    HW2 8991   4.213   2.233   3.316
 2698SOL     OW 8992   0.888   4.072   0.754
 2698SOL    HW1 8993   0.917   4.048   0.661
 2698SOL    HW2 8994   0.870   4.171   0.758
 2699SOL     OW 8995   3.499   5.672   0.865
 2699SOL    HW1 8996   3.595   5.648   0.880
 2699SOL    HW2 8997   3.444   5.589   0.858
 2700SOL     OW 8998   1.941   3.790   2.653
 2700SOL    HW1 8999   1.900   3.699   2.654
 2700SOL    HW2 9000   1.992   3.804   2.738
 2701SOL     OW 9001   3.190   0.093   6.428
 2701SOL    HW1 9002   3.285   0.087   6.397
 2701SOL    HW2 9003   3.182   0.055   6.520
 2702SOL     OW 9004   6.993   1.455   2.771
 2702SOL    HW1 9005   0.039   1.429   2.839
 2702SOL    HW2 9006   6.954   1.373   2.730
 2703SOL     OW 9007   2.728   1.932   2.406
 2703SOL    HW1 9008   2.753   2.026   2.385
 2703SOL    HW2 9009   2.723   1.879   2.320
 2704SOL     OW 9010   2.919   5.207   1.966
 2704SOL    HW1 9011   3.001   5.151   1.975
 2704SOL    HW2 9012   2.944   5.303   1.956
 2705SOL     OW 9013   6.350   6.118   3.852
 2705SOL    HW1 9014   6.302   6.043   3.896
 2705SOL    HW2 9015   6.408   6.165   3.918
 2706SOL     OW 9016   6.640   1.270   2.021
 2706SOL    HW1 9017   6.639   1.204   2.097
 2706SOL    HW2 9018   6.549   1.309   2.010
 2707SOL     OW 9019   2.053   1.846   6.937
 2707SOL    HW1 9020   2.093   1.921   6.884
 2707SOL    HW2 9021   2.124   1.780   6.961
 2708SOL     OW 9022   2.260   2.573   1.715
 2708SOL    HW1 9023   2.300   2.595   1.626
 2708SOL    HW2 9024   2.264   2.653   1.774
 2709SOL     OW 9025   5.148   5.909   1.103
 2709SOL    HW1 9026   5.248   5.912   1.110
 2709SOL    HW2 9027   5.111   5.856   1.179
 2710SOL     OW 9028   0.023   3.669   2.454
 2710SOL    HW1 9029   6.993   3.593   2.492
 2710SOL    HW2 9030   6.997   3.707   2.375
 2711SOL     OW 9031   1.335   0.282   1.814
 2711SOL    HW1 9032   1.406   0.344   1.781
 2711SOL    HW2 9033   1.284   0.246   1.736
 2712SOL     OW 9034   2.433   4.585   0.859
 2712SOL    HW1 9035   2.367   4.529   0.908
 2712SOL    HW2 9036   2.430   4.563   0.761
 2713SOL     OW 9037   2.159   3.036   5.151
 2713SOL    HW1 9038   2.251   3.022   5.115
 2713SOL    HW2 9039   2.140   2.968   5.223
 2714SOL     OW 9040   5.078   1.126   5.828
 2714SOL    HW1 9041   5.027   1.080   5.901
 2714SOL    HW2 9042   5.021   1.130   5.746
 2715SOL     OW 9043   5.359   1.745   0.306
 2715SOL    HW1 9044   5.374   1.768   0.402
 2715SOL    HW2 9045   5.304   1.816   0.262
 2716SOL     OW 9046   6.438   5.102   2.209
 2716SOL    HW1 9047   6.450   5.020   2.265
 2716SOL    HW2 9048   6.455   5.183   2.265
 2717SOL     OW 9049   0.944   6.438   2.688
 2717SOL    HW1 9050   0.875   6.449   2.760
 2717SOL    HW2 9051   1.035   6.428   2.730
 2718SOL     OW 9052   1.474   3.455   4.338
 2718SOL    HW1 9053   1.483   3.506   4.252
 2718SOL    HW2 9054   1.397   3.491   4.391
 2719SOL     OW 9055   4.143   5.152   2.770
 2719SOL    HW1 9056   4.050   5.166   2.804
 2719SOL    HW2 9057   4.199   5.232   2.793
 2720SOL     OW 9058   1.974   6.129   3.854
 2720SOL    HW1 9059   1.991   6.138   3.952
 2720SOL    HW2 9060   2.039   6.186   3.804
 2721SOL     OW 9061   2.719   0.308   4.477
 2721SOL    HW1 9062   2.789   0.340   4.414
 2721SOL    HW2 9063   2.761   0.283   4.565
 2722SOL     OW 9064   0.810   5.237   3.131
 2722SOL    HW1 9065   0.741   5.175   3.093
 2722SOL    HW2 9066   0.776   5.276   3.216
 2723SOL     OW 9067   1.854   1.430   5.671
 2723SOL    HW1 9068   1.947   1.465   5.676
 2723SOL    HW2 9069   1.849   1.355   5.606
 2724SOL     OW 9070   3.500   5.740   6.963
 2724SOL    HW1 9071   3.445   5.795   6.901
 2724SOL    HW2 9072   3.441   5.694   0.007
 2725SOL     OW 9073   4.803   4.556   2.800
 2725SOL    HW1 9074   4.899   4.530   2.785
 2725SOL    HW2 9075   4.746   4.474   2.798
 2726SOL     OW 9076   4.569   4.601   1.681
 2726SOL    HW1 9077   4.609   4.693   1.688
 2726SOL    HW2 9078   4.608   4.542   1.752
 2727SOL     OW 9079   0.801   4.618   2.723
 2727SOL    HW1 9080   0.721   4.671   2.753
 2727SOL    HW2 9081   0.775   4.522   2.714
 2728SOL     OW 9082   2.750   6.919   5.209
 2728SOL    HW1 9083   2.672   6.973   5.240
 2728SOL    HW2 9084   2.718   6.843   5.152
 2729SOL     OW 9085   6.413   5.232   3.218
 2729SOL    HW1 9086   6.479   5.190   3.280
 2729SOL    HW2 9087   6.324   5.239   3.262
 2730SOL     OW 9088   2.771   6.963   0.214
 2730SOL    HW1 9089   2.680   6.971   0.255
 2730SOL    HW2 9090   2.840   6.964   0.287
 2731SOL     OW 9091   2.975   3.772   1.873
 2731SOL    HW1 9092   2.927   3.808   1.953
 2731SOL    HW2 9093   3.004   3.678   1.891
 2732SOL     OW 9094   6.003   2.739   2.110
 2732SOL    HW1 9095   5.982   2.831   2.143
 2732SOL    HW2 9096   5.928   2.677   2.134
 2733SOL     OW 9097   0.992   6.890   5.458
 2733SOL    HW1 9098   1.081   6.933   5.471
 2733SOL    HW2 9099   0.993   6.837   5.373
 2734SOL     OW 9100   1.804   6.487   3.672
 2734SOL    HW1 9101   1.784   6.545   3.751
 2734SOL    HW2 9102   1.903   6.474   3.664
 2735SOL     OW 9103   1.354   4.587   2.515
 2735SOL    HW1 9104   1.349   4.608   2.417
 2735SOL    HW2 9105   1.274   4.626   2.561
 2736SOL     OW 9106   4.214   0.142   5.406
 2736SOL    HW1 9107   4.305   0.177   5.382
 2736SOL    HW2 9108   4.150   0.218   5.413
 2737SOL     OW 9109   3.955   3.584   5.985
 2737SOL    HW1 9110   4.011   3.602   5.903
 2737SOL    HW2 9111   4.011   3.535   6.052
 2738SOL     OW 9112   5.100   5.358   4.061
 2738SOL    HW1 9113   5.093   5.291   4.135
 2738SOL    HW2 9114   5.073   5.316   3.975
 2739SOL     OW 9115   5.485   4.016   0.859
 2739SOL    HW1 9116   5.543   3.993   0.781
 2739SOL    HW2 9117   5.519   3.970   0.941
 2740SOL     OW 9118   6.135   2.247   2.649
 2740SOL    HW1 9119   6.141   2.214   2.743
 2740SOL    HW2 9120   6.191   2.188   2.590
 2741SOL     OW 9121   0.004   2.219   5.691
 2741SOL    HW1 9122   6.971   2.146   5.651
 2741SOL    HW2 9123   7.009   2.224   5.790
 2742SOL     OW 9124   1.505   5.730   6.496
 2742SOL    HW1 9125   1.452   5.815   6.498
 2742SOL    HW2 9126   1.494   5.681   6.582
 2743SOL     OW 9127   5.337   5.096   1.393
 2743SOL    HW1 9128   5.358   5.035   1.470
 2743SOL    HW2 9129   5.422   5.125   1.350
 2744SOL     OW 9130   4.152   2.348   6.504
 2744SOL    HW1 9131   4.055   2.370   6.512
 2744SOL    HW2 9132   4.207   2.432   6.511
 2745SOL     OW 9133   2.112   6.181   0.880
 2745SOL    HW1 9134   2.128   6.087   0.911
 2745SOL    HW2 9135   2.076   6.236   0.955
 2746SOL     OW 9136   1.719   2.002   5.249
 2746SOL    HW1 9137   1.809   1.977   5.287
 2746SOL    HW2 9138   1.658   2.029   5.324
 2747SOL     OW 9139   5.726   5.909   4.478
 2747SOL    HW1 9140   5.796   5.934   4.411
 2747SOL    HW2 9141   5.714   5.985   4.543
 2748SOL     OW 9142   4.532   1.239   3.517
 2748SOL    HW1 9143   4.458   1.207   3.575
 2748SOL    HW2 9144   4.582   1.313   3.563
 2749SOL     OW 9145   4.684   4.416   4.325
 2749SOL    HW1 9146   4.714   4.321   4.317
 2749SOL    HW2 9147   4.645   4.446   4.238
 2750SOL     OW 9148   0.832   5.804   2.383
 2750SOL    HW1 9149   0.883   5.751   2.315
 2750SOL    HW2 9150   0.822   5.751   2.467
 2751SOL     OW 9151   2.160   6.885   6.783
 2751SOL    HW1 9152   2.187   6.974   6.747
 2751SOL    HW2 9153   2.081   6.896   6.843
 2752SOL     OW 9154   6.027   6.224   5.412
 2752SOL    HW1 9155   6.118   6.196   5.381
 2752SOL    HW2 9156   6.028   6.322   5.431
 2753SOL     OW 9157   3.895   5.968   6.385
 2753SOL    HW1 9158   3.825   5.993   6.453
 2753SOL    HW2 9159   3.985   5.970   6.428
 2754SOL     OW 9160   0.742   0.098   4.457
 2754SOL    HW1 9161   0.659   0.074   4.406
 2754SOL    HW2 9162   0.779   0.016   4.501
 2755SOL     OW 9163   3.034   6.446   2.610
 2755SOL    HW1 9164   2.944   6.404   2.613
 2755SOL    HW2 9165   3.029   6.532   2.559
 2756SOL     OW 9166   5.947   3.659   5.374
 2756SOL    HW1 9167   5.963   3.635   5.470
 2756SOL    HW2 9168   5.874   3.726   5.367
 2757SOL     OW 9169   4.721   2.339   0.217
 2757SOL    HW1 9170   4.759   2.398   0.146
 2757SOL    HW2 9171   4.726   2.244   0.188
 2758SOL     OW 9172   5.227   4.659   2.754
 2758SOL    HW1 9173   5.158   4.725   2.785
 2758SOL    HW2 9174   5.315   4.704   2.746
 2759SOL     OW 9175   3.250   4.418   6.156
 2759SOL    HW1 9176   3.198   4.352   6.211
 2759SOL    HW2 9177   3.348   4.407   6.174
 2760SOL     OW 9178   5.319   5.653   3.585
 2760SOL    HW1 9179   5.330   5.562   3.545
 2760SOL    HW2 9180   5.321   5.722   3.513
 2761SOL     OW 9181   2.100   3.705   2.987
 2761SOL    HW1 9182   2.126   3.608   2.985
 2761SOL    HW2 9183   2.118   3.746   2.898
 2762SOL     OW 9184   1.937   2.372   0.177
 2762SOL    HW1 9185   1.914   2.350   0.082
 2762SOL    HW2 9186   2.036   2.364   0.190
 2763SOL     OW 9187   4.652   1.250   5.989
 2763SOL    HW1 9188   4.559   1.257   6.024
 2763SOL    HW2 9189   4.681   1.339   5.955
 2764SOL     OW 9190   0.706   3.853   2.040
 2764SOL    HW1 9191   0.801   3.853   2.012
 2764SOL    HW2 9192   0.689   3.778   2.104
 2765SOL     OW 9193   6.393   6.765   0.054
 2765SOL    HW1 9194   6.398   6.679   0.004
 2765SOL    HW2 9195   6.374   6.747   0.150
 2766SOL     OW 9196   5.416   0.954   6.926
 2766SOL    HW1 9197   5.331   0.979   6.879
 2766SOL    HW2 9198   5.407   0.862   6.965
 2767SOL     OW 9199   6.378   4.876   6.188
 2767SOL    HW1 9200   6.332   4.886   6.277
 2767SOL    HW2 9201   6.373   4.963   6.139
 2768SOL     OW 9202   4.981   0.439   1.101
 2768SOL    HW1 9203   4.919   0.439   1.023
 2768SOL    HW2 9204   4.931   0.467   1.183
 2769SOL     OW 9205   1.470   4.506   5.530
 2769SOL    HW1 9206   1.434   4.511   5.437
 2769SOL    HW2 9207   1.395   4.515   5.596
 2770SOL     OW 9208   2.520   6.947   6.925
 2770SOL    HW1 9209   2.616   6.973   6.933
 2770SOL    HW2 9210   2.507   6.888   6.846
 2771SOL     OW 9211   4.760   0.108   4.711
 2771SOL    HW1 9212   4.765   0.051   4.794
 2771SOL    HW2 9213   4.665   0.133   4.695
 2772SOL     OW 9214   4.209   0.769   2.884
 2772SOL    HW1 9215   4.153   0.813   2.814
 2772SOL    HW2 9216   4.282   0.716   2.840
 2773SOL     OW 9217   6.292   3.282   4.119
 2773SOL    HW1 9218   6.208   3.253   4.165
 2773SOL    HW2 9219   6.371   3.250   4.170
 2774SOL     OW 9220   5.077   1.819   3.446
 2774SOL    HW1 9221   5.027   1.894   3.489
 2774SOL    HW2 9222   5.176   1.835   3.454
 2775SOL     OW 9223   0.303   4.512   4.929
 2775SOL    HW1 9224   0.374   4.483   4.864
 2775SOL    HW2 9225   0.326   4.479   5.020
 2776SOL     OW 9226   4.945   4.602   5.914
 2776SOL    HW1 9227   4.903   4.686   5.878
 2776SOL    HW2 9228   5.045   4.611   5.911
 2777SOL     OW 9229   3.195   2.533   5.998
 2777SOL    HW1 9230   3.222   2.459   5.937
 2777SOL    HW2 9231   3.264   2.605   5.997
 2778SOL     OW 9232   2.484   6.353   6.673
 2778SOL    HW1 9233   2.416   6.373   6.744
 2778SOL    HW2 9234   2.571   6.330   6.716
 2779SOL     OW 9235   6.137   6.326   2.152
 2779SOL    HW1 9236   6.096   6.236   2.169
 2779SOL    HW2 9237   6.227   6.313   2.110
 2780SOL     OW 9238   0.299   1.589   6.222
 2780SOL    HW1 9239   0.364   1.517   6.247
 2780SOL    HW2 9240   0.229   1.596   6.293
 2781SOL     OW 9241   6.444   0.578   2.711
 2781SOL    HW1 9242   6.519   0.543   2.655
 2781SOL    HW2 9243   6.388   0.502   2.744
 2782SOL     OW 9244   4.388   1.327   6.742
 2782SOL    HW1 9245   4.401   1.395   6.814
 2782SOL    HW2 9246   4.293   1.296   6.742
 2783SOL     OW 9247   5.302   3.491   1.693
 2783SOL    HW1 9248   5.325   3.396   1.712
 2783SOL    HW2 9249   5.344   3.519   1.607
 2784SOL     OW 9250   1.514   1.767   0.463
 2784SOL    HW1 9251   1.524   1.703   0.387
 2784SOL    HW2 9252   1.500   1.860   0.428
 2785SOL     OW 9253   5.198   3.246   1.408
 2785SOL    HW1 9254   5.137   3.198   1.471
 2785SOL    HW2 9255   5.292   3.233   1.437
 2786SOL     OW 9256   6.858   6.187   0.100
 2786SOL    HW1 9257   6.801   6.120   0.053
 2786SOL    HW2 9258   6.805   6.232   0.171
 2787SOL     OW 9259   6.334   5.134   5.954
 2787SOL    HW1 9260   6.413   5.196   5.953
 2787SOL    HW2 9261   6.319   5.098   5.862
 2788SOL     OW 9262   3.236   5.889   5.735
 2788SOL    HW1 9263   3.173   5.836   5.793
 2788SOL    HW2 9264   3.330   5.872   5.763
 2789SOL     OW 9265   0.618   2.431   4.887
 2789SOL    HW1 9266   0.678   2.364   4.844
 2789SOL    HW2 9267   0.533   2.437   4.835
 2790SOL     OW 9268   2.222   5.710   0.721
 2790SOL    HW1 9269   2.268   5.798   0.729
 2790SOL    HW2 9270   2.170   5.707   0.635
 2791SOL     OW 9271   6.870   3.836   3.544
 2791SOL    HW1 9272   6.797   3.771   3.568
 2791SOL    HW2 9273   6.953   3.813   3.593
 2792SOL     OW 9274   3.452   1.689   5.284
 2792SOL    HW1 9275   3.355   1.710   5.277
 2792SOL    HW2 9276   3.495   1.750   5.351
 2793SOL     OW 9277   3.654   4.449   1.403
 2793SOL    HW1 9278   3.738   4.397   1.421
 2793SOL    HW2 9279   3.620   4.488   1.489
 2794SOL     OW 9280   0.402   1.942   6.095
 2794SOL    HW1 9281   0.384   1.920   5.999
 2794SOL    HW2 9282   0.317   1.973   6.139
 2795SOL     OW 9283   1.018   4.318   1.560
 2795SOL    HW1 9284   1.034   4.231   1.608
 2795SOL    HW2 9285   0.950   4.371   1.609
 2796SOL     OW 9286   0.937   6.020   5.248
 2796SOL    HW1 9287   0.963   5.945   5.309
 2796SOL    HW2 9288   0.967   5.999   5.155
 2797SOL     OW 9289   5.241   6.935   4.469
 2797SOL    HW1 9290   5.195   0.000   4.481
 2797SOL    HW2 9291   5.175   6.867   4.437
 2798SOL     OW 9292   5.916   6.522   1.847
 2798SOL    HW1 9293   6.008   6.541   1.814
 2798SOL    HW2 9294   5.912   6.429   1.884
 2799SOL     OW 9295   3.817   6.194   4.965
 2799SOL    HW1 9296   3.849   6.100   4.954
 2799SOL    HW2 9297   3.719   6.198   4.942
 2800SOL     OW 9298   6.298   0.751   6.746
 2800SOL    HW1 9299   6.394   0.734   6.764
 2800SOL    HW2 9300   6.288   0.805   6.662
 2801SOL     OW 9301   0.681   4.793   5.501
 2801SOL    HW1 9302   0.717   4.771   5.591
 2801SOL    HW2 9303   0.640   4.884   5.502
 2802SOL     OW 9304   6.731   5.903   5.381
 2802SOL    HW1 9305   6.813   5.901   5.324
 2802SOL    HW2 9306   6.701   5.997   5.393
 2803SOL     OW 9307   3.908   3.679   6.365
 2803SOL    HW1 9308   3.934   3.616   6.291
 2803SOL    HW2 9309   3.960   3.657   6.447
 2804SOL     OW 9310   0.529   2.883   3.707
 2804SOL    HW1 9311   0.505   2.879   3.804
 2804SOL    HW2 9312   0.527   2.978   3.676
 2805SOL     OW 9313   3.947   3.350   1.517
 2805SOL    HW1 9314   4.035   3.350   1.469
 2805SOL    HW2 9315   3.939   3.265   1.570
 2806SOL     OW 9316   0.844   4.777   6.108
 2806SOL    HW1 9317   0.913   4.738   6.048
 2806SOL    HW2 9318   0.772   4.709   6.124
 2807SOL     OW 9319   3.044   0.423   3.808
 2807SOL    HW1 9320   2.985   0.463   3.737
 2807SOL    HW2 9321   3.139   0.450   3.791
 2808SOL     OW 9322   6.293   5.088   6.883
 2808SOL    HW1 9323   6.318   5.098   6.786
 2808SOL    HW2 9324   6.342   5.156   6.937
 2809SOL     OW 9325   6.557   4.665   2.163
 2809SOL    HW1 9326   6.531   4.725   2.238
 2809SOL    HW2 9327   6.481   4.658   2.098
 2810SOL     OW 9328   2.619   5.432   3.616
 2810SOL    HW1 9329   2.555   5.431   3.693
 2810SOL    HW2 9330   2.584   5.494   3.545
 2811SOL     OW 9331   1.161   0.825   2.252
 2811SOL    HW1 9332   1.198   0.914   2.228
 2811SOL    HW2 9333   1.061   0.826   2.241
 2812SOL     OW 9334   0.439   3.225   0.860
 2812SOL    HW1 9335   0.495   3.308   0.859
 2812SOL    HW2 9336   0.342   3.251   0.856
 2813SOL     OW 9337   0.668   2.424   1.500
 2813SOL    HW1 9338   0.586   2.368   1.484
 2813SOL    HW2 9339   0.688   2.478   1.418
 2814SOL     OW 9340   1.910   4.096   0.399
 2814SOL    HW1 9341   1.815   4.125   0.384
 2814SOL    HW2 9342   1.930   4.017   0.342
 2815SOL     OW 9343   0.540   5.793   5.672
 2815SOL    HW1 9344   0.569   5.698   5.662
 2815SOL    HW2 9345   0.445   5.795   5.705
 2816SOL     OW 9346   0.448   6.118   5.880
 2816SOL    HW1 9347   0.385   6.076   5.813
 2816SOL    HW2 9348   0.503   6.187   5.834
 2817SOL     OW 9349   4.111   0.359   2.039
 2817SOL    HW1 9350   4.143   0.309   2.120
 2817SOL    HW2 9351   4.071   0.446   2.067
 2818SOL     OW 9352   1.167   0.535   1.355
 2818SOL    HW1 9353   1.148   0.520   1.258
 2818SOL    HW2 9354   1.081   0.542   1.405
 2819SOL     OW 9355   0.856   0.250   0.996
 2819SOL    HW1 9356   0.794   0.302   0.937
 2819SOL    HW2 9357   0.913   0.190   0.940
 2820SOL     OW 9358   1.260   2.917   1.135
 2820SOL    HW1 9359   1.356   2.911   1.106
 2820SOL    HW2 9360   1.254   2.974   1.216
 2821SOL     OW 9361   3.127   4.255   6.347
 2821SOL    HW1 9362   3.142   4.313   6.428
 2821SOL    HW2 9363   3.030   4.234   6.339
 2822SOL     OW 9364   4.440   2.489   0.750
 2822SOL    HW1 9365   4.416   2.469   0.655
 2822SOL    HW2 9366   4.385   2.565   0.783
 2823SOL     OW 9367   5.101   2.104   0.986
 2823SOL    HW1 9368   5.040   2.178   1.012
 2823SOL    HW2 9369   5.111   2.102   0.887
 2824SOL     OW 9370   1.053   3.311   5.436
 2824SOL    HW1 9371   1.100   3.320   5.524
 2824SOL    HW2 9372   1.120   3.297   5.364
 2825SOL     OW 9373   5.445   1.587   6.497
 2825SOL    HW1 9374   5.526   1.542   6.535
 2825SOL    HW2 9375   5.363   1.535   6.522
 2826SOL     OW 9376   1.983   3.929   6.333
 2826SOL    HW1 9377   1.997   4.000   6.264
 2826SOL    HW2 9378   1.981   3.839   6.289
 2827SOL     OW 9379   0.093   0.907   6.394
 2827SOL    HW1 9380   7.022   0.931   6.369
 2827SOL    HW2 9381   0.123   0.830   6.338
 2828SOL     OW 9382   1.823   4.288   1.072
 2828SOL    HW1 9383   1.734   4.273   1.029
 2828SOL    HW2 9384   1.896   4.266   1.007
 2829SOL     OW 9385   4.054   3.845   3.534
 2829SOL    HW1 9386   4.036   3.943   3.523
 2829SOL    HW2 9387   4.052   3.822   3.632
 2830SOL     OW 9388   3.663   5.185   5.839
 2830SOL    HW1 9389   3.607   5.106   5.863
 2830SOL    HW2 9390   3.604   5.261   5.810
 2831SOL     OW 9391   6.239   2.118   1.965
 2831SOL    HW1 9392   6.198   2.031   1.993
 2831SOL    HW2 9393   6.273   2.110   1.871
 2832SOL     OW 9394   0.599   3.184   1.105
 2832SOL    HW1 9395   0.540   3.180   1.024
 2832SOL    HW2 9396   0.544   3.179   1.187
 2833SOL     OW 9397   1.853   2.093   1.494
 2833SOL    HW1 9398   1.883   2.111   1.401
 2833SOL    HW2 9399   1.756   2.067   1.494
 2834SOL     OW 9400   3.955   5.781   5.387
 2834SOL    HW1 9401   3.967   5.879   5.405
 2834SOL    HW2 9402   4.044   5.740   5.366
 2835SOL     OW 9403   0.794   6.653   0.924
 2835SOL    HW1 9404   0.860   6.727   0.911
 2835SOL    HW2 9405   0.830   6.588   0.991
 2836SOL     OW 9406   3.561   6.201   3.341
 2836SOL    HW1 9407   3.575   6.239   3.250
 2836SOL    HW2 9408   3.538   6.274   3.405
 2837SOL     OW 9409   5.151   4.190   2.132
 2837SOL    HW1 9410   5.090   4.141   2.194
 2837SOL    HW2 9411   5.109   4.277   2.106
 2838SOL     OW 9412   5.376   4.161   6.103
 2838SOL    HW1 9413   5.473   4.146   6.083
 2838SOL    HW2 9414   5.322   4.154   6.020
 2839SOL     OW 9415   6.039   2.935   5.181
 2839SOL    HW1 9416   5.999   3.027   5.189
 2839SOL    HW2 9417   6.028   2.886   5.267
 2840SOL     OW 9418   0.206   6.213   3.100
 2840SOL    HW1 9419   0.293   6.190   3.057
 2840SOL    HW2 9420   0.133   6.154   3.064
 2841SOL     OW 9421   5.557   2.924   1.784
 2841SOL    HW1 9422   5.480   2.870   1.749
 2841SOL    HW2 9423   5.635   2.915   1.722
 2842SOL     OW 9424   1.694   6.647   3.029
 2842SOL    HW1 9425   1.734   6.669   3.118
 2842SOL    HW2 9426   1.686   6.731   2.975
 2843SOL     OW 9427   2.282   2.981   3.148
 2843SOL    HW1 9428   2.330   2.935   3.223
 2843SOL    HW2 9429   2.229   3.057   3.184
 2844SOL     OW 9430   4.540   4.610   1.361
 2844SOL    HW1 9431   4.594   4.527   1.349
 2844SOL    HW2 9432   4.533   4.631   1.458
 2845SOL     OW 9433   3.600   2.147   2.716
 2845SOL    HW1 9434   3.501   2.143   2.701
 2845SOL    HW2 9435   3.619   2.194   2.802
 2846SOL     OW 9436   4.919   0.648   0.612
 2846SOL    HW1 9437   4.883   0.648   0.705
 2846SOL    HW2 9438   4.906   0.739   0.572
 2847SOL     OW 9439   5.037   4.421   2.661
 2847SOL    HW1 9440   5.019   4.440   2.565
 2847SOL    HW2 9441   5.030   4.322   2.678
 2848SOL     OW 9442   0.606   4.130   4.843
 2848SOL    HW1 9443   0.684   4.113   4.783
 2848SOL    HW2 9444   0.557   4.044   4.859
 2849SOL     OW 9445   4.434   0.438   2.933
 2849SOL    HW1 9446   4.509   0.373   2.920
 2849SOL    HW2 9447   4.351   0.389   2.959
 2850SOL     OW 9448   2.669   0.177   3.145
 2850SOL    HW1 9449   2.744   0.128   3.191
 2850SOL    HW2 9450   2.689   0.276   3.147
 2851SOL     OW 9451   3.968   3.045   0.891
 2851SOL    HW1 9452   3.999   3.063   0.984
 2851SOL    HW2 9453   3.894   2.978   0.892
 2852SOL     OW 9454   6.321   4.281   5.702
 2852SOL    HW1 9455   6.318   4.218   5.625
 2852SOL    HW2 9456   6.249   4.258   5.767
 2853SOL     OW 9457   0.740   3.942   7.002
 2853SOL    HW1 9458   0.682   3.874   6.957
 2853SOL    HW2 9459   0.770   4.009   6.934
 2854SOL     OW 9460   3.444   1.705   5.826
 2854SOL    HW1 9461   3.463   1.793   5.870
 2854SOL    HW2 9462   3.355   1.672   5.855
 2855SOL     OW 9463   1.980   1.242   4.140
 2855SOL    HW1 9464   1.905   1.176   4.142
 2855SOL    HW2 9465   2.037   1.226   4.059
 2856SOL     OW 9466   0.888   4.481   3.157
 2856SOL    HW1 9467   0.792   4.452   3.154
 2856SOL    HW2 9468   0.946   4.409   3.120
 2857SOL     OW 9469   6.784   3.432   0.547
 2857SOL    HW1 9470   6.824   3.495   0.481
 2857SOL    HW2 9471   6.846   3.356   0.563
 2858SOL     OW 9472   4.935   4.399   3.098
 2858SOL    HW1 9473   4.935   4.304   3.128
 2858SOL    HW2 9474   4.856   4.416   3.039
 2859SOL     OW 9475   5.484   4.730   1.758
 2859SOL    HW1 9476   5.514   4.670   1.684
 2859SOL    HW2 9477   5.507   4.689   1.846
 2860SOL     OW 9478   1.131   6.219   1.129
 2860SOL    HW1 9479   1.203   6.275   1.089
 2860SOL    HW2 9480   1.106   6.256   1.219
 2861SOL     OW 9481   4.475   4.790   0.048
 2861SOL    HW1 9482   4.440   4.720   0.112
 2861SOL    HW2 9483   4.573   4.802   0.062
 2862SOL     OW 9484   4.215   3.038   0.843
 2862SOL    HW1 9485   4.116   3.031   0.839
 2862SOL    HW2 9486   4.250   3.076   0.757
 2863SOL     OW 9487   5.982   0.480   5.416
 2863SOL    HW1 9488   5.946   0.515   5.502
 2863SOL    HW2 9489   6.078   0.455   5.427
 2864SOL     OW 9490   3.953   3.774   0.185
 2864SOL    HW1 9491   3.920   3.694   0.234
 2864SOL    HW2 9492   3.916   3.857   0.227
 2865SOL     OW 9493   5.149   5.627   4.786
 2865SOL    HW1 9494   5.098   5.560   4.731
 2865SOL    HW2 9495   5.247   5.609   4.776
 2866SOL     OW 9496   4.101   4.683   0.094
 2866SOL    HW1 9497   4.094   4.718   0.001
 2866SOL    HW2 9498   4.103   4.583   0.092
 2867SOL     OW 9499   5.661   6.172   1.896
 2867SOL    HW1 9500   5.754   6.205   1.914
 2867SOL    HW2 9501   5.636   6.194   1.802
 2868SOL     OW 9502   1.379   1.604   6.146
 2868SOL    HW1 9503   1.434   1.632   6.068
 2868SOL    HW2 9504   1.291   1.569   6.114
 2869SOL     OW 9505   5.019   5.300   3.749
 2869SOL    HW1 9506   4.956   5.241   3.799
 2869SOL    HW2 9507   5.053   5.252   3.668
 2870SOL     OW 9508   6.764   1.802   1.657
 2870SOL    HW1 9509   6.723   1.719   1.620
 2870SOL    HW2 9510   6.864   1.792   1.659
 2871SOL     OW 9511   5.443   1.669   1.340
 2871SOL    HW1 9512   5.345   1.690   1.330
 2871SOL    HW2 9513   5.486   1.741   1.395
 2872SOL     OW 9514   2.263   2.146   2.237
 2872SOL    HW1 9515   2.246   2.088   2.158
 2872SOL    HW2 9516   2.234   2.098   2.320
 2873SOL     OW 9517   0.791   6.548   1.195
 2873SOL    HW1 9518   0.890   6.563   1.200
 2873SOL    HW2 9519   0.748   6.579   1.280
 2874SOL     OW 9520   2.005   0.879   2.915
 2874SOL    HW1 9521   1.935   0.817   2.951
 2874SOL    HW2 9522   1.969   0.926   2.835
 2875SOL     OW 9523   2.685   6.721   3.172
 2875SOL    HW1 9524   2.620   6.672   3.230
 2875SOL    HW2 9525   2.756   6.763   3.229
 2876SOL     OW 9526   1.423   6.068   2.091
 2876SOL    HW1 9527   1.416   6.163   2.124
 2876SOL    HW2 9528   1.515   6.052   2.055
 2877SOL     OW 9529   1.410   1.000   5.903
 2877SOL    HW1 9530   1.451   1.035   5.987
 2877SOL    HW2 9531   1.356   1.072   5.860
 2878SOL     OW 9532   4.160   3.516   4.637
 2878SOL    HW1 9533   4.259   3.512   4.643
 2878SOL    HW2 9534   4.127   3.446   4.574
 2879SOL     OW 9535   4.453   4.738   6.642
 2879SOL    HW1 9536   4.548   4.722   6.670
 2879SOL    HW2 9537   4.443   4.713   6.545
 2880SOL     OW 9538   1.350   1.045   5.031
 2880SOL    HW1 9539   1.442   1.025   4.996
 2880SOL    HW2 9540   1.357   1.109   5.108
 2881SOL     OW 9541   3.826   6.125   6.640
 2881SOL    HW1 9542   3.844   6.099   6.735
 2881SOL    HW2 9543   3.775   6.211   6.639
 2882SOL     OW 9544   4.466   6.393   0.526
 2882SOL    HW1 9545   4.445   6.317   0.588
 2882SOL    HW2 9546   4.564   6.396   0.509
 2883SOL     OW 9547   6.224   6.269   3.330
 2883SOL    HW1 9548   6.128   6.261   3.355
 2883SOL    HW2 9549   6.236   6.343   3.265
 2884SOL     OW 9550   6.845   5.312   3.073
 2884SOL    HW1 9551   6.758   5.359   3.086
 2884SOL    HW2 9552   6.917   5.362   3.120
 2885SOL     OW 9553   0.919   3.002   2.907
 2885SOL    HW1 9554   0.862   3.071   2.862
 2885SOL    HW2 9555   0.888   2.911   2.881
 2886SOL     OW 9556   2.593   4.376   6.097
 2886SOL    HW1 9557   2.619   4.369   6.194
 2886SOL    HW2 9558   2.612   4.290   6.051
 2887SOL     OW 9559   1.276   5.787   3.384
 2887SOL    HW1 9560   1.185   5.828   3.387
 2887SOL    HW2 9561   1.310   5.788   3.290
 2888SOL     OW 9562   6.318   6.547   0.750
 2888SOL    HW1 9563   6.348   6.634   0.789
 2888SOL    HW2 9564   6.261   6.499   0.815
 2889SOL     OW 9565   3.310   6.447   3.260
 2889SOL    HW1 9566   3.286   6.515   3.329
 2889SOL    HW2 9567   3.356   6.491   3.184
 2890SOL     OW 9568   2.399   0.553   0.929
 2890SOL    HW1 9569   2.351   0.640   0.944
 2890SOL    HW2 9570   2.331   0.480   0.916
 2891SOL     OW 9571   0.463   3.156   3.669
 2891SOL    HW1 9572   0.364   3.171   3.669
 2891SOL    HW2 9573   0.502   3.193   3.753
 2892SOL     OW 9574   6.875   3.591   1.556
 2892SOL    HW1 9575   6.864   3.550   1.647
 2892SOL    HW2 9576   6.828   3.679   1.555
 2893SOL     OW 9577   0.229   5.059   4.418
 2893SOL    HW1 9578   0.236   5.120   4.497
 2893SOL    HW2 9579   0.134   5.029   4.407
 2894SOL     OW 9580   1.349   5.225   2.072
 2894SOL    HW1 9581   1.387   5.181   1.991
 2894SOL    HW2 9582   1.376   5.321   2.073
 2895SOL     OW 9583   3.980   6.436   6.032
 2895SOL    HW1 9584   3.936   6.363   5.979
 2895SOL    HW2 9585   3.935   6.523   6.013
 2896SOL     OW 9586   6.194   6.188   4.854
 2896SOL    HW1 9587   6.245   6.184   4.940
 2896SOL    HW2 9588   6.098   6.211   4.873
 2897SOL     OW 9589   4.056   4.712   2.626
 2897SOL    HW1 9590   3.962   4.698   2.594
 2897SOL    HW2 9591   4.061   4.692   2.724
 2898SOL     OW 9592   5.794   4.133   2.087
 2898SOL    HW1 9593   5.734   4.053   2.100
 2898SOL    HW2 9594   5.866   4.132   2.156
 2899SOL     OW 9595   6.937   3.123   0.928
 2899SOL    HW1 9596   6.962   3.042   0.982
 2899SOL    HW2 9597   6.921   3.096   0.833
 2900SOL     OW 9598   2.851   3.993   0.235
 2900SOL    HW1 9599   2.900   3.918   0.191
 2900SOL    HW2 9600   2.819   4.058   0.166
 2901SOL     OW 9601   1.748   3.751   3.434
 2901SOL    HW1 9602   1.767   3.846   3.410
 2901SOL    HW2 9603   1.677   3.715   3.374
 2902SOL     OW 9604   1.138   5.796   4.063
 2902SOL    HW1 9605   1.041   5.784   4.082
 2902SOL    HW2 9606   1.188   5.802   4.150
 2903SOL     OW 9607   4.447   5.783   1.041
 2903SOL    HW1 9608   4.526   5.839   1.068
 2903SOL    HW2 9609   4.442   5.780   0.941
 2904SOL     OW 9610   2.372   4.382   5.147
 2904SOL    HW1 9611   2.425   4.400   5.064
 2904SOL    HW2 9612   2.282   4.346   5.122
 2905SOL     OW 9613   0.781   4.981   1.729
 2905SOL    HW1 9614   0.712   4.945   1.666
 2905SOL    HW2 9615   0.756   5.074   1.756
 2906SOL     OW 9616   6.107   5.772   3.682
 2906SOL    HW1 9617   6.091   5.870   3.686
 2906SOL    HW2 9618   6.109   5.742   3.587
 2907SOL     OW 9619   0.908   0.338   3.478
 2907SOL    HW1 9620   0.885   0.343   3.381
 2907SOL    HW2 9621   0.827   0.359   3.532
 2908SOL     OW 9622   4.653   6.956   3.090
 2908SOL    HW1 9623   4.589   0.000   3.054
 2908SOL    HW2 9624   4.623   6.926   3.181
 2909SOL     OW 9625   1.156   5.644   2.637
 2909SOL    HW1 9626   1.181   5.587   2.558
 2909SOL    HW2 9627   1.236   5.655   2.696
 2910SOL     OW 9628   0.204   0.234   3.354
 2910SOL    HW1 9629   0.137   0.266   3.422
 2910SOL    HW2 9630   0.296   0.244   3.391
 2911SOL     OW 9631   6.583   3.608   4.472
 2911SOL    HW1 9632   6.650   3.617   4.546
 2911SOL    HW2 9633   6.601   3.524   4.421
 2912SOL     OW 9634   0.084   6.900   0.817
 2912SOL    HW1 9635   0.160   6.943   0.866
 2912SOL    HW2 9636   0.117   6.865   0.729
 2913SOL     OW 9637   2.477   5.985   1.289
 2913SOL    HW1 9638   2.493   5.905   1.346
 2913SOL    HW2 9639   2.392   6.030   1.316
 2914SOL     OW 9640   5.102   5.022   0.324
 2914SOL    HW1 9641   5.137   5.112   0.348
 2914SOL    HW2 9642   5.105   4.962   0.404
 2915SOL     OW 9643   2.971   1.373   3.378
 2915SOL    HW1 9644   3.057   1.405   3.418
 2915SOL    HW2 9645   2.903   1.447   3.384
 2916SOL     OW 9646   1.328   5.857   0.503
 2916SOL    HW1 9647   1.330   5.934   0.566
 2916SOL    HW2 9648   1.344   5.890   0.410
 2917SOL     OW 9649   2.929   6.647   3.962
 2917SOL    HW1 9650   2.993   6.571   3.970
 2917SOL    HW2 9651   2.904   6.661   3.866
 2918SOL     OW 9652   6.187   3.655   1.390
 2918SOL    HW1 9653   6.251   3.585   1.420
 2918SOL    HW2 9654   6.126   3.617   1.320
 2919SOL     OW 9655   1.195   5.823   3.800
 2919SOL    HW1 9656   1.158   5.827   3.894
 2919SOL    HW2 9657   1.170   5.906   3.751
 2920SOL     OW 9658   1.138   2.546   1.987
 2920SOL    HW1 9659   1.043   2.549   1.955
 2920SOL    HW2 9660   1.139   2.521   2.084
 2921SOL     OW 9661   0.291   0.280   5.731
 2921SOL    HW1 9662   0.265   0.184   5.737
 2921SOL    HW2 9663   0.385   0.287   5.697
 2922SOL     OW 9664   3.724   0.508   3.474
 2922SOL    HW1 9665   3.741   0.410   3.476
 2922SOL    HW2 9666   3.685   0.537   3.561
 2923SOL     OW 9667   6.323   4.814   4.623
 2923SOL    HW1 9668   6.243   4.851   4.670
 2923SOL    HW2 9669   6.374   4.755   4.685
 2924SOL     OW 9670   6.734   2.629   5.352
 2924SOL    HW1 9671   6.667   2.563   5.319
 2924SOL    HW2 9672   6.698   2.676   5.433
 2925SOL     OW 9673   5.406   0.271   6.372
 2925SOL    HW1 9674   5.504   0.256   6.373
 2925SOL    HW2 9675   5.379   0.311   6.284
 2926SOL     OW 9676   0.107   1.967   4.677
 2926SOL    HW1 9677   0.191   1.939   4.724
 2926SOL    HW2 9678   0.030   1.913   4.712
 2927SOL     OW 9679   1.212   2.810   1.601
 2927SOL    HW1 9680   1.179   2.889   1.654
 2927SOL    HW2 9681   1.189   2.823   1.505
 2928SOL     OW 9682   6.700   2.446   0.297
 2928SOL    HW1 9683   6.782   2.448   0.241
 2928SOL    HW2 9684   6.722   2.479   0.389
 2929SOL     OW 9685   1.587   2.651   4.787
 2929SOL    HW1 9686   1.579   2.697   4.875
 2929SOL    HW2 9687   1.519   2.689   4.724
 2930SOL     OW 9688   0.508   5.358   5.556
 2930SOL    HW1 9689   0.530   5.334   5.461
 2930SOL    HW2 9690   0.411   5.340   5.573
 2931SOL     OW 9691   4.645   4.148   5.899
 2931SOL    HW1 9692   4.733   4.135   5.853
 2931SOL    HW2 9693   4.647   4.104   5.988
 2932SOL     OW 9694   6.600   5.714   0.458
 2932SOL    HW1 9695   6.609   5.729   0.556
 2932SOL    HW2 9696   6.540   5.635   0.443
 2933SOL     OW 9697   1.434   0.249   0.397
 2933SOL    HW1 9698   1.453   0.347   0.399
 2933SOL    HW2 9699   1.464   0.208   0.483
 2934SOL     OW 9700   4.047   4.654   0.535
 2934SOL    HW1 9701   4.003   4.731   0.490
 2934SOL    HW2 9702   4.063   4.581   0.469
 2935SOL     OW 9703   6.943   2.538   6.082
 2935SOL    HW1 9704   6.953   2.508   5.988
 2935SOL    HW2 9705   6.876   2.480   6.129
 2936SOL     OW 9706   4.907   6.883   1.219
 2936SOL    HW1 9707   4.908   6.970   1.169
 2936SOL    HW2 9708   4.873   6.898   1.312
 2937SOL     OW 9709   4.751   5.556   2.046
 2937SOL    HW1 9710   4.780   5.649   2.068
 2937SOL    HW2 9711   4.831   5.496   2.045
 2938SOL     OW 9712   6.275   5.443   6.640
 2938SOL    HW1 9713   6.187   5.405   6.667
 2938SOL    HW2 9714   6.262   5.508   6.565
 2939SOL     OW 9715   0.173   5.978   1.452
 2939SOL    HW1 9716   0.258   5.930   1.471
 2939SOL    HW2 9717   0.116   5.923   1.391
 2940SOL     OW 9718   4.410   5.834   4.133
 2940SOL    HW1 9719   4.399   5.827   4.034
 2940SOL    HW2 9720   4.447   5.748   4.169
 2941SOL     OW 9721   1.795   3.744   4.142
 2941SOL    HW1 9722   1.758   3.697   4.063
 2941SOL    HW2 9723   1.878   3.697   4.173
 2942SOL     OW 9724   3.897   1.489   0.822
 2942SOL    HW1 9725   3.984   1.481   0.773
 2942SOL    HW2 9726   3.909   1.548   0.902
 2943SOL     OW 9727   5.830   4.245   3.339
 2943SOL    HW1 9728   5.799   4.203   3.425
 2943SOL    HW2 9729   5.920   4.286   3.353
 2944SOL     OW 9730   2.037   5.792   3.623
 2944SOL    HW1 9731   1.987   5.844   3.554
 2944SOL    HW2 9732   2.117   5.748   3.580
 2945SOL     OW 9733   4.907   4.310   1.234
 2945SOL    HW1 9734   4.990   4.286   1.184
 2945SOL    HW2 9735   4.881   4.233   1.293
 2946SOL     OW 9736   3.106   4.065   6.116
 2946SOL    HW1 9737   3.151   4.114   6.042
 2946SOL    HW2 9738   3.149   4.090   6.203
 2947SOL     OW 9739   5.829   6.432   0.351
 2947SOL    HW1 9740   5.920   6.399   0.326
 2947SOL    HW2 9741   5.826   6.450   0.449
 2948SOL     OW 9742   6.004   3.802   2.316
 2948SOL    HW1 9743   6.066   3.870   2.355
 2948SOL    HW2 9744   5.924   3.792   2.376
 2949SOL     OW 9745   1.264   6.856   0.663
 2949SOL    HW1 9746   1.335   6.808   0.612
 2949SOL    HW2 9747   1.178   6.807   0.654
 2950SOL     OW 9748   4.817   4.719   2.579
 2950SOL    HW1 9749   4.793   4.673   2.665
 2950SOL    HW2 9750   4.913   4.744   2.580
 2951SOL     OW 9751   6.039   1.345   1.780
 2951SOL    HW1 9752   6.112   1.392   1.731
 2951SOL    HW2 9753   6.003   1.406   1.852
 2952SOL     OW 9754   5.708   1.367   4.164
 2952SOL    HW1 9755   5.631   1.431   4.173
 2952SOL    HW2 9756   5.722   1.319   4.250
 2953SOL     OW 9757   0.950   5.580   3.447
 2953SOL    HW1 9758   0.948   5.612   3.542
 2953SOL    HW2 9759   1.045   5.559   3.421
 2954SOL     OW 9760   0.482   4.684   6.313
 2954SOL    HW1 9761   0.502   4.705   6.218
 2954SOL    HW2 9762   0.437   4.595   6.319
 2955SOL     OW 9763   1.736   4.193   0.043
 2955SOL    HW1 9764   1.696   4.128   0.108
 2955SOL    HW2 9765   1.833   4.172   0.031
 2956SOL     OW 9766   6.288   4.405   3.324
 2956SOL    HW1 9767   6.196   4.425   3.290
 2956SOL    HW2 9768   6.315   4.475   3.390
 2957SOL     OW 9769   2.873   5.506   1.922
 2957SOL    HW1 9770   2.871   5.606   1.922
 2957SOL    HW2 9771   2.780   5.471   1.916
 2958SOL     OW 9772   2.484   5.232   3.401
 2958SOL    HW1 9773   2.504   5.138   3.426
 2958SOL    HW2 9774   2.513   5.248   3.306
 2959SOL     OW 9775   6.640   2.684   2.847
 2959SOL    HW1 9776   6.682   2.668   2.937
 2959SOL    HW2 9777   6.553   2.733   2.860
 2960SOL     OW 9778   4.646   0.919   0.592
 2960SOL    HW1 9779   4.653   0.900   0.495
 2960SOL    HW2 9780   4.690   1.006   0.613
 2961SOL     OW 9781   5.654   3.971   2.522
 2961SOL    HW1 9782   5.626   4.030   2.446
 2961SOL    HW2 9783   5.580   3.967   2.589
 2962SOL     OW 9784   0.261   6.832   2.071
 2962SOL    HW1 9785   0.300   6.891   2.000
 2962SOL    HW2 9786   0.186   6.879   2.117
 2963SOL     OW 9787   1.730   1.135   4.742
 2963SOL    HW1 9788   1.803   1.085   4.696
 2963SOL    HW2 9789   1.697   1.208   4.682
 2964SOL     OW 9790   0.977   2.464   0.003
 2964SOL    HW1 9791   0.975   2.496   6.932
 2964SOL    HW2 9792   0.892   2.490   0.049
 2965SOL     OW 9793   0.761   0.366   4.543
 2965SOL    HW1 9794   0.720   0.300   4.479
 2965SOL    HW2 9795   0.825   0.319   4.603
 2966SOL     OW 9796   4.461   5.756   3.355
 2966SOL    HW1 9797   4.436   5.853   3.348
 2966SOL    HW2 9798   4.536   5.736   3.292
 2967SOL     OW 9799   6.477   0.602   5.373
 2967SOL    HW1 9800   6.574   0.599   5.399
 2967SOL    HW2 9801   6.464   0.552   5.288
 2968SOL     OW 9802   2.024   2.155   0.968
 2968SOL    HW1 9803   2.088   2.196   1.033
 2968SOL    HW2 9804   2.007   2.220   0.894
 2969SOL     OW 9805   5.328   3.410   4.760
 2969SOL    HW1 9806   5.335   3.389   4.663
 2969SOL    HW2 9807   5.408   3.374   4.808
 2970SOL     OW 9808   2.440   2.410   4.314
 2970SOL    HW1 9809   2.371   2.418   4.386
 2970SOL    HW2 9810   2.419   2.476   4.241
 2971SOL     OW 9811   5.403   3.433   6.312
 2971SOL    HW1 9812   5.401   3.404   6.408
 2971SOL    HW2 9813   5.420   3.354   6.254
 2972SOL     OW 9814   5.558   4.901   6.861
 2972SOL    HW1 9815   5.547   4.845   6.943
 2972SOL    HW2 9816   5.643   4.953   6.866
 2973SOL     OW 9817   5.186   6.976   2.332
 2973SOL    HW1 9818   5.245   6.928   2.267
 2973SOL    HW2 9819   5.110   6.916   2.358
 2974SOL     OW 9820   4.772   5.351   3.408
 2974SOL    HW1 9821   4.787   5.253   3.392
 2974SOL    HW2 9822   4.746   5.395   3.322
 2975SOL     OW 9823   4.921   4.474   3.948
 2975SOL    HW1 9824   4.882   4.545   3.890
 2975SOL    HW2 9825   4.849   4.410   3.976
 2976SOL     OW 9826   4.381   2.354   1.922
 2976SOL    HW1 9827   4.436   2.429   1.884
 2976SOL    HW2 9828   4.378   2.362   2.022
 2977SOL     OW 9829   1.073   0.701   1.640
 2977SOL    HW1 9830   1.164   0.709   1.681
 2977SOL    HW2 9831   1.007   0.677   1.711
 2978SOL     OW 9832   4.719   4.689   6.712
 2978SOL    HW1 9833   4.769   4.686   6.799
 2978SOL    HW2 9834   4.763   4.753   6.650
 2979SOL     OW 9835   3.251   1.211   3.926
 2979SOL    HW1 9836   3.176   1.277   3.924
 2979SOL    HW2 9837   3.322   1.244   3.988
 2980SOL     OW 9838   3.881   4.013   5.602
 2980SOL    HW1 9839   3.845   3.971   5.685
 2980SOL    HW2 9840   3.980   4.023   5.609
 2981SOL     OW 9841   1.411   1.056   0.592
 2981SOL    HW1 9842   1.313   1.074   0.582
 2981SOL    HW2 9843   1.463   1.119   0.534
 2982SOL     OW 9844   0.949   0.971   1.741
 2982SOL    HW1 9845   0.975   0.879   1.714
 2982SOL    HW2 9846   0.962   0.982   1.839
 2983SOL     OW 9847   6.098   2.946   6.363
 2983SOL    HW1 9848   6.175   2.900   6.407
 2983SOL    HW2 9849   6.118   2.962   6.267
 2984SOL     OW 9850   0.065   4.855   0.555
 2984SOL    HW1 9851   0.074   4.815   0.646
 2984SOL    HW2 9852   0.037   4.951   0.563
 2985SOL     OW 9853   0.382   0.124   4.607
 2985SOL    HW1 9854   0.425   0.214   4.613
 2985SOL    HW2 9855   0.334   0.116   4.520
 2986SOL     OW 9856   3.466   4.112   2.717
 2986SOL    HW1 9857   3.527   4.180   2.677
 2986SOL    HW2 9858   3.433   4.051   2.646
 2987SOL     OW 9859   1.519   0.869   4.409
 2987SOL    HW1 9860   1.454   0.855   4.334
 2987SOL    HW2 9861   1.469   0.889   4.493
 2988SOL     OW 9862   0.787   1.913   0.333
 2988SOL    HW1 9863   0.792   2.011   0.355
 2988SOL    HW2 9864   0.812   1.899   0.237
 2989SOL     OW 9865   5.094   3.579   4.517
 2989SOL    HW1 9866   5.091   3.558   4.615
 2989SOL    HW2 9867   5.124   3.673   4.504
 2990SOL     OW 9868   4.992   2.172   4.550
 2990SOL    HW1 9869   5.084   2.155   4.516
 2990SOL    HW2 9870   4.979   2.124   4.637
 2991SOL     OW 9871   5.632   3.708   0.913
 2991SOL    HW1 9872   5.664   3.780   0.974
 2991SOL    HW2 9873   5.552   3.663   0.955
 2992SOL     OW 9874   0.393   3.171   5.340
 2992SOL    HW1 9875   0.477   3.172   5.395
 2992SOL    HW2 9876   0.406   3.226   5.258
 2993SOL     OW 9877   1.168   4.546   0.380
 2993SOL    HW1 9878   1.094   4.610   0.400
 2993SOL    HW2 9879   1.255   4.595   0.383
 2994SOL     OW 9880   4.765   6.930   0.022
 2994SOL    HW1 9881   4.711   7.004   7.005
 2994SOL    HW2 9882   4.854   6.965   0.050
 2995SOL     OW 9883   5.266   0.085   0.953
 2995SOL    HW1 9884   5.267   0.007   0.891
 2995SOL    HW2 9885   5.317   0.062   1.036
 2996SOL     OW 9886   0.329   1.610   4.626
 2996SOL    HW1 9887   0.419   1.593   4.585
 2996SOL    HW2 9888   0.340   1.662   4.711
 2997SOL     OW 9889   4.975   0.583   3.783
 2997SOL    HW1 9890   4.922   0.641   3.721
 2997SOL    HW2 9891   5.067   0.570   3.746
 2998SOL     OW 9892   2.648   1.284   2.536
 2998SOL    HW1 9893   2.744   1.257   2.544
 2998SOL    HW2 9894   2.642   1.384   2.530
 2999SOL     OW 9895   3.083   4.391   0.169
 2999SOL    HW1 9896   3.138   4.366   0.089
 2999SOL    HW2 9897   2.987   4.396   0.142
 3000SOL     OW 9898   2.897   3.575   5.249
 3000SOL    HW1 9899   2.874   3.478   5.255
 3000SOL    HW2 9900   2.985   3.586   5.203
 3001SOL     OW 9901   6.453   1.092   5.900
 3001SOL    HW1 9902   6.477   1.116   5.805
 3001SOL    HW2 9903   6.372   1.033   5.899
 3002SOL     OW 9904   2.346   1.216   1.621
 3002SOL    HW1 9905   2.442   1.239   1.609
 3002SOL    HW2 9906   2.291   1.300   1.624
 3003SOL     OW 9907   1.566   6.249   0.193
 3003SOL    HW1 9908   1.623   6.173   0.161
 3003SOL    HW2 9909   1.486   6.212   0.241
 3004SOL     OW 9910   2.823   5.874   4.131
 3004SOL    HW1 9911   2.811   5.833   4.041
 3004SOL    HW2 9912   2.744   5.853   4.188
 3005SOL     OW 9913   0.947   2.495   5.351
 3005SOL    HW1 9914   0.853   2.527   5.346
 3005SOL    HW2 9915   1.001   2.559   5.406
 3006SOL     OW 9916   5.970   1.738   5.318
 3006SOL    HW1 9917   6.006   1.683   5.243
 3006SOL    HW2 9918   5.971   1.684   5.402
 3007SOL     OW 9919   5.078   4.207   6.831
 3007SOL    HW1 9920   5.048   4.146   6.758
 3007SOL    HW2 9921   5.006   4.214   6.900
 3008SOL     OW 9922   4.689   2.424   5.520
 3008SOL    HW1 9923   4.781   2.452   5.494
 3008SOL    HW2 9924   4.680   2.325   5.511
 3009SOL     OW 9925   0.524   3.446   2.552
 3009SOL    HW1 9926   0.457   3.510   2.516
 3009SOL    HW2 9927   0.519   3.359   2.502
 3010SOL     OW 9928   4.292   6.091   6.007
 3010SOL    HW1 9929   4.339   6.064   6.091
 3010SOL    HW2 9930   4.339   6.050   5.929
 3011SOL     OW 9931   6.347   0.241   0.894
 3011SOL    HW1 9932   6.329   0.176   0.968
 3011SOL    HW2 9933   6.398   0.196   0.821
 3012SOL     OW 9934   2.491   2.828   6.184
 3012SOL    HW1 9935   2.470   2.911   6.132
 3012SOL    HW2 9936   2.461   2.748   6.132
 3013SOL     OW 9937   0.560   6.056   4.793
 3013SOL    HW1 9938   0.634   6.119   4.816
 3013SOL    HW2 9939   0.598   5.965   4.775
 3014SOL     OW 9940   4.646   0.415   5.473
 3014SOL    HW1 9941   4.686   0.393   5.562
 3014SOL    HW2 9942   4.718   0.423   5.405
 3015SOL     OW 9943   1.310   1.289   0.085
 3015SOL    HW1 9944   1.368   1.226   0.034
 3015SOL    HW2 9945   1.359   1.323   0.165
 3016SOL     OW 9946   2.341   6.309   4.731
 3016SOL    HW1 9947   2.306   6.401   4.717
 3016SOL    HW2 9948   2.328   6.255   4.647
 3017SOL     OW 9949   6.824   5.769   1.180
 3017SOL    HW1 9950   6.746   5.759   1.119
 3017SOL    HW2 9951   6.799   5.734   1.271
 3018SOL     OW 9952   3.727   6.817   6.686
 3018SOL    HW1 9953   3.761   6.723   6.687
 3018SOL    HW2 9954   3.627   6.816   6.692
 3019SOL     OW 9955   1.532   0.279   4.940
 3019SOL    HW1 9956   1.526   0.350   5.010
 3019SOL    HW2 9957   1.448   0.280   4.885
 3020SOL     OW 9958   4.863   3.580   0.204
 3020SOL    HW1 9959   4.840   3.610   0.296
 3020SOL    HW2 9960   4.788   3.525   0.167
 3021SOL     OW 9961   3.954   6.456   5.048
 3021SOL    HW1 9962   3.889   6.382   5.028
 3021SOL    HW2 9963   3.968   6.462   5.146
 3022SOL     OW 9964   4.546   5.586   3.753
 3022SOL    HW1 9965   4.484   5.663   3.761
 3022SOL    HW2 9966   4.626   5.613   3.698
 3023SOL     OW 9967   4.273   6.777   3.324
 3023SOL    HW1 9968   4.287   6.728   3.238
 3023SOL    HW2 9969   4.275   6.875   3.307
 3024SOL     OW 9970   0.205   6.473   6.841
 3024SOL    HW1 9971   0.293   6.518   6.857
 3024SOL    HW2 9972   0.159   6.460   6.928
 3025SOL     OW 9973   3.585   6.184   0.669
 3025SOL    HW1 9974   3.594   6.279   0.640
 3025SOL    HW2 9975   3.491   6.153   0.653
 3026SOL     OW 9976   6.220   0.997   0.374
 3026SOL    HW1 9977   6.307   1.040   0.348
 3026SOL    HW2 9978   6.157   0.999   0.296
 3027SOL     OW 9979   5.059   1.642   1.598
 3027SOL    HW1 9980   5.054   1.704   1.520
 3027SOL    HW2 9981   5.032   1.550   1.570
 3028SOL     OW 9982   2.489   4.547   5.882
 3028SOL    HW1 9983   2.514   4.473   5.944
 3028SOL    HW2 9984   2.463   4.508   5.793
 3029SOL     OW 9985   0.728   2.670   4.197
 3029SOL    HW1 9986   0.758   2.601   4.131
 3029SOL    HW2 9987   0.796   2.678   4.270
 3030SOL     OW 9988   2.361   3.337   0.483
 3030SOL    HW1 9989   2.338   3.431   0.458
 3030SOL    HW2 9990   2.278   3.281   0.483
 3031SOL     OW 9991   1.051   6.312   1.377
 3031SOL    HW1 9992   1.045   6.216   1.405
 3031SOL    HW2 9993   1.046   6.370   1.457
 3032SOL     OW 9994   2.111   0.280   2.493
 3032SOL    HW1 9995   2.091   0.354   2.557
 3032SOL    HW2 9996   2.122   0.318   2.401
 3033SOL     OW 9997   6.735   1.945   4.154
 3033SOL    HW1 9998   6.729   1.953   4.253
 3033SOL    HW2 9999   6.690   2.024   4.111
 3034SOL     OW10000   0.375   5.739   3.620
 3034SOL    HW110001   0.385   5.832   3.654
 3034SOL    HW210002   0.434   5.678   3.672
 3035SOL     OW10003   0.993   2.830   6.099
 3035SOL    HW110004   1.022   2.749   6.150
 3035SOL    HW210005   1.043   2.834   6.013
 3036SOL     OW10006   3.071   2.299   6.256
 3036SOL    HW110007   3.050   2.396   6.265
 3036SOL    HW210008   3.169   2.286   6.243
 3037SOL     OW10009   0.267   5.409   0.006
 3037SOL    HW110010   0.315   5.443   6.949
 3037SOL    HW210011   0.176   5.377   7.003
 3038SOL     OW10012   5.334   4.385   6.446
 3038SOL    HW110013   5.237   4.380   6.468
 3038SOL    HW210014   5.388   4.387   6.530
 3039SOL     OW10015   6.771   4.233   6.973
 3039SOL    HW110016   6.786   4.175   6.893
 3039SOL    HW210017   6.814   4.192   0.030
 3040SOL     OW10018   4.543   3.929   5.791
 3040SOL    HW110019   4.571   3.862   5.860
 3040SOL    HW210020   4.567   4.021   5.822
 3041SOL     OW10021   2.238   4.223   4.810
 3041SOL    HW110022   2.263   4.170   4.891
 3041SOL    HW210023   2.146   4.196   4.780
 3042SOL     OW10024   0.197   5.147   3.268
 3042SOL    HW110025   0.203   5.183   3.361
 3042SOL    HW210026   0.121   5.081   3.263
 3043SOL     OW10027   3.277   4.844   0.528
 3043SOL    HW110028   3.350   4.881   0.470
 3043SOL    HW210029   3.296   4.867   0.624
 3044SOL     OW10030   3.328   3.077   5.602
 3044SOL    HW110031   3.291   3.001   5.655
 3044SOL    HW210032   3.289   3.076   5.510
 3045SOL     OW10033   4.698   1.285   1.901
 3045SOL    HW110034   4.696   1.245   1.993
 3045SOL    HW210035   4.787   1.268   1.859
 3046SOL     OW10036   5.250   5.633   0.684
 3046SOL    HW110037   5.318   5.561   0.696
 3046SOL    HW210038   5.222   5.668   0.773
 3047SOL     OW10039   6.260   0.627   5.931
 3047SOL    HW110040   6.329   0.563   5.965
 3047SOL    HW210041   6.248   0.613   5.833
 3048SOL     OW10042   3.734   3.455   0.932
 3048SOL    HW110043   3.665   3.397   0.974
 3048SOL    HW210044   3.708   3.474   0.837
 3049SOL     OW10045   1.346   0.913   4.621
 3049SOL    HW110046   1.268   0.858   4.650
 3049SOL    HW210047   1.313   1.001   4.585
 3050SOL     OW10048   3.022   2.481   1.239
 3050SOL    HW110049   3.109   2.435   1.258
 3050SOL    HW210050   3.005   2.550   1.309
 3051SOL     OW10051   2.513   6.359   5.510
 3051SOL    HW110052   2.429   6.361   5.454
 3051SOL    HW210053   2.517   6.272   5.560
 3052SOL     OW10054   6.373   6.181   2.143
 3052SOL    HW110055   6.461   6.208   2.105
 3052SOL    HW210056   6.370   6.082   2.155
 3053SOL     OW10057   1.392   4.371   0.458
 3053SOL    HW110058   1.300   4.411   0.463
 3053SOL    HW210059   1.384   4.274   0.431
 3054SOL     OW10060   5.553   1.240   2.700
 3054SOL    HW110061   5.498   1.193   2.631
 3054SOL    HW210062   5.515   1.221   2.791
 3055SOL     OW10063   6.096   5.548   6.096
 3055SOL    HW110064   6.040   5.525   6.176
 3055SOL    HW210065   6.103   5.647   6.088
 3056SOL     OW10066   4.620   1.565   6.150
 3056SOL    HW110067   4.701   1.581   6.094
 3056SOL    HW210068   4.631   1.479   6.201
 3057SOL     OW10069   6.084   5.620   3.057
 3057SOL    HW110070   6.133   5.704   3.080
 3057SOL    HW210071   6.147   5.542   3.061
 3058SOL     OW10072   6.864   4.666   6.790
 3058SOL    HW110073   6.947   4.721   6.782
 3058SOL    HW210074   6.874   4.602   6.866
 3059SOL     OW10075   2.201   2.441   4.499
 3059SOL    HW110076   2.167   2.393   4.580
 3059SOL    HW210077   2.159   2.531   4.494
 3060SOL     OW10078   4.724   5.267   5.444
 3060SOL    HW110079   4.810   5.270   5.392
 3060SOL    HW210080   4.722   5.184   5.500
 3061SOL     OW10081   5.930   5.068   4.818
 3061SOL    HW110082   5.870   5.034   4.890
 3061SOL    HW210083   6.017   5.097   4.858
 3062SOL     OW10084   4.970   4.405   2.101
 3062SOL    HW110085   4.965   4.470   2.026
 3062SOL    HW210086   4.878   4.376   2.127
 3063SOL     OW10087   0.323   4.444   1.646
 3063SOL    HW110088   0.249   4.460   1.580
 3063SOL    HW210089   0.287   4.395   1.725
 3064SOL     OW10090   4.544   1.733   6.637
 3064SOL    HW110091   4.580   1.771   6.552
 3064SOL    HW210092   4.444   1.735   6.635
 3065SOL     OW10093   0.692   0.715   6.637
 3065SOL    HW110094   0.771   0.769   6.668
 3065SOL    HW210095   0.675   0.733   6.540
 3066SOL     OW10096   5.255   5.836   6.048
 3066SOL    HW110097   5.180   5.890   6.008
 3066SOL    HW210098   5.283   5.876   6.135
 3067SOL     OW10099   2.031   2.330   6.434
 3067SOL    HW110100   2.049   2.412   6.489
 3067SOL    HW210101   1.964   2.273   6.481
 3068SOL     OW10102   0.806   1.328   1.201
 3068SOL    HW110103   0.724   1.271   1.209
 3068SOL    HW210104   0.886   1.276   1.233
 3069SOL     OW10105   4.948   0.226   2.953
 3069SOL    HW110106   4.974   0.255   3.044
 3069SOL    HW210107   4.895   0.142   2.958
 3070SOL     OW10108   2.953   1.372   1.116
 3070SOL    HW110109   2.903   1.456   1.091
 3070SOL    HW210110   2.980   1.323   1.033
 3071SOL     OW10111   6.920   3.167   3.728
 3071SOL    HW110112   6.939   3.069   3.723
 3071SOL    HW210113   6.839   3.189   3.674
 3072SOL     OW10114   2.041   6.691   6.259
 3072SOL    HW110115   2.100   6.762   6.299
 3072SOL    HW210116   2.097   6.620   6.219
 3073SOL     OW10117   6.185   5.145   0.297
 3073SOL    HW110118   6.107   5.085   0.317
 3073SOL    HW210119   6.155   5.220   0.238
 3074SOL     OW10120   2.276   3.398   0.931
 3074SOL    HW110121   2.218   3.365   0.857
 3074SOL    HW210122   2.366   3.423   0.894
 3075SOL     OW10123   2.368   5.516   3.130
 3075SOL    HW110124   2.276   5.537   3.163
 3075SOL    HW210125   2.365   5.437   3.069
 3076SOL     OW10126   0.016   0.280   4.533
 3076SOL    HW110127   6.989   0.235   4.607
 3076SOL    HW210128   0.088   0.337   4.571
 3077SOL     OW10129   6.495   4.000   1.972
 3077SOL    HW110130   6.451   4.023   1.886
 3077SOL    HW210131   6.444   3.927   2.018
 3078SOL     OW10132   6.564   3.115   1.656
 3078SOL    HW110133   6.555   3.107   1.755
 3078SOL    HW210134   6.571   3.212   1.631
 3079SOL     OW10135   2.585   3.263   5.425
 3079SOL    HW110136   2.540   3.249   5.513
 3079SOL    HW210137   2.581   3.179   5.372
 3080SOL     OW10138   4.166   5.130   1.035
 3080SOL    HW110139   4.172   5.040   1.078
 3080SOL    HW210140   4.121   5.194   1.097
 3081SOL     OW10141   2.065   4.215   0.891
 3081SOL    HW110142   2.002   4.139   0.873
 3081SOL    HW210143   2.137   4.217   0.822
 3082SOL     OW10144   3.895   4.983   4.600
 3082SOL    HW110145   3.945   5.045   4.540
 3082SOL    HW210146   3.955   4.908   4.629
 3083SOL     OW10147   2.740   5.792   2.780
 3083SOL    HW110148   2.701   5.756   2.864
 3083SOL    HW210149   2.768   5.887   2.794
 3084SOL     OW10150   0.663   3.201   3.857
 3084SOL    HW110151   0.762   3.194   3.866
 3084SOL    HW210152   0.619   3.142   3.926
 3085SOL     OW10153   5.118   4.479   0.866
 3085SOL    HW110154   5.207   4.434   0.873
 3085SOL    HW210155   5.107   4.517   0.774
 3086SOL     OW10156   6.213   1.062   6.605
 3086SOL    HW110157   6.131   1.046   6.660
 3086SOL    HW210158   6.273   1.127   6.652
 3087SOL     OW10159   2.791   7.008   2.440
 3087SOL    HW110160   2.713   0.046   2.458
 3087SOL    HW210161   2.871   0.040   2.414
 3088SOL     OW10162   1.201   2.850   5.183
 3088SOL    HW110163   1.234   2.758   5.160
 3088SOL    HW210164   1.273   2.900   5.231
 3089SOL     OW10165   4.852   6.738   5.007
 3089SOL    HW110166   4.891   6.727   5.098
 3089SOL    HW210167   4.921   6.777   4.946
 3090SOL     OW10168   1.272   2.549   1.723
 3090SOL    HW110169   1.218   2.538   1.806
 3090SOL    HW210170   1.222   2.605   1.657
 3091SOL     OW10171   1.041   2.514   0.798
 3091SOL    HW110172   1.054   2.613   0.805
 3091SOL    HW210173   0.968   2.495   0.733
 3092SOL     OW10174   0.018   6.915   2.237
 3092SOL    HW110175   6.998   6.825   2.244
 3092SOL    HW210176   0.059   6.940   2.324
 3093SOL     OW10177   5.080   5.014   6.883
 3093SOL    HW110178   5.165   4.992   6.834
 3093SOL    HW210179   5.063   4.945   6.953
 3094SOL     OW10180   2.833   1.681   6.166
 3094SOL    HW110181   2.889   1.605   6.200
 3094SOL    HW210182   2.772   1.649   6.094
 3095SOL     OW10183   1.942   3.392   5.319
 3095SOL    HW110184   2.016   3.334   5.285
 3095SOL    HW210185   1.980   3.469   5.371
 3096SOL     OW10186   0.315   3.976   4.623
 3096SOL    HW110187   0.357   3.889   4.646
 3096SOL    HW210188   0.226   3.983   4.669
 3097SOL     OW10189   5.392   1.955   6.690
 3097SOL    HW110190   5.477   2.000   6.662
 3097SOL    HW210191   5.316   1.989   6.634
 3098SOL     OW10192   2.097   2.400   2.173
 3098SOL    HW110193   2.109   2.303   2.193
 3098SOL    HW210194   2.096   2.415   2.074
 3099SOL     OW10195   0.211   6.201   3.724
 3099SOL    HW110196   0.240   6.296   3.718
 3099SOL    HW210197   0.167   6.184   3.812
 3100SOL     OW10198   6.893   5.260   2.120
 3100SOL    HW110199   6.870   5.338   2.177
 3100SOL    HW210200   6.884   5.176   2.173
 3101SOL     OW10201   4.075   6.034   5.651
 3101SOL    HW110202   4.088   6.052   5.553
 3101SOL    HW210203   3.977   6.023   5.670
 3102SOL     OW10204   0.089   4.686   0.828
 3102SOL    HW110205   0.123   4.602   0.870
 3102SOL    HW210206   7.015   4.699   0.852
 3103SOL     OW10207   3.481   0.462   1.559
 3103SOL    HW110208   3.382   0.446   1.565
 3103SOL    HW210209   3.506   0.539   1.617
 3104SOL     OW10210   4.528   0.330   6.115
 3104SOL    HW110211   4.627   0.318   6.113
 3104SOL    HW210212   4.499   0.359   6.206
 3105SOL     OW10213   5.169   3.309   0.283
 3105SOL    HW110214   5.097   3.250   0.247
 3105SOL    HW210215   5.129   3.386   0.333
 3106SOL     OW10216   5.730   0.531   5.027
 3106SOL    HW110217   5.782   0.542   4.942
 3106SOL    HW210218   5.768   0.592   5.096
 3107SOL     OW10219   3.986   0.919   6.114
 3107SOL    HW110220   3.912   0.917   6.047
 3107SOL    HW210221   3.983   1.005   6.164
 3108SOL     OW10222   1.917   4.457   4.144
 3108SOL    HW110223   1.965   4.456   4.232
 3108SOL    HW210224   1.973   4.506   4.077
 3109SOL     OW10225   6.756   6.420   4.048
 3109SOL    HW110226   6.846   6.459   4.027
 3109SOL    HW210227   6.695   6.431   3.970
 3110SOL     OW10228   2.149   4.775   3.779
 3110SOL    HW110229   2.151   4.705   3.707
 3110SOL    HW210230   2.108   4.858   3.743
 3111SOL     OW10231   6.055   4.518   4.440
 3111SOL    HW110232   5.981   4.457   4.414
 3111SOL    HW210233   6.076   4.505   4.537
 3112SOL     OW10234   3.457   2.284   6.846
 3112SOL    HW110235   3.454   2.186   6.829
 3112SOL    HW210236   3.460   2.301   6.945
 3113SOL     OW10237   1.839   5.119   3.127
 3113SOL    HW110238   1.933   5.087   3.120
 3113SOL    HW210239   1.836   5.219   3.116
 3114SOL     OW10240   4.444   0.833   0.095
 3114SOL    HW110241   4.541   0.818   0.113
 3114SOL    HW210242   4.426   0.931   0.088
 3115SOL     OW10243   4.129   4.938   5.387
 3115SOL    HW110244   4.085   4.970   5.470
 3115SOL    HW210245   4.085   4.978   5.307
 3116SOL     OW10246   0.267   2.230   0.868
 3116SOL    HW110247   0.210   2.152   0.895
 3116SOL    HW210248   0.233   2.313   0.912
 3117SOL     OW10249   5.444   1.552   5.198
 3117SOL    HW110250   5.454   1.481   5.268
 3117SOL    HW210251   5.414   1.637   5.241
 3118SOL     OW10252   1.954   1.459   2.958
 3118SOL    HW110253   1.901   1.375   2.965
 3118SOL    HW210254   2.035   1.453   3.017
 3119SOL     OW10255   4.267   4.175   6.012
 3119SOL    HW110256   4.337   4.164   5.941
 3119SOL    HW210257   4.250   4.087   6.055
 3120SOL     OW10258   2.047   6.418   4.584
 3120SOL    HW110259   2.100   6.484   4.636
 3120SOL    HW210260   1.965   6.462   4.548
 3121SOL     OW10261   4.766   1.170   4.312
 3121SOL    HW110262   4.719   1.183   4.399
 3121SOL    HW210263   4.852   1.222   4.312
 3122SOL     OW10264   4.084   5.124   4.778
 3122SOL    HW110265   4.044   5.040   4.814
 3122SOL    HW210266   4.183   5.123   4.793
 3123SOL     OW10267   2.539   2.042   3.555
 3123SOL    HW110268   2.444   2.068   3.569
 3123SOL    HW210269   2.545   1.942   3.544
 3124SOL     OW10270   4.913   0.161   3.923
 3124SOL    HW110271   4.897   0.212   4.007
 3124SOL    HW210272   4.950   0.222   3.853
 3125SOL     OW10273   1.587   2.303   5.143
 3125SOL    HW110274   1.623   2.396   5.131
 3125SOL    HW210275   1.490   2.307   5.166
 3126SOL     OW10276   5.890   5.088   4.335
 3126SOL    HW110277   5.986   5.076   4.359
 3126SOL    HW210278   5.834   5.085   4.418
 3127SOL     OW10279   0.011   1.235   4.426
 3127SOL    HW110280   0.049   1.309   4.482
 3127SOL    HW210281   7.005   1.160   4.486
 3128SOL     OW10282   4.695   0.579   0.400
 3128SOL    HW110283   4.713   0.482   0.418
 3128SOL    HW210284   4.656   0.622   0.481
 3129SOL     OW10285   4.784   3.337   0.850
 3129SOL    HW110286   4.850   3.267   0.823
 3129SOL    HW210287   4.814   3.380   0.936
 3130SOL     OW10288   0.987   4.432   1.294
 3130SOL    HW110289   1.048   4.500   1.253
 3130SOL    HW210290   1.025   4.402   1.382
 3131SOL     OW10291   6.727   4.184   2.357
 3131SOL    HW110292   6.729   4.230   2.269
 3131SOL    HW210293   6.816   4.139   2.373
 3132SOL     OW10294   3.946   4.867   6.887
 3132SOL    HW110295   3.926   4.950   6.835
 3132SOL    HW210296   4.041   4.870   6.920
 3133SOL     OW10297   4.341   0.846   3.737
 3133SOL    HW110298   4.317   0.812   3.646
 3133SOL    HW210299   4.374   0.771   3.793
 3134SOL     OW10300   3.924   5.345   2.477
 3134SOL    HW110301   3.911   5.262   2.532
 3134SOL    HW210302   4.002   5.396   2.512
 3135SOL     OW10303   5.617   6.770   6.049
 3135SOL    HW110304   5.658   6.836   5.987
 3135SOL    HW210305   5.616   6.680   6.006
 3136SOL     OW10306   5.931   1.003   2.529
 3136SOL    HW110307   5.892   0.955   2.451
 3136SOL    HW210308   5.903   1.099   2.528
 3137SOL     OW10309   6.553   6.960   6.962
 3137SOL    HW110310   6.492   6.883   6.981
 3137SOL    HW210311   6.608   6.939   6.881
 3138SOL     OW10312   5.625   5.040   3.931
 3138SOL    HW110313   5.712   5.018   3.977
 3138SOL    HW210314   5.626   5.004   3.838
 3139SOL     OW10315   2.426   5.146   1.113
 3139SOL    HW110316   2.523   5.127   1.123
 3139SOL    HW210317   2.393   5.195   1.194
 3140SOL     OW10318   6.869   6.388   5.752
 3140SOL    HW110319   6.785   6.347   5.788
 3140SOL    HW210320   6.911   6.325   5.687
 3141SOL     OW10321   6.465   2.571   6.583
 3141SOL    HW110322   6.534   2.599   6.650
 3141SOL    HW210323   6.409   2.498   6.622
 3142SOL     OW10324   5.566   0.723   2.266
 3142SOL    HW110325   5.493   0.655   2.262
 3142SOL    HW210326   5.566   0.778   2.182
 3143SOL     OW10327   6.043   1.426   6.999
 3143SOL    HW110328   6.103   1.488   6.948
 3143SOL    HW210329   6.065   1.331   6.975
 3144SOL     OW10330   4.268   4.260   6.297
 3144SOL    HW110331   4.302   4.219   6.382
 3144SOL    HW210332   4.247   4.188   6.232
 3145SOL     OW10333   0.842   5.864   1.372
 3145SOL    HW110334   0.920   5.842   1.314
 3145SOL    HW210335   0.811   5.781   1.420
 3146SOL     OW10336   0.262   0.624   4.907
 3146SOL    HW110337   0.348   0.590   4.944
 3146SOL    HW210338   0.207   0.548   4.873
 3147SOL     OW10339   4.088   4.952   6.467
 3147SOL    HW110340   4.079   4.859   6.501
 3147SOL    HW210341   4.115   5.013   6.542
 3148SOL     OW10342   0.759   5.572   2.957
 3148SOL    HW110343   0.706   5.651   2.990
 3148SOL    HW210344   0.697   5.495   2.943
 3149SOL     OW10345   3.020   1.201   0.903
 3149SOL    HW110346   3.018   1.117   0.957
 3149SOL    HW210347   3.111   1.214   0.864
 3150SOL     OW10348   6.919   5.819   5.150
 3150SOL    HW110349   6.864   5.865   5.080
 3150SOL    HW210350   6.966   5.740   5.110
 3151SOL     OW10351   5.834   1.702   6.283
 3151SOL    HW110352   5.883   1.749   6.356
 3151SOL    HW210353   5.893   1.695   6.202
 3152SOL     OW10354   1.537   2.975   6.403
 3152SOL    HW110355   1.470   3.020   6.462
 3152SOL    HW210356   1.489   2.921   6.334
 3153SOL     OW10357   6.495   5.446   1.023
 3153SOL    HW110358   6.537   5.436   0.934
 3153SOL    HW210359   6.557   5.411   1.094
 3154SOL     OW10360   5.546   1.197   1.419
 3154SOL    HW110361   5.537   1.289   1.455
 3154SOL    HW210362   5.625   1.152   1.462
 3155SOL     OW10363   0.359   4.625   0.737
 3155SOL    HW110364   0.399   4.554   0.679
 3155SOL    HW210365   0.264   4.641   0.710
 3156SOL     OW10366   3.572   4.150   1.996
 3156SOL    HW110367   3.645   4.117   2.056
 3156SOL    HW210368   3.612   4.199   1.919
 3157SOL     OW10369   0.694   1.882   5.319
 3157SOL    HW110370   0.722   1.909   5.227
 3157SOL    HW210371   0.769   1.900   5.383
 3158SOL     OW10372   2.823   1.487   5.648
 3158SOL    HW110373   2.774   1.482   5.561
 3158SOL    HW210374   2.774   1.547   5.710
 3159SOL     OW10375   5.563   6.938   0.094
 3159SOL    HW110376   5.633   7.003   0.123
 3159SOL    HW210377   5.535   6.883   0.173
 3160SOL     OW10378   2.296   0.243   5.865
 3160SOL    HW110379   2.393   0.262   5.884
 3160SOL    HW210380   2.267   0.164   5.919
 3161SOL     OW10381   2.072   2.809   3.222
 3161SOL    HW110382   2.146   2.867   3.187
 3161SOL    HW210383   2.015   2.861   3.285
 3162SOL     OW10384   1.849   5.441   0.465
 3162SOL    HW110385   1.865   5.351   0.506
 3162SOL    HW210386   1.759   5.474   0.493
 3163SOL     OW10387   4.135   4.079   0.412
 3163SOL    HW110388   4.176   4.003   0.462
 3163SOL    HW210389   4.204   4.122   0.354
 3164SOL     OW10390   2.794   6.096   3.524
 3164SOL    HW110391   2.857   6.171   3.545
 3164SOL    HW210392   2.743   6.118   3.442
 3165SOL     OW10393   0.858   5.889   0.680
 3165SOL    HW110394   0.875   5.954   0.605
 3165SOL    HW210395   0.764   5.855   0.673
 3166SOL     OW10396   4.266   0.894   5.422
 3166SOL    HW110397   4.331   0.923   5.351
 3166SOL    HW210398   4.316   0.866   5.504
 3167SOL     OW10399   4.769   4.119   1.012
 3167SOL    HW110400   4.789   4.181   1.087
 3167SOL    HW210401   4.839   4.129   0.941
 3168SOL     OW10402   4.273   1.933   0.498
 3168SOL    HW110403   4.367   1.966   0.507
 3168SOL    HW210404   4.239   1.906   0.588
 3169SOL     OW10405   1.843   4.879   2.223
 3169SOL    HW110406   1.800   4.811   2.282
 3169SOL    HW210407   1.885   4.950   2.280
 3170SOL     OW10408   3.697   5.160   3.223
 3170SOL    HW110409   3.782   5.201   3.189
 3170SOL    HW210410   3.717   5.070   3.263
 3171SOL     OW10411   5.620   2.422   3.117
 3171SOL    HW110412   5.634   2.470   3.204
 3171SOL    HW210413   5.541   2.460   3.070
 3172SOL     OW10414   0.531   4.951   0.598
 3172SOL    HW110415   0.457   5.017   0.613
 3172SOL    HW210416   0.579   4.973   0.514
 3173SOL     OW10417   3.470   1.269   0.227
 3173SOL    HW110418   3.438   1.355   0.187
 3173SOL    HW210419   3.551   1.288   0.283
 3174SOL     OW10420   3.096   3.408   5.823
 3174SOL    HW110421   3.080   3.506   5.813
 3174SOL    HW210422   3.176   3.394   5.882
 3175SOL     OW10423   0.050   0.515   3.949
 3175SOL    HW110424   0.136   0.537   3.995
 3175SOL    HW210425   0.019   0.425   3.978
 3176SOL     OW10426   1.022   4.477   4.754
 3176SOL    HW110427   1.118   4.475   4.726
 3176SOL    HW210428   0.964   4.485   4.673
 3177SOL     OW10429   5.758   3.834   2.855
 3177SOL    HW110430   5.662   3.806   2.861
 3177SOL    HW210431   5.816   3.753   2.861
 3178SOL     OW10432   6.998   0.878   0.949
 3178SOL    HW110433   6.928   0.944   0.921
 3178SOL    HW210434   0.059   0.927   0.974
 3179SOL     OW10435   0.888   2.117   1.902
 3179SOL    HW110436   0.875   2.034   1.846
 3179SOL    HW210437   0.901   2.196   1.842
 3180SOL     OW10438   6.804   5.748   6.797
 3180SOL    HW110439   6.790   5.729   6.700
 3180SOL    HW210440   6.717   5.779   6.837
 3181SOL     OW10441   0.849   1.353   4.523
 3181SOL    HW110442   0.756   1.358   4.487
 3181SOL    HW210443   0.883   1.445   4.543
 3182SOL     OW10444   2.988   0.556   0.301
 3182SOL    HW110445   2.889   0.566   0.311
 3182SOL    HW210446   3.028   0.643   0.275
 3183SOL     OW10447   4.486   4.545   2.091
 3183SOL    HW110448   4.560   4.612   2.089
 3183SOL    HW210449   4.514   4.462   2.041
 3184SOL     OW10450   0.455   2.578   4.244
 3184SOL    HW110451   0.407   2.633   4.313
 3184SOL    HW210452   0.551   2.608   4.240
 3185SOL     OW10453   0.430   6.232   6.137
 3185SOL    HW110454   0.434   6.172   6.057
 3185SOL    HW210455   0.519   6.276   6.150
 3186SOL     OW10456   1.135   1.339   5.956
 3186SOL    HW110457   1.040   1.315   5.972
 3186SOL    HW210458   1.171   1.286   5.879
 3187SOL     OW10459   4.044   5.939   2.980
 3187SOL    HW110460   4.103   5.894   3.047
 3187SOL    HW210461   4.100   5.995   2.920
 3188SOL     OW10462   2.503   5.171   6.207
 3188SOL    HW110463   2.412   5.153   6.246
 3188SOL    HW210464   2.553   5.233   6.267
 3189SOL     OW10465   2.986   1.701   0.409
 3189SOL    HW110466   3.029   1.613   0.387
 3189SOL    HW210467   3.005   1.766   0.336
 3190SOL     OW10468   0.215   6.045   4.417
 3190SOL    HW110469   0.154   5.970   4.392
 3190SOL    HW210470   0.270   6.019   4.497
 3191SOL     OW10471   4.609   5.709   1.839
 3191SOL    HW110472   4.516   5.676   1.855
 3191SOL    HW210473   4.674   5.646   1.879
 3192SOL     OW10474   6.320   2.350   1.732
 3192SOL    HW110475   6.295   2.268   1.681
 3192SOL    HW210476   6.407   2.335   1.778
 3193SOL     OW10477   3.810   0.265   5.414
 3193SOL    HW110478   3.795   0.259   5.512
 3193SOL    HW210479   3.877   0.337   5.394
 3194SOL     OW10480   1.227   1.173   5.739
 3194SOL    HW110481   1.152   1.108   5.724
 3194SOL    HW210482   1.273   1.190   5.652
 3195SOL     OW10483   0.028   1.728   1.707
 3195SOL    HW110484   0.049   1.683   1.795
 3195SOL    HW210485   0.067   1.820   1.707
 3196SOL     OW10486   6.507   0.441   5.141
 3196SOL    HW110487   6.597   0.405   5.115
 3196SOL    HW210488   6.437   0.372   5.123
 3197SOL     OW10489   1.977   0.422   6.129
 3197SOL    HW110490   1.883   0.426   6.162
 3197SOL    HW210491   2.040   0.434   6.206
 3198SOL     OW10492   6.660   2.537   3.322
 3198SOL    HW110493   6.696   2.454   3.280
 3198SOL    HW210494   6.725   2.570   3.391
 3199SOL     OW10495   5.812   4.464   2.794
 3199SOL    HW110496   5.746   4.403   2.750
 3199SOL    HW210497   5.823   4.546   2.739
 3200SOL     OW10498   5.663   3.166   3.753
 3200SOL    HW110499   5.672   3.239   3.684
 3200SOL    HW210500   5.752   3.149   3.795
 3201SOL     OW10501   6.120   4.037   2.501
 3201SOL    HW110502   6.172   4.100   2.560
 3201SOL    HW210503   6.023   4.046   2.522
 3202SOL     OW10504   1.209   5.032   0.827
 3202SOL    HW110505   1.218   4.967   0.903
 3202SOL    HW210506   1.269   5.111   0.845
 3203SOL     OW10507   4.297   6.379   1.343
 3203SOL    HW110508   4.278   6.316   1.418
 3203SOL    HW210509   4.298   6.473   1.378
 3204SOL     OW10510   2.997   1.370   3.966
 3204SOL    HW110511   2.927   1.366   4.038
 3204SOL    HW210512   3.002   1.462   3.928
 3205SOL     OW10513   5.664   3.113   5.276
 3205SOL    HW110514   5.597   3.167   5.327
 3205SOL    HW210515   5.698   3.039   5.334
 3206SOL     OW10516   2.579   2.751   1.423
 3206SOL    HW110517   2.589   2.734   1.521
 3206SOL    HW210518   2.644   2.821   1.394
 3207SOL     OW10519   0.789   0.511   5.126
 3207SOL    HW110520   0.799   0.530   5.223
 3207SOL    HW210521   0.812   0.416   5.107
 3208SOL     OW10522   5.942   5.913   5.045
 3208SOL    HW110523   6.027   5.863   5.027
 3208SOL    HW210524   5.926   5.980   4.972
 3209SOL     OW10525   4.895   5.596   6.424
 3209SOL    HW110526   4.917   5.533   6.498
 3209SOL    HW210527   4.847   5.547   6.351
 3210SOL     OW10528   0.141   5.170   1.553
 3210SOL    HW110529   0.086   5.245   1.592
 3210SOL    HW210530   0.091   5.084   1.562
 3211SOL     OW10531   1.390   5.891   0.213
 3211SOL    HW110532   1.378   5.948   0.132
 3211SOL    HW210533   1.428   5.802   0.186
 3212SOL     OW10534   2.803   0.133   2.892
 3212SOL    HW110535   2.794   0.220   2.844
 3212SOL    HW210536   2.756   0.138   2.980
 3213SOL     OW10537   1.698   1.172   6.310
 3213SOL    HW110538   1.795   1.178   6.287
 3213SOL    HW210539   1.682   1.214   6.399
 3214SOL     OW10540   3.755   0.978   3.042
 3214SOL    HW110541   3.706   1.003   3.126
 3214SOL    HW210542   3.750   0.879   3.029
 3215SOL     OW10543   1.371   3.240   0.646
 3215SOL    HW110544   1.313   3.160   0.660
 3215SOL    HW210545   1.462   3.211   0.618
 3216SOL     OW10546   5.802   4.255   0.773
 3216SOL    HW110547   5.841   4.315   0.704
 3216SOL    HW210548   5.725   4.301   0.817
 3217SOL     OW10549   0.350   4.602   2.985
 3217SOL    HW110550   0.270   4.662   2.980
 3217SOL    HW210551   0.426   4.651   3.028
 3218SOL     OW10552   0.023   1.928   2.789
 3218SOL    HW110553   0.027   2.000   2.720
 3218SOL    HW210554   0.064   1.961   2.874
 3219SOL     OW10555   6.782   0.928   4.984
 3219SOL    HW110556   6.796   0.833   4.957
 3219SOL    HW210557   6.858   0.984   4.951
 3220SOL     OW10558   6.547   5.809   6.891
 3220SOL    HW110559   6.505   5.773   6.974
 3220SOL    HW210560   6.481   5.869   6.844
 3221SOL     OW10561   4.339   0.452   2.474
 3221SOL    HW110562   4.353   0.385   2.548
 3221SOL    HW210563   4.249   0.494   2.485
 3222SOL     OW10564   3.011   1.525   2.673
 3222SOL    HW110565   3.093   1.565   2.634
 3222SOL    HW210566   2.998   1.560   2.766
 3223SOL     OW10567   1.539   6.695   1.063
 3223SOL    HW110568   1.560   6.756   1.139
 3223SOL    HW210569   1.596   6.718   0.985
 3224SOL     OW10570   4.425   2.477   4.834
 3224SOL    HW110571   4.496   2.544   4.856
 3224SOL    HW210572   4.357   2.476   4.907
 3225SOL     OW10573   3.972   0.903   4.287
 3225SOL    HW110574   3.962   0.916   4.385
 3225SOL    HW210575   4.064   0.933   4.259
 3226SOL     OW10576   1.150   0.087   2.312
 3226SOL    HW110577   1.201   0.150   2.254
 3226SOL    HW210578   1.057   0.120   2.323
 3227SOL     OW10579   4.290   2.658   6.226
 3227SOL    HW110580   4.272   2.589   6.155
 3227SOL    HW210581   4.240   2.742   6.205
 3228SOL     OW10582   1.153   4.330   0.709
 3228SOL    HW110583   1.167   4.252   0.648
 3228SOL    HW210584   1.240   4.379   0.722
 3229SOL     OW10585   2.556   1.551   6.214
 3229SOL    HW110586   2.629   1.604   6.255
 3229SOL    HW210587   2.474   1.556   6.272
 3230SOL     OW10588   2.534   5.669   5.519
 3230SOL    HW110589   2.612   5.687   5.458
 3230SOL    HW210590   2.567   5.635   5.607
 3231SOL     OW10591   3.249   1.195   2.685
 3231SOL    HW110592   3.332   1.142   2.669
 3231SOL    HW210593   3.215   1.232   2.598
 3232SOL     OW10594   4.173   5.672   4.267
 3232SOL    HW110595   4.112   5.604   4.226
 3232SOL    HW210596   4.267   5.639   4.263
 3233SOL     OW10597   0.538   2.553   0.256
 3233SOL    HW110598   0.588   2.555   0.342
 3233SOL    HW210599   0.486   2.468   0.250
 3234SOL     OW10600   2.349   2.962   0.599
 3234SOL    HW110601   2.402   2.945   0.682
 3234SOL    HW210602   2.412   2.971   0.522
 3235SOL     OW10603   6.675   5.867   2.146
 3235SOL    HW110604   6.713   5.931   2.213
 3235SOL    HW210605   6.749   5.820   2.099
 3236SOL     OW10606   2.513   4.140   0.667
 3236SOL    HW110607   2.597   4.151   0.720
 3236SOL    HW210608   2.537   4.124   0.571
 3237SOL     OW10609   5.748   1.083   4.844
 3237SOL    HW110610   5.702   1.155   4.897
 3237SOL    HW210611   5.724   1.094   4.747
 3238SOL     OW10612   6.307   5.189   0.594
 3238SOL    HW110613   6.265   5.199   0.504
 3238SOL    HW210614   6.379   5.120   0.591
 3239SOL     OW10615   0.446   0.285   3.442
 3239SOL    HW110616   0.475   0.345   3.368
 3239SOL    HW210617   0.435   0.338   3.526
 3240SOL     OW10618   0.209   0.380   6.419
 3240SOL    HW110619   0.253   0.357   6.507
 3240SOL    HW210620   0.265   0.345   6.344
 3241SOL     OW10621   5.237   1.422   6.325
 3241SOL    HW110622   5.220   1.508   6.373
 3241SOL    HW210623   5.336   1.407   6.318
 3242SOL     OW10624   4.861   4.356   5.311
 3242SOL    HW110625   4.787   4.329   5.372
 3242SOL    HW210626   4.888   4.450   5.331
 3243SOL     OW10627   4.287   5.251   6.150
 3243SOL    HW110628   4.236   5.266   6.235
 3243SOL    HW210629   4.374   5.206   6.170
 3244SOL     OW10630   5.898   6.483   6.359
 3244SOL    HW110631   5.968   6.474   6.289
 3244SOL    HW210632   5.905   6.574   6.402
 3245SOL     OW10633   4.189   2.048   3.916
 3245SOL    HW110634   4.235   2.084   3.998
 3245SOL    HW210635   4.136   1.966   3.941
 3246SOL     OW10636   0.623   0.210   2.353
 3246SOL    HW110637   0.718   0.184   2.372
 3246SOL    HW210638   0.571   0.209   2.438
 3247SOL     OW10639   0.150   4.296   2.281
 3247SOL    HW110640   0.114   4.389   2.291
 3247SOL    HW210641   0.232   4.286   2.339
 3248SOL     OW10642   5.310   2.126   3.090
 3248SOL    HW110643   5.394   2.071   3.095
 3248SOL    HW210644   5.326   2.214   3.136
 3249SOL     OW10645   3.785   3.535   3.860
 3249SOL    HW110646   3.839   3.454   3.884
 3249SOL    HW210647   3.826   3.616   3.902
 3250SOL     OW10648   5.313   5.640   2.601
 3250SOL    HW110649   5.336   5.697   2.679
 3250SOL    HW210650   5.235   5.582   2.623
 3251SOL     OW10651   2.662   0.637   5.017
 3251SOL    HW110652   2.707   0.556   4.980
 3251SOL    HW210653   2.574   0.650   4.972
 3252SOL     OW10654   2.937   1.282   3.727
 3252SOL    HW110655   2.908   1.365   3.680
 3252SOL    HW210656   2.975   1.307   3.817
 3253SOL     OW10657   5.959   3.149   1.126
 3253SOL    HW110658   5.974   3.128   1.029
 3253SOL    HW210659   6.037   3.201   1.162
 3254SOL     OW10660   5.772   0.785   0.359
 3254SOL    HW110661   5.736   0.849   0.291
 3254SOL    HW210662   5.701   0.764   0.426
 3255SOL     OW10663   6.218   4.906   1.427
 3255SOL    HW110664   6.121   4.925   1.439
 3255SOL    HW210665   6.240   4.903   1.329
 3256SOL     OW10666   4.847   2.225   1.579
 3256SOL    HW110667   4.858   2.296   1.510
 3256SOL    HW210668   4.844   2.136   1.535
 3257SOL     OW10669   2.814   2.195   2.331
 3257SOL    HW110670   2.807   2.284   2.375
 3257SOL    HW210671   2.764   2.196   2.244
 3258SOL     OW10672   3.148   5.804   3.657
 3258SOL    HW110673   3.135   5.716   3.702
 3258SOL    HW210674   3.060   5.841   3.627
 3259SOL     OW10675   5.555   4.275   4.374
 3259SOL    HW110676   5.621   4.270   4.299
 3259SOL    HW210677   5.479   4.335   4.348
 3260SOL     OW10678   1.634   4.664   1.829
 3260SOL    HW110679   1.664   4.591   1.768
 3260SOL    HW210680   1.606   4.743   1.775
 3261SOL     OW10681   5.251   0.599   2.960
 3261SOL    HW110682   5.176   0.534   2.973
 3261SOL    HW210683   5.218   0.692   2.976
 3262SOL     OW10684   3.791   2.050   2.509
 3262SOL    HW110685   3.873   2.026   2.562
 3262SOL    HW210686   3.729   2.103   2.567
 3263SOL     OW10687   2.416   1.424   2.985
 3263SOL    HW110688   2.495   1.485   2.974
 3263SOL    HW210689   2.412   1.361   2.908
 3264SOL     OW10690   2.310   5.303   0.124
 3264SOL    HW110691   2.323   5.213   0.081
 3264SOL    HW210692   2.352   5.373   0.067
 3265SOL     OW10693   6.283   5.826   5.221
 3265SOL    HW110694   6.264   5.795   5.128
 3265SOL    HW210695   6.223   5.779   5.285
 3266SOL     OW10696   3.095   4.633   0.308
 3266SOL    HW110697   3.095   4.699   0.233
 3266SOL    HW210698   3.109   4.541   0.272
 3267SOL     OW10699   4.492   0.483   0.997
 3267SOL    HW110700   4.445   0.437   1.073
 3267SOL    HW210701   4.428   0.541   0.948
 3268SOL     OW10702   0.083   4.999   1.250
 3268SOL    HW110703   0.115   4.910   1.217
 3268SOL    HW210704   0.091   5.002   1.350
 3269SOL     OW10705   1.092   5.057   2.458
 3269SOL    HW110706   1.164   4.990   2.474
 3269SOL    HW210707   1.013   5.012   2.416
 3270SOL     OW10708   0.696   2.784   5.338
 3270SOL    HW110709   0.682   2.685   5.331
 3270SOL    HW210710   0.735   2.805   5.428
 3271SOL     OW10711   0.355   3.257   1.812
 3271SOL    HW110712   0.368   3.348   1.849
 3271SOL    HW210713   0.334   3.263   1.714
 3272SOL     OW10714   4.124   5.652   0.277
 3272SOL    HW110715   4.121   5.746   0.243
 3272SOL    HW210716   4.193   5.601   0.226
 3273SOL     OW10717   4.478   3.419   6.073
 3273SOL    HW110718   4.457   3.328   6.036
 3273SOL    HW210719   4.559   3.455   6.028
 3274SOL     OW10720   6.053   0.936   0.124
 3274SOL    HW110721   6.124   0.865   0.125
 3274SOL    HW210722   5.966   0.896   0.097
 3275SOL     OW10723   4.779   0.532   1.310
 3275SOL    HW110724   4.809   0.586   1.388
 3275SOL    HW210725   4.724   0.589   1.249
 3276SOL     OW10726   4.760   0.205   0.573
 3276SOL    HW110727   4.830   0.260   0.618
 3276SOL    HW210728   4.804   0.134   0.519
 3277SOL     OW10729   3.013   1.470   1.987
 3277SOL    HW110730   3.101   1.424   1.991
 3277SOL    HW210731   3.024   1.559   1.941
 3278SOL     OW10732   6.895   0.460   6.714
 3278SOL    HW110733   6.992   0.479   6.731
 3278SOL    HW210734   6.883   0.363   6.697
 3279SOL     OW10735   4.341   6.660   1.411
 3279SOL    HW110736   4.266   6.719   1.379
 3279SOL    HW210737   4.393   6.708   1.481
 3280SOL     OW10738   5.467   3.367   4.195
 3280SOL    HW110739   5.513   3.374   4.107
 3280SOL    HW210740   5.422   3.278   4.203
 3281SOL     OW10741   6.882   4.571   1.928
 3281SOL    HW110742   6.933   4.487   1.947
 3281SOL    HW210743   6.938   4.650   1.951
 3282SOL     OW10744   0.241   3.805   5.073
 3282SOL    HW110745   0.225   3.728   5.135
 3282SOL    HW210746   0.289   3.877   5.123
 3283SOL     OW10747   3.244   0.936   1.359
 3283SOL    HW110748   3.333   0.961   1.321
 3283SOL    HW210749   3.234   0.978   1.449
 3284SOL     OW10750   1.926   5.889   4.884
 3284SOL    HW110751   1.919   5.895   4.984
 3284SOL    HW210752   1.954   5.797   4.858
 3285SOL     OW10753   5.051   1.149   4.533
 3285SOL    HW110754   5.104   1.139   4.449
 3285SOL    HW210755   5.021   1.243   4.542
 3286SOL     OW10756   3.442   1.971   1.684
 3286SOL    HW110757   3.489   1.945   1.599
 3286SOL    HW210758   3.346   1.990   1.664
 3287SOL     OW10759   1.033   6.927   6.222
 3287SOL    HW110760   1.052   6.907   6.318
 3287SOL    HW210761   1.085   6.864   6.164
 3288SOL     OW10762   1.851   6.361   0.623
 3288SOL    HW110763   1.943   6.380   0.590
 3288SOL    HW210764   1.814   6.441   0.670
 3289SOL     OW10765   2.816   1.313   6.894
 3289SOL    HW110766   2.881   1.341   6.965
 3289SOL    HW210767   2.749   1.386   6.880
 3290SOL     OW10768   6.470   5.437   0.498
 3290SOL    HW110769   6.540   5.380   0.540
 3290SOL    HW210770   6.384   5.429   0.549
 3291SOL     OW10771   4.556   6.988   6.261
 3291SOL    HW110772   4.587   6.898   6.292
 3291SOL    HW210773   4.547   6.987   6.161
 3292SOL     OW10774   0.519   1.851   0.883
 3292SOL    HW110775   0.444   1.844   0.817
 3292SOL    HW210776   0.570   1.765   0.886
 3293SOL     OW10777   6.577   5.106   2.653
 3293SOL    HW110778   6.534   5.091   2.742
 3293SOL    HW210779   6.618   5.021   2.621
 3294SOL     OW10780   5.532   2.498   5.648
 3294SOL    HW110781   5.440   2.476   5.679
 3294SOL    HW210782   5.527   2.540   5.557
 3295SOL     OW10783   1.929   2.412   0.812
 3295SOL    HW110784   2.013   2.466   0.809
 3295SOL    HW210785   1.859   2.460   0.865
 3296SOL     OW10786   6.973   0.090   5.594
 3296SOL    HW110787   6.944   0.168   5.649
 3296SOL    HW210788   7.008   0.018   5.655
 3297SOL     OW10789   2.911   2.179   5.374
 3297SOL    HW110790   3.008   2.155   5.364
 3297SOL    HW210791   2.898   2.275   5.348
 3298SOL     OW10792   6.060   3.659   4.701
 3298SOL    HW110793   5.972   3.702   4.684
 3298SOL    HW210794   6.095   3.618   4.616
 3299SOL     OW10795   3.610   4.985   3.617
 3299SOL    HW110796   3.652   5.075   3.603
 3299SOL    HW210797   3.538   4.992   3.686
 3300SOL     OW10798   2.054   6.823   5.392
 3300SOL    HW110799   2.136   6.880   5.385
 3300SOL    HW210800   2.064   6.759   5.468
 3301SOL     OW10801   1.468   3.361   2.465
 3301SOL    HW110802   1.491   3.279   2.518
 3301SOL    HW210803   1.542   3.427   2.473
 3302SOL     OW10804   2.205   5.071   6.079
 3302SOL    HW110805   2.230   4.974   6.072
 3302SOL    HW210806   2.235   5.106   6.168
 3303SOL     OW10807   3.625   2.549   0.339
 3303SOL    HW110808   3.590   2.631   0.384
 3303SOL    HW210809   3.725   2.547   0.345
 3304SOL     OW10810   2.167   4.579   6.596
 3304SOL    HW110811   2.237   4.624   6.653
 3304SOL    HW210812   2.117   4.512   6.651
 3305SOL     OW10813   3.345   0.491   1.096
 3305SOL    HW110814   3.290   0.431   1.038
 3305SOL    HW210815   3.303   0.582   1.099
 3306SOL     OW10816   1.354   6.662   0.002
 3306SOL    HW110817   1.440   6.714   0.001
 3306SOL    HW210818   1.325   6.648   0.097
 3307SOL     OW10819   1.395   0.109   5.251
 3307SOL    HW110820   1.346   0.187   5.211
 3307SOL    HW210821   1.454   0.067   5.183
 3308SOL     OW10822   3.974   4.171   1.293
 3308SOL    HW110823   3.953   4.259   1.249
 3308SOL    HW210824   4.064   4.176   1.336
 3309SOL     OW10825   5.392   4.420   3.882
 3309SOL    HW110826   5.420   4.337   3.833
 3309SOL    HW210827   5.319   4.466   3.831
 3310SOL     OW10828   0.502   4.807   4.488
 3310SOL    HW110829   0.529   4.861   4.568
 3310SOL    HW210830   0.458   4.723   4.519
 3311SOL     OW10831   3.361   3.742   0.843
 3311SOL    HW110832   3.399   3.736   0.750
 3311SOL    HW210833   3.275   3.792   0.840
 3312SOL     OW10834   5.396   2.642   6.496
 3312SOL    HW110835   5.427   2.737   6.493
 3312SOL    HW210836   5.306   2.635   6.453
 3313SOL     OW10837   0.896   0.806   3.017
 3313SOL    HW110838   0.968   0.789   2.949
 3313SOL    HW210839   0.809   0.771   2.982
 3314SOL     OW10840   2.381   0.177   3.256
 3314SOL    HW110841   2.342   0.094   3.215
 3314SOL    HW210842   2.471   0.194   3.215
 3315SOL     OW10843   0.451   5.017   5.108
 3315SOL    HW110844   0.490   5.067   5.030
 3315SOL    HW210845   0.518   5.012   5.181
 3316SOL     OW10846   3.071   0.990   6.643
 3316SOL    HW110847   3.074   0.965   6.546
 3316SOL    HW210848   3.164   1.007   6.676
 3317SOL     OW10849   5.286   2.575   2.185
 3317SOL    HW110850   5.341   2.519   2.246
 3317SOL    HW210851   5.209   2.614   2.235
 3318SOL     OW10852   2.768   2.263   6.551
 3318SOL    HW110853   2.784   2.202   6.473
 3318SOL    HW210854   2.769   2.209   6.635
 3319SOL     OW10855   6.876   7.017   2.499
 3319SOL    HW110856   6.852   0.085   2.466
 3319SOL    HW210857   6.975   7.011   2.509
 3320SOL     OW10858   6.696   0.501   0.960
 3320SOL    HW110859   6.731   0.579   1.012
 3320SOL    HW210860   6.772   0.457   0.912
 3321SOL     OW10861   6.040   1.598   1.152
 3321SOL    HW110862   6.100   1.673   1.123
 3321SOL    HW210863   6.096   1.526   1.193
 3322SOL     OW10864   6.198   3.404   0.815
 3322SOL    HW110865   6.268   3.332   0.821
 3322SOL    HW210866   6.185   3.445   0.905
 3323SOL     OW10867   2.484   1.935   1.678
 3323SOL    HW110868   2.472   2.017   1.735
 3323SOL    HW210869   2.397   1.913   1.633
 3324SOL     OW10870   4.697   5.468   5.845
 3324SOL    HW110871   4.685   5.553   5.897
 3324SOL    HW210872   4.659   5.479   5.754
 3325SOL     OW10873   1.002   3.594   6.625
 3325SOL    HW110874   1.080   3.575   6.566
 3325SOL    HW210875   0.986   3.517   6.685
 3326SOL     OW10876   5.565   0.995   2.977
 3326SOL    HW110877   5.556   0.918   3.041
 3326SOL    HW210878   5.638   0.974   2.911
 3327SOL     OW10879   1.519   6.202   1.474
 3327SOL    HW110880   1.589   6.210   1.545
 3327SOL    HW210881   1.524   6.280   1.412
 3328SOL     OW10882   3.666   1.684   1.168
 3328SOL    HW110883   3.699   1.677   1.262
 3328SOL    HW210884   3.570   1.657   1.164
 3329SOL     OW10885   6.505   5.706   5.873
 3329SOL    HW110886   6.455   5.736   5.792
 3329SOL    HW210887   6.444   5.653   5.932
 3330SOL     OW10888   6.501   3.265   2.354
 3330SOL    HW110889   6.582   3.229   2.400
 3330SOL    HW210890   6.462   3.339   2.409
 3331SOL     OW10891   1.726   2.587   0.949
 3331SOL    HW110892   1.700   2.502   0.994
 3331SOL    HW210893   1.643   2.639   0.928
 3332SOL     OW10894   5.270   4.404   0.529
 3332SOL    HW110895   5.264   4.460   0.612
 3332SOL    HW210896   5.354   4.349   0.533
 3333SOL     OW10897   3.949   5.270   6.559
 3333SOL    HW110898   4.009   5.205   6.605
 3333SOL    HW210899   3.902   5.225   6.484
 3334SOL     OW10900   3.246   3.244   1.278
 3334SOL    HW110901   3.335   3.284   1.254
 3334SOL    HW210902   3.253   3.144   1.278
 3335SOL     OW10903   4.846   4.824   5.765
 3335SOL    HW110904   4.824   4.787   5.674
 3335SOL    HW210905   4.762   4.836   5.818
 3336SOL     OW10906   2.788   5.397   5.917
 3336SOL    HW110907   2.870   5.399   5.859
 3336SOL    HW210908   2.717   5.455   5.877
 3337SOL     OW10909   3.566   1.961   1.459
 3337SOL    HW110910   3.613   1.876   1.437
 3337SOL    HW210911   3.622   2.039   1.432
 3338SOL     OW10912   6.668   4.097   1.706
 3338SOL    HW110913   6.612   4.138   1.778
 3338SOL    HW210914   6.744   4.158   1.684
 3339SOL     OW10915   6.540   6.123   6.932
 3339SOL    HW110916   6.570   6.208   6.976
 3339SOL    HW210917   6.464   6.084   6.984
 3340SOL     OW10918   3.315   6.404   1.783
 3340SOL    HW110919   3.263   6.412   1.699
 3340SOL    HW210920   3.263   6.443   1.859
 3341SOL     OW10921   0.438   6.827   2.754
 3341SOL    HW110922   0.357   6.767   2.757
 3341SOL    HW210923   0.470   6.833   2.659
 3342SOL     OW10924   2.120   0.152   4.056
 3342SOL    HW110925   2.021   0.141   4.057
 3342SOL    HW210926   2.163   0.083   4.115
 3343SOL     OW10927   4.767   2.740   1.004
 3343SOL    HW110928   4.692   2.806   1.008
 3343SOL    HW210929   4.746   2.670   0.936
 3344SOL     OW10930   5.332   3.682   4.921
 3344SOL    HW110931   5.237   3.698   4.947
 3344SOL    HW210932   5.383   3.649   5.000
 3345SOL     OW10933   3.060   4.136   5.814
 3345SOL    HW110934   2.984   4.079   5.784
 3345SOL    HW210935   3.141   4.079   5.830
 3346SOL     OW10936   0.556   1.394   1.968
 3346SOL    HW110937   0.458   1.408   1.985
 3346SOL    HW210938   0.606   1.402   2.055
 3347SOL     OW10939   6.222   3.945   4.134
 3347SOL    HW110940   6.319   3.931   4.155
 3347SOL    HW210941   6.213   3.986   4.043
 3348SOL     OW10942   3.242   3.271   3.712
 3348SOL    HW110943   3.292   3.192   3.747
 3348SOL    HW210944   3.256   3.278   3.613
 3349SOL     OW10945   6.501   3.977   4.149
 3349SOL    HW110946   6.536   3.921   4.074
 3349SOL    HW210947   6.494   4.072   4.118
 3350SOL     OW10948   2.134   1.154   6.753
 3350SOL    HW110949   2.035   1.163   6.755
 3350SOL    HW210950   2.173   1.223   6.692
 3351SOL     OW10951   5.305   0.801   1.031
 3351SOL    HW110952   5.234   0.756   1.085
 3351SOL    HW210953   5.391   0.802   1.082
 3352SOL     OW10954   0.886   4.369   0.756
 3352SOL    HW110955   0.982   4.381   0.729
 3352SOL    HW210956   0.861   4.443   0.819
 3353SOL     OW10957   1.645   6.757   6.744
 3353SOL    HW110958   1.581   6.762   6.821
 3353SOL    HW210959   1.635   6.839   6.687
 3354SOL     OW10960   6.698   2.218   3.208
 3354SOL    HW110961   6.616   2.270   3.184
 3354SOL    HW210962   6.715   2.149   3.138
 3355SOL     OW10963   0.056   2.419   1.022
 3355SOL    HW110964   0.059   2.507   0.975
 3355SOL    HW210965   0.125   2.417   1.094
 3356SOL     OW10966   2.620   3.778   0.098
 3356SOL    HW110967   2.650   3.844   0.029
 3356SOL    HW210968   2.696   3.717   0.120
 3357SOL     OW10969   2.273   5.426   1.226
 3357SOL    HW110970   2.369   5.399   1.234
 3357SOL    HW210971   2.225   5.404   1.311
 3358SOL     OW10972   4.844   6.361   2.400
 3358SOL    HW110973   4.800   6.410   2.325
 3358SOL    HW210974   4.920   6.306   2.363
 3359SOL     OW10975   0.474   0.188   2.910
 3359SOL    HW110976   0.442   0.096   2.932
 3359SOL    HW210977   0.414   0.256   2.952
 3360SOL     OW10978   0.762   0.742   0.243
 3360SOL    HW110979   0.676   0.754   0.293
 3360SOL    HW210980   0.742   0.720   0.147
 3361SOL     OW10981   6.503   5.834   3.141
 3361SOL    HW110982   6.581   5.811   3.200
 3361SOL    HW210983   6.479   5.930   3.154
 3362SOL     OW10984   3.121   1.373   4.564
 3362SOL    HW110985   3.174   1.453   4.589
 3362SOL    HW210986   3.025   1.388   4.587
 3363SOL     OW10987   0.164   1.533   6.747
 3363SOL    HW110988   0.239   1.577   6.797
 3363SOL    HW210989   0.194   1.444   6.714
 3364SOL     OW10990   1.138   5.766   6.295
 3364SOL    HW110991   1.051   5.797   6.256
 3364SOL    HW210992   1.188   5.845   6.331
 3365SOL     OW10993   0.055   2.190   4.863
 3365SOL    HW110994   0.150   2.186   4.833
 3365SOL    HW210995   0.000   2.127   4.809
 3366SOL     OW10996   5.274   0.725   4.912
 3366SOL    HW110997   5.224   0.646   4.948
 3366SOL    HW210998   5.366   0.697   4.884
 3367SOL     OW10999   1.716   2.434   1.957
 3367SOL    HW111000   1.768   2.518   1.939
 3367SOL    HW211001   1.622   2.446   1.926
 3368SOL     OW11002   6.508   5.242   6.174
 3368SOL    HW111003   6.535   5.338   6.187
 3368SOL    HW211004   6.409   5.234   6.182
 3369SOL     OW11005   3.741   0.702   0.437
 3369SOL    HW111006   3.695   0.716   0.525
 3369SOL    HW211007   3.705   0.620   0.394
 3370SOL     OW11008   6.674   0.019   5.030
 3370SOL    HW111009   6.772   0.004   5.018
 3370SOL    HW211010   6.645   7.005   5.118
 3371SOL     OW11011   0.963   4.503   2.147
 3371SOL    HW111012   1.017   4.451   2.080
 3371SOL    HW211013   0.884   4.449   2.175
 3372SOL     OW11014   0.582   0.826   2.172
 3372SOL    HW111015   0.502   0.789   2.220
 3372SOL    HW211016   0.552   0.882   2.095
 3373SOL     OW11017   6.014   1.293   4.424
 3373SOL    HW111018   6.093   1.265   4.369
 3373SOL    HW211019   5.993   1.389   4.403
 3374SOL     OW11020   3.148   5.705   5.459
 3374SOL    HW111021   3.234   5.721   5.410
 3374SOL    HW211022   3.166   5.692   5.556
 3375SOL     OW11023   4.598   4.586   5.003
 3375SOL    HW111024   4.641   4.505   4.965
 3375SOL    HW211025   4.499   4.572   5.008
 3376SOL     OW11026   3.240   2.915   2.584
 3376SOL    HW111027   3.284   2.928   2.673
 3376SOL    HW211028   3.303   2.865   2.524
 3377SOL     OW11029   1.647   6.706   4.810
 3377SOL    HW111030   1.586   6.769   4.761
 3377SOL    HW211031   1.593   6.647   4.869
 3378SOL     OW11032   6.683   1.465   1.067
 3378SOL    HW111033   6.658   1.400   0.995
 3378SOL    HW211034   6.671   1.422   1.156
 3379SOL     OW11035   0.582   4.672   6.055
 3379SOL    HW111036   0.597   4.575   6.034
 3379SOL    HW211037   0.564   4.722   5.970
 3380SOL     OW11038   6.711   4.727   6.436
 3380SOL    HW111039   6.730   4.822   6.464
 3380SOL    HW211040   6.733   4.665   6.511
 3381SOL     OW11041   2.718   2.774   0.581
 3381SOL    HW111042   2.631   2.726   0.599
 3381SOL    HW211043   2.762   2.733   0.502
 3382SOL     OW11044   0.048   1.395   6.964
 3382SOL    HW111045   0.094   1.451   6.895
 3382SOL    HW211046   7.002   1.451   7.012
 3383SOL     OW11047   5.725   5.014   2.664
 3383SOL    HW111048   5.689   5.107   2.656
 3383SOL    HW211049   5.738   4.975   2.573
 3384SOL     OW11050   3.435   3.157   4.971
 3384SOL    HW111051   3.515   3.216   4.968
 3384SOL    HW211052   3.355   3.208   4.938
 3385SOL     OW11053   6.031   3.944   3.263
 3385SOL    HW111054   6.097   3.904   3.199
 3385SOL    HW211055   6.062   3.928   3.357
 3386SOL     OW11056   6.242   4.125   4.654
 3386SOL    HW111057   6.322   4.080   4.695
 3386SOL    HW211058   6.159   4.090   4.697
 3387SOL     OW11059   2.497   2.542   2.603
 3387SOL    HW111060   2.518   2.615   2.669
 3387SOL    HW211061   2.447   2.469   2.649
 3388SOL     OW11062   5.643   2.751   1.222
 3388SOL    HW111063   5.705   2.818   1.181
 3388SOL    HW211064   5.695   2.669   1.248
 3389SOL     OW11065   4.684   4.280   3.975
 3389SOL    HW111066   4.616   4.342   4.014
 3389SOL    HW211067   4.732   4.232   4.048
 3390SOL     OW11068   5.131   2.634   6.304
 3390SOL    HW111069   5.140   2.652   6.206
 3390SOL    HW211070   5.127   2.535   6.320
 3391SOL     OW11071   3.764   2.118   5.180
 3391SOL    HW111072   3.844   2.175   5.197
 3391SOL    HW211073   3.777   2.029   5.223
 3392SOL     OW11074   2.625   0.612   4.166
 3392SOL    HW111075   2.570   0.694   4.145
 3392SOL    HW211076   2.719   0.639   4.185
 3393SOL     OW11077   6.501   6.868   0.726
 3393SOL    HW111078   6.540   6.837   0.812
 3393SOL    HW211079   6.524   6.803   0.654
 3394SOL     OW11080   5.800   2.941   1.107
 3394SOL    HW111081   5.714   2.990   1.096
 3394SOL    HW211082   5.874   3.006   1.125
 3395SOL     OW11083   0.077   3.100   4.022
 3395SOL    HW111084   7.018   3.119   4.075
 3395SOL    HW211085   0.136   3.036   4.072
 3396SOL     OW11086   0.045   3.050   3.430
 3396SOL    HW111087   0.012   2.960   3.398
 3396SOL    HW211088   7.013   3.122   3.387
 3397SOL     OW11089   3.945   0.650   5.861
 3397SOL    HW111090   4.030   0.665   5.810
 3397SOL    HW211091   3.966   0.640   5.958
 3398SOL     OW11092   0.942   0.094   3.990
 3398SOL    HW111093   0.880   0.103   4.068
 3398SOL    HW211094   1.035   0.114   4.019
 3399SOL     OW11095   4.509   4.564   4.455
 3399SOL    HW111096   4.571   4.496   4.415
 3399SOL    HW211097   4.476   4.531   4.543
 3400SOL     OW11098   5.065   2.441   5.876
 3400SOL    HW111099   4.971   2.471   5.858
 3400SOL    HW211100   5.065   2.378   5.953
 3401SOL     OW11101   6.932   3.691   0.709
 3401SOL    HW111102   6.882   3.713   0.626
 3401SOL    HW211103   6.896   3.745   0.786
 3402SOL     OW11104   5.476   5.657   0.979
 3402SOL    HW111105   5.506   5.739   0.931
 3402SOL    HW211106   5.451   5.587   0.913
 3403SOL     OW11107   3.843   0.302   5.059
 3403SOL    HW111108   3.746   0.277   5.066
 3403SOL    HW211109   3.899   0.222   5.077
 3404SOL     OW11110   4.022   1.243   0.272
 3404SOL    HW111111   4.069   1.236   0.361
 3404SOL    HW211112   3.945   1.306   0.280
 3405SOL     OW11113   6.690   3.628   6.105
 3405SOL    HW111114   6.736   3.715   6.091
 3405SOL    HW211115   6.593   3.644   6.122
 3406SOL     OW11116   2.340   4.883   1.757
 3406SOL    HW111117   2.324   4.829   1.839
 3406SOL    HW211118   2.428   4.857   1.717
 3407SOL     OW11119   1.508   5.765   2.047
 3407SOL    HW111120   1.476   5.822   2.122
 3407SOL    HW211121   1.607   5.749   2.057
 3408SOL     OW11122   4.904   3.882   3.601
 3408SOL    HW111123   4.968   3.926   3.538
 3408SOL    HW211124   4.841   3.950   3.638
 3409SOL     OW11125   3.688   0.021   5.969
 3409SOL    HW111126   3.596   0.022   5.930
 3409SOL    HW211127   3.730   6.955   5.951
 3410SOL     OW11128   5.794   5.309   6.440
 3410SOL    HW111129   5.804   5.219   6.482
 3410SOL    HW211130   5.709   5.351   6.471
 3411SOL     OW11131   5.442   2.390   2.331
 3411SOL    HW111132   5.450   2.290   2.324
 3411SOL    HW211133   5.517   2.425   2.388
 3412SOL     OW11134   3.981   2.978   7.006
 3412SOL    HW111135   3.906   2.970   0.048
 3412SOL    HW211136   4.043   3.050   0.013
 3413SOL     OW11137   4.374   1.464   2.809
 3413SOL    HW111138   4.317   1.450   2.728
 3413SOL    HW211139   4.448   1.397   2.810
 3414SOL     OW11140   3.264   1.512   5.111
 3414SOL    HW111141   3.305   1.590   5.063
 3414SOL    HW211142   3.206   1.546   5.184
 3415SOL     OW11143   0.978   4.911   4.265
 3415SOL    HW111144   1.058   4.914   4.205
 3415SOL    HW211145   0.896   4.930   4.212
 3416SOL     OW11146   0.132   4.194   5.787
 3416SOL    HW111147   0.054   4.185   5.725
 3416SOL    HW211148   0.115   4.139   5.869
 3417SOL     OW11149   6.809   6.009   2.351
 3417SOL    HW111150   6.902   6.038   2.371
 3417SOL    HW211151   6.745   6.063   2.405
 3418SOL     OW11152   3.707   1.371   4.802
 3418SOL    HW111153   3.632   1.333   4.748
 3418SOL    HW211154   3.669   1.421   4.880
 3419SOL     OW11155   4.287   4.891   6.147
 3419SOL    HW111156   4.201   4.931   6.179
 3419SOL    HW211157   4.362   4.954   6.166
 3420SOL     OW11158   5.548   1.750   3.488
 3420SOL    HW111159   5.517   1.811   3.415
 3420SOL    HW211160   5.475   1.741   3.557
 3421SOL     OW11161   6.777   0.743   5.852
 3421SOL    HW111162   6.746   0.678   5.921
 3421SOL    HW211163   6.703   0.762   5.788
 3422SOL     OW11164   3.325   0.038   1.001
 3422SOL    HW111165   3.242   7.016   1.034
 3422SOL    HW211166   3.306   0.134   0.983
 3423SOL     OW11167   2.386   0.857   0.062
 3423SOL    HW111168   2.464   0.903   0.020
 3423SOL    HW211169   2.301   0.898   0.030
 3424SOL     OW11170   3.562   1.342   2.804
 3424SOL    HW111171   3.554   1.401   2.724
 3424SOL    HW211172   3.477   1.346   2.856
 3425SOL     OW11173   4.992   4.459   2.382
 3425SOL    HW111174   5.029   4.551   2.371
 3425SOL    HW211175   4.977   4.418   2.292
 3426SOL     OW11176   3.537   3.434   0.416
 3426SOL    HW111177   3.496   3.525   0.419
 3426SOL    HW211178   3.476   3.368   0.460
 3427SOL     OW11179   6.636   6.708   0.207
 3427SOL    HW111180   6.733   6.721   0.184
 3427SOL    HW211181   6.579   6.749   0.135
 3428SOL     OW11182   4.072   5.205   1.953
 3428SOL    HW111183   4.117   5.241   2.034
 3428SOL    HW211184   3.973   5.218   1.961
 3429SOL     OW11185   0.705   2.288   6.891
 3429SOL    HW111186   0.661   2.377   6.908
 3429SOL    HW211187   0.720   2.277   6.793
 3430SOL     OW11188   1.547   6.852   6.992
 3430SOL    HW111189   1.603   6.861   0.051
 3430SOL    HW211190   1.531   6.942   6.952
 3431SOL     OW11191   2.045   6.340   1.060
 3431SOL    HW111192   1.952   6.377   1.064
 3431SOL    HW211193   2.081   6.328   1.152
 3432SOL     OW11194   2.628   2.314   5.193
 3432SOL    HW111195   2.584   2.369   5.264
 3432SOL    HW211196   2.590   2.221   5.195
 3433SOL     OW11197   2.649   1.108   6.471
 3433SOL    HW111198   2.618   1.181   6.410
 3433SOL    HW211199   2.691   1.035   6.417
 3434SOL     OW11200   3.357   2.825   0.662
 3434SOL    HW111201   3.329   2.910   0.708
 3434SOL    HW211202   3.391   2.760   0.730
 3435SOL     OW11203   0.280   2.450   1.457
 3435SOL    HW111204   0.219   2.497   1.520
 3435SOL    HW211205   0.375   2.474   1.479
 3436SOL     OW11206   4.565   6.407   5.113
 3436SOL    HW111207   4.559   6.311   5.088
 3436SOL    HW211208   4.599   6.460   5.035
 3437SOL     OW11209   4.325   0.101   6.336
 3437SOL    HW111210   4.347   0.199   6.339
 3437SOL    HW211211   4.407   0.050   6.312
 3438SOL     OW11212   1.624   3.114   6.759
 3438SOL    HW111213   1.695   3.185   6.755
 3438SOL    HW211214   1.591   3.095   6.666
 3439SOL     OW11215   2.869   0.095   5.031
 3439SOL    HW111216   2.824   0.181   5.051
 3439SOL    HW211217   2.827   0.022   5.084
 3440SOL     OW11218   4.256   3.640   1.043
 3440SOL    HW111219   4.356   3.642   1.049
 3440SOL    HW211220   4.217   3.706   1.107
 3441SOL     OW11221   4.502   0.048   3.705
 3441SOL    HW111222   4.466   0.035   3.797
 3441SOL    HW211223   4.602   0.038   3.707
 3442SOL     OW11224   2.257   4.983   3.443
 3442SOL    HW111225   2.201   5.016   3.367
 3442SOL    HW211226   2.241   4.885   3.456
 3443SOL     OW11227   5.845   1.512   3.277
 3443SOL    HW111228   5.814   1.521   3.372
 3443SOL    HW211229   5.825   1.420   3.244
 3444SOL     OW11230   4.949   5.368   6.604
 3444SOL    HW111231   4.906   5.305   6.539
 3444SOL    HW211232   5.025   5.322   6.650
 3445SOL     OW11233   6.522   3.869   4.413
 3445SOL    HW111234   6.536   3.772   4.434
 3445SOL    HW211235   6.515   3.881   4.314
 3446SOL     OW11236   4.722   1.084   2.892
 3446SOL    HW111237   4.771   1.082   2.805
 3446SOL    HW211238   4.658   1.007   2.896
 3447SOL     OW11239   5.794   4.925   0.160
 3447SOL    HW111240   5.800   4.981   0.078
 3447SOL    HW211241   5.737   4.844   0.141
 3448SOL     OW11242   3.664   6.674   0.857
 3448SOL    HW111243   3.651   6.667   0.758
 3448SOL    HW211244   3.597   6.614   0.903
 3449SOL     OW11245   6.378   6.309   2.399
 3449SOL    HW111246   6.356   6.279   2.306
 3449SOL    HW211247   6.392   6.408   2.399
 3450SOL     OW11248   0.823   2.066   1.237
 3450SOL    HW111249   0.748   2.006   1.212
 3450SOL    HW211250   0.794   2.161   1.229
 3451SOL     OW11251   0.763   5.835   3.585
 3451SOL    HW111252   0.727   5.747   3.618
 3451SOL    HW211253   0.691   5.904   3.590
 3452SOL     OW11254   6.534   0.669   6.847
 3452SOL    HW111255   6.630   0.692   6.832
 3452SOL    HW211256   6.518   0.661   6.946
 3453SOL     OW11257   5.737   5.746   5.078
 3453SOL    HW111258   5.818   5.803   5.091
 3453SOL    HW211259   5.765   5.658   5.038
 3454SOL     OW11260   1.656   1.213   6.583
 3454SOL    HW111261   1.563   1.249   6.578
 3454SOL    HW211262   1.652   1.115   6.604
 3455SOL     OW11263   1.212   3.075   4.690
 3455SOL    HW111264   1.230   3.004   4.758
 3455SOL    HW211265   1.185   3.159   4.737
 3456SOL     OW11266   6.052   6.042   2.200
 3456SOL    HW111267   6.004   6.039   2.113
 3456SOL    HW211268   6.079   5.950   2.227
 3457SOL     OW11269   2.618   5.284   3.979
 3457SOL    HW111270   2.684   5.350   4.016
 3457SOL    HW211271   2.658   5.193   3.978
 3458SOL     OW11272   5.563   0.477   0.060
 3458SOL    HW111273   5.511   0.426   7.014
 3458SOL    HW211274   5.636   0.528   0.014
 3459SOL     OW11275   0.643   3.587   3.326
 3459SOL    HW111276   0.710   3.523   3.364
 3459SOL    HW211277   0.681   3.680   3.328
 3460SOL     OW11278   3.393   3.133   0.565
 3460SOL    HW111279   3.356   3.107   0.654
 3460SOL    HW211280   3.319   3.163   0.505
 3461SOL     OW11281   3.728   5.331   4.136
 3461SOL    HW111282   3.702   5.266   4.064
 3461SOL    HW211283   3.648   5.382   4.166
 3462SOL     OW11284   6.214   3.007   2.122
 3462SOL    HW111285   6.270   2.934   2.159
 3462SOL    HW211286   6.170   2.977   2.038
 3463SOL     OW11287   0.421   3.015   2.851
 3463SOL    HW111288   0.390   3.108   2.832
 3463SOL    HW211289   0.474   2.981   2.774
 3464SOL     OW11290   5.805   2.442   0.023
 3464SOL    HW111291   5.830   2.442   0.120
 3464SOL    HW211292   5.710   2.471   0.013
 3465SOL     OW11293   2.000   3.527   1.594
 3465SOL    HW111294   2.024   3.582   1.674
 3465SOL    HW211295   1.901   3.512   1.592
 3466SOL     OW11296   5.644   5.290   5.626
 3466SOL    HW111297   5.595   5.309   5.541
 3466SOL    HW211298   5.595   5.331   5.703
 3467SOL     OW11299   3.269   1.450   0.621
 3467SOL    HW111300   3.271   1.350   0.627
 3467SOL    HW211301   3.356   1.486   0.653
 3468SOL     OW11302   4.734   1.387   2.180
 3468SOL    HW111303   4.789   1.409   2.261
 3468SOL    HW211304   4.728   1.468   2.121
 3469SOL     OW11305   4.932   0.315   6.618
 3469SOL    HW111306   5.026   0.289   6.596
 3469SOL    HW211307   4.907   0.396   6.566
 3470SOL     OW11308   0.587   2.923   1.769
 3470SOL    HW111309   0.555   2.934   1.676
 3470SOL    HW211310   0.682   2.890   1.769
 3471SOL     OW11311   4.692   4.412   3.692
 3471SOL    HW111312   4.669   4.346   3.764
 3471SOL    HW211313   4.629   4.489   3.697
 3472SOL     OW11314   3.599   1.521   2.614
 3472SOL    HW111315   3.610   1.599   2.676
 3472SOL    HW211316   3.607   1.552   2.519
 3473SOL     OW11317   0.043   3.390   3.587
 3473SOL    HW111318   0.086   3.300   3.596
 3473SOL    HW211319   6.988   3.383   3.524
 3474SOL     OW11320   0.330   4.048   3.925
 3474SOL    HW111321   0.351   3.950   3.925
 3474SOL    HW211322   0.234   4.061   3.949
 3475SOL     OW11323   0.768   4.832   3.894
 3475SOL    HW111324   0.744   4.853   3.799
 3475SOL    HW211325   0.737   4.740   3.917
 3476SOL     OW11326   1.910   1.501   3.363
 3476SOL    HW111327   1.830   1.490   3.304
 3476SOL    HW211328   1.916   1.423   3.426
 3477SOL     OW11329   0.811   3.603   0.378
 3477SOL    HW111330   0.760   3.674   0.329
 3477SOL    HW211331   0.881   3.565   0.318
 3478SOL     OW11332   2.258   0.117   6.662
 3478SOL    HW111333   2.341   0.172   6.657
 3478SOL    HW211334   2.188   0.167   6.713
 3479SOL     OW11335   0.774   1.762   3.792
 3479SOL    HW111336   0.715   1.763   3.872
 3479SOL    HW211337   0.800   1.856   3.769
 3480SOL     OW11338   0.847   5.848   6.689
 3480SOL    HW111339   0.752   5.837   6.718
 3480SOL    HW211340   0.906   5.787   6.742
 3481SOL     OW11341   5.572   0.990   0.714
 3481SOL    HW111342   5.480   1.007   0.679
 3481SOL    HW211343   5.610   0.910   0.668
 3482SOL     OW11344   6.125   1.819   2.949
 3482SOL    HW111345   6.074   1.793   3.031
 3482SOL    HW211346   6.223   1.817   2.969
 3483SOL     OW11347   5.378   2.372   3.372
 3483SOL    HW111348   5.429   2.289   3.394
 3483SOL    HW211349   5.441   2.443   3.342
 3484SOL     OW11350   1.287   3.438   6.802
 3484SOL    HW111351   1.318   3.345   6.822
 3484SOL    HW211352   1.324   3.500   6.872
 3485SOL     OW11353   0.542   2.361   5.158
 3485SOL    HW111354   0.588   2.408   5.083
 3485SOL    HW211355   0.519   2.268   5.130
 3486SOL     OW11356   2.189   0.412   4.095
 3486SOL    HW111357   2.146   0.323   4.081
 3486SOL    HW211358   2.221   0.419   4.190
 3487SOL     OW11359   6.566   2.398   6.942
 3487SOL    HW111360   6.501   2.324   6.928
 3487SOL    HW211361   6.543   2.448   0.003
 3488SOL     OW11362   5.558   0.748   4.342
 3488SOL    HW111363   5.522   0.753   4.436
 3488SOL    HW211364   5.657   0.760   4.344
 3489SOL     OW11365   3.332   6.733   1.129
 3489SOL    HW111366   3.326   6.789   1.046
 3489SOL    HW211367   3.306   6.787   1.209
 3490SOL     OW11368   3.737   5.028   1.518
 3490SOL    HW111369   3.779   4.942   1.547
 3490SOL    HW211370   3.746   5.038   1.419
 3491SOL     OW11371   4.275   3.595   6.070
 3491SOL    HW111372   4.260   3.613   6.168
 3491SOL    HW211373   4.333   3.514   6.060
 3492SOL     OW11374   6.509   4.384   1.369
 3492SOL    HW111375   6.447   4.374   1.291
 3492SOL    HW211376   6.590   4.328   1.355
 3493SOL     OW11377   6.660   3.873   3.940
 3493SOL    HW111378   6.756   3.877   3.910
 3493SOL    HW211379   6.641   3.783   3.978
 3494SOL     OW11380   2.766   1.364   1.976
 3494SOL    HW111381   2.695   1.434   1.984
 3494SOL    HW211382   2.856   1.407   1.982
 3495SOL     OW11383   0.711   3.778   2.606
 3495SOL    HW111384   0.620   3.788   2.648
 3495SOL    HW211385   0.741   3.683   2.615
 3496SOL     OW11386   5.676   4.888   0.947
 3496SOL    HW111387   5.581   4.857   0.936
 3496SOL    HW211388   5.732   4.811   0.979
 3497SOL     OW11389   3.336   1.066   3.686
 3497SOL    HW111390   3.274   1.095   3.759
 3497SOL    HW211391   3.294   0.993   3.633
 3498SOL     OW11392   2.971   1.365   2.250
 3498SOL    HW111393   2.877   1.390   2.273
 3498SOL    HW211394   2.998   1.413   2.167
 3499SOL     OW11395   6.699   5.359   4.585
 3499SOL    HW111396   6.732   5.281   4.638
 3499SOL    HW211397   6.647   5.421   4.645
 3500SOL     OW11398   2.152   2.945   4.171
 3500SOL    HW111399   2.074   2.888   4.197
 3500SOL    HW211400   2.214   2.892   4.113
 3501SOL     OW11401   2.554   0.007   5.943
 3501SOL    HW111402   2.643   7.003   5.979
 3501SOL    HW211403   2.522   6.960   5.879
 3502SOL     OW11404   6.242   3.190   1.412
 3502SOL    HW111405   6.213   3.143   1.496
 3502SOL    HW211406   6.271   3.283   1.435
 3503SOL     OW11407   0.145   6.238   5.529
 3503SOL    HW111408   0.179   6.173   5.461
 3503SOL    HW211409   0.046   6.244   5.523
 3504SOL     OW11410   1.882   1.053   2.055
 3504SOL    HW111411   1.922   0.962   2.065
 3504SOL    HW211412   1.943   1.121   2.097
 3505SOL     OW11413   5.537   5.545   5.405
 3505SOL    HW111414   5.492   5.599   5.333
 3505SOL    HW211415   5.517   5.586   5.494
 3506SOL     OW11416   5.731   4.571   4.696
 3506SOL    HW111417   5.786   4.491   4.675
 3506SOL    HW211418   5.751   4.644   4.631
 3507SOL     OW11419   2.476   6.911   0.172
 3507SOL    HW111420   2.432   6.822   0.177
 3507SOL    HW211421   2.495   6.934   0.077
 3508SOL     OW11422   2.687   2.511   6.456
 3508SOL    HW111423   2.752   2.582   6.481
 3508SOL    HW211424   2.710   2.426   6.503
 3509SOL     OW11425   5.620   6.610   0.085
 3509SOL    HW111426   5.520   6.614   0.092
 3509SOL    HW211427   5.648   6.616   7.012
 3510SOL     OW11428   1.781   0.547   1.236
 3510SOL    HW111429   1.695   0.524   1.280
 3510SOL    HW211430   1.852   0.557   1.306
 3511SOL     OW11431   1.679   4.467   1.654
 3511SOL    HW111432   1.619   4.438   1.579
 3511SOL    HW211433   1.740   4.539   1.622
 3512SOL     OW11434   0.894   3.697   0.860
 3512SOL    HW111435   0.893   3.790   0.895
 3512SOL    HW211436   0.963   3.643   0.909
 3513SOL     OW11437   5.959   1.634   1.593
 3513SOL    HW111438   5.872   1.592   1.566
 3513SOL    HW211439   5.943   1.728   1.622
 3514SOL     OW11440   5.851   0.225   2.072
 3514SOL    HW111441   5.863   0.179   1.984
 3514SOL    HW211442   5.859   0.159   2.146
 3515SOL     OW11443   5.225   6.039   3.791
 3515SOL    HW111444   5.174   6.038   3.877
 3515SOL    HW211445   5.226   6.131   3.754
 3516SOL     OW11446   5.307   6.182   1.081
 3516SOL    HW111447   5.336   6.116   1.150
 3516SOL    HW211448   5.350   6.271   1.099
 3517SOL     OW11449   0.185   1.873   1.379
 3517SOL    HW111450   0.180   1.884   1.478
 3517SOL    HW211451   0.093   1.857   1.342
 3518SOL     OW11452   5.308   2.011   5.014
 3518SOL    HW111453   5.308   1.911   5.008
 3518SOL    HW211454   5.356   2.049   4.935
 3519SOL     OW11455   2.110   1.166   5.749
 3519SOL    HW111456   2.042   1.135   5.683
 3519SOL    HW211457   2.064   1.207   5.828
 3520SOL     OW11458   3.160   0.120   0.120
 3520SOL    HW111459   3.080   0.075   0.158
 3520SOL    HW211460   3.237   0.056   0.118
 3521SOL     OW11461   3.866   2.867   6.582
 3521SOL    HW111462   3.929   2.789   6.586
 3521SOL    HW211463   3.827   2.883   6.673
 3522SOL     OW11464   6.366   5.106   6.618
 3522SOL    HW111465   6.449   5.051   6.616
 3522SOL    HW211466   6.302   5.073   6.547
 3523SOL     OW11467   1.701   4.515   5.103
 3523SOL    HW111468   1.682   4.497   5.007
 3523SOL    HW211469   1.708   4.428   5.152
 3524SOL     OW11470   4.963   1.823   2.199
 3524SOL    HW111471   5.010   1.881   2.132
 3524SOL    HW211472   4.902   1.880   2.255
 3525SOL     OW11473   6.224   3.311   4.611
 3525SOL    HW111474   6.126   3.323   4.623
 3525SOL    HW211475   6.264   3.396   4.576
 3526SOL     OW11476   2.089   6.877   3.629
 3526SOL    HW111477   2.162   6.934   3.667
 3526SOL    HW211478   2.004   6.892   3.680
 3527SOL     OW11479   5.863   3.258   5.952
 3527SOL    HW111480   5.885   3.354   5.940
 3527SOL    HW211481   5.784   3.248   6.013
 3528SOL     OW11482   2.220   6.240   5.213
 3528SOL    HW111483   2.124   6.267   5.214
 3528SOL    HW211484   2.238   6.186   5.130
 3529SOL     OW11485   4.088   6.906   0.747
 3529SOL    HW111486   4.161   6.845   0.777
 3529SOL    HW211487   4.003   6.880   0.792
 3530SOL     OW11488   6.960   5.029   1.924
 3530SOL    HW111489   6.885   5.090   1.947
 3530SOL    HW211490   6.930   4.964   1.853
 3531SOL     OW11491   5.645   2.596   0.839
 3531SOL    HW111492   5.573   2.640   0.893
 3531SOL    HW211493   5.706   2.665   0.801
 3532SOL     OW11494   2.456   0.950   1.552
 3532SOL    HW111495   2.488   0.960   1.458
 3532SOL    HW211496   2.396   1.027   1.575
 3533SOL     OW11497   0.618   1.380   2.554
 3533SOL    HW111498   0.587   1.417   2.641
 3533SOL    HW211499   0.616   1.452   2.484
 3534SOL     OW11500   0.797   2.274   1.674
 3534SOL    HW111501   0.757   2.327   1.599
 3534SOL    HW211502   0.764   2.180   1.671
 3535SOL     OW11503   1.959   5.408   6.005
 3535SOL    HW111504   1.967   5.422   6.104
 3535SOL    HW211505   1.952   5.497   5.959
 3536SOL     OW11506   2.980   2.209   3.363
 3536SOL    HW111507   2.973   2.214   3.264
 3536SOL    HW211508   3.040   2.132   3.388
 3537SOL     OW11509   2.155   5.663   2.372
 3537SOL    HW111510   2.196   5.709   2.293
 3537SOL    HW211511   2.149   5.565   2.354
 3538SOL     OW11512   2.264   5.809   5.465
 3538SOL    HW111513   2.347   5.752   5.461
 3538SOL    HW211514   2.236   5.832   5.372
 3539SOL     OW11515   3.269   3.454   4.588
 3539SOL    HW111516   3.333   3.448   4.511
 3539SOL    HW211517   3.179   3.424   4.558
 3540SOL     OW11518   2.111   2.189   4.665
 3540SOL    HW111519   2.044   2.134   4.616
 3540SOL    HW211520   2.182   2.130   4.702
 3541SOL     OW11521   2.826   2.389   5.838
 3541SOL    HW111522   2.870   2.465   5.886
 3541SOL    HW211523   2.851   2.392   5.741
 3542SOL     OW11524   1.443   4.919   2.745
 3542SOL    HW111525   1.458   5.016   2.723
 3542SOL    HW211526   1.514   4.889   2.809
 3543SOL     OW11527   6.113   2.719   3.733
 3543SOL    HW111528   6.130   2.682   3.824
 3543SOL    HW211529   6.017   2.746   3.725
 3544SOL     OW11530   1.993   4.371   6.445
 3544SOL    HW111531   2.061   4.419   6.390
 3544SOL    HW211532   1.932   4.319   6.384
 3545SOL     OW11533   3.706   6.365   6.604
 3545SOL    HW111534   3.608   6.385   6.600
 3545SOL    HW211535   3.743   6.394   6.693
 3546SOL     OW11536   0.373   4.405   3.266
 3546SOL    HW111537   0.401   4.486   3.317
 3546SOL    HW211538   0.278   4.383   3.288
 3547SOL     OW11539   4.521   4.462   4.100
 3547SOL    HW111540   4.511   4.512   4.014
 3547SOL    HW211541   4.445   4.484   4.161
 3548SOL     OW11542   5.544   1.662   6.078
 3548SOL    HW111543   5.559   1.694   6.172
 3548SOL    HW211544   5.585   1.572   6.066
 3549SOL     OW11545   6.893   5.162   4.648
 3549SOL    HW111546   6.947   5.163   4.564
 3549SOL    HW211547   6.874   5.067   4.675
 3550SOL     OW11548   4.802   2.892   2.577
 3550SOL    HW111549   4.847   2.904   2.488
 3550SOL    HW211550   4.854   2.828   2.632
 3551SOL     OW11551   3.748   5.953   3.052
 3551SOL    HW111552   3.683   5.915   2.987
 3551SOL    HW211553   3.837   5.907   3.042
 3552SOL     OW11554   4.749   6.040   2.378
 3552SOL    HW111555   4.784   6.054   2.286
 3552SOL    HW211556   4.723   5.945   2.390
 3553SOL     OW11557   5.781   3.274   1.308
 3553SOL    HW111558   5.761   3.257   1.211
 3553SOL    HW211559   5.733   3.357   1.337
 3554SOL     OW11560   3.534   3.257   1.026
 3554SOL    HW111561   3.530   3.158   1.035
 3554SOL    HW211562   3.508   3.300   1.112
 3555SOL     OW11563   0.718   3.207   2.820
 3555SOL    HW111564   0.761   3.293   2.844
 3555SOL    HW211565   0.648   3.223   2.750
 3556SOL     OW11566   3.828   0.754   5.190
 3556SOL    HW111567   3.770   0.800   5.257
 3556SOL    HW211568   3.771   0.717   5.117
 3557SOL     OW11569   0.633   0.523   3.886
 3557SOL    HW111570   0.639   0.620   3.908
 3557SOL    HW211571   0.669   0.469   3.962
 3558SOL     OW11572   0.248   6.248   1.531
 3558SOL    HW111573   0.295   6.216   1.614
 3558SOL    HW211574   0.201   6.171   1.487
 3559SOL     OW11575   0.489   0.119   4.293
 3559SOL    HW111576   0.472   0.102   4.196
 3559SOL    HW211577   0.459   0.212   4.316
 3560SOL     OW11578   1.926   5.741   1.262
 3560SOL    HW111579   1.906   5.758   1.166
 3560SOL    HW211580   1.845   5.705   1.308
 3561SOL     OW11581   4.906   5.164   5.741
 3561SOL    HW111582   4.912   5.252   5.695
 3561SOL    HW211583   4.862   5.097   5.680
 3562SOL     OW11584   4.732   0.890   4.241
 3562SOL    HW111585   4.745   0.989   4.247
 3562SOL    HW211586   4.789   0.845   4.310
 3563SOL     OW11587   5.263   0.870   1.797
 3563SOL    HW111588   5.309   0.948   1.754
 3563SOL    HW211589   5.167   0.869   1.772
 3564SOL     OW11590   1.552   4.617   3.936
 3564SOL    HW111591   1.597   4.695   3.892
 3564SOL    HW211592   1.511   4.558   3.867
 3565SOL     OW11593   3.588   6.633   5.077
 3565SOL    HW111594   3.675   6.660   5.037
 3565SOL    HW211595   3.551   6.556   5.026
 3566SOL     OW11596   6.989   3.053   5.852
 3566SOL    HW111597   0.055   3.009   5.840
 3566SOL    HW211598   7.001   3.152   5.859
 3567SOL     OW11599   1.690   2.459   0.284
 3567SOL    HW111600   1.704   2.442   0.381
 3567SOL    HW211601   1.769   2.426   0.232
 3568SOL     OW11602   5.383   5.072   2.811
 3568SOL    HW111603   5.332   5.068   2.725
 3568SOL    HW211604   5.417   4.981   2.833
 3569SOL     OW11605   3.103   3.124   5.405
 3569SOL    HW111606   3.048   3.104   5.486
 3569SOL    HW211607   3.118   3.039   5.354
 3570SOL     OW11608   5.213   0.592   5.535
 3570SOL    HW111609   5.237   0.581   5.438
 3570SOL    HW211610   5.291   0.633   5.583
 3571SOL     OW11611   1.473   0.759   5.000
 3571SOL    HW111612   1.513   0.851   4.996
 3571SOL    HW211613   1.492   0.711   4.914
 3572SOL     OW11614   5.429   3.710   2.417
 3572SOL    HW111615   5.369   3.739   2.342
 3572SOL    HW211616   5.388   3.738   2.504
 3573SOL     OW11617   6.764   4.510   2.514
 3573SOL    HW111618   6.793   4.547   2.425
 3573SOL    HW211619   6.719   4.422   2.500
 3574SOL     OW11620   2.103   3.405   6.710
 3574SOL    HW111621   2.121   3.384   6.614
 3574SOL    HW211622   2.022   3.356   6.741
 3575SOL     OW11623   5.063   5.467   1.179
 3575SOL    HW111624   4.994   5.404   1.143
 3575SOL    HW211625   5.022   5.558   1.192
 3576SOL     OW11626   0.218   2.578   0.424
 3576SOL    HW111627   0.260   2.508   0.366
 3576SOL    HW211628   0.127   2.548   0.451
 3577SOL     OW11629   2.235   3.217   5.384
 3577SOL    HW111630   2.270   3.123   5.381
 3577SOL    HW211631   2.222   3.251   5.291
 3578SOL     OW11632   4.000   3.028   1.164
 3578SOL    HW111633   4.069   2.987   1.224
 3578SOL    HW211634   3.911   3.026   1.210
 3579SOL     OW11635   0.202   3.215   2.997
 3579SOL    HW111636   0.241   3.152   3.064
 3579SOL    HW211637   0.125   3.172   2.950
 3580SOL     OW11638   7.013   3.965   1.388
 3580SOL    HW111639   7.014   3.947   1.486
 3580SOL    HW211640   6.920   3.960   1.353
 3581SOL     OW11641   1.139   6.499   3.144
 3581SOL    HW111642   1.188   6.493   3.231
 3581SOL    HW211643   1.168   6.581   3.095
 3582SOL     OW11644   3.458   4.988   5.857
 3582SOL    HW111645   3.451   4.976   5.758
 3582SOL    HW211646   3.413   4.912   5.903
 3583SOL     OW11647   0.638   4.409   0.720
 3583SOL    HW111648   0.579   4.376   0.793
 3583SOL    HW211649   0.729   4.368   0.729
 3584SOL     OW11650   6.071   5.207   5.425
 3584SOL    HW111651   6.016   5.257   5.492
 3584SOL    HW211652   6.093   5.117   5.460
 3585SOL     OW11653   3.261   1.781   4.972
 3585SOL    HW111654   3.164   1.784   4.995
 3585SOL    HW211655   3.296   1.875   4.966
 3586SOL     OW11656   6.078   2.920   4.042
 3586SOL    HW111657   6.126   2.834   4.032
 3586SOL    HW211658   6.051   2.933   4.138
 3587SOL     OW11659   3.375   5.856   6.738
 3587SOL    HW111660   3.367   5.951   6.711
 3587SOL    HW211661   3.451   5.813   6.689
 3588SOL     OW11662   6.580   4.423   4.014
 3588SOL    HW111663   6.542   4.420   4.106
 3588SOL    HW211664   6.586   4.518   3.983
 3589SOL     OW11665   6.856   0.068   6.066
 3589SOL    HW111666   6.771   0.059   6.014
 3589SOL    HW211667   6.898   0.157   6.046
 3590SOL     OW11668   0.178   4.153   0.606
 3590SOL    HW111669   0.242   4.085   0.570
 3590SOL    HW211670   0.220   4.244   0.604
 3591SOL     OW11671   5.677   2.918   0.202
 3591SOL    HW111672   5.665   2.849   0.273
 3591SOL    HW211673   5.732   2.879   0.128
 3592SOL     OW11674   0.844   0.611   2.356
 3592SOL    HW111675   0.874   0.634   2.449
 3592SOL    HW211676   0.863   0.688   2.296
 3593SOL     OW11677   0.285   4.825   5.878
 3593SOL    HW111678   0.382   4.812   5.856
 3593SOL    HW211679   0.272   4.914   5.921
 3594SOL     OW11680   4.323   6.087   5.406
 3594SOL    HW111681   4.306   6.185   5.395
 3594SOL    HW211682   4.313   6.042   5.317
 3595SOL     OW11683   6.279   6.161   0.073
 3595SOL    HW111684   6.214   6.237   0.067
 3595SOL    HW211685   6.246   6.085   0.017
 3596SOL     OW11686   4.720   1.798   2.977
 3596SOL    HW111687   4.627   1.834   2.973
 3596SOL    HW211688   4.738   1.760   3.068
 3597SOL     OW11689   1.934   3.330   5.827
 3597SOL    HW111690   1.970   3.321   5.734
 3597SOL    HW211691   1.875   3.252   5.848
 3598SOL     OW11692   1.559   6.649   5.755
 3598SOL    HW111693   1.605   6.596   5.827
 3598SOL    HW211694   1.491   6.592   5.710
 3599SOL     OW11695   4.751   1.821   5.969
 3599SOL    HW111696   4.775   1.730   6.002
 3599SOL    HW211697   4.662   1.847   6.004
 3600SOL     OW11698   1.933   3.177   0.938
 3600SOL    HW111699   1.918   3.125   1.022
 3600SOL    HW211700   2.017   3.230   0.946
 3601SOL     OW11701   5.347   1.676   5.456
 3601SOL    HW111702   5.413   1.665   5.530
 3601SOL    HW211703   5.263   1.717   5.492
 3602SOL     OW11704   2.130   2.645   1.416
 3602SOL    HW111705   2.040   2.616   1.447
 3602SOL    HW211706   2.189   2.565   1.405
 3603SOL     OW11707   3.502   0.879   6.316
 3603SOL    HW111708   3.557   0.809   6.271
 3603SOL    HW211709   3.528   0.970   6.282
 3604SOL     OW11710   6.754   0.677   3.464
 3604SOL    HW111711   6.778   0.723   3.550
 3604SOL    HW211712   6.752   0.578   3.478
 3605SOL     OW11713   1.631   5.176   3.922
 3605SOL    HW111714   1.650   5.140   4.013
 3605SOL    HW211715   1.709   5.161   3.863
 3606SOL     OW11716   1.537   6.434   1.305
 3606SOL    HW111717   1.443   6.465   1.318
 3606SOL    HW211718   1.599   6.496   1.352
 3607SOL     OW11719   5.635   2.688   2.658
 3607SOL    HW111720   5.733   2.705   2.648
 3607SOL    HW211721   5.591   2.693   2.568
 3608SOL     OW11722   5.031   1.937   4.096
 3608SOL    HW111723   4.956   1.952   4.160
 3608SOL    HW211724   5.065   1.844   4.105
 3609SOL     OW11725   2.177   6.379   4.213
 3609SOL    HW111726   2.197   6.476   4.209
 3609SOL    HW211727   2.180   6.348   4.309
 3610SOL     OW11728   1.885   0.609   5.414
 3610SOL    HW111729   1.790   0.582   5.427
 3610SOL    HW211730   1.945   0.538   5.453
 3611SOL     OW11731   4.869   4.532   4.519
 3611SOL    HW111732   4.921   4.601   4.469
 3611SOL    HW211733   4.781   4.518   4.474
 3612SOL     OW11734   6.482   1.387   6.569
 3612SOL    HW111735   6.468   1.307   6.511
 3612SOL    HW211736   6.577   1.415   6.565
 3613SOL     OW11737   4.476   5.145   1.612
 3613SOL    HW111738   4.445   5.166   1.519
 3613SOL    HW211739   4.450   5.052   1.636
 3614SOL     OW11740   3.359   3.780   6.884
 3614SOL    HW111741   3.435   3.739   6.833
 3614SOL    HW211742   3.303   3.835   6.821
 3615SOL     OW11743   5.927   3.109   5.671
 3615SOL    HW111744   5.850   3.098   5.734
 3615SOL    HW211745   5.993   3.172   5.711
 3616SOL     OW11746   2.060   2.438   6.168
 3616SOL    HW111747   1.988   2.430   6.099
 3616SOL    HW211748   2.034   2.384   6.249
 3617SOL     OW11749   4.187   6.466   5.629
 3617SOL    HW111750   4.201   6.392   5.695
 3617SOL    HW211751   4.209   6.554   5.673
 3618SOL     OW11752   2.168   3.509   5.138
 3618SOL    HW111753   2.077   3.551   5.132
 3618SOL    HW211754   2.230   3.572   5.184
 3619SOL     OW11755   5.652   3.442   0.455
 3619SOL    HW111756   5.638   3.406   0.547
 3619SOL    HW211757   5.595   3.523   0.441
 3620SOL     OW11758   6.279   6.097   4.505
 3620SOL    HW111759   6.204   6.162   4.521
 3620SOL    HW211760   6.250   6.006   4.534
 3621SOL     OW11761   3.463   3.283   3.941
 3621SOL    HW111762   3.379   3.335   3.927
 3621SOL    HW211763   3.441   3.194   3.981
 3622SOL     OW11764   0.761   0.908   1.368
 3622SOL    HW111765   0.846   0.858   1.387
 3622SOL    HW211766   0.683   0.854   1.399
 3623SOL     OW11767   0.296   5.574   6.351
 3623SOL    HW111768   0.267   5.597   6.258
 3623SOL    HW211769   0.294   5.475   6.363
 3624SOL     OW11770   2.179   0.577   1.223
 3624SOL    HW111771   2.242   0.628   1.281
 3624SOL    HW211772   2.139   0.638   1.154
 3625SOL     OW11773   6.643   3.057   6.747
 3625SOL    HW111774   6.635   3.156   6.734
 3625SOL    HW211775   6.720   3.022   6.694
 3626SOL     OW11776   0.040   3.945   4.259
 3626SOL    HW111777   7.007   3.908   4.333
 3626SOL    HW211778   0.111   3.879   4.234
 3627SOL     OW11779   4.466   2.918   1.409
 3627SOL    HW111780   4.434   2.836   1.456
 3627SOL    HW211781   4.391   2.958   1.356
 3628SOL     OW11782   1.116   2.037   2.084
 3628SOL    HW111783   1.199   2.070   2.039
 3628SOL    HW211784   1.038   2.051   2.024
 3629SOL     OW11785   1.340   1.021   3.355
 3629SOL    HW111786   1.317   0.931   3.393
 3629SOL    HW211787   1.261   1.081   3.365
 3630SOL     OW11788   6.765   2.496   2.670
 3630SOL    HW111789   6.717   2.545   2.743
 3630SOL    HW211790   6.708   2.420   2.638
 3631SOL     OW11791   2.008   6.990   3.363
 3631SOL    HW111792   2.032   6.942   3.447
 3631SOL    HW211793   1.910   6.984   3.347
 3632SOL     OW11794   4.231   3.589   0.751
 3632SOL    HW111795   4.263   3.565   0.842
 3632SOL    HW211796   4.133   3.611   0.754
 3633SOL     OW11797   3.340   2.651   5.767
 3633SOL    HW111798   3.288   2.696   5.695
 3633SOL    HW211799   3.426   2.617   5.730
 3634SOL     OW11800   2.559   6.115   5.852
 3634SOL    HW111801   2.604   6.204   5.861
 3634SOL    HW211802   2.620   6.043   5.886
 3635SOL     OW11803   2.649   1.274   1.704
 3635SOL    HW111804   2.683   1.270   1.797
 3635SOL    HW211805   2.699   1.209   1.647
 3636SOL     OW11806   6.688   5.284   0.582
 3636SOL    HW111807   6.719   5.312   0.673
 3636SOL    HW211808   6.743   5.331   0.512
 3637SOL     OW11809   0.882   3.314   6.623
 3637SOL    HW111810   0.910   3.302   6.528
 3637SOL    HW211811   0.783   3.300   6.631
 3638SOL     OW11812   6.399   3.963   2.684
 3638SOL    HW111813   6.432   4.037   2.743
 3638SOL    HW211814   6.456   3.958   2.602
 3639SOL     OW11815   3.812   4.113   4.842
 3639SOL    HW111816   3.835   4.115   4.940
 3639SOL    HW211817   3.890   4.079   4.790
 3640SOL     OW11818   5.507   3.127   0.146
 3640SOL    HW111819   5.489   3.170   0.234
 3640SOL    HW211820   5.574   3.053   0.159
 3641SOL     OW11821   6.157   4.014   0.944
 3641SOL    HW111822   6.228   3.975   0.886
 3641SOL    HW211823   6.195   4.086   1.001
 3642SOL     OW11824   5.912   2.174   6.350
 3642SOL    HW111825   5.900   2.103   6.419
 3642SOL    HW211826   5.855   2.253   6.372
 3643SOL     OW11827   4.414   6.050   6.238
 3643SOL    HW111828   4.461   6.111   6.301
 3643SOL    HW211829   4.445   5.956   6.254
 3644SOL     OW11830   2.559   0.595   1.723
 3644SOL    HW111831   2.461   0.617   1.725
 3644SOL    HW211832   2.607   0.658   1.663
 3645SOL     OW11833   1.521   4.095   4.178
 3645SOL    HW111834   1.603   4.066   4.228
 3645SOL    HW211835   1.528   4.192   4.156
 3646SOL     OW11836   2.822   4.823   4.873
 3646SOL    HW111837   2.783   4.743   4.918
 3646SOL    HW211838   2.915   4.839   4.906
 3647SOL     OW11839   1.999   6.692   0.297
 3647SOL    HW111840   1.975   6.595   0.296
 3647SOL    HW211841   2.087   6.705   0.251
 3648SOL     OW11842   4.972   5.709   3.302
 3648SOL    HW111843   5.018   5.645   3.363
 3648SOL    HW211844   4.893   5.750   3.349
 3649SOL     OW11845   5.888   3.385   6.532
 3649SOL    HW111846   5.935   3.364   6.618
 3649SOL    HW211847   5.790   3.390   6.549
 3650SOL     OW11848   4.636   4.338   1.174
 3650SOL    HW111849   4.596   4.379   1.092
 3650SOL    HW211850   4.732   4.362   1.181
 3651SOL     OW11851   1.608   2.489   5.376
 3651SOL    HW111852   1.668   2.477   5.297
 3651SOL    HW211853   1.660   2.529   5.452
 3652SOL     OW11854   5.161   0.778   2.215
 3652SOL    HW111855   5.182   0.689   2.254
 3652SOL    HW211856   5.064   0.798   2.227
 3653SOL     OW11857   1.372   1.314   2.342
 3653SOL    HW111858   1.324   1.380   2.285
 3653SOL    HW211859   1.470   1.329   2.335
 3654SOL     OW11860   5.239   6.318   0.827
 3654SOL    HW111861   5.268   6.277   0.914
 3654SOL    HW211862   5.193   6.405   0.845
 3655SOL     OW11863   2.930   1.253   4.254
 3655SOL    HW111864   2.928   1.165   4.207
 3655SOL    HW211865   3.008   1.256   4.316
 3656SOL     OW11866   0.945   5.644   2.193
 3656SOL    HW111867   1.044   5.654   2.207
 3656SOL    HW211868   0.923   5.547   2.183
 3657SOL     OW11869   5.197   6.224   5.893
 3657SOL    HW111870   5.256   6.165   5.948
 3657SOL    HW211871   5.253   6.285   5.837
 3658SOL     OW11872   1.491   5.561   6.717
 3658SOL    HW111873   1.422   5.561   6.788
 3658SOL    HW211874   1.526   5.468   6.704
 3659SOL     OW11875   0.050   1.890   6.417
 3659SOL    HW111876   0.132   1.837   6.437
 3659SOL    HW211877   6.996   1.856   6.471
 3660SOL     OW11878   4.964   5.656   5.877
 3660SOL    HW111879   4.976   5.732   5.813
 3660SOL    HW211880   4.976   5.690   5.971
 3661SOL     OW11881   6.861   1.313   4.799
 3661SOL    HW111882   6.793   1.331   4.727
 3661SOL    HW211883   6.914   1.397   4.815
 3662SOL     OW11884   3.551   0.663   5.834
 3662SOL    HW111885   3.478   0.686   5.898
 3662SOL    HW211886   3.575   0.743   5.779
 3663SOL     OW11887   2.527   3.315   0.213
 3663SOL    HW111888   2.543   3.217   0.212
 3663SOL    HW211889   2.428   3.333   0.215
 3664SOL     OW11890   4.370   1.411   1.883
 3664SOL    HW111891   4.355   1.508   1.867
 3664SOL    HW211892   4.456   1.383   1.839
 3665SOL     OW11893   0.542   6.486   5.581
 3665SOL    HW111894   0.592   6.555   5.634
 3665SOL    HW211895   0.447   6.517   5.569
 3666SOL     OW11896   1.642   2.749   4.074
 3666SOL    HW111897   1.666   2.667   4.023
 3666SOL    HW211898   1.685   2.829   4.031
 3667SOL     OW11899   1.378   1.503   2.744
 3667SOL    HW111900   1.394   1.529   2.649
 3667SOL    HW211901   1.328   1.576   2.791
 3668SOL     OW11902   1.194   0.143   1.632
 3668SOL    HW111903   1.103   0.162   1.594
 3668SOL    HW211904   1.239   0.072   1.578
 3669SOL     OW11905   6.250   2.699   4.001
 3669SOL    HW111906   6.282   2.674   4.092
 3669SOL    HW211907   6.326   2.739   3.949
 3670SOL     OW11908   3.487   5.132   1.246
 3670SOL    HW111909   3.462   5.137   1.343
 3670SOL    HW211910   3.446   5.209   1.198
 3671SOL     OW11911   6.788   0.384   3.527
 3671SOL    HW111912   6.886   0.398   3.542
 3671SOL    HW211913   6.748   0.342   3.608
 3672SOL     OW11914   5.049   0.971   2.763
 3672SOL    HW111915   5.015   0.892   2.711
 3672SOL    HW211916   5.085   0.940   2.851
 3673SOL     OW11917   4.872   5.686   0.485
 3673SOL    HW111918   4.940   5.747   0.445
 3673SOL    HW211919   4.824   5.637   0.413
 3674SOL     OW11920   1.718   5.954   5.768
 3674SOL    HW111921   1.707   5.860   5.735
 3674SOL    HW211922   1.809   5.965   5.809
 3675SOL     OW11923   0.039   1.801   3.896
 3675SOL    HW111924   0.066   1.734   3.826
 3675SOL    HW211925   6.971   1.837   3.873
 3676SOL     OW11926   5.026   2.768   2.710
 3676SOL    HW111927   5.116   2.811   2.716
 3676SOL    HW211928   5.033   2.680   2.663
 3677SOL     OW11929   2.496   0.843   4.157
 3677SOL    HW111930   2.404   0.870   4.128
 3677SOL    HW211931   2.563   0.871   4.089
 3678SOL     OW11932   1.651   0.641   3.793
 3678SOL    HW111933   1.586   0.602   3.858
 3678SOL    HW211934   1.744   0.624   3.825
 3679SOL     OW11935   4.889   0.449   2.786
 3679SOL    HW111936   4.897   0.362   2.834
 3679SOL    HW211937   4.874   0.522   2.853
 3680SOL     OW11938   4.802   1.658   3.529
 3680SOL    HW111939   4.748   1.728   3.482
 3680SOL    HW211940   4.891   1.695   3.554
 3681SOL     OW11941   1.342   0.536   4.814
 3681SOL    HW111942   1.404   0.609   4.785
 3681SOL    HW211943   1.332   0.470   4.739
 3682SOL     OW11944   5.429   2.406   0.981
 3682SOL    HW111945   5.357   2.444   1.039
 3682SOL    HW211946   5.495   2.478   0.960
 3683SOL     OW11947   0.225   0.889   4.827
 3683SOL    HW111948   0.260   0.802   4.861
 3683SOL    HW211949   0.169   0.933   4.898
 3684SOL     OW11950   1.797   6.753   5.565
 3684SOL    HW111951   1.791   6.741   5.466
 3684SOL    HW211952   1.854   6.832   5.586
 3685SOL     OW11953   2.246   6.123   5.448
 3685SOL    HW111954   2.228   6.157   5.355
 3685SOL    HW211955   2.333   6.074   5.449
 3686SOL     OW11956   6.481   3.762   3.245
 3686SOL    HW111957   6.424   3.684   3.221
 3686SOL    HW211958   6.463   3.837   3.181
 3687SOL     OW11959   4.766   5.865   3.454
 3687SOL    HW111960   4.697   5.937   3.452
 3687SOL    HW211961   4.733   5.790   3.512
 3688SOL     OW11962   5.934   3.150   0.200
 3688SOL    HW111963   5.901   3.114   0.287
 3688SOL    HW211964   5.875   3.226   0.170
 3689SOL     OW11965   2.008   1.472   5.285
 3689SOL    HW111966   2.046   1.448   5.196
 3689SOL    HW211967   1.911   1.446   5.288
 3690SOL     OW11968   5.148   5.176   1.111
 3690SOL    HW111969   5.165   5.262   1.158
 3690SOL    HW211970   5.163   5.100   1.173
 3691SOL     OW11971   3.055   1.782   6.791
 3691SOL    HW111972   3.019   1.735   6.710
 3691SOL    HW211973   2.979   1.823   6.841
 3692SOL     OW11974   0.185   3.904   6.137
 3692SOL    HW111975   0.154   3.827   6.080
 3692SOL    HW211976   0.268   3.878   6.186
 3693SOL     OW11977   0.810   1.877   2.923
 3693SOL    HW111978   0.878   1.853   2.993
 3693SOL    HW211979   0.856   1.889   2.835
 3694SOL     OW11980   0.851   0.809   2.206
 3694SOL    HW111981   0.753   0.817   2.187
 3694SOL    HW211982   0.901   0.884   2.161
 3695SOL     OW11983   6.474   2.412   2.534
 3695SOL    HW111984   6.382   2.450   2.523
 3695SOL    HW211985   6.478   2.321   2.492
 3696SOL     OW11986   4.728   0.924   4.903
 3696SOL    HW111987   4.791   0.852   4.875
 3696SOL    HW211988   4.775   1.012   4.903
 3697SOL     OW11989   6.291   6.038   3.490
 3697SOL    HW111990   6.217   6.036   3.558
 3697SOL    HW211991   6.295   6.128   3.447
 3698SOL     OW11992   1.840   0.267   3.414
 3698SOL    HW111993   1.903   0.336   3.380
 3698SOL    HW211994   1.882   0.176   3.405
 3699SOL     OW11995   2.598   2.127   4.146
 3699SOL    HW111996   2.535   2.083   4.210
 3699SOL    HW211997   2.626   2.216   4.183
 3700SOL     OW11998   1.554   5.159   4.698
 3700SOL    HW111999   1.646   5.120   4.694
 3700SOL    HW212000   1.509   5.132   4.783
 3701SOL     OW12001   0.979   6.731   2.926
 3701SOL    HW112002   1.016   6.725   2.833
 3701SOL    HW212003   1.053   6.721   2.992
 3702SOL     OW12004   5.306   5.018   3.486
 3702SOL    HW112005   5.276   4.942   3.544
 3702SOL    HW212006   5.406   5.020   3.483
 3703SOL     OW12007   1.427   1.626   5.843
 3703SOL    HW112008   1.509   1.629   5.785
 3703SOL    HW212009   1.353   1.581   5.793
 3704SOL     OW12010   5.979   2.304   1.191
 3704SOL    HW112011   5.982   2.295   1.092
 3704SOL    HW212012   5.959   2.399   1.215
 3705SOL     OW12013   4.607   4.803   3.855
 3705SOL    HW112014   4.689   4.751   3.829
 3705SOL    HW212015   4.602   4.887   3.801
 3706SOL     OW12016   0.937   3.828   0.529
 3706SOL    HW112017   0.917   3.897   0.460
 3706SOL    HW212018   0.897   3.740   0.501
 3707SOL     OW12019   2.788   5.074   3.919
 3707SOL    HW112020   2.739   4.990   3.896
 3707SOL    HW212021   2.784   5.137   3.841
 3708SOL     OW12022   3.675   6.866   1.343
 3708SOL    HW112023   3.649   6.771   1.322
 3708SOL    HW212024   3.699   6.913   1.258
 3709SOL     OW12025   1.861   0.509   2.466
 3709SOL    HW112026   1.811   0.429   2.497
 3709SOL    HW212027   1.887   0.497   2.370
 3710SOL     OW12028   0.507   5.029   5.419
 3710SOL    HW112029   0.421   5.072   5.393
 3710SOL    HW212030   0.580   5.062   5.360
 3711SOL     OW12031   1.649   6.323   4.915
 3711SOL    HW112032   1.693   6.262   4.981
 3711SOL    HW212033   1.631   6.273   4.830
 3712SOL     OW12034   1.870   5.596   5.375
 3712SOL    HW112035   1.835   5.687   5.397
 3712SOL    HW212036   1.954   5.605   5.320
 3713SOL     OW12037   6.893   6.786   4.881
 3713SOL    HW112038   6.982   6.746   4.857
 3713SOL    HW212039   6.828   6.768   4.806
 3714SOL     OW12040   1.419   4.779   0.483
 3714SOL    HW112041   1.380   4.724   0.556
 3714SOL    HW212042   1.445   4.869   0.518
 3715SOL     OW12043   6.938   5.898   3.441
 3715SOL    HW112044   7.018   5.865   3.391
 3715SOL    HW212045   6.954   5.992   3.471
 3716SOL     OW12046   5.764   5.721   4.134
 3716SOL    HW112047   5.804   5.781   4.203
 3716SOL    HW212048   5.822   5.722   4.052
 3717SOL     OW12049   4.754   1.421   1.096
 3717SOL    HW112050   4.775   1.324   1.107
 3717SOL    HW212051   4.743   1.463   1.185
 3718SOL     OW12052   6.934   6.791   6.489
 3718SOL    HW112053   6.951   6.833   6.400
 3718SOL    HW212054   7.017   6.744   6.520
 3719SOL     OW12055   4.346   3.745   6.652
 3719SOL    HW112056   4.432   3.694   6.653
 3719SOL    HW212057   4.339   3.797   6.566
 3720SOL     OW12058   6.409   3.271   0.975
 3720SOL    HW112059   6.447   3.339   1.038
 3720SOL    HW212060   6.482   3.213   0.939
 3721SOL     OW12061   6.332   4.613   6.774
 3721SOL    HW112062   6.404   4.683   6.769
 3721SOL    HW212063   6.367   4.527   6.737
 3722SOL     OW12064   4.002   0.349   2.343
 3722SOL    HW112065   3.905   0.352   2.321
 3722SOL    HW212066   4.026   0.428   2.399
 3723SOL     OW12067   4.353   5.406   0.195
 3723SOL    HW112068   4.440   5.453   0.202
 3723SOL    HW212069   4.345   5.362   0.105
 3724SOL     OW12070   1.445   5.094   4.950
 3724SOL    HW112071   1.452   4.998   4.922
 3724SOL    HW212072   1.478   5.103   5.044
 3725SOL     OW12073   0.144   6.497   0.339
 3725SOL    HW112074   0.046   6.518   0.335
 3725SOL    HW212075   0.187   6.552   0.410
 3726SOL     OW12076   5.319   3.942   3.785
 3726SOL    HW112077   5.229   3.913   3.818
 3726SOL    HW212078   5.326   3.924   3.687
 3727SOL     OW12079   0.022   2.562   4.122
 3727SOL    HW112080   0.069   2.516   4.198
 3727SOL    HW212081   6.953   2.521   4.111
 3728SOL     OW12082   3.181   4.025   0.191
 3728SOL    HW112083   3.254   3.971   0.149
 3728SOL    HW212084   3.203   4.042   0.287
 3729SOL     OW12085   0.474   0.237   5.401
 3729SOL    HW112086   0.416   0.316   5.383
 3729SOL    HW212087   0.508   0.240   5.495
 3730SOL     OW12088   4.693   6.198   5.908
 3730SOL    HW112089   4.618   6.264   5.915
 3730SOL    HW212090   4.778   6.247   5.889
 3731SOL     OW12091   0.278   1.781   6.543
 3731SOL    HW112092   0.291   1.745   6.635
 3731SOL    HW212093   0.304   1.878   6.541
 3732SOL     OW12094   2.712   1.988   0.169
 3732SOL    HW112095   2.751   2.038   0.092
 3732SOL    HW212096   2.766   2.005   0.252
 3733SOL     OW12097   1.864   2.970   3.692
 3733SOL    HW112098   1.851   2.986   3.594
 3733SOL    HW212099   1.919   2.887   3.705
 3734SOL     OW12100   4.082   0.100   1.642
 3734SOL    HW112101   4.092   0.198   1.658
 3734SOL    HW212102   4.023   0.060   1.712
 3735SOL     OW12103   4.281   6.873   2.375
 3735SOL    HW112104   4.240   6.965   2.378
 3735SOL    HW212105   4.379   6.881   2.355
 3736SOL     OW12106   6.657   1.295   1.289
 3736SOL    HW112107   6.733   1.276   1.351
 3736SOL    HW212108   6.581   1.233   1.307
 3737SOL     OW12109   6.985   2.208   3.551
 3737SOL    HW112110   6.926   2.127   3.552
 3737SOL    HW212111   6.966   2.262   3.469
 3738SOL     OW12112   6.714   6.392   0.617
 3738SOL    HW112113   6.714   6.387   0.517
 3738SOL    HW212114   6.632   6.348   0.652
 3739SOL     OW12115   3.037   4.705   1.502
 3739SOL    HW112116   3.055   4.745   1.412
 3739SOL    HW212117   3.010   4.778   1.565
 3740SOL     OW12118   5.587   5.458   6.492
 3740SOL    HW112119   5.533   5.404   6.427
 3740SOL    HW212120   5.554   5.552   6.492
 3741SOL     OW12121   5.161   2.661   0.507
 3741SOL    HW112122   5.136   2.741   0.560
 3741SOL    HW212123   5.251   2.628   0.536
 3742SOL     OW12124   4.564   5.522   0.409
 3742SOL    HW112125   4.530   5.610   0.376
 3742SOL    HW212126   4.551   5.516   0.508
 3743SOL     OW12127   3.869   3.721   1.133
 3743SOL    HW112128   3.895   3.706   1.229
 3743SOL    HW212129   3.819   3.641   1.100
 3744SOL     OW12130   0.975   6.122   1.934
 3744SOL    HW112131   0.911   6.153   2.003
 3744SOL    HW212132   1.033   6.049   1.971
 3745SOL     OW12133   4.944   3.709   2.317
 3745SOL    HW112134   4.927   3.611   2.325
 3745SOL    HW212135   4.904   3.743   2.232
 3746SOL     OW12136   6.314   0.275   3.626
 3746SOL    HW112137   6.390   0.338   3.637
 3746SOL    HW212138   6.299   0.258   3.528
 3747SOL     OW12139   4.862   6.585   6.112
 3747SOL    HW112140   4.783   6.531   6.140
 3747SOL    HW212141   4.832   6.659   6.051
 3748SOL     OW12142   5.499   0.862   2.617
 3748SOL    HW112143   5.459   0.950   2.593
 3748SOL    HW212144   5.428   0.801   2.652
 3749SOL     OW12145   0.903   4.920   2.677
 3749SOL    HW112146   0.947   5.003   2.709
 3749SOL    HW212147   0.891   4.925   2.578
 3750SOL     OW12148   5.511   3.908   0.190
 3750SOL    HW112149   5.463   3.908   0.278
 3750SOL    HW212150   5.575   3.831   0.188
 3751SOL     OW12151   1.728   3.062   0.812
 3751SOL    HW112152   1.656   3.063   0.881
 3751SOL    HW212153   1.815   3.087   0.855
 3752SOL     OW12154   0.309   6.936   0.007
 3752SOL    HW112155   0.225   6.946   6.977
 3752SOL    HW212156   0.378   6.889   6.975
 3753SOL     OW12157   0.825   6.242   4.145
 3753SOL    HW112158   0.741   6.222   4.094
 3753SOL    HW212159   0.821   6.198   4.235
 3754SOL     OW12160   5.422   6.759   0.692
 3754SOL    HW112161   5.480   6.760   0.610
 3754SOL    HW212162   5.454   6.687   0.754
 3755SOL     OW12163   4.849   4.687   3.787
 3755SOL    HW112164   4.888   4.776   3.810
 3755SOL    HW212165   4.858   4.670   3.689
 3756SOL     OW12166   1.950   2.158   6.129
 3756SOL    HW112167   2.009   2.120   6.058
 3756SOL    HW212168   1.895   2.232   6.090
 3757SOL     OW12169   2.803   5.705   5.746
 3757SOL    HW112170   2.807   5.791   5.694
 3757SOL    HW212171   2.708   5.683   5.768
 3758SOL     OW12172   2.483   0.949   5.066
 3758SOL    HW112173   2.525   0.891   5.136
 3758SOL    HW212174   2.388   0.921   5.052
 3759SOL     OW12175   5.129   5.202   5.894
 3759SOL    HW112176   5.212   5.160   5.858
 3759SOL    HW212177   5.048   5.157   5.854
 3760SOL     OW12178   1.351   3.000   4.263
 3760SOL    HW112179   1.382   2.911   4.298
 3760SOL    HW212180   1.282   3.037   4.325
 3761SOL     OW12181   0.915   6.620   4.848
 3761SOL    HW112182   0.990   6.630   4.782
 3761SOL    HW212183   0.864   6.706   4.855
 3762SOL     OW12184   0.828   4.091   0.424
 3762SOL    HW112185   0.812   4.120   0.330
 3762SOL    HW212186   0.741   4.064   0.466
 3763SOL     OW12187   6.314   3.481   6.307
 3763SOL    HW112188   6.250   3.497   6.382
 3763SOL    HW212189   6.296   3.392   6.266
 3764SOL     OW12190   2.134   0.323   4.521
 3764SOL    HW112191   2.071   0.325   4.443
 3764SOL    HW212192   2.167   0.415   4.539
 3765SOL     OW12193   4.894   1.004   3.482
 3765SOL    HW112194   4.797   1.002   3.458
 3765SOL    HW212195   4.919   1.096   3.513
 3766SOL     OW12196   0.614   0.786   3.972
 3766SOL    HW112197   0.622   0.771   4.070
 3766SOL    HW212198   0.663   0.870   3.947
 3767SOL     OW12199   1.498   5.187   7.011
 3767SOL    HW112200   1.479   5.089   7.020
 3767SOL    HW212201   1.414   5.236   6.990
 3768SOL     OW12202   4.333   6.448   6.747
 3768SOL    HW112203   4.330   6.348   6.752
 3768SOL    HW212204   4.358   6.476   6.655
 3769SOL     OW12205   5.656   5.933   4.884
 3769SOL    HW112206   5.671   5.860   4.951
 3769SOL    HW212207   5.740   5.950   4.833
 3770SOL     OW12208   1.826   1.638   6.060
 3770SOL    HW112209   1.833   1.736   6.077
 3770SOL    HW212210   1.895   1.590   6.115
 3771SOL     OW12211   4.834   2.306   0.703
 3771SOL    HW112212   4.934   2.311   0.693
 3771SOL    HW212213   4.791   2.315   0.613
 3772SOL     OW12214   6.175   0.849   1.327
 3772SOL    HW112215   6.102   0.797   1.369
 3772SOL    HW212216   6.264   0.815   1.359
 3773SOL     OW12217   6.041   3.542   5.696
 3773SOL    HW112218   6.093   3.627   5.682
 3773SOL    HW212219   6.024   3.528   5.793
 3774SOL     OW12220   1.022   0.146   6.417
 3774SOL    HW112221   1.113   0.131   6.378
 3774SOL    HW212222   1.030   0.172   6.513
 3775SOL     OW12223   5.502   3.740   2.886
 3775SOL    HW112224   5.474   3.775   2.976
 3775SOL    HW212225   5.494   3.640   2.886
 3776SOL     OW12226   2.336   2.428   1.280
 3776SOL    HW112227   2.371   2.369   1.353
 3776SOL    HW212228   2.261   2.381   1.233
 3777SOL     OW12229   2.845   5.243   4.601
 3777SOL    HW112230   2.872   5.191   4.520
 3777SOL    HW212231   2.791   5.186   4.662
 3778SOL     OW12232   2.833   6.048   2.890
 3778SOL    HW112233   2.872   6.140   2.884
 3778SOL    HW212234   2.900   5.986   2.930
 3779SOL     OW12235   2.386   4.451   0.165
 3779SOL    HW112236   2.347   4.409   0.247
 3779SOL    HW212237   2.315   4.462   0.095
 3780SOL     OW12238   3.129   5.581   5.163
 3780SOL    HW112239   3.096   5.662   5.211
 3780SOL    HW212240   3.130   5.503   5.226
 3781SOL     OW12241   3.094   7.022   4.276
 3781SOL    HW112242   3.067   0.011   4.181
 3781SOL    HW212243   3.102   6.924   4.297
 3782SOL     OW12244   2.664   1.515   4.405
 3782SOL    HW112245   2.697   1.427   4.372
 3782SOL    HW212246   2.712   1.589   4.356
 3783SOL     OW12247   5.877   6.182   4.880
 3783SOL    HW112248   5.844   6.132   4.801
 3783SOL    HW212249   5.804   6.240   4.916
 3784SOL     OW12250   6.057   1.102   3.596
 3784SOL    HW112251   5.961   1.090   3.620
 3784SOL    HW212252   6.072   1.073   3.501
 3785SOL     OW12253   2.850   1.905   0.522
 3785SOL    HW112254   2.892   1.833   0.467
 3785SOL    HW212255   2.921   1.956   0.570
 3786SOL     OW12256   2.898   4.790   3.697
 3786SOL    HW112257   2.829   4.857   3.668
 3786SOL    HW212258   2.880   4.762   3.791
 3787SOL     OW12259   5.386   1.238   4.177
 3787SOL    HW112260   5.359   1.142   4.178
 3787SOL    HW212261   5.430   1.262   4.264
 3788SOL     OW12262   6.415   2.772   3.785
 3788SOL    HW112263   6.452   2.837   3.719
 3788SOL    HW212264   6.315   2.771   3.778
 3789SOL     OW12265   1.465   4.358   4.230
 3789SOL    HW112266   1.510   4.442   4.200
 3789SOL    HW212267   1.390   4.337   4.167
 3790SOL     OW12268   2.178   3.607   4.875
 3790SOL    HW112269   2.247   3.595   4.803
 3790SOL    HW212270   2.197   3.545   4.951
 3791SOL     OW12271   5.275   6.654   1.163
 3791SOL    HW112272   5.176   6.665   1.153
 3791SOL    HW212273   5.322   6.733   1.125
 3792SOL     OW12274   6.323   0.249   5.139
 3792SOL    HW112275   6.332   0.165   5.192
 3792SOL    HW212276   6.373   0.240   5.053
 3793SOL     OW12277   1.947   1.383   2.433
 3793SOL    HW112278   1.892   1.423   2.506
 3793SOL    HW212279   2.002   1.455   2.389
 3794SOL     OW12280   4.083   5.712   1.788
 3794SOL    HW112281   3.989   5.709   1.753
 3794SOL    HW212282   4.119   5.619   1.794
 3795SOL     OW12283   5.044   0.858   7.002
 3795SOL    HW112284   5.069   0.935   6.943
 3795SOL    HW212285   4.985   0.795   6.951
 3796SOL     OW12286   1.269   1.947   1.319
 3796SOL    HW112287   1.354   1.909   1.356
 3796SOL    HW212288   1.274   1.946   1.219
 3797SOL     OW12289   1.052   5.214   2.008
 3797SOL    HW112290   1.036   5.227   1.910
 3797SOL    HW212291   1.144   5.178   2.022
 3798SOL     OW12292   2.774   4.774   3.283
 3798SOL    HW112293   2.782   4.729   3.194
 3798SOL    HW212294   2.781   4.706   3.356
 3799SOL     OW12295   1.034   1.516   4.707
 3799SOL    HW112296   0.985   1.534   4.622
 3799SOL    HW212297   1.016   1.589   4.772
 3800SOL     OW12298   5.097   2.467   4.726
 3800SOL    HW112299   5.024   2.484   4.660
 3800SOL    HW212300   5.065   2.405   4.797
 3801SOL     OW12301   6.712   6.407   5.341
 3801SOL    HW112302   6.698   6.504   5.361
 3801SOL    HW212303   6.649   6.379   5.268
 3802SOL     OW12304   1.157   1.939   4.933
 3802SOL    HW112305   1.093   1.869   4.963
 3802SOL    HW212306   1.128   1.974   4.843
 3803SOL     OW12307   4.354   0.018   1.729
 3803SOL    HW112308   4.256   0.014   1.713
 3803SOL    HW212309   4.371   0.020   1.828
 3804SOL     OW12310   4.420   1.981   4.483
 3804SOL    HW112311   4.402   2.021   4.573
 3804SOL    HW212312   4.391   2.044   4.412
 3805SOL     OW12313   3.021   4.118   1.821
 3805SOL    HW112314   2.987   4.211   1.832
 3805SOL    HW212315   2.962   4.068   1.758
 3806SOL     OW12316   3.312   2.959   0.005
 3806SOL    HW112317   3.239   2.969   0.073
 3806SOL    HW212318   3.297   2.875   6.975
 3807SOL     OW12319   1.051   6.733   3.694
 3807SOL    HW112320   1.092   6.670   3.760
 3807SOL    HW212321   1.092   6.719   3.604
 3808SOL     OW12322   2.883   0.379   2.234
 3808SOL    HW112323   2.935   0.464   2.248
 3808SOL    HW212324   2.797   0.400   2.188
 3809SOL     OW12325   6.213   1.804   0.027
 3809SOL    HW112326   6.149   1.874   7.018
 3809SOL    HW212327   6.288   1.848   0.078
 3810SOL     OW12328   2.860   2.921   5.824
 3810SOL    HW112329   2.764   2.951   5.824
 3810SOL    HW212330   2.917   2.991   5.782
 3811SOL     OW12331   0.435   4.029   4.378
 3811SOL    HW112332   0.366   4.045   4.448
 3811SOL    HW212333   0.517   3.990   4.420
 3812SOL     OW12334   6.430   2.135   5.827
 3812SOL    HW112335   6.350   2.085   5.860
 3812SOL    HW212336   6.512   2.080   5.845
 3813SOL     OW12337   3.314   5.506   0.763
 3813SOL    HW112338   3.280   5.484   0.672
 3813SOL    HW212339   3.246   5.562   0.812
 3814SOL     OW12340   6.323   6.011   1.271
 3814SOL    HW112341   6.315   5.928   1.325
 3814SOL    HW212342   6.382   6.077   1.318
 3815SOL     OW12343   5.232   2.343   1.378
 3815SOL    HW112344   5.318   2.371   1.419
 3815SOL    HW212345   5.195   2.264   1.427
 3816SOL     OW12346   6.981   6.624   1.912
 3816SOL    HW112347   6.965   6.713   1.871
 3816SOL    HW212348   6.996   6.635   2.011
 3817SOL     OW12349   4.307   2.339   4.061
 3817SOL    HW112350   4.357   2.367   4.143
 3817SOL    HW212351   4.369   2.339   3.982
 3818SOL     OW12352   4.194   6.069   2.811
 3818SOL    HW112353   4.271   6.078   2.748
 3818SOL    HW212354   4.197   6.145   2.877
 3819SOL     OW12355   5.637   5.355   0.296
 3819SOL    HW112356   5.720   5.307   0.267
 3819SOL    HW212357   5.623   5.341   0.394
 3820SOL     OW12358   4.700   5.818   4.450
 3820SOL    HW112359   4.681   5.846   4.356
 3820SOL    HW212360   4.768   5.745   4.450
 3821SOL     OW12361   1.955   3.798   2.077
 3821SOL    HW112362   2.042   3.750   2.084
 3821SOL    HW212363   1.917   3.812   2.168
 3822SOL     OW12364   2.126   5.039   1.676
 3822SOL    HW112365   2.136   5.127   1.722
 3822SOL    HW212366   2.195   4.976   1.710
 3823SOL     OW12367   4.126   2.306   5.680
 3823SOL    HW112368   4.213   2.303   5.730
 3823SOL    HW212369   4.091   2.400   5.679
 3824SOL     OW12370   6.030   2.182   6.025
 3824SOL    HW112371   6.033   2.240   6.106
 3824SOL    HW212372   6.018   2.238   5.943
 3825SOL     OW12373   0.060   0.114   6.933
 3825SOL    HW112374   7.009   0.073   6.986
 3825SOL    HW212375   0.105   0.185   6.987
 3826SOL     OW12376   0.152   3.257   0.851
 3826SOL    HW112377   0.105   3.339   0.820
 3826SOL    HW212378   0.087   3.196   0.896
 3827SOL     OW12379   3.353   3.978   0.519
 3827SOL    HW112380   3.413   4.039   0.468
 3827SOL    HW212381   3.367   3.991   0.617
 3828SOL     OW12382   4.776   2.482   1.723
 3828SOL    HW112383   4.869   2.510   1.746
 3828SOL    HW212384   4.777   2.434   1.635
 3829SOL     OW12385   2.278   5.390   3.457
 3829SOL    HW112386   2.214   5.376   3.381
 3829SOL    HW212387   2.362   5.339   3.439
 3830SOL     OW12388   2.197   0.061   5.348
 3830SOL    HW112389   2.196   0.108   5.260
 3830SOL    HW212390   2.285   0.074   5.392
 3831SOL     OW12391   4.179   1.996   2.192
 3831SOL    HW112392   4.096   2.040   2.227
 3831SOL    HW212393   4.246   1.987   2.267
 3832SOL     OW12394   6.394   0.765   1.480
 3832SOL    HW112395   6.456   0.689   1.460
 3832SOL    HW212396   6.447   0.850   1.486
 3833SOL     OW12397   0.544   4.730   0.921
 3833SOL    HW112398   0.525   4.708   1.017
 3833SOL    HW212399   0.468   4.698   0.864
 3834SOL     OW12400   3.276   1.806   0.625
 3834SOL    HW112401   3.278   1.872   0.550
 3834SOL    HW212402   3.234   1.721   0.593
 3835SOL     OW12403   3.945   5.525   6.242
 3835SOL    HW112404   4.036   5.557   6.214
 3835SOL    HW212405   3.884   5.603   6.252
 3836SOL     OW12406   1.438   4.281   5.918
 3836SOL    HW112407   1.372   4.267   5.845
 3836SOL    HW212408   1.392   4.322   5.997
 3837SOL     OW12409   4.592   3.845   0.187
 3837SOL    HW112410   4.539   3.793   0.120
 3837SOL    HW212411   4.543   3.846   0.274
 3838SOL     OW12412   5.727   2.446   4.342
 3838SOL    HW112413   5.781   2.386   4.401
 3838SOL    HW212414   5.645   2.475   4.390
 3839SOL     OW12415   5.728   6.624   5.399
 3839SOL    HW112416   5.783   6.692   5.351
 3839SOL    HW212417   5.755   6.533   5.369
 3840SOL     OW12418   1.844   1.013   4.093
 3840SOL    HW112419   1.893   0.936   4.051
 3840SOL    HW212420   1.787   1.058   4.025
 3841SOL     OW12421   1.003   3.576   5.217
 3841SOL    HW112422   1.094   3.547   5.186
 3841SOL    HW212423   1.012   3.629   5.302
 3842SOL     OW12424   0.638   5.278   0.316
 3842SOL    HW112425   0.541   5.300   0.304
 3842SOL    HW212426   0.693   5.350   0.275
 3843SOL     OW12427   6.321   3.293   0.534
 3843SOL    HW112428   6.294   3.389   0.531
 3843SOL    HW212429   6.241   3.236   0.553
 3844SOL     OW12430   1.713   5.014   6.002
 3844SOL    HW112431   1.643   5.064   5.952
 3844SOL    HW212432   1.794   5.073   6.013
 3845SOL     OW12433   3.363   3.282   3.110
 3845SOL    HW112434   3.285   3.283   3.047
 3845SOL    HW212435   3.446   3.259   3.059
 3846SOL     OW12436   0.107   4.266   4.609
 3846SOL    HW112437   0.154   4.354   4.610
 3846SOL    HW212438   0.099   4.233   4.515
 3847SOL     OW12439   6.659   0.292   6.357
 3847SOL    HW112440   6.615   0.203   6.370
 3847SOL    HW212441   6.759   0.279   6.353
 3848SOL     OW12442   3.011   5.010   1.654
 3848SOL    HW112443   3.056   5.086   1.700
 3848SOL    HW212444   2.961   4.955   1.721
 3849SOL     OW12445   0.805   1.965   5.849
 3849SOL    HW112446   0.886   2.023   5.855
 3849SOL    HW212447   0.834   1.870   5.838
 3850SOL     OW12448   3.329   3.979   2.015
 3850SOL    HW112449   3.410   4.035   1.997
 3850SOL    HW212450   3.271   4.025   2.083
 3851SOL     OW12451   2.170   3.447   3.359
 3851SOL    HW112452   2.097   3.488   3.414
 3851SOL    HW212453   2.238   3.517   3.336
 3852SOL     OW12454   4.406   0.581   5.182
 3852SOL    HW112455   4.487   0.585   5.124
 3852SOL    HW212456   4.324   0.576   5.124
 3853SOL     OW12457   1.029   3.502   2.212
 3853SOL    HW112458   1.012   3.529   2.118
 3853SOL    HW212459   1.089   3.568   2.256
 3854SOL     OW12460   0.921   3.752   4.387
 3854SOL    HW112461   0.952   3.822   4.451
 3854SOL    HW212462   0.845   3.701   4.427
 3855SOL     OW12463   6.051   3.948   5.844
 3855SOL    HW112464   6.102   3.906   5.768
 3855SOL    HW212465   5.959   3.909   5.846
 3856SOL     OW12466   6.560   6.842   5.645
 3856SOL    HW112467   6.621   6.915   5.677
 3856SOL    HW212468   6.614   6.763   5.617
 3857SOL     OW12469   1.259   6.416   4.904
 3857SOL    HW112470   1.167   6.393   4.937
 3857SOL    HW212471   1.291   6.499   4.951
 3858SOL     OW12472   1.691   5.618   6.269
 3858SOL    HW112473   1.702   5.524   6.236
 3858SOL    HW212474   1.645   5.617   6.358
 3859SOL     OW12475   0.011   3.070   2.868
 3859SOL    HW112476   6.936   3.090   2.863
 3859SOL    HW212477   0.028   2.976   2.837
 3860SOL     OW12478   2.290   6.320   5.918
 3860SOL    HW112479   2.199   6.278   5.907
 3860SOL    HW212480   2.340   6.313   5.831
 3861SOL     OW12481   4.478   4.208   1.364
 3861SOL    HW112482   4.504   4.259   1.446
 3861SOL    HW212483   4.522   4.249   1.284
 3862SOL     OW12484   0.915   5.889   6.174
 3862SOL    HW112485   0.832   5.927   6.214
 3862SOL    HW212486   0.907   5.889   6.074
 3863SOL     OW12487   3.151   3.770   1.555
 3863SOL    HW112488   3.090   3.825   1.498
 3863SOL    HW212489   3.208   3.830   1.610
 3864SOL     OW12490   3.527   1.844   6.643
 3864SOL    HW112491   3.586   1.869   6.566
 3864SOL    HW212492   3.463   1.773   6.615
 3865SOL     OW12493   4.371   0.220   2.310
 3865SOL    HW112494   4.302   0.186   2.374
 3865SOL    HW212495   4.363   0.319   2.301
 3866SOL     OW12496   3.981   0.217   0.751
 3866SOL    HW112497   3.935   0.134   0.720
 3866SOL    HW212498   3.966   0.230   0.849
 3867SOL     OW12499   2.187   3.184   3.327
 3867SOL    HW112500   2.170   3.282   3.340
 3867SOL    HW212501   2.214   3.143   3.414
 3868SOL     OW12502   2.394   6.746   2.415
 3868SOL    HW112503   2.411   6.770   2.320
 3868SOL    HW212504   2.296   6.756   2.435
 3869SOL     OW12505   0.610   3.079   3.035
 3869SOL    HW112506   0.526   3.053   2.987
 3869SOL    HW212507   0.675   3.119   2.969
 3870SOL     OW12508   3.072   5.388   0.457
 3870SOL    HW112509   3.050   5.337   0.540
 3870SOL    HW212510   3.093   5.324   0.383
 3871SOL     OW12511   3.026   0.257   3.480
 3871SOL    HW112512   2.958   0.188   3.454
 3871SOL    HW212513   2.988   0.316   3.551
 3872SOL     OW12514   4.137   3.379   1.105
 3872SOL    HW112515   4.186   3.466   1.104
 3872SOL    HW212516   4.038   3.397   1.109
 3873SOL     OW12517   5.594   4.573   1.575
 3873SOL    HW112518   5.692   4.581   1.557
 3873SOL    HW212519   5.572   4.478   1.597
 3874SOL     OW12520   4.355   0.311   0.221
 3874SOL    HW112521   4.310   0.388   0.266
 3874SOL    HW212522   4.290   0.236   0.210
 3875SOL     OW12523   1.365   4.702   1.264
 3875SOL    HW112524   1.279   4.741   1.298
 3875SOL    HW212525   1.344   4.627   1.201
 3876SOL     OW12526   5.253   3.604   3.888
 3876SOL    HW112527   5.183   3.668   3.855
 3876SOL    HW212528   5.288   3.636   3.976
 3877SOL     OW12529   6.075   1.220   2.256
 3877SOL    HW112530   5.993   1.276   2.239
 3877SOL    HW212531   6.049   1.124   2.263
 3878SOL     OW12532   3.751   6.789   5.910
 3878SOL    HW112533   3.704   6.702   5.923
 3878SOL    HW212534   3.839   6.788   5.957
 3879SOL     OW12535   4.358   5.659   1.844
 3879SOL    HW112536   4.275   5.709   1.869
 3879SOL    HW212537   4.361   5.573   1.895
 3880SOL     OW12538   5.634   3.146   3.156
 3880SOL    HW112539   5.691   3.216   3.115
 3880SOL    HW212540   5.663   3.132   3.251
 3881SOL     OW12541   0.911   4.010   1.020
 3881SOL    HW112542   0.838   4.069   1.054
 3881SOL    HW212543   0.932   4.034   0.925
 3882SOL     OW12544   0.158   1.026   5.332
 3882SOL    HW112545   0.142   0.986   5.423
 3882SOL    HW212546   0.093   1.100   5.317
 3883SOL     OW12547   4.067   0.401   5.497
 3883SOL    HW112548   4.049   0.419   5.400
 3883SOL    HW212549   3.995   0.442   5.553
 3884SOL     OW12550   1.613   5.921   6.049
 3884SOL    HW112551   1.632   5.921   5.951
 3884SOL    HW212552   1.696   5.898   6.099
 3885SOL     OW12553   6.933   1.114   3.898
 3885SOL    HW112554   6.970   1.129   3.989
 3885SOL    HW212555   6.838   1.082   3.904
 3886SOL     OW12556   6.965   6.931   5.115
 3886SOL    HW112557   6.951   6.888   5.025
 3886SOL    HW212558   0.033   6.910   5.149
 3887SOL     OW12559   4.441   2.066   5.915
 3887SOL    HW112560   4.517   2.052   5.851
 3887SOL    HW212561   4.359   2.020   5.881
 3888SOL     OW12562   6.899   2.303   0.862
 3888SOL    HW112563   6.934   2.235   0.799
 3888SOL    HW212564   6.971   2.329   0.927
 3889SOL     OW12565   0.723   6.478   6.503
 3889SOL    HW112566   0.686   6.464   6.595
 3889SOL    HW212567   0.759   6.392   6.468
 3890SOL     OW12568   5.413   4.365   3.096
 3890SOL    HW112569   5.386   4.300   3.025
 3890SOL    HW212570   5.368   4.453   3.080
 3891SOL     OW12571   5.459   5.275   4.845
 3891SOL    HW112572   5.523   5.287   4.921
 3891SOL    HW212573   5.488   5.198   4.789
 3892SOL     OW12574   5.004   6.900   2.928
 3892SOL    HW112575   5.101   6.901   2.951
 3892SOL    HW212576   4.949   6.912   3.011
 3893SOL     OW12577   3.293   6.120   4.137
 3893SOL    HW112578   3.194   6.137   4.131
 3893SOL    HW212579   3.311   6.049   4.205
 3894SOL     OW12580   4.859   3.792   6.964
 3894SOL    HW112581   4.802   3.747   0.010
 3894SOL    HW212582   4.852   3.742   6.877
 3895SOL     OW12583   2.720   2.071   5.742
 3895SOL    HW112584   2.752   1.978   5.722
 3895SOL    HW212585   2.721   2.085   5.841
 3896SOL     OW12586   6.326   2.796   5.311
 3896SOL    HW112587   6.393   2.845   5.255
 3896SOL    HW212588   6.264   2.744   5.252
 3897SOL     OW12589   3.545   0.026   2.068
 3897SOL    HW112590   3.473   0.058   2.006
 3897SOL    HW212591   3.615   7.001   2.015
 3898SOL     OW12592   3.754   4.028   4.248
 3898SOL    HW112593   3.660   4.060   4.260
 3898SOL    HW212594   3.795   4.076   4.170
 3899SOL     OW12595   4.447   1.418   5.562
 3899SOL    HW112596   4.452   1.335   5.619
 3899SOL    HW212597   4.463   1.393   5.467
 3900SOL     OW12598   6.774   2.678   3.095
 3900SOL    HW112599   6.725   2.609   3.147
 3900SOL    HW212600   6.812   2.746   3.157
 3901SOL     OW12601   1.394   6.423   5.675
 3901SOL    HW112602   1.361   6.395   5.584
 3901SOL    HW212603   1.371   6.352   5.742
 3902SOL     OW12604   3.992   4.855   1.428
 3902SOL    HW112605   3.947   4.835   1.341
 3902SOL    HW212606   3.990   4.773   1.486
 3903SOL     OW12607   4.180   2.820   6.591
 3903SOL    HW112608   4.178   2.830   6.691
 3903SOL    HW212609   4.198   2.909   6.550
 3904SOL     OW12610   1.045   6.550   1.200
 3904SOL    HW112611   1.052   6.480   1.272
 3904SOL    HW212612   1.136   6.589   1.184
 3905SOL     OW12613   6.865   0.374   4.908
 3905SOL    HW112614   6.874   0.284   4.866
 3905SOL    HW212615   6.836   0.364   5.003
 3906SOL     OW12616   1.146   5.247   3.957
 3906SOL    HW112617   1.235   5.277   3.923
 3906SOL    HW212618   1.157   5.164   4.012
 3907SOL     OW12619   0.651   0.745   4.249
 3907SOL    HW112620   0.596   0.769   4.329
 3907SOL    HW212621   0.740   0.789   4.256
 3908SOL     OW12622   1.093   0.599   4.886
 3908SOL    HW112623   1.186   0.576   4.857
 3908SOL    HW212624   1.083   0.579   4.983
 3909SOL     OW12625   5.763   2.364   6.437
 3909SOL    HW112626   5.681   2.364   6.493
 3909SOL    HW212627   5.781   2.456   6.403
 3910SOL     OW12628   3.713   1.433   0.179
 3910SOL    HW112629   3.800   1.458   0.220
 3910SOL    HW212630   3.682   1.506   0.118
 3911SOL     OW12631   6.989   1.536   0.668
 3911SOL    HW112632   0.061   1.515   0.690
 3911SOL    HW212633   6.950   1.595   0.739
 3912SOL     OW12634   3.929   1.516   0.318
 3912SOL    HW112635   3.888   1.606   0.330
 3912SOL    HW212636   3.925   1.465   0.403
 3913SOL     OW12637   5.472   5.446   0.795
 3913SOL    HW112638   5.554   5.407   0.838
 3913SOL    HW212639   5.431   5.378   0.734
 3914SOL     OW12640   6.434   1.606   0.076
 3914SOL    HW112641   6.495   1.575   0.003
 3914SOL    HW212642   6.365   1.667   0.037
 3915SOL     OW12643   5.073   5.527   6.972
 3915SOL    HW112644   5.035   5.593   0.014
 3915SOL    HW212645   5.111   5.449   7.022
 3916SOL     OW12646   1.996   2.015   1.938
 3916SOL    HW112647   2.093   2.010   1.962
 3916SOL    HW212648   1.965   2.110   1.945
 3917SOL     OW12649   3.447   5.379   1.569
 3917SOL    HW112650   3.525   5.437   1.545
 3917SOL    HW212651   3.479   5.288   1.596
 3918SOL     OW12652   5.650   1.228   0.598
 3918SOL    HW112653   5.569   1.250   0.544
 3918SOL    HW212654   5.625   1.167   0.673
 3919SOL     OW12655   3.194   0.416   2.202
 3919SOL    HW112656   3.179   0.365   2.118
 3919SOL    HW212657   3.226   0.354   2.273
 3920SOL     OW12658   2.835   1.796   5.802
 3920SOL    HW112659   2.930   1.828   5.796
 3920SOL    HW212660   2.806   1.763   5.712
 3921SOL     OW12661   7.023   2.775   5.919
 3921SOL    HW112662   6.983   2.866   5.905
 3921SOL    HW212663   6.997   2.741   6.009
 3922SOL     OW12664   5.652   4.320   2.594
 3922SOL    HW112665   5.637   4.342   2.497
 3922SOL    HW212666   5.567   4.285   2.633
 3923SOL     OW12667   5.121   1.343   1.848
 3923SOL    HW112668   5.083   1.435   1.853
 3923SOL    HW212669   5.046   1.276   1.852
 3924SOL     OW12670   5.765   4.620   4.073
 3924SOL    HW112671   5.850   4.619   4.020
 3924SOL    HW212672   5.786   4.639   4.169
 3925SOL     OW12673   4.596   3.745   0.600
 3925SOL    HW112674   4.551   3.679   0.661
 3925SOL    HW212675   4.616   3.829   0.651
 3926SOL     OW12676   0.473   6.511   6.424
 3926SOL    HW112677   0.573   6.501   6.418
 3926SOL    HW212678   0.444   6.592   6.373
 3927SOL     OW12679   5.878   2.428   5.641
 3927SOL    HW112680   5.799   2.371   5.667
 3927SOL    HW212681   5.857   2.524   5.661
 3928SOL     OW12682   2.763   6.179   2.280
 3928SOL    HW112683   2.686   6.240   2.296
 3928SOL    HW212684   2.742   6.087   2.314
 3929SOL     OW12685   6.701   1.855   4.922
 3929SOL    HW112686   6.744   1.890   5.006
 3929SOL    HW212687   6.651   1.930   4.878
 3930SOL     OW12688   0.875   4.693   4.390
 3930SOL    HW112689   0.921   4.771   4.349
 3930SOL    HW212690   0.784   4.720   4.420
 3931SOL     OW12691   1.816   2.489   1.310
 3931SOL    HW112692   1.747   2.463   1.242
 3931SOL    HW212693   1.808   2.429   1.389
 3932SOL     OW12694   2.401   5.326   4.119
 3932SOL    HW112695   2.493   5.306   4.086
 3932SOL    HW212696   2.384   5.425   4.111
 3933SOL     OW12697   2.267   5.755   0.994
 3933SOL    HW112698   2.286   5.681   1.059
 3933SOL    HW212699   2.251   5.716   0.903
 3934SOL     OW12700   0.267   1.585   1.500
 3934SOL    HW112701   0.184   1.641   1.491
 3934SOL    HW212702   0.346   1.639   1.472
 3935SOL     OW12703   6.344   3.267   5.970
 3935SOL    HW112704   6.440   3.251   5.947
 3935SOL    HW212705   6.323   3.365   5.961
 3936SOL     OW12706   0.518   5.098   5.816
 3936SOL    HW112707   0.449   5.061   5.754
 3936SOL    HW212708   0.522   5.197   5.808
 3937SOL     OW12709   0.464   6.868   1.812
 3937SOL    HW112710   0.537   6.926   1.777
 3937SOL    HW212711   0.446   6.794   1.748
 3938SOL     OW12712   0.498   3.672   2.818
 3938SOL    HW112713   0.545   3.717   2.894
 3938SOL    HW212714   0.470   3.580   2.845
 3939SOL     OW12715   1.547   1.022   2.234
 3939SOL    HW112716   1.448   1.028   2.225
 3939SOL    HW212717   1.581   1.103   2.282
 3940SOL     OW12718   3.386   5.244   0.828
 3940SOL    HW112719   3.373   5.329   0.776
 3940SOL    HW212720   3.443   5.263   0.908
 3941SOL     OW12721   5.166   6.032   3.286
 3941SOL    HW112722   5.177   6.131   3.272
 3941SOL    HW212723   5.130   6.015   3.378
 3942SOL     OW12724   6.472   5.774   5.387
 3942SOL    HW112725   6.563   5.804   5.358
 3942SOL    HW212726   6.406   5.797   5.316
 3943SOL     OW12727   1.274   2.961   0.010
 3943SOL    HW112728   1.360   2.985   0.055
 3943SOL    HW212729   1.230   2.885   0.059
 3944SOL     OW12730   5.892   2.229   6.892
 3944SOL    HW112731   5.812   2.169   6.899
 3944SOL    HW212732   5.880   2.307   6.953
 3945SOL     OW12733   6.276   0.821   3.285
 3945SOL    HW112734   6.374   0.839   3.299
 3945SOL    HW212735   6.243   0.760   3.356
 3946SOL     OW12736   1.190   3.018   0.338
 3946SOL    HW112737   1.247   3.099   0.323
 3946SOL    HW212738   1.096   3.037   0.308
 3947SOL     OW12739   6.251   4.990   2.451
 3947SOL    HW112740   6.157   5.024   2.445
 3947SOL    HW212741   6.281   4.991   2.547
 3948SOL     OW12742   0.761   2.876   6.320
 3948SOL    HW112743   0.826   2.869   6.244
 3948SOL    HW212744   0.668   2.877   6.285
 3949SOL     OW12745   5.760   6.860   1.660
 3949SOL    HW112746   5.781   6.766   1.634
 3949SOL    HW212747   5.832   6.896   1.719
 3950SOL     OW12748   3.047   4.418   1.578
 3950SOL    HW112749   3.020   4.418   1.674
 3950SOL    HW212750   3.056   4.512   1.546
 3951SOL     OW12751   0.983   2.089   5.224
 3951SOL    HW112752   0.902   2.116   5.171
 3951SOL    HW212753   1.065   2.121   5.178
 3952SOL     OW12754   5.974   3.227   6.238
 3952SOL    HW112755   5.910   3.293   6.197
 3952SOL    HW212756   5.964   3.139   6.193
 3953SOL     OW12757   3.500   4.328   6.297
 3953SOL    HW112758   3.470   4.250   6.242
 3953SOL    HW212759   3.568   4.297   6.364
 3954SOL     OW12760   0.435   3.359   5.146
 3954SOL    HW112761   0.402   3.402   5.062
 3954SOL    HW212762   0.502   3.419   5.190
 3955SOL     OW12763   6.842   4.622   0.241
 3955SOL    HW112764   6.839   4.705   0.296
 3955SOL    HW212765   6.804   4.546   0.294
 3956SOL     OW12766   1.158   2.708   5.428
 3956SOL    HW112767   1.240   2.655   5.451
 3956SOL    HW212768   1.168   2.747   5.337
 3957SOL     OW12769   1.031   1.455   2.917
 3957SOL    HW112770   1.025   1.355   2.925
 3957SOL    HW212771   0.942   1.495   2.939
 3958SOL     OW12772   5.742   6.260   5.850
 3958SOL    HW112773   5.722   6.165   5.828
 3958SOL    HW212774   5.831   6.285   5.813
 3959SOL     OW12775   2.619   4.908   0.724
 3959SOL    HW112776   2.658   4.971   0.791
 3959SOL    HW212777   2.637   4.814   0.752
 3960SOL     OW12778   4.108   3.787   0.475
 3960SOL    HW112779   4.158   3.745   0.551
 3960SOL    HW212780   4.027   3.833   0.509
 3961SOL     OW12781   5.734   0.734   2.655
 3961SOL    HW112782   5.798   0.759   2.582
 3961SOL    HW212783   5.642   0.765   2.630
 3962SOL     OW12784   0.587   6.811   5.935
 3962SOL    HW112785   0.659   6.753   5.973
 3962SOL    HW212786   0.625   6.900   5.910
 3963SOL     OW12787   4.999   5.490   3.502
 3963SOL    HW112788   5.027   5.447   3.587
 3963SOL    HW212789   4.938   5.429   3.451
 3964SOL     OW12790   5.662   6.543   5.850
 3964SOL    HW112791   5.685   6.446   5.859
 3964SOL    HW212792   5.587   6.554   5.785
 3965SOL     OW12793   3.630   3.706   0.116
 3965SOL    HW112794   3.693   3.721   0.039
 3965SOL    HW212795   3.586   3.617   0.106
 3966SOL     OW12796   5.587   4.185   5.053
 3966SOL    HW112797   5.526   4.239   5.111
 3966SOL    HW212798   5.539   4.159   4.969
 3967SOL     OW12799   0.591   5.346   6.402
 3967SOL    HW112800   0.493   5.327   6.396
 3967SOL    HW212801   0.609   5.440   6.371
 3968SOL     OW12802   5.894   0.282   1.517
 3968SOL    HW112803   5.975   0.320   1.473
 3968SOL    HW212804   5.823   0.265   1.448
 3969SOL     OW12805   0.041   5.400   1.674
 3969SOL    HW112806   0.069   5.450   1.592
 3969SOL    HW212807   0.068   5.451   1.755
 3970SOL     OW12808   4.257   4.691   3.316
 3970SOL    HW112809   4.344   4.731   3.287
 3970SOL    HW212810   4.257   4.681   3.415
 3971SOL     OW12811   1.731   5.804   3.866
 3971SOL    HW112812   1.725   5.860   3.949
 3971SOL    HW212813   1.639   5.790   3.829
 3972SOL     OW12814   1.544   0.011   0.593
 3972SOL    HW112815   1.638   0.012   0.625
 3972SOL    HW212816   1.541   6.998   0.500
 3973SOL     OW12817   3.244   3.334   3.456
 3973SOL    HW112818   3.273   3.409   3.397
 3973SOL    HW212819   3.152   3.304   3.429
 3974SOL     OW12820   6.218   1.622   6.377
 3974SOL    HW112821   6.182   1.586   6.463
 3974SOL    HW212822   6.229   1.547   6.311
 3975SOL     OW12823   6.896   0.952   5.990
 3975SOL    HW112824   6.873   0.873   5.933
 3975SOL    HW212825   6.866   1.036   5.946
 3976SOL     OW12826   0.779   3.424   6.977
 3976SOL    HW112827   0.873   3.454   6.991
 3976SOL    HW212828   0.718   3.469   0.020
 3977SOL     OW12829   3.889   6.431   6.404
 3977SOL    HW112830   3.961   6.484   6.449
 3977SOL    HW212831   3.824   6.399   6.473
 3978SOL     OW12832   5.626   3.261   6.136
 3978SOL    HW112833   5.666   3.325   6.201
 3978SOL    HW212834   5.578   3.312   6.064
 3979SOL     OW12835   1.197   6.801   3.161
 3979SOL    HW112836   1.149   6.888   3.172
 3979SOL    HW212837   1.294   6.814   3.182
 3980SOL     OW12838   5.560   3.235   4.825
 3980SOL    HW112839   5.559   3.150   4.878
 3980SOL    HW212840   5.614   3.304   4.873
 3981SOL     OW12841   6.752   1.809   6.084
 3981SOL    HW112842   6.717   1.729   6.132
 3981SOL    HW212843   6.700   1.890   6.114
 3982SOL     OW12844   3.312   1.821   3.814
 3982SOL    HW112845   3.230   1.844   3.762
 3982SOL    HW212846   3.308   1.724   3.840
 3983SOL     OW12847   3.537   6.436   3.840
 3983SOL    HW112848   3.624   6.400   3.808
 3983SOL    HW212849   3.503   6.380   3.916
 3984SOL     OW12850   1.377   6.636   1.683
 3984SOL    HW112851   1.342   6.685   1.603
 3984SOL    HW212852   1.376   6.537   1.665
 3985SOL     OW12853   1.861   3.350   1.861
 3985SOL    HW112854   1.926   3.354   1.785
 3985SOL    HW212855   1.820   3.440   1.875
 3986SOL     OW12856   0.890   2.850   2.544
 3986SOL    HW112857   0.976   2.888   2.579
 3986SOL    HW212858   0.889   2.855   2.444
 3987SOL     OW12859   2.300   4.767   0.029
 3987SOL    HW112860   2.358   4.780   0.110
 3987SOL    HW212861   2.234   4.694   0.045
 3988SOL     OW12862   3.903   2.336   0.727
 3988SOL    HW112863   3.949   2.363   0.812
 3988SOL    HW212864   3.876   2.240   0.733
 3989SOL     OW12865   4.686   0.126   6.463
 3989SOL    HW112866   4.778   0.107   6.429
 3989SOL    HW212867   4.619   0.085   6.401
 3990SOL     OW12868   1.127   3.148   3.674
 3990SOL    HW112869   1.029   3.159   3.691
 3990SOL    HW212870   1.160   3.067   3.723
 3991SOL     OW12871   0.303   1.887   4.005
 3991SOL    HW112872   0.308   1.980   4.041
 3991SOL    HW212873   0.212   1.870   3.967
 3992SOL     OW12874   4.581   3.768   6.418
 3992SOL    HW112875   4.680   3.756   6.428
 3992SOL    HW212876   4.539   3.680   6.395
 3993SOL     OW12877   2.482   2.153   3.145
 3993SOL    HW112878   2.511   2.208   3.224
 3993SOL    HW212879   2.383   2.142   3.147
 3994SOL     OW12880   2.522   2.282   3.400
 3994SOL    HW112881   2.554   2.204   3.453
 3994SOL    HW212882   2.427   2.304   3.425
 3995SOL     OW12883   1.799   3.991   2.875
 3995SOL    HW112884   1.701   3.998   2.854
 3995SOL    HW212885   1.839   4.082   2.881
 3996SOL     OW12886   5.884   0.204   3.164
 3996SOL    HW112887   5.883   0.245   3.073
 3996SOL    HW212888   5.900   0.275   3.232
 3997SOL     OW12889   5.830   3.753   2.546
 3997SOL    HW112890   5.806   3.844   2.580
 3997SOL    HW212891   5.771   3.729   2.469
 3998SOL     OW12892   6.244   2.117   2.858
 3998SOL    HW112893   6.330   2.082   2.821
 3998SOL    HW212894   6.197   2.044   2.908
 3999SOL     OW12895   5.233   2.988   1.729
 3999SOL    HW112896   5.265   2.904   1.686
 3999SOL    HW212897   5.155   3.025   1.679
 4000SOL     OW12898   3.497   5.536   2.369
 4000SOL    HW112899   3.587   5.569   2.339
 4000SOL    HW212900   3.443   5.614   2.401
 4001SOL     OW12901   2.157   4.216   5.076
 4001SOL    HW112902   2.212   4.135   5.055
 4001SOL    HW212903   2.081   4.221   5.012
 4002SOL     OW12904   3.648   3.327   3.698
 4002SOL    HW112905   3.684   3.420   3.694
 4002SOL    HW212906   3.591   3.317   3.780
 4003SOL     OW12907   2.279   0.516   5.307
 4003SOL    HW112908   2.273   0.587   5.378
 4003SOL    HW212909   2.247   0.554   5.220
 4004SOL     OW12910   0.408   3.779   3.360
 4004SOL    HW112911   0.473   3.703   3.361
 4004SOL    HW212912   0.349   3.775   3.441
 4005SOL     OW12913   4.990   2.996   1.327
 4005SOL    HW112914   4.903   2.949   1.312
 4005SOL    HW212915   5.006   3.062   1.253
 4006SOL     OW12916   5.498   5.168   3.039
 4006SOL    HW112917   5.490   5.150   2.941
 4006SOL    HW212918   5.424   5.121   3.088
 4007SOL     OW12919   6.582   1.410   2.557
 4007SOL    HW112920   6.657   1.452   2.506
 4007SOL    HW212921   6.533   1.345   2.499
 4008SOL     OW12922   2.247   0.402   0.605
 4008SOL    HW112923   2.223   0.395   0.701
 4008SOL    HW212924   2.331   0.351   0.587
 4009SOL     OW12925   3.987   1.805   1.375
 4009SOL    HW112926   4.071   1.782   1.326
 4009SOL    HW212927   3.951   1.892   1.340
 4010SOL     OW12928   2.578   5.598   1.681
 4010SOL    HW112929   2.582   5.534   1.757
 4010SOL    HW212930   2.644   5.572   1.611
 4011SOL     OW12931   6.065   5.775   6.933
 4011SOL    HW112932   6.030   5.852   6.986
 4011SOL    HW212933   6.068   5.694   6.991
 4012SOL     OW12934   3.877   0.207   2.036
 4012SOL    HW112935   3.939   0.268   2.086
 4012SOL    HW212936   3.805   0.261   1.992
 4013SOL     OW12937   0.958   1.359   6.775
 4013SOL    HW112938   0.967   1.313   6.863
 4013SOL    HW212939   0.888   1.313   6.720
 4014SOL     OW12940   2.753   5.394   3.343
 4014SOL    HW112941   2.706   5.384   3.431
 4014SOL    HW212942   2.689   5.376   3.268
 4015SOL     OW12943   4.150   5.370   6.383
 4015SOL    HW112944   4.081   5.434   6.349
 4015SOL    HW212945   4.115   5.323   6.464
 4016SOL     OW12946   4.108   5.875   6.058
 4016SOL    HW112947   4.170   5.954   6.055
 4016SOL    HW212948   4.104   5.833   5.967
 4017SOL     OW12949   1.201   4.839   6.138
 4017SOL    HW112950   1.258   4.904   6.088
 4017SOL    HW212951   1.256   4.760   6.164
 4018SOL     OW12952   4.393   6.476   2.202
 4018SOL    HW112953   4.392   6.383   2.240
 4018SOL    HW212954   4.314   6.487   2.141
 4019SOL     OW12955   5.096   3.132   2.838
 4019SOL    HW112956   5.126   3.148   2.932
 4019SOL    HW212957   4.996   3.126   2.836
 4020SOL     OW12958   6.608   4.529   4.685
 4020SOL    HW112959   6.707   4.514   4.679
 4020SOL    HW212960   6.574   4.561   4.597
 4021SOL     OW12961   3.217   3.566   5.579
 4021SOL    HW112962   3.128   3.577   5.536
 4021SOL    HW212963   3.285   3.619   5.528
 4022SOL     OW12964   2.423   0.470   0.289
 4022SOL    HW112965   2.415   0.371   0.294
 4022SOL    HW212966   2.363   0.505   0.216
 4023SOL     OW12967   0.284   2.508   5.208
 4023SOL    HW112968   0.367   2.459   5.179
 4023SOL    HW212969   0.311   2.593   5.254
 4024SOL     OW12970   0.948   4.655   3.690
 4024SOL    HW112971   0.875   4.587   3.699
 4024SOL    HW212972   1.006   4.653   3.772
 4025SOL     OW12973   1.162   6.004   3.569
 4025SOL    HW112974   1.224   5.999   3.490
 4025SOL    HW212975   1.068   5.991   3.538
 4026SOL     OW12976   6.663   5.954   3.752
 4026SOL    HW112977   6.726   5.894   3.703
 4026SOL    HW212978   6.609   6.007   3.687
 4027SOL     OW12979   2.401   3.863   5.654
 4027SOL    HW112980   2.306   3.887   5.674
 4027SOL    HW212981   2.454   3.946   5.635
 4028SOL     OW12982   4.510   1.543   2.502
 4028SOL    HW112983   4.442   1.475   2.528
 4028SOL    HW212984   4.537   1.595   2.583
 4029SOL     OW12985   2.328   4.747   6.778
 4029SOL    HW112986   2.307   4.748   6.876
 4029SOL    HW212987   2.279   4.822   6.733
 4030SOL     OW12988   0.233   1.238   2.615
 4030SOL    HW112989   0.253   1.142   2.637
 4030SOL    HW212990   0.297   1.297   2.664
 4031SOL     OW12991   5.433   0.086   1.347
 4031SOL    HW112992   5.483   0.037   1.276
 4031SOL    HW212993   5.371   0.152   1.304
 4032SOL     OW12994   6.266   6.976   1.453
 4032SOL    HW112995   6.177   7.022   1.464
 4032SOL    HW212996   6.253   6.891   1.403
 4033SOL     OW12997   3.104   2.055   2.557
 4033SOL    HW112998   3.128   2.000   2.477
 4033SOL    HW212999   3.187   2.074   2.610
 4034SOL     OW13000   0.203   3.241   4.775
 4034SOL    HW113001   0.219   3.244   4.874
 4034SOL    HW213002   0.272   3.297   4.729
 4035SOL     OW13003   6.762   2.141   1.016
 4035SOL    HW113004   6.779   2.161   1.112
 4035SOL    HW213005   6.824   2.195   0.959
 4036SOL     OW13006   3.049   5.563   3.755
 4036SOL    HW113007   2.976   5.601   3.811
 4036SOL    HW213008   3.093   5.488   3.804
 4037SOL     OW13009   1.858   1.158   5.579
 4037SOL    HW113010   1.759   1.156   5.599
 4037SOL    HW213011   1.879   1.087   5.512
 4038SOL     OW13012   3.636   4.359   5.929
 4038SOL    HW113013   3.594   4.448   5.947
 4038SOL    HW213014   3.638   4.342   5.831
 4039SOL     OW13015   5.161   4.612   1.514
 4039SOL    HW113016   5.221   4.538   1.545
 4039SOL    HW213017   5.069   4.575   1.497
 4040SOL     OW13018   3.716   5.109   5.401
 4040SOL    HW113019   3.733   5.171   5.478
 4040SOL    HW213020   3.618   5.096   5.389
 4041SOL     OW13021   2.144   6.910   1.347
 4041SOL    HW113022   2.170   7.001   1.318
 4041SOL    HW213023   2.164   6.844   1.275
 4042SOL     OW13024   6.519   0.461   3.097
 4042SOL    HW113025   6.538   0.433   3.191
 4042SOL    HW213026   6.430   0.507   3.094
 4043SOL     OW13027   5.574   3.638   6.156
 4043SOL    HW113028   5.521   3.598   6.230
 4043SOL    HW213029   5.540   3.604   6.068
 4044SOL     OW13030   4.320   4.653   3.049
 4044SOL    HW113031   4.278   4.626   3.136
 4044SOL    HW213032   4.373   4.577   3.012
 4045SOL     OW13033   4.928   0.042   6.240
 4045SOL    HW113034   5.006   7.017   6.199
 4045SOL    HW213035   4.870   6.998   6.288
 4046SOL     OW13036   0.301   1.716   3.180
 4046SOL    HW113037   0.231   1.758   3.237
 4046SOL    HW213038   0.391   1.733   3.221
 4047SOL     OW13039   2.676   3.112   6.692
 4047SOL    HW113040   2.764   3.097   6.647
 4047SOL    HW213041   2.692   3.135   6.788
 4048SOL     OW13042   4.809   1.036   2.192
 4048SOL    HW113043   4.717   1.009   2.220
 4048SOL    HW213044   4.861   1.066   2.272
 4049SOL     OW13045   3.765   5.817   6.960
 4049SOL    HW113046   3.671   5.782   6.966
 4049SOL    HW213047   3.812   5.773   6.883
 4050SOL     OW13048   0.759   6.047   2.823
 4050SOL    HW113049   0.710   5.967   2.788
 4050SOL    HW213050   0.773   6.112   2.749
 4051SOL     OW13051   4.986   1.041   6.631
 4051SOL    HW113052   4.921   1.029   6.706
 4051SOL    HW213053   5.006   0.952   6.590
 4052SOL     OW13054   6.372   1.770   3.077
 4052SOL    HW113055   6.398   1.778   3.173
 4052SOL    HW213056   6.442   1.811   3.019
 4053SOL     OW13057   0.940   5.442   4.593
 4053SOL    HW113058   0.985   5.362   4.555
 4053SOL    HW213059   0.841   5.428   4.592
 4054SOL     OW13060   4.544   4.008   1.124
 4054SOL    HW113061   4.482   4.047   1.056
 4054SOL    HW213062   4.636   4.045   1.111
 4055SOL     OW13063   1.589   3.859   2.014
 4055SOL    HW113064   1.530   3.781   1.993
 4055SOL    HW213065   1.675   3.851   1.963
 4056SOL     OW13066   5.168   3.379   0.929
 4056SOL    HW113067   5.146   3.468   0.968
 4056SOL    HW213068   5.164   3.384   0.829
 4057SOL     OW13069   6.266   3.206   6.546
 4057SOL    HW113070   6.285   3.291   6.594
 4057SOL    HW213071   6.238   3.226   6.452
 4058SOL     OW13072   2.476   5.465   4.777
 4058SOL    HW113073   2.570   5.458   4.743
 4058SOL    HW213074   2.473   5.528   4.854
 4059SOL     OW13075   0.960   2.235   4.501
 4059SOL    HW113076   1.008   2.272   4.422
 4059SOL    HW213077   0.862   2.229   4.480
 4060SOL     OW13078   6.747   5.657   4.742
 4060SOL    HW113079   6.690   5.731   4.705
 4060SOL    HW213080   6.693   5.573   4.747
 4061SOL     OW13081   2.637   5.417   1.908
 4061SOL    HW113082   2.603   5.323   1.906
 4061SOL    HW213083   2.578   5.473   1.966
 4062SOL     OW13084   2.612   1.570   1.971
 4062SOL    HW113085   2.514   1.570   1.992
 4062SOL    HW213086   2.635   1.651   1.918
 4063SOL     OW13087   5.550   0.208   0.966
 4063SOL    HW113088   5.456   0.237   0.985
 4063SOL    HW213089   5.549   0.117   0.925
 4064SOL     OW13090   1.976   2.037   4.193
 4064SOL    HW113091   2.054   2.100   4.199
 4064SOL    HW213092   1.897   2.078   4.240
 4065SOL     OW13093   1.542   6.938   0.316
 4065SOL    HW113094   1.553   0.000   0.265
 4065SOL    HW213095   1.604   6.869   0.278
 4066SOL     OW13096   6.219   4.167   3.009
 4066SOL    HW113097   6.266   4.080   3.020
 4066SOL    HW213098   6.132   4.165   3.058
 4067SOL     OW13099   5.976   4.401   2.483
 4067SOL    HW113100   5.946   4.305   2.481
 4067SOL    HW213101   6.069   4.405   2.520
 4068SOL     OW13102   1.524   2.759   5.023
 4068SOL    HW113103   1.454   2.831   5.023
 4068SOL    HW213104   1.586   2.773   5.100
 4069SOL     OW13105   3.841   6.447   6.818
 4069SOL    HW113106   3.829   6.391   6.900
 4069SOL    HW213107   3.937   6.472   6.809
 4070SOL     OW13108   1.127   3.040   3.097
 4070SOL    HW113109   1.042   3.007   3.056
 4070SOL    HW213110   1.114   3.053   3.196
 4071SOL     OW13111   1.259   0.662   3.876
 4071SOL    HW113112   1.317   0.744   3.875
 4071SOL    HW213113   1.230   0.640   3.783
 4072SOL     OW13114   1.056   5.597   4.391
 4072SOL    HW113115   1.032   5.523   4.328
 4072SOL    HW213116   1.030   5.571   4.484
 4073SOL     OW13117   2.191   5.246   0.419
 4073SOL    HW113118   2.195   5.343   0.442
 4073SOL    HW213119   2.188   5.236   0.320
 4074SOL     OW13120   1.403   4.873   1.743
 4074SOL    HW113121   1.370   4.831   1.827
 4074SOL    HW213122   1.418   4.803   1.674
 4075SOL     OW13123   5.108   1.332   0.834
 4075SOL    HW113124   5.137   1.409   0.777
 4075SOL    HW213125   5.190   1.286   0.870
 4076SOL     OW13126   3.400   3.365   5.602
 4076SOL    HW113127   3.346   3.281   5.611
 4076SOL    HW213128   3.339   3.443   5.594
 4077SOL     OW13129   4.454   1.860   1.538
 4077SOL    HW113130   4.379   1.794   1.529
 4077SOL    HW213131   4.485   1.888   1.448
 4078SOL     OW13132   2.924   4.812   2.761
 4078SOL    HW113133   2.946   4.789   2.667
 4078SOL    HW213134   2.997   4.867   2.800
 4079SOL     OW13135   1.742   2.208   4.346
 4079SOL    HW113136   1.718   2.302   4.323
 4079SOL    HW213137   1.665   2.164   4.393
 4080SOL     OW13138   5.051   1.920   5.149
 4080SOL    HW113139   4.989   1.890   5.077
 4080SOL    HW213140   5.137   1.951   5.108
 4081SOL     OW13141   1.771   2.855   4.443
 4081SOL    HW113142   1.801   2.942   4.402
 4081SOL    HW213143   1.819   2.840   4.529
 4082SOL     OW13144   1.407   3.520   0.956
 4082SOL    HW113145   1.369   3.584   1.023
 4082SOL    HW213146   1.507   3.523   0.960
 4083SOL     OW13147   5.911   2.917   3.719
 4083SOL    HW113148   5.901   3.014   3.741
 4083SOL    HW213149   5.864   2.897   3.633
 4084SOL     OW13150   6.020   1.922   4.065
 4084SOL    HW113151   6.074   1.957   3.989
 4084SOL    HW213152   5.923   1.935   4.045
 4085SOL     OW13153   4.346   6.240   0.725
 4085SOL    HW113154   4.290   6.310   0.767
 4085SOL    HW213155   4.403   6.197   0.794
 4086SOL     OW13156   1.965   5.196   1.495
 4086SOL    HW113157   2.015   5.163   1.575
 4086SOL    HW213158   1.934   5.119   1.440
 4087SOL     OW13159   2.249   2.464   3.228
 4087SOL    HW113160   2.311   2.518   3.171
 4087SOL    HW213161   2.239   2.508   3.317
 4088SOL     OW13162   6.521   1.667   1.418
 4088SOL    HW113163   6.490   1.573   1.430
 4088SOL    HW213164   6.449   1.730   1.449
 4089SOL     OW13165   0.793   0.023   3.428
 4089SOL    HW113166   0.772   7.023   3.523
 4089SOL    HW213167   0.816   0.120   3.422
 4090SOL     OW13168   2.876   4.182   6.304
 4090SOL    HW113169   2.846   4.166   6.210
 4090SOL    HW213170   2.850   4.105   6.361
 4091SOL     OW13171   5.327   6.687   0.138
 4091SOL    HW113172   5.364   6.745   0.066
 4091SOL    HW213173   5.242   6.644   0.107
 4092SOL     OW13174   0.170   2.815   5.082
 4092SOL    HW113175   0.072   2.803   5.097
 4092SOL    HW213176   0.206   2.882   5.146
 4093SOL     OW13177   5.276   0.488   3.692
 4093SOL    HW113178   5.315   0.495   3.784
 4093SOL    HW213179   5.303   0.401   3.651
 4094SOL     OW13180   2.002   4.594   4.974
 4094SOL    HW113181   1.957   4.516   4.930
 4094SOL    HW213182   1.989   4.588   5.073
 4095SOL     OW13183   1.188   3.716   5.895
 4095SOL    HW113184   1.133   3.637   5.921
 4095SOL    HW213185   1.240   3.695   5.812
 4096SOL     OW13186   4.709   5.505   1.176
 4096SOL    HW113187   4.708   5.586   1.236
 4096SOL    HW213188   4.772   5.521   1.100
 4097SOL     OW13189   3.048   4.377   5.931
 4097SOL    HW113190   3.122   4.383   5.998
 4097SOL    HW213191   3.056   4.292   5.879
 4098SOL     OW13192   0.383   2.733   2.918
 4098SOL    HW113193   0.450   2.727   2.991
 4098SOL    HW213194   0.364   2.829   2.897
 4099SOL     OW13195   3.207   5.229   1.724
 4099SOL    HW113196   3.194   5.328   1.735
 4099SOL    HW213197   3.267   5.195   1.797
 4100SOL     OW13198   4.925   5.600   3.792
 4100SOL    HW113199   4.970   5.512   3.810
 4100SOL    HW213200   4.992   5.665   3.758
 4101SOL     OW13201   5.629   1.640   0.244
 4101SOL    HW113202   5.618   1.542   0.223
 4101SOL    HW213203   5.541   1.679   0.269
 4102SOL     OW13204   6.568   0.259   1.124
 4102SOL    HW113205   6.665   0.256   1.150
 4102SOL    HW213206   6.555   0.322   1.047
 4103SOL     OW13207   0.997   0.978   2.036
 4103SOL    HW113208   1.094   0.997   2.021
 4103SOL    HW213209   0.949   1.064   2.056
 4104SOL     OW13210   1.730   4.294   2.632
 4104SOL    HW113211   1.778   4.382   2.632
 4104SOL    HW213212   1.647   4.301   2.577
 4105SOL     OW13213   4.013   5.982   0.881
 4105SOL    HW113214   3.915   5.962   0.878
 4105SOL    HW213215   4.052   5.973   0.790
 4106SOL     OW13216   6.965   3.829   4.744
 4106SOL    HW113217   6.996   3.920   4.773
 4106SOL    HW213218   0.008   3.761   4.775
 4107SOL     OW13219   0.413   6.094   1.195
 4107SOL    HW113220   0.435   6.039   1.276
 4107SOL    HW213221   0.424   6.191   1.217
 4108SOL     OW13222   7.001   4.832   6.364
 4108SOL    HW113223   6.920   4.864   6.412
 4108SOL    HW213224   6.980   4.823   6.266
 4109SOL     OW13225   4.261   6.333   4.309
 4109SOL    HW113226   4.307   6.253   4.271
 4109SOL    HW213227   4.307   6.416   4.277
 4110SOL     OW13228   4.067   4.296   6.513
 4110SOL    HW113229   4.084   4.275   6.417
 4110SOL    HW213230   4.015   4.221   6.555
 4111SOL     OW13231   3.790   3.003   0.187
 4111SOL    HW113232   3.717   2.953   0.140
 4111SOL    HW213233   3.752   3.048   0.268
 4112SOL     OW13234   4.995   1.431   5.410
 4112SOL    HW113235   5.022   1.526   5.424
 4112SOL    HW213236   5.069   1.383   5.361
 4113SOL     OW13237   3.608   5.469   5.114
 4113SOL    HW113238   3.611   5.399   5.043
 4113SOL    HW213239   3.542   5.443   5.184
 4114SOL     OW13240   3.080   1.984   3.701
 4114SOL    HW113241   2.987   2.009   3.728
 4114SOL    HW213242   3.089   1.990   3.602
 4115SOL     OW13243   5.004   6.191   2.273
 4115SOL    HW113244   5.053   6.128   2.334
 4115SOL    HW213245   4.934   6.140   2.223
 4116SOL     OW13246   4.259   1.682   1.496
 4116SOL    HW113247   4.245   1.754   1.427
 4116SOL    HW213248   4.175   1.629   1.506
 4117SOL     OW13249   0.386   5.548   1.517
 4117SOL    HW113250   0.440   5.603   1.454
 4117SOL    HW213251   0.387   5.452   1.486
 4118SOL     OW13252   1.084   6.577   0.904
 4118SOL    HW113253   1.075   6.487   0.862
 4118SOL    HW213254   1.073   6.569   1.003
 4119SOL     OW13255   3.899   1.411   4.596
 4119SOL    HW113256   3.961   1.333   4.607
 4119SOL    HW213257   3.840   1.417   4.676
 4120SOL     OW13258   4.548   6.917   2.314
 4120SOL    HW113259   4.588   7.008   2.301
 4120SOL    HW213260   4.611   6.860   2.366
 4121SOL     OW13261   6.220   1.953   4.800
 4121SOL    HW113262   6.151   1.996   4.857
 4121SOL    HW213263   6.183   1.870   4.759
 4122SOL     OW13264   0.599   6.322   5.106
 4122SOL    HW113265   0.643   6.243   5.149
 4122SOL    HW213266   0.601   6.399   5.170
 4123SOL     OW13267   5.866   4.413   5.819
 4123SOL    HW113268   5.910   4.492   5.861
 4123SOL    HW213269   5.770   4.410   5.847
 4124SOL     OW13270   5.787   5.707   4.634
 4124SOL    HW113271   5.743   5.763   4.563
 4124SOL    HW213272   5.744   5.616   4.636
 4125SOL     OW13273   4.818   0.281   1.769
 4125SOL    HW113274   4.791   0.376   1.787
 4125SOL    HW213275   4.897   0.280   1.708
 4126SOL     OW13276   1.251   4.013   4.274
 4126SOL    HW113277   1.347   4.014   4.244
 4126SOL    HW213278   1.192   4.036   4.197
 4127SOL     OW13279   5.010   3.166   4.187
 4127SOL    HW113280   4.926   3.139   4.141
 4127SOL    HW213281   5.049   3.247   4.142
 4128SOL     OW13282   2.224   3.960   2.535
 4128SOL    HW113283   2.154   4.014   2.488
 4128SOL    HW213284   2.231   3.870   2.492
 4129SOL     OW13285   5.195   1.726   6.350
 4129SOL    HW113286   5.135   1.732   6.429
 4129SOL    HW213287   5.284   1.767   6.372
 4130SOL     OW13288   7.007   3.444   5.421
 4130SOL    HW113289   0.064   3.403   5.463
 4130SOL    HW213290   6.995   3.408   5.328
 4131SOL     OW13291   0.521   5.819   3.937
 4131SOL    HW113292   0.434   5.844   3.895
 4131SOL    HW213293   0.548   5.728   3.906
 4132SOL     OW13294   5.879   3.550   3.461
 4132SOL    HW113295   5.896   3.556   3.362
 4132SOL    HW213296   5.810   3.619   3.487
 4133SOL     OW13297   3.258   0.295   0.928
 4133SOL    HW113298   3.322   0.310   0.854
 4133SOL    HW213299   3.167   0.325   0.900
 4134SOL     OW13300   2.017   2.467   0.527
 4134SOL    HW113301   2.075   2.422   0.595
 4134SOL    HW213302   1.920   2.456   0.553
 4135SOL     OW13303   2.128   0.720   1.911
 4135SOL    HW113304   2.110   0.761   2.001
 4135SOL    HW213305   2.109   0.621   1.915
 4136SOL     OW13306   0.360   2.171   3.827
 4136SOL    HW113307   0.314   2.165   3.916
 4136SOL    HW213308   0.292   2.162   3.754
 4137SOL     OW13309   2.681   3.841   0.631
 4137SOL    HW113310   2.596   3.851   0.683
 4137SOL    HW213311   2.719   3.750   0.648
 4138SOL     OW13312   3.691   5.096   3.971
 4138SOL    HW113313   3.680   5.027   3.899
 4138SOL    HW213314   3.761   5.066   4.035
 4139SOL     OW13315   2.331   2.206   5.930
 4139SOL    HW113316   2.305   2.109   5.929
 4139SOL    HW213317   2.296   2.248   6.014
 4140SOL     OW13318   3.568   0.879   5.670
 4140SOL    HW113319   3.600   0.971   5.645
 4140SOL    HW213320   3.468   0.876   5.665
 4141SOL     OW13321   4.737   4.924   1.416
 4141SOL    HW113322   4.756   4.871   1.499
 4141SOL    HW213323   4.766   5.019   1.429
 4142SOL     OW13324   6.409   5.493   1.314
 4142SOL    HW113325   6.369   5.423   1.374
 4142SOL    HW213326   6.415   5.457   1.221
 4143SOL     OW13327   6.962   3.233   0.576
 4143SOL    HW113328   6.987   3.137   0.567
 4143SOL    HW213329   7.016   3.289   0.514
 4144SOL     OW13330   5.853   1.937   0.923
 4144SOL    HW113331   5.760   1.915   0.952
 4144SOL    HW213332   5.875   2.030   0.950
 4145SOL     OW13333   6.574   6.370   1.779
 4145SOL    HW113334   6.518   6.429   1.720
 4145SOL    HW213335   6.604   6.290   1.726
 4146SOL     OW13336   5.948   0.184   6.064
 4146SOL    HW113337   6.020   0.164   6.131
 4146SOL    HW213338   5.871   0.123   6.078
 4147SOL     OW13339   3.382   1.930   5.998
 4147SOL    HW113340   3.425   2.020   5.992
 4147SOL    HW213341   3.283   1.940   6.008
 4148SOL     OW13342   0.399   0.482   3.671
 4148SOL    HW113343   0.490   0.490   3.711
 4148SOL    HW213344   0.358   0.572   3.663
 4149SOL     OW13345   6.977   3.034   6.953
 4149SOL    HW113346   0.013   3.068   0.004
 4149SOL    HW213347   6.951   3.110   6.894
 4150SOL     OW13348   5.887   0.443   6.181
 4150SOL    HW113349   5.942   0.521   6.212
 4150SOL    HW213350   5.929   0.403   6.100
 4151SOL     OW13351   5.448   6.099   0.146
 4151SOL    HW113352   5.417   6.057   0.061
 4151SOL    HW213353   5.504   6.179   0.125
 4152SOL     OW13354   3.680   5.155   2.190
 4152SOL    HW113355   3.674   5.068   2.239
 4152SOL    HW213356   3.699   5.137   2.093
 4153SOL     OW13357   5.517   5.399   5.851
 4153SOL    HW113358   5.477   5.487   5.878
 4153SOL    HW213359   5.470   5.326   5.900
 4154SOL     OW13360   6.504   3.667   5.034
 4154SOL    HW113361   6.483   3.751   5.083
 4154SOL    HW213362   6.422   3.635   4.986
 4155SOL     OW13363   0.268   3.519   3.089
 4155SOL    HW113364   0.206   3.469   3.028
 4155SOL    HW213365   0.258   3.617   3.073
 4156SOL     OW13366   5.710   0.180   5.065
 4156SOL    HW113367   5.737   0.275   5.049
 4156SOL    HW213368   5.779   0.119   5.027
 4157SOL     OW13369   3.876   0.521   4.076
 4157SOL    HW113370   3.879   0.581   3.996
 4157SOL    HW213371   3.783   0.486   4.088
 4158SOL     OW13372   0.795   5.092   3.981
 4158SOL    HW113373   0.823   5.136   3.895
 4158SOL    HW213374   0.763   4.999   3.961
 4159SOL     OW13375   1.701   3.195   3.768
 4159SOL    HW113376   1.780   3.147   3.729
 4159SOL    HW213377   1.621   3.136   3.762
 4160SOL     OW13378   6.339   0.415   1.263
 4160SOL    HW113379   6.427   0.372   1.242
 4160SOL    HW213380   6.294   0.440   1.178
 4161SOL     OW13381   1.734   0.556   6.431
 4161SOL    HW113382   1.766   0.642   6.392
 4161SOL    HW213383   1.727   0.487   6.359
 4162SOL     OW13384   6.010   0.240   4.864
 4162SOL    HW113385   6.010   0.248   4.963
 4162SOL    HW213386   6.099   0.206   4.833
 4163SOL     OW13387   6.066   1.430   3.072
 4163SOL    HW113388   6.079   1.368   3.150
 4163SOL    HW213389   5.969   1.443   3.055
 4164SOL     OW13390   1.788   0.255   6.870
 4164SOL    HW113391   1.719   0.182   6.876
 4164SOL    HW213392   1.760   0.322   6.801
 4165SOL     OW13393   4.190   6.392   0.889
 4165SOL    HW113394   4.260   6.425   0.953
 4165SOL    HW213395   4.142   6.315   0.930
 4166SOL     OW13396   3.991   2.270   1.382
 4166SOL    HW113397   4.056   2.205   1.421
 4166SOL    HW213398   3.977   2.345   1.446
 4167SOL     OW13399   2.720   2.342   1.117
 4167SOL    HW113400   2.726   2.364   1.215
 4167SOL    HW213401   2.763   2.415   1.064
 4168SOL     OW13402   0.108   5.261   1.188
 4168SOL    HW113403   0.097   5.162   1.199
 4168SOL    HW213404   0.154   5.280   1.101
 4169SOL     OW13405   5.161   4.004   4.136
 4169SOL    HW113406   5.130   4.069   4.205
 4169SOL    HW213407   5.246   4.037   4.094
 4170SOL     OW13408   4.015   2.550   5.677
 4170SOL    HW113409   3.989   2.548   5.580
 4170SOL    HW213410   4.041   2.643   5.702
 4171SOL     OW13411   4.924   3.858   0.903
 4171SOL    HW113412   4.844   3.839   0.960
 4171SOL    HW213413   4.936   3.784   0.838
 4172SOL     OW13414   0.060   2.180   0.208
 4172SOL    HW113415   0.010   2.114   0.152
 4172SOL    HW213416   0.158   2.165   0.199
 4173SOL     OW13417   5.896   3.239   5.203
 4173SOL    HW113418   5.965   3.226   5.274
 4173SOL    HW213419   5.805   3.236   5.244
 4174SOL     OW13420   4.711   0.565   4.119
 4174SOL    HW113421   4.612   0.558   4.126
 4174SOL    HW213422   4.735   0.606   4.031
 4175SOL     OW13423   3.601   0.120   4.016
 4175SOL    HW113424   3.595   0.043   4.080
 4175SOL    HW213425   3.509   0.155   3.998
 4176SOL     OW13426   4.282   0.246   2.659
 4176SOL    HW113427   4.189   0.264   2.691
 4176SOL    HW213428   4.334   0.201   2.732
 4177SOL     OW13429   0.493   5.286   4.922
 4177SOL    HW113430   0.538   5.238   4.847
 4177SOL    HW213431   0.559   5.304   4.995
 4178SOL     OW13432   3.225   1.082   6.189
 4178SOL    HW113433   3.289   1.089   6.112
 4178SOL    HW213434   3.270   1.112   6.273
 4179SOL     OW13435   5.570   3.072   4.318
 4179SOL    HW113436   5.593   3.083   4.415
 4179SOL    HW213437   5.631   3.005   4.277
 4180SOL     OW13438   5.520   4.556   2.042
 4180SOL    HW113439   5.603   4.601   2.075
 4180SOL    HW213440   5.536   4.457   2.036
 4181SOL     OW13441   1.078   2.342   6.253
 4181SOL    HW113442   1.044   2.255   6.217
 4181SOL    HW213443   1.149   2.324   6.322
 4182SOL     OW13444   0.506   0.290   2.589
 4182SOL    HW113445   0.435   0.288   2.659
 4182SOL    HW213446   0.596   0.293   2.632
 4183SOL     OW13447   2.656   1.762   1.776
 4183SOL    HW113448   2.743   1.810   1.787
 4183SOL    HW213449   2.593   1.819   1.723
 4184SOL     OW13450   3.668   5.503   1.177
 4184SOL    HW113451   3.716   5.540   1.097
 4184SOL    HW213452   3.665   5.573   1.248
 4185SOL     OW13453   0.716   6.132   3.321
 4185SOL    HW113454   0.759   6.089   3.242
 4185SOL    HW213455   0.785   6.149   3.392
 4186SOL     OW13456   2.263   3.795   7.017
 4186SOL    HW113457   2.346   3.740   0.006
 4186SOL    HW213458   2.286   3.879   6.967
 4187SOL     OW13459   3.267   3.311   6.024
 4187SOL    HW113460   3.337   3.382   6.018
 4187SOL    HW213461   3.191   3.344   6.079
 4188SOL     OW13462   4.934   0.543   4.614
 4188SOL    HW113463   4.854   0.560   4.557
 4188SOL    HW213464   4.927   0.451   4.653
 4189SOL     OW13465   3.246   1.394   4.311
 4189SOL    HW113466   3.196   1.390   4.397
 4189SOL    HW213467   3.297   1.309   4.297
 4190SOL     OW13468   2.275   0.412   6.729
 4190SOL    HW113469   2.264   0.509   6.707
 4190SOL    HW213470   2.198   0.383   6.787
 4191SOL     OW13471   5.851   3.038   2.865
 4191SOL    HW113472   5.795   3.120   2.863
 4191SOL    HW213473   5.840   2.992   2.953
 4192SOL     OW13474   6.014   1.409   2.786
 4192SOL    HW113475   5.963   1.451   2.860
 4192SOL    HW213476   6.034   1.477   2.716
 4193SOL     OW13477   2.386   0.028   2.157
 4193SOL    HW113478   2.328   6.992   2.100
 4193SOL    HW213479   2.465   6.998   2.188
 4194SOL     OW13480   6.691   1.947   4.444
 4194SOL    HW113481   6.599   1.963   4.479
 4194SOL    HW213482   6.746   2.030   4.454
 4195SOL     OW13483   4.607   0.256   1.529
 4195SOL    HW113484   4.691   0.249   1.583
 4195SOL    HW213485   4.607   0.185   1.459
 4196SOL     OW13486   5.583   2.535   3.955
 4196SOL    HW113487   5.571   2.464   4.024
 4196SOL    HW213488   5.530   2.616   3.981
 4197SOL     OW13489   5.445   4.302   4.661
 4197SOL    HW113490   5.539   4.298   4.628
 4197SOL    HW213491   5.427   4.392   4.700
 4198SOL     OW13492   5.594   3.307   6.950
 4198SOL    HW113493   5.507   3.313   7.000
 4198SOL    HW213494   5.588   3.234   6.882
 4199SOL     OW13495   3.187   3.347   5.243
 4199SOL    HW113496   3.216   3.279   5.176
 4199SOL    HW213497   3.139   3.301   5.318
 4200SOL     OW13498   2.251   6.752   6.011
 4200SOL    HW113499   2.307   6.700   6.075
 4200SOL    HW213500   2.167   6.701   5.991
 4201SOL     OW13501   6.441   6.684   2.910
 4201SOL    HW113502   6.372   6.635   2.856
 4201SOL    HW213503   6.494   6.744   2.851
 4202SOL     OW13504   5.216   4.649   5.642
 4202SOL    HW113505   5.293   4.688   5.591
 4202SOL    HW213506   5.244   4.631   5.736
 4203SOL     OW13507   4.868   6.072   3.197
 4203SOL    HW113508   4.930   6.051   3.272
 4203SOL    HW213509   4.920   6.109   3.120
 4204SOL     OW13510   2.965   2.964   1.491
 4204SOL    HW113511   3.045   3.000   1.442
 4204SOL    HW213512   2.947   3.020   1.572
 4205SOL     OW13513   3.034   5.116   4.870
 4205SOL    HW113514   3.040   5.209   4.835
 4205SOL    HW213515   3.005   5.054   4.796
 4206SOL     OW13516   4.605   6.991   5.216
 4206SOL    HW113517   4.635   0.014   5.301
 4206SOL    HW213518   4.522   6.938   5.234
 4207SOL     OW13519   1.344   1.318   1.743
 4207SOL    HW113520   1.246   1.314   1.725
 4207SOL    HW213521   1.375   1.413   1.738
 4208SOL     OW13522   1.781   2.838   1.101
 4208SOL    HW113523   1.713   2.911   1.097
 4208SOL    HW213524   1.749   2.760   1.046
 4209SOL     OW13525   1.658   6.997   4.532
 4209SOL    HW113526   1.676   6.898   4.536
 4209SOL    HW213527   1.744   0.024   4.540
 4210SOL     OW13528   3.711   3.290   1.335
 4210SOL    HW113529   3.772   3.325   1.407
 4210SOL    HW213530   3.624   3.341   1.338
 4211SOL     OW13531   4.865   4.954   4.985
 4211SOL    HW113532   4.768   4.927   4.987
 4211SOL    HW213533   4.881   5.026   5.052
 4212SOL     OW13534   6.183   1.125   2.613
 4212SOL    HW113535   6.165   1.159   2.705
 4212SOL    HW213536   6.099   1.084   2.576
 4213SOL     OW13537   1.644   1.137   1.947
 4213SOL    HW113538   1.723   1.112   2.003
 4213SOL    HW213539   1.650   1.091   1.858
 4214SOL     OW13540   0.807   3.096   5.812
 4214SOL    HW113541   0.731   3.102   5.747
 4214SOL    HW213542   0.786   3.026   5.881
 4215SOL     OW13543   0.634   5.802   4.731
 4215SOL    HW113544   0.720   5.805   4.678
 4215SOL    HW213545   0.572   5.736   4.690
 4216SOL     OW13546   1.095   2.324   4.300
 4216SOL    HW113547   1.113   2.422   4.302
 4216SOL    HW213548   1.153   2.281   4.230
 4217SOL     OW13549   0.293   0.322   2.172
 4217SOL    HW113550   0.373   0.262   2.171
 4217SOL    HW213551   0.304   0.392   2.242
 4218SOL     OW13552   4.847   0.009   2.026
 4218SOL    HW113553   4.937   0.049   2.044
 4218SOL    HW213554   4.776   0.068   2.063
 4219SOL     OW13555   3.750   4.857   5.283
 4219SOL    HW113556   3.752   4.954   5.307
 4219SOL    HW213557   3.660   4.835   5.244
 4220SOL     OW13558   6.761   3.400   3.419
 4220SOL    HW113559   6.734   3.322   3.474
 4220SOL    HW213560   6.847   3.380   3.373
 4221SOL     OW13561   5.397   5.203   6.026
 4221SOL    HW113562   5.299   5.219   6.009
 4221SOL    HW213563   5.407   5.138   6.101
 4222SOL     OW13564   5.699   2.291   1.897
 4222SOL    HW113565   5.628   2.342   1.946
 4222SOL    HW213566   5.788   2.309   1.938
 4223SOL     OW13567   3.421   3.957   2.493
 4223SOL    HW113568   3.394   3.879   2.435
 4223SOL    HW213569   3.425   4.040   2.437
 4224SOL     OW13570   4.600   2.676   4.895
 4224SOL    HW113571   4.683   2.697   4.946
 4224SOL    HW213572   4.608   2.711   4.802
 4225SOL     OW13573   6.081   0.396   4.409
 4225SOL    HW113574   6.147   0.368   4.339
 4225SOL    HW213575   6.037   0.481   4.381
 4226SOL     OW13576   1.075   1.177   3.335
 4226SOL    HW113577   0.990   1.165   3.386
 4226SOL    HW213578   1.116   1.264   3.360
 4227SOL     OW13579   3.898   4.884   0.468
 4227SOL    HW113580   3.801   4.906   0.456
 4227SOL    HW213581   3.922   4.891   0.564
 4228SOL     OW13582   5.639   5.651   3.832
 4228SOL    HW113583   5.585   5.567   3.822
 4228SOL    HW213584   5.579   5.731   3.826
 4229SOL     OW13585   4.507   5.103   6.156
 4229SOL    HW113586   4.602   5.100   6.188
 4229SOL    HW213587   4.505   5.135   6.061
 4230SOL     OW13588   3.159   0.249   5.198
 4230SOL    HW113589   3.168   0.340   5.157
 4230SOL    HW213590   3.150   0.181   5.125
 4231SOL     OW13591   5.195   6.764   5.612
 4231SOL    HW113592   5.190   6.676   5.563
 4231SOL    HW213593   5.105   6.788   5.646
 4232SOL     OW13594   1.574   5.248   2.364
 4232SOL    HW113595   1.481   5.253   2.329
 4232SOL    HW213596   1.573   5.249   2.464
 4233SOL     OW13597   6.076   0.348   6.879
 4233SOL    HW113598   5.985   0.338   6.919
 4233SOL    HW213599   6.082   0.435   6.831
 4234SOL     OW13600   3.063   5.359   6.371
 4234SOL    HW113601   2.972   5.359   6.328
 4234SOL    HW213602   3.109   5.272   6.351
 4235SOL     OW13603   6.200   4.542   5.516
 4235SOL    HW113604   6.267   4.469   5.499
 4235SOL    HW213605   6.224   4.590   5.600
 4236SOL     OW13606   0.363   2.524   3.765
 4236SOL    HW113607   0.407   2.568   3.687
 4236SOL    HW213608   0.346   2.428   3.743
 4237SOL     OW13609   4.995   4.001   5.032
 4237SOL    HW113610   4.940   3.982   5.112
 4237SOL    HW213611   4.936   4.028   4.956
 4238SOL     OW13612   4.035   5.507   3.879
 4238SOL    HW113613   3.950   5.464   3.850
 4238SOL    HW213614   4.061   5.472   3.969
 4239SOL     OW13615   4.303   6.367   5.406
 4239SOL    HW113616   4.373   6.435   5.386
 4239SOL    HW213617   4.238   6.405   5.473
 4240SOL     OW13618   2.736   4.862   0.217
 4240SOL    HW113619   2.667   4.795   0.190
 4240SOL    HW213620   2.789   4.826   0.294
 4241SOL     OW13621   5.276   0.260   1.197
 4241SOL    HW113622   5.252   0.319   1.275
 4241SOL    HW213623   5.257   0.308   1.112
 4242SOL     OW13624   2.590   0.156   2.492
 4242SOL    HW113625   2.614   0.248   2.522
 4242SOL    HW213626   2.502   0.130   2.532
 4243SOL     OW13627   0.648   3.635   2.250
 4243SOL    HW113628   0.744   3.607   2.257
 4243SOL    HW213629   0.595   3.563   2.205
 4244SOL     OW13630   5.054   6.525   0.908
 4244SOL    HW113631   5.001   6.465   0.968
 4244SOL    HW213632   5.070   6.612   0.954
 4245SOL     OW13633   6.427   3.027   0.680
 4245SOL    HW113634   6.338   3.007   0.721
 4245SOL    HW213635   6.422   3.113   0.630
 4246SOL     OW13636   5.108   2.680   3.112
 4246SOL    HW113637   5.139   2.606   3.053
 4246SOL    HW213638   5.042   2.736   3.063
 4247SOL     OW13639   1.801   4.810   4.961
 4247SOL    HW113640   1.857   4.729   4.941
 4247SOL    HW213641   1.850   4.869   5.026
 4248SOL     OW13642   1.869   0.943   2.674
 4248SOL    HW113643   1.907   0.851   2.683
 4248SOL    HW213644   1.771   0.937   2.657
 4249SOL     OW13645   6.962   0.757   4.548
 4249SOL    HW113646   6.865   0.732   4.552
 4249SOL    HW213647   6.999   0.730   4.459
 4250SOL     OW13648   6.973   6.238   4.202
 4250SOL    HW113649   6.993   6.220   4.299
 4250SOL    HW213650   6.881   6.205   4.180
 4251SOL     OW13651   6.095   2.572   6.517
 4251SOL    HW113652   6.025   2.588   6.448
 4251SOL    HW213653   6.185   2.584   6.477
 4252SOL     OW13654   6.395   6.106   5.588
 4252SOL    HW113655   6.348   6.160   5.658
 4252SOL    HW213656   6.376   6.009   5.602
 4253SOL     OW13657   4.470   6.013   2.704
 4253SOL    HW113658   4.518   6.045   2.785
 4253SOL    HW213659   4.479   6.079   2.630
 4254SOL     OW13660   2.226   3.634   6.448
 4254SOL    HW113661   2.283   3.715   6.461
 4254SOL    HW213662   2.263   3.558   6.501
 4255SOL     OW13663   0.287   3.626   2.508
 4255SOL    HW113664   0.190   3.627   2.485
 4255SOL    HW213665   0.301   3.671   2.596
 4256SOL     OW13666   0.612   5.126   2.544
 4256SOL    HW113667   0.654   5.189   2.478
 4256SOL    HW213668   0.651   5.143   2.634
 4257SOL     OW13669   5.999   1.153   4.889
 4257SOL    HW113670   5.911   1.106   4.883
 4257SOL    HW213671   6.002   1.208   4.973
 4258SOL     OW13672   3.928   5.995   0.470
 4258SOL    HW113673   3.844   5.943   0.488
 4258SOL    HW213674   3.907   6.093   0.471
 4259SOL     OW13675   0.999   6.517   1.751
 4259SOL    HW113676   0.899   6.525   1.748
 4259SOL    HW213677   1.038   6.601   1.789
 4260SOL     OW13678   5.338   6.983   5.158
 4260SOL    HW113679   5.338   6.900   5.103
 4260SOL    HW213680   5.252   6.989   5.208
 4261SOL     OW13681   1.798   0.089   3.993
 4261SOL    HW113682   1.807   0.143   3.909
 4261SOL    HW213683   1.746   0.141   4.060
 4262SOL     OW13684   1.521   4.561   6.600
 4262SOL    HW113685   1.512   4.481   6.659
 4262SOL    HW213686   1.559   4.533   6.512
 4263SOL     OW13687   2.855   2.057   3.788
 4263SOL    HW113688   2.861   2.006   3.875
 4263SOL    HW213689   2.762   2.092   3.777
 4264SOL     OW13690   5.490   1.554   4.070
 4264SOL    HW113691   5.549   1.548   3.990
 4264SOL    HW213692   5.395   1.552   4.042
 4265SOL     OW13693   2.913   0.382   0.938
 4265SOL    HW113694   2.859   0.464   0.923
 4265SOL    HW213695   2.914   0.360   1.036
 4266SOL     OW13696   1.425   6.403   0.502
 4266SOL    HW113697   1.367   6.439   0.576
 4266SOL    HW213698   1.465   6.480   0.452
 4267SOL     OW13699   1.763   4.069   4.621
 4267SOL    HW113700   1.699   4.136   4.658
 4267SOL    HW213701   1.743   4.053   4.525
 4268SOL     OW13702   1.380   4.868   6.647
 4268SOL    HW113703   1.478   4.852   6.654
 4268SOL    HW213704   1.351   4.860   6.552
 4269SOL     OW13705   3.293   1.827   4.401
 4269SOL    HW113706   3.381   1.795   4.366
 4269SOL    HW213707   3.303   1.921   4.434
 4270SOL     OW13708   3.910   2.579   0.335
 4270SOL    HW113709   3.975   2.540   0.400
 4270SOL    HW213710   3.927   2.677   0.325
 4271SOL     OW13711   6.897   0.414   0.806
 4271SOL    HW113712   6.957   0.383   0.879
 4271SOL    HW213713   6.845   0.336   0.771
 4272SOL     OW13714   6.318   2.802   5.856
 4272SOL    HW113715   6.413   2.790   5.883
 4272SOL    HW213716   6.312   2.803   5.756
 4273SOL     OW13717   4.160   5.534   5.036
 4273SOL    HW113718   4.064   5.537   5.008
 4273SOL    HW213719   4.217   5.578   4.967
 4274SOL     OW13720   6.452   0.298   1.771
 4274SOL    HW113721   6.483   0.271   1.862
 4274SOL    HW213722   6.355   0.277   1.761
 4275SOL     OW13723   0.899   2.758   3.381
 4275SOL    HW113724   0.866   2.795   3.295
 4275SOL    HW213725   0.884   2.825   3.454
 4276SOL     OW13726   3.020   6.110   4.117
 4276SOL    HW113727   2.949   6.079   4.180
 4276SOL    HW213728   3.032   6.043   4.044
 4277SOL     OW13729   6.613   5.645   4.254
 4277SOL    HW113730   6.625   5.741   4.280
 4277SOL    HW213731   6.593   5.639   4.156
 4278SOL     OW13732   1.194   6.852   2.216
 4278SOL    HW113733   1.181   6.944   2.253
 4278SOL    HW213734   1.150   6.785   2.277
 4279SOL     OW13735   2.017   2.581   3.100
 4279SOL    HW113736   2.074   2.511   3.144
 4279SOL    HW213737   2.033   2.670   3.144
 4280SOL     OW13738   6.680   6.852   6.191
 4280SOL    HW113739   6.776   6.872   6.210
 4280SOL    HW213740   6.660   6.757   6.216
 4281SOL     OW13741   4.765   5.463   4.014
 4281SOL    HW113742   4.783   5.523   4.092
 4281SOL    HW213743   4.794   5.508   3.930
 4282SOL     OW13744   3.614   4.240   1.140
 4282SOL    HW113745   3.688   4.303   1.118
 4282SOL    HW213746   3.651   4.148   1.155
 4283SOL     OW13747   4.893   1.252   3.608
 4283SOL    HW113748   4.932   1.264   3.700
 4283SOL    HW213749   4.806   1.302   3.603
 4284SOL     OW13750   5.054   5.864   7.012
 4284SOL    HW113751   5.022   5.958   7.005
 4284SOL    HW213752   5.050   5.820   6.923
 4285SOL     OW13753   3.038   0.697   5.913
 4285SOL    HW113754   2.967   0.695   5.985
 4285SOL    HW213755   3.050   0.606   5.875
 4286SOL     OW13756   6.737   1.040   6.545
 4286SOL    HW113757   6.764   1.020   6.639
 4286SOL    HW213758   6.782   1.123   6.514
 4287SOL     OW13759   4.665   0.857   0.304
 4287SOL    HW113760   4.763   0.875   0.314
 4287SOL    HW213761   4.647   0.761   0.325
 4288SOL     OW13762   6.840   6.156   2.082
 4288SOL    HW113763   6.913   6.219   2.055
 4288SOL    HW213764   6.869   6.104   2.163
 4289SOL     OW13765   0.267   2.945   4.752
 4289SOL    HW113766   0.167   2.954   4.746
 4289SOL    HW213767   0.307   3.036   4.763
 4290SOL     OW13768   0.542   0.545   3.003
 4290SOL    HW113769   0.613   0.592   2.950
 4290SOL    HW213770   0.489   0.486   2.942
 4291SOL     OW13771   5.219   3.351   5.977
 4291SOL    HW113772   5.189   3.423   5.915
 4291SOL    HW213773   5.181   3.368   6.068
 4292SOL     OW13774   5.375   2.059   0.647
 4292SOL    HW113775   5.437   2.052   0.569
 4292SOL    HW213776   5.356   1.968   0.683
 4293SOL     OW13777   4.658   3.955   6.771
 4293SOL    HW113778   4.597   3.876   6.769
 4293SOL    HW213779   4.604   4.039   6.768
 4294SOL     OW13780   2.869   2.110   6.305
 4294SOL    HW113781   2.918   2.023   6.298
 4294SOL    HW213782   2.934   2.185   6.309
 4295SOL     OW13783   4.228   6.655   3.077
 4295SOL    HW113784   4.204   6.697   2.990
 4295SOL    HW213785   4.306   6.593   3.064
 4296SOL     OW13786   2.518   6.639   1.008
 4296SOL    HW113787   2.568   6.552   1.009
 4296SOL    HW213788   2.433   6.629   1.060
 4297SOL     OW13789   5.721   5.343   0.860
 4297SOL    HW113790   5.815   5.374   0.875
 4297SOL    HW213791   5.692   5.286   0.936
 4298SOL     OW13792   3.099   6.357   1.386
 4298SOL    HW113793   3.182   6.305   1.406
 4298SOL    HW213794   3.122   6.453   1.371
 4299SOL     OW13795   1.049   2.386   0.336
 4299SOL    HW113796   1.018   2.329   0.260
 4299SOL    HW213797   1.133   2.434   0.309
 4300SOL     OW13798   3.869   0.479   1.241
 4300SOL    HW113799   3.858   0.562   1.296
 4300SOL    HW213800   3.780   0.446   1.211
 4301SOL     OW13801   3.307   0.168   2.272
 4301SOL    HW113802   3.270   0.138   2.184
 4301SOL    HW213803   3.396   0.211   2.259
 4302SOL     OW13804   1.836   5.837   6.182
 4302SOL    HW113805   1.784   5.763   6.225
 4302SOL    HW213806   1.849   5.911   6.248
 4303SOL     OW13807   6.252   4.327   4.075
 4303SOL    HW113808   6.181   4.280   4.128
 4303SOL    HW213809   6.326   4.356   4.136
 4304SOL     OW13810   3.454   3.481   1.694
 4304SOL    HW113811   3.532   3.535   1.663
 4304SOL    HW213812   3.428   3.508   1.786
 4305SOL     OW13813   0.968   0.246   5.264
 4305SOL    HW113814   0.982   0.243   5.363
 4305SOL    HW213815   1.038   0.304   5.222
 4306SOL     OW13816   5.104   3.835   4.381
 4306SOL    HW113817   5.120   3.829   4.283
 4306SOL    HW213818   5.018   3.883   4.398
 4307SOL     OW13819   6.133   1.960   5.391
 4307SOL    HW113820   6.186   1.923   5.467
 4307SOL    HW213821   6.065   1.892   5.362
 4308SOL     OW13822   4.954   4.644   1.021
 4308SOL    HW113823   5.008   4.657   1.104
 4308SOL    HW213824   4.997   4.573   0.965
 4309SOL     OW13825   1.176   3.621   0.346
 4309SOL    HW113826   1.235   3.580   0.276
 4309SOL    HW213827   1.089   3.572   0.349
 4310SOL     OW13828   0.053   1.849   2.262
 4310SOL    HW113829   0.098   1.858   2.173
 4310SOL    HW213830   7.001   1.783   2.255
 4311SOL     OW13831   1.161   6.199   2.430
 4311SOL    HW113832   1.158   6.246   2.341
 4311SOL    HW213833   1.084   6.137   2.438
 4312SOL     OW13834   0.388   5.006   2.214
 4312SOL    HW113835   0.295   5.037   2.231
 4312SOL    HW213836   0.444   5.022   2.295
 4313SOL     OW13837   6.098   1.457   6.577
 4313SOL    HW113838   6.165   1.452   6.651
 4313SOL    HW213839   6.029   1.385   6.589
 4314SOL     OW13840   6.628   2.641   4.890
 4314SOL    HW113841   6.653   2.567   4.827
 4314SOL    HW213842   6.625   2.606   4.983
 4315SOL     OW13843   2.767   1.429   4.115
 4315SOL    HW113844   2.833   1.399   4.184
 4315SOL    HW213845   2.706   1.353   4.093
 4316SOL     OW13846   5.703   6.797   2.250
 4316SOL    HW113847   5.633   6.829   2.186
 4316SOL    HW213848   5.743   6.712   2.215
 4317SOL     OW13849   4.932   1.068   6.041
 4317SOL    HW113850   4.957   1.118   6.124
 4317SOL    HW213851   4.844   1.101   6.007
 4318SOL     OW13852   1.194   1.667   3.834
 4318SOL    HW113853   1.145   1.593   3.880
 4318SOL    HW213854   1.145   1.694   3.751
 4319SOL     OW13855   1.231   4.613   2.235
 4319SOL    HW113856   1.198   4.682   2.170
 4319SOL    HW213857   1.173   4.533   2.230
 4320SOL     OW13858   3.722   6.207   0.320
 4320SOL    HW113859   3.748   6.258   0.239
 4320SOL    HW213860   3.765   6.247   0.401
 4321SOL     OW13861   6.599   6.817   2.508
 4321SOL    HW113862   6.649   6.732   2.526
 4321SOL    HW213863   6.553   6.846   2.592
 4322SOL     OW13864   1.017   3.108   5.030
 4322SOL    HW113865   0.937   3.168   5.025
 4322SOL    HW213866   0.989   3.017   5.061
 4323SOL     OW13867   3.886   5.290   0.092
 4323SOL    HW113868   3.876   5.358   0.165
 4323SOL    HW213869   3.895   5.337   0.004
 4324SOL     OW13870   0.130   3.522   5.728
 4324SOL    HW113871   0.149   3.450   5.661
 4324SOL    HW213872   0.182   3.604   5.705
 4325SOL     OW13873   2.786   1.054   2.826
 4325SOL    HW113874   2.750   1.147   2.831
 4325SOL    HW213875   2.758   1.011   2.740
 4326SOL     OW13876   5.066   2.471   2.595
 4326SOL    HW113877   5.028   2.438   2.509
 4326SOL    HW213878   5.157   2.432   2.608
 4327SOL     OW13879   3.833   5.647   4.399
 4327SOL    HW113880   3.898   5.587   4.352
 4327SOL    HW213881   3.773   5.592   4.457
 4328SOL     OW13882   5.655   5.292   5.030
 4328SOL    HW113883   5.685   5.197   5.026
 4328SOL    HW213884   5.734   5.352   5.031
 4329SOL     OW13885   5.851   2.642   6.370
 4329SOL    HW113886   5.856   2.712   6.442
 4329SOL    HW213887   5.851   2.687   6.281
 4330SOL     OW13888   2.700   5.059   5.275
 4330SOL    HW113889   2.709   4.961   5.288
 4330SOL    HW213890   2.665   5.078   5.183
 4331SOL     OW13891   6.525   0.531   1.443
 4331SOL    HW113892   6.453   0.517   1.376
 4331SOL    HW213893   6.513   0.467   1.519
 4332SOL     OW13894   6.637   4.825   2.553
 4332SOL    HW113895   6.599   4.744   2.598
 4332SOL    HW213896   6.737   4.818   2.552
 4333SOL     OW13897   4.144   1.880   5.232
 4333SOL    HW113898   4.120   1.852   5.139
 4333SOL    HW213899   4.199   1.808   5.274
 4334SOL     OW13900   1.169   2.908   3.788
 4334SOL    HW113901   1.107   2.943   3.858
 4334SOL    HW213902   1.233   2.843   3.831
 4335SOL     OW13903   3.345   3.563   1.453
 4335SOL    HW113904   3.369   3.507   1.532
 4335SOL    HW213905   3.272   3.627   1.477
 4336SOL     OW13906   2.185   5.905   5.947
 4336SOL    HW113907   2.224   5.873   6.033
 4336SOL    HW213908   2.253   5.959   5.898
 4337SOL     OW13909   1.294   5.531   2.408
 4337SOL    HW113910   1.297   5.432   2.414
 4337SOL    HW213911   1.387   5.568   2.406
 4338SOL     OW13912   5.029   0.825   6.100
 4338SOL    HW113913   4.995   0.808   6.192
 4338SOL    HW213914   4.999   0.915   6.069
 4339SOL     OW13915   4.273   2.818   5.770
 4339SOL    HW113916   4.334   2.844   5.845
 4339SOL    HW213917   4.325   2.768   5.701
 4340SOL     OW13918   6.591   3.694   0.970
 4340SOL    HW113919   6.503   3.736   0.951
 4340SOL    HW213920   6.584   3.638   1.052
 4341SOL     OW13921   1.187   5.885   2.455
 4341SOL    HW113922   1.150   5.818   2.520
 4341SOL    HW213923   1.125   5.964   2.450
 4342SOL     OW13924   4.853   4.038   2.682
 4342SOL    HW113925   4.823   4.041   2.777
 4342SOL    HW213926   4.844   3.944   2.648
 4343SOL     OW13927   3.811   0.256   5.947
 4343SOL    HW113928   3.880   0.253   6.019
 4343SOL    HW213929   3.758   0.171   5.949
 4344SOL     OW13930   0.024   2.185   3.823
 4344SOL    HW113931   0.010   2.224   3.732
 4344SOL    HW213932   0.083   2.245   3.877
 4345SOL     OW13933   2.941   3.593   2.412
 4345SOL    HW113934   2.914   3.498   2.424
 4345SOL    HW213935   2.995   3.623   2.490
 4346SOL     OW13936   1.763   3.102   1.787
 4346SOL    HW113937   1.776   3.190   1.833
 4346SOL    HW213938   1.667   3.075   1.791
 4347SOL     OW13939   5.661   4.978   1.877
 4347SOL    HW113940   5.670   4.886   1.839
 4347SOL    HW213941   5.591   4.977   1.949
 4348SOL     OW13942   6.432   6.091   4.178
 4348SOL    HW113943   6.381   6.169   4.213
 4348SOL    HW213944   6.386   6.006   4.205
 4349SOL     OW13945   0.349   3.708   3.881
 4349SOL    HW113946   0.442   3.742   3.889
 4349SOL    HW213947   0.346   3.611   3.904
 4350SOL     OW13948   4.832   1.184   4.961
 4350SOL    HW113949   4.915   1.148   4.918
 4350SOL    HW213950   4.857   1.255   5.027
 4351SOL     OW13951   1.180   6.823   0.927
 4351SOL    HW113952   1.127   6.739   0.915
 4351SOL    HW213953   1.216   6.852   0.838
 4352SOL     OW13954   3.926   3.881   0.896
 4352SOL    HW113955   3.909   3.844   0.988
 4352SOL    HW213956   3.963   3.973   0.903
 4353SOL     OW13957   2.903   3.081   0.156
 4353SOL    HW113958   2.935   3.000   0.106
 4353SOL    HW213959   2.854   3.051   0.238
 4354SOL     OW13960   6.188   6.917   4.631
 4354SOL    HW113961   6.135   6.832   4.632
 4354SOL    HW213962   6.285   6.895   4.615
 4355SOL     OW13963   1.814   6.409   3.397
 4355SOL    HW113964   1.914   6.407   3.398
 4355SOL    HW213965   1.781   6.420   3.491
 4356SOL     OW13966   5.279   2.258   6.668
 4356SOL    HW113967   5.278   2.190   6.595
 4356SOL    HW213968   5.204   2.323   6.654
 4357SOL     OW13969   6.599   0.551   1.804
 4357SOL    HW113970   6.692   0.583   1.824
 4357SOL    HW213971   6.597   0.451   1.806
 4358SOL     OW13972   0.810   0.860   6.970
 4358SOL    HW113973   0.725   0.855   6.918
 4358SOL    HW213974   0.795   0.912   0.031
 4359SOL     OW13975   2.123   1.107   6.449
 4359SOL    HW113976   2.178   1.066   6.376
 4359SOL    HW213977   2.176   1.180   6.493
 4360SOL     OW13978   1.495   3.039   3.752
 4360SOL    HW113979   1.428   3.069   3.820
 4360SOL    HW213980   1.454   3.042   3.661
 4361SOL     OW13981   0.979   2.121   1.005
 4361SOL    HW113982   0.953   2.131   1.101
 4361SOL    HW213983   0.993   2.024   0.984
 4362SOL     OW13984   1.453   5.616   3.999
 4362SOL    HW113985   1.481   5.639   4.092
 4362SOL    HW213986   1.466   5.696   3.940
 4363SOL     OW13987   4.568   0.605   2.507
 4363SOL    HW113988   4.647   0.544   2.498
 4363SOL    HW213989   4.486   0.559   2.475
 4364SOL     OW13990   3.219   3.672   2.921
 4364SOL    HW113991   3.217   3.749   2.856
 4364SOL    HW213992   3.267   3.595   2.879
 4365SOL     OW13993   2.955   2.177   1.773
 4365SOL    HW113994   3.045   2.216   1.758
 4365SOL    HW213995   2.913   2.220   1.853
 4366SOL     OW13996   4.937   6.179   5.330
 4366SOL    HW113997   4.887   6.173   5.416
 4366SOL    HW213998   5.020   6.125   5.335
 4367SOL     OW13999   3.233   5.723   4.054
 4367SOL    HW114000   3.178   5.769   4.124
 4367SOL    HW214001   3.210   5.626   4.052
 4368SOL     OW14002   4.740   4.583   2.288
 4368SOL    HW114003   4.818   4.558   2.345
 4368SOL    HW214004   4.661   4.528   2.314
 4369SOL     OW14005   4.436   5.195   2.973
 4369SOL    HW114006   4.407   5.258   3.044
 4369SOL    HW214007   4.406   5.102   2.996
 4370SOL     OW14008   3.730   4.762   1.619
 4370SOL    HW114009   3.679   4.748   1.704
 4370SOL    HW214010   3.666   4.781   1.545
 4371SOL     OW14011   2.798   0.496   1.372
 4371SOL    HW114012   2.718   0.533   1.326
 4371SOL    HW214013   2.769   0.435   1.446
 4372SOL     OW14014   1.939   2.855   4.962
 4372SOL    HW114015   1.953   2.761   4.992
 4372SOL    HW214016   1.896   2.908   5.036
 4373SOL     OW14017   4.500   0.923   6.151
 4373SOL    HW114018   4.404   0.894   6.152
 4373SOL    HW214019   4.524   0.961   6.240
 4374SOL     OW14020   2.331   1.337   1.046
 4374SOL    HW114021   2.357   1.335   1.143
 4374SOL    HW214022   2.412   1.355   0.990
 4375SOL     OW14023   3.836   0.760   3.387
 4375SOL    HW114024   3.754   0.815   3.403
 4375SOL    HW214025   3.825   0.670   3.428
 4376SOL     OW14026   6.189   6.602   1.196
 4376SOL    HW114027   6.209   6.695   1.164
 4376SOL    HW214028   6.213   6.595   1.293
 4377SOL     OW14029   6.221   6.329   6.609
 4377SOL    HW114030   6.223   6.296   6.515
 4377SOL    HW214031   6.164   6.268   6.665
 4378SOL     OW14032   2.039   5.907   2.199
 4378SOL    HW114033   2.053   5.827   2.141
 4378SOL    HW214034   1.988   5.880   2.281
 4379SOL     OW14035   0.958   1.401   1.482
 4379SOL    HW114036   0.925   1.308   1.500
 4379SOL    HW214037   0.888   1.451   1.429
 4380SOL     OW14038   1.656   6.202   5.250
 4380SOL    HW114039   1.710   6.173   5.329
 4380SOL    HW214040   1.707   6.182   5.166
 4381SOL     OW14041   3.637   0.160   4.921
 4381SOL    HW114042   3.556   0.208   4.886
 4381SOL    HW214043   3.695   0.132   4.844
 4382SOL     OW14044   5.152   4.159   4.675
 4382SOL    HW114045   5.207   4.088   4.631
 4382SOL    HW214046   5.212   4.227   4.716
 4383SOL     OW14047   1.085   2.685   5.776
 4383SOL    HW114048   1.167   2.659   5.828
 4383SOL    HW214049   1.079   2.629   5.694
 4384SOL     OW14050   4.077   6.736   1.309
 4384SOL    HW114051   4.062   6.833   1.289
 4384SOL    HW214052   4.021   6.681   1.247
 4385SOL     OW14053   0.551   1.552   3.312
 4385SOL    HW114054   0.537   1.485   3.385
 4385SOL    HW214055   0.500   1.635   3.333
 4386SOL     OW14056   1.061   3.863   6.617
 4386SOL    HW114057   0.987   3.908   6.666
 4386SOL    HW214058   1.048   3.764   6.620
 4387SOL     OW14059   6.493   3.463   1.164
 4387SOL    HW114060   6.468   3.523   1.240
 4387SOL    HW214061   6.588   3.434   1.175
 4388SOL     OW14062   3.304   0.782   5.883
 4388SOL    HW114063   3.218   0.745   5.920
 4388SOL    HW214064   3.295   0.794   5.784
 4389SOL     OW14065   5.800   2.957   1.644
 4389SOL    HW114066   5.833   2.954   1.549
 4389SOL    HW214067   5.873   2.928   1.705
 4390SOL     OW14068   4.709   2.725   2.169
 4390SOL    HW114069   4.643   2.690   2.102
 4390SOL    HW214070   4.784   2.771   2.121
 4391SOL     OW14071   0.741   5.565   0.367
 4391SOL    HW114072   0.779   5.554   0.458
 4391SOL    HW214073   0.654   5.615   0.373
 4392SOL     OW14074   4.881   3.181   4.499
 4392SOL    HW114075   4.860   3.265   4.550
 4392SOL    HW214076   4.851   3.102   4.552
 4393SOL     OW14077   5.041   0.058   3.354
 4393SOL    HW114078   5.010   0.014   3.269
 4393SOL    HW214079   5.062   7.010   3.422
 4394SOL     OW14080   5.614   6.607   2.462
 4394SOL    HW114081   5.581   6.624   2.554
 4394SOL    HW214082   5.634   6.694   2.416
 4395SOL     OW14083   4.786   1.710   1.593
 4395SOL    HW114084   4.698   1.671   1.618
 4395SOL    HW214085   4.843   1.718   1.675
 4396SOL     OW14086   0.750   0.993   4.182
 4396SOL    HW114087   0.750   1.018   4.279
 4396SOL    HW214088   0.831   0.937   4.162
 4397SOL     OW14089   6.968   0.450   5.317
 4397SOL    HW114090   0.012   0.397   5.370
 4397SOL    HW214091   7.012   0.530   5.277
 4398SOL     OW14092   0.614   4.593   3.918
 4398SOL    HW114093   0.698   4.558   3.877
 4398SOL    HW214094   0.536   4.568   3.860
 4399SOL     OW14095   1.842   1.148   0.696
 4399SOL    HW114096   1.848   1.176   0.600
 4399SOL    HW214097   1.748   1.123   0.718
 4400SOL     OW14098   2.756   6.761   4.270
 4400SOL    HW114099   2.731   6.664   4.272
 4400SOL    HW214100   2.855   6.771   4.275
 4401SOL     OW14101   6.049   5.931   4.270
 4401SOL    HW114102   6.130   5.922   4.212
 4401SOL    HW214103   6.073   5.980   4.353
 4402SOL     OW14104   1.377   5.719   2.793
 4402SOL    HW114105   1.396   5.697   2.888
 4402SOL    HW214106   1.377   5.818   2.780
 4403SOL     OW14107   0.196   0.166   3.101
 4403SOL    HW114108   0.197   0.188   3.199
 4403SOL    HW214109   0.288   0.138   3.073
 4404SOL     OW14110   0.309   4.095   2.995
 4404SOL    HW114111   0.388   4.151   2.970
 4404SOL    HW214112   0.338   4.000   3.010
 4405SOL     OW14113   2.933   4.785   5.996
 4405SOL    HW114114   3.006   4.727   5.959
 4405SOL    HW214115   2.849   4.772   5.943
 4406SOL     OW14116   5.825   4.099   1.279
 4406SOL    HW114117   5.747   4.161   1.292
 4406SOL    HW214118   5.859   4.108   1.186
 4407SOL     OW14119   6.733   6.322   0.315
 4407SOL    HW114120   6.652   6.374   0.287
 4407SOL    HW214121   6.705   6.233   0.350
 4408SOL     OW14122   4.974   0.488   0.338
 4408SOL    HW114123   4.927   0.563   0.386
 4408SOL    HW214124   4.915   0.408   0.338
 4409SOL     OW14125   3.586   0.582   2.043
 4409SOL    HW114126   3.646   0.657   2.015
 4409SOL    HW214127   3.588   0.510   1.974
 4410SOL     OW14128   2.165   5.426   0.959
 4410SOL    HW114129   2.237   5.385   0.903
 4410SOL    HW214130   2.203   5.455   1.047
 4411SOL     OW14131   3.713   3.073   2.663
 4411SOL    HW114132   3.806   3.049   2.690
 4411SOL    HW214133   3.648   3.034   2.729
 4412SOL     OW14134   4.264   1.040   6.448
 4412SOL    HW114135   4.190   1.057   6.383
 4412SOL    HW214136   4.229   1.048   6.541
 4413SOL     OW14137   3.965   5.462   4.251
 4413SOL    HW114138   4.047   5.405   4.241
 4413SOL    HW214139   3.896   5.434   4.184
 4414SOL     OW14140   4.063   4.848   1.869
 4414SOL    HW114141   4.125   4.774   1.895
 4414SOL    HW214142   4.010   4.878   1.948
 4415SOL     OW14143   5.164   3.764   6.328
 4415SOL    HW114144   5.173   3.848   6.276
 4415SOL    HW214145   5.074   3.723   6.310
 4416SOL     OW14146   3.126   0.907   4.554
 4416SOL    HW114147   3.027   0.912   4.539
 4416SOL    HW214148   3.170   0.866   4.474
 4417SOL     OW14149   0.146   5.090   2.130
 4417SOL    HW114150   0.108   5.178   2.160
 4417SOL    HW214151   0.090   5.052   2.057
 4418SOL     OW14152   4.364   6.040   4.465
 4418SOL    HW114153   4.401   6.050   4.373
 4418SOL    HW214154   4.274   5.996   4.461
 4419SOL     OW14155   6.436   5.013   0.309
 4419SOL    HW114156   6.476   5.051   0.393
 4419SOL    HW214157   6.349   5.058   0.291
 4420SOL     OW14158   5.168   1.285   0.190
 4420SOL    HW114159   5.141   1.381   0.195
 4420SOL    HW214160   5.265   1.280   0.165
 4421SOL     OW14161   1.981   1.729   2.945
 4421SOL    HW114162   1.947   1.636   2.929
 4421SOL    HW214163   2.072   1.739   2.905
 4422SOL     OW14164   2.537   4.071   6.220
 4422SOL    HW114165   2.548   4.018   6.304
 4422SOL    HW214166   2.614   4.052   6.158
 4423SOL     OW14167   1.097   2.803   6.491
 4423SOL    HW114168   1.143   2.815   6.579
 4423SOL    HW214169   1.002   2.777   6.506
 4424SOL     OW14170   6.266   6.432   3.065
 4424SOL    HW114171   6.223   6.478   2.986
 4424SOL    HW214172   6.345   6.379   3.034
 4425SOL     OW14173   3.747   5.112   6.393
 4425SOL    HW114174   3.661   5.063   6.407
 4425SOL    HW214175   3.731   5.191   6.334
 4426SOL     OW14176   6.858   0.297   5.737
 4426SOL    HW114177   6.910   0.307   5.822
 4426SOL    HW214178   6.845   0.388   5.696
 4427SOL     OW14179   0.888   0.642   3.258
 4427SOL    HW114180   0.863   0.711   3.191
 4427SOL    HW214181   0.807   0.590   3.285
 4428SOL     OW14182   1.789   5.248   4.436
 4428SOL    HW114183   1.715   5.183   4.420
 4428SOL    HW214184   1.848   5.213   4.509
 4429SOL     OW14185   3.293   0.015   3.701
 4429SOL    HW114186   3.341   0.070   3.633
 4429SOL    HW214187   3.264   6.951   3.659
 4430SOL     OW14188   3.080   1.492   3.103
 4430SOL    HW114189   3.064   1.553   3.025
 4430SOL    HW214190   3.098   1.400   3.071
 4431SOL     OW14191   3.019   1.635   3.753
 4431SOL    HW114192   2.934   1.675   3.789
 4431SOL    HW214193   3.030   1.660   3.657
 4432SOL     OW14194   3.332   3.460   2.752
 4432SOL    HW114195   3.317   3.528   2.681
 4432SOL    HW214196   3.287   3.374   2.727
 4433SOL     OW14197   6.455   6.179   2.665
 4433SOL    HW114198   6.441   6.196   2.567
 4433SOL    HW214199   6.468   6.081   2.681
 4434SOL     OW14200   5.724   1.543   3.522
 4434SOL    HW114201   5.665   1.623   3.513
 4434SOL    HW214202   5.781   1.552   3.603
 4435SOL     OW14203   3.383   2.918   1.604
 4435SOL    HW114204   3.362   2.825   1.635
 4435SOL    HW214205   3.393   2.978   1.683
 4436SOL     OW14206   3.670   1.661   0.020
 4436SOL    HW114207   3.642   1.742   0.072
 4436SOL    HW214208   3.766   1.669   7.017
 4437SOL     OW14209   4.221   0.526   4.845
 4437SOL    HW114210   4.250   0.431   4.861
 4437SOL    HW214211   4.187   0.565   4.931
 4438SOL     OW14212   3.947   2.349   6.920
 4438SOL    HW114213   3.997   2.263   6.922
 4438SOL    HW214214   3.879   2.347   6.847
 4439SOL     OW14215   1.293   5.236   2.360
 4439SOL    HW114216   1.222   5.175   2.397
 4439SOL    HW214217   1.296   5.226   2.261
 4440SOL     OW14218   1.436   6.277   6.703
 4440SOL    HW114219   1.497   6.239   6.773
 4440SOL    HW214220   1.434   6.376   6.711
 4441SOL     OW14221   5.653   2.506   2.441
 4441SOL    HW114222   5.659   2.513   2.541
 4441SOL    HW214223   5.697   2.421   2.411
 4442SOL     OW14224   4.145   5.945   3.910
 4442SOL    HW114225   4.077   6.018   3.899
 4442SOL    HW214226   4.130   5.898   3.997
 4443SOL     OW14227   2.461   2.188   5.660
 4443SOL    HW114228   2.398   2.234   5.723
 4443SOL    HW214229   2.481   2.096   5.694
 4444SOL     OW14230   4.363   6.466   1.056
 4444SOL    HW114231   4.460   6.444   1.040
 4444SOL    HW214232   4.344   6.457   1.154
 4445SOL     OW14233   1.493   0.941   6.349
 4445SOL    HW114234   1.574   0.993   6.324
 4445SOL    HW214235   1.416   0.968   6.291
 4446SOL     OW14236   5.842   0.304   2.926
 4446SOL    HW114237   5.885   0.268   2.843
 4446SOL    HW214238   5.832   0.403   2.919
 4447SOL     OW14239   5.718   2.794   5.895
 4447SOL    HW114240   5.746   2.711   5.943
 4447SOL    HW214241   5.686   2.862   5.961
 4448SOL     OW14242   2.185   3.632   0.274
 4448SOL    HW114243   2.196   3.561   0.205
 4448SOL    HW214244   2.275   3.658   0.310
 4449SOL     OW14245   2.559   0.468   5.291
 4449SOL    HW114246   2.463   0.489   5.310
 4449SOL    HW214247   2.617   0.503   5.364
 4450SOL     OW14248   3.375   3.089   3.324
 4450SOL    HW114249   3.280   3.058   3.321
 4450SOL    HW214250   3.386   3.169   3.265
 4451SOL     OW14251   6.321   4.635   1.904
 4451SOL    HW114252   6.340   4.548   1.951
 4451SOL    HW214253   6.271   4.696   1.964
 4452SOL     OW14254   6.226   5.933   5.906
 4452SOL    HW114255   6.222   5.857   5.971
 4452SOL    HW214256   6.264   5.901   5.819
 4453SOL     OW14257   5.275   2.560   1.883
 4453SOL    HW114258   5.289   2.590   1.977
 4453SOL    HW214259   5.311   2.467   1.873
 4454SOL     OW14260   5.099   2.980   1.000
 4454SOL    HW114261   5.051   2.965   0.913
 4454SOL    HW214262   5.061   3.060   1.046
 4455SOL     OW14263   3.514   0.251   2.845
 4455SOL    HW114264   3.594   0.214   2.893
 4455SOL    HW214265   3.479   0.183   2.781
 4456SOL     OW14266   1.666   5.159   2.688
 4456SOL    HW114267   1.572   5.189   2.679
 4456SOL    HW214268   1.722   5.234   2.723
 4457SOL     OW14269   5.006   2.020   6.387
 4457SOL    HW114270   4.988   2.007   6.290
 4457SOL    HW214271   4.922   2.052   6.432
 4458SOL     OW14272   2.397   2.271   6.561
 4458SOL    HW114273   2.384   2.366   6.534
 4458SOL    HW214274   2.344   2.211   6.501
 4459SOL     OW14275   4.709   6.518   4.907
 4459SOL    HW114276   4.784   6.452   4.907
 4459SOL    HW214277   4.741   6.604   4.948
 4460SOL     OW14278   2.707   3.364   6.547
 4460SOL    HW114279   2.627   3.424   6.531
 4460SOL    HW214280   2.684   3.296   6.616
 4461SOL     OW14281   1.626   7.021   2.606
 4461SOL    HW114282   1.656   6.992   2.697
 4461SOL    HW214283   1.571   6.948   2.564
 4462SOL     OW14284   6.255   5.466   0.682
 4462SOL    HW114285   6.204   5.492   0.764
 4462SOL    HW214286   6.244   5.368   0.665
 4463SOL     OW14287   1.998   3.661   6.274
 4463SOL    HW114288   2.080   3.659   6.331
 4463SOL    HW214289   2.005   3.592   6.202
 4464SOL     OW14290   5.392   4.039   5.865
 4464SOL    HW114291   5.463   3.997   5.922
 4464SOL    HW214292   5.334   3.968   5.826
 4465SOL     OW14293   1.951   6.380   2.111
 4465SOL    HW114294   1.908   6.302   2.065
 4465SOL    HW214295   2.045   6.355   2.136
 4466SOL     OW14296   1.069   1.671   2.338
 4466SOL    HW114297   0.979   1.703   2.309
 4466SOL    HW214298   1.067   1.651   2.436
 4467SOL     OW14299   1.417   6.828   2.834
 4467SOL    HW114300   1.353   6.904   2.822
 4467SOL    HW214301   1.500   6.862   2.877
 4468SOL     OW14302   1.011   2.788   0.041
 4468SOL    HW114303   0.935   2.730   0.072
 4468SOL    HW214304   1.081   2.730   0.001
 4469SOL     OW14305   3.191   0.240   1.531
 4469SOL    HW114306   3.168   0.337   1.519
 4469SOL    HW214307   3.250   0.210   1.456
 4470SOL     OW14308   4.955   3.760   1.462
 4470SOL    HW114309   4.969   3.818   1.542
 4470SOL    HW214310   4.950   3.664   1.490
 4471SOL     OW14311   0.056   2.456   1.727
 4471SOL    HW114312   0.028   2.546   1.759
 4471SOL    HW214313   0.084   2.399   1.804
 4472SOL     OW14314   2.053   4.111   2.320
 4472SOL    HW114315   1.986   4.170   2.274
 4472SOL    HW214316   2.006   4.053   2.387
 4473SOL     OW14317   0.294   6.820   4.374
 4473SOL    HW114318   0.390   6.816   4.346
 4473SOL    HW214319   0.267   6.916   4.385
 4474SOL     OW14320   4.006   0.019   2.653
 4474SOL    HW114321   4.045   6.978   2.719
 4474SOL    HW214322   3.933   6.997   2.601
 4475SOL     OW14323   1.789   4.290   1.348
 4475SOL    HW114324   1.792   4.287   1.248
 4475SOL    HW214325   1.851   4.361   1.381
 4476SOL     OW14326   4.654   6.533   2.235
 4476SOL    HW114327   4.561   6.514   2.203
 4476SOL    HW214328   4.688   6.617   2.191
 4477SOL     OW14329   2.122   1.495   0.131
 4477SOL    HW114330   2.042   1.450   0.091
 4477SOL    HW214331   2.144   1.577   0.077
 4478SOL     OW14332   2.188   6.904   2.573
 4478SOL    HW114333   2.160   6.819   2.527
 4478SOL    HW214334   2.113   6.970   2.570
 4479SOL     OW14335   0.960   0.324   5.540
 4479SOL    HW114336   1.049   0.316   5.585
 4479SOL    HW214337   0.903   0.246   5.565
 4480SOL     OW14338   1.045   5.016   4.671
 4480SOL    HW114339   1.034   4.968   4.757
 4480SOL    HW214340   1.137   5.002   4.635
 4481SOL     OW14341   1.303   6.050   4.004
 4481SOL    HW114342   1.310   5.970   4.063
 4481SOL    HW214343   1.211   6.089   4.012
 4482SOL     OW14344   0.251   4.435   3.596
 4482SOL    HW114345   0.198   4.427   3.511
 4482SOL    HW214346   0.251   4.348   3.644
 4483SOL     OW14347   6.116   2.952   1.324
 4483SOL    HW114348   6.174   2.873   1.310
 4483SOL    HW214349   6.154   3.031   1.275
 4484SOL     OW14350   3.932   2.571   5.426
 4484SOL    HW114351   3.840   2.581   5.389
 4484SOL    HW214352   3.993   2.535   5.355
 4485SOL     OW14353   4.893   1.625   6.999
 4485SOL    HW114354   4.965   1.635   6.930
 4485SOL    HW214355   4.934   1.593   0.061
 4486SOL     OW14356   6.495   4.012   5.138
 4486SOL    HW114357   6.517   4.081   5.068
 4486SOL    HW214358   6.524   4.045   5.227
 4487SOL     OW14359   2.756   3.763   6.232
 4487SOL    HW114360   2.708   3.684   6.195
 4487SOL    HW214361   2.825   3.795   6.167
 4488SOL     OW14362   6.287   1.839   5.592
 4488SOL    HW114363   6.358   1.802   5.651
 4488SOL    HW214364   6.204   1.853   5.645
 4489SOL     OW14365   5.774   5.429   4.691
 4489SOL    HW114366   5.857   5.448   4.640
 4489SOL    HW214367   5.700   5.408   4.627
 4490SOL     OW14368   6.102   1.606   2.202
 4490SOL    HW114369   6.182   1.546   2.201
 4490SOL    HW214370   6.108   1.669   2.279
 4491SOL     OW14371   1.459   3.899   3.036
 4491SOL    HW114372   1.529   3.959   2.999
 4491SOL    HW214373   1.412   3.944   3.112
 4492SOL     OW14374   4.773   2.388   0.471
 4492SOL    HW114375   4.790   2.486   0.483
 4492SOL    HW214376   4.753   2.370   0.375
 4493SOL     OW14377   4.919   5.186   5.131
 4493SOL    HW114378   4.881   5.258   5.073
 4493SOL    HW214379   5.004   5.218   5.171
 4494SOL     OW14380   6.968   4.063   5.238
 4494SOL    HW114381   0.031   4.058   5.186
 4494SOL    HW214382   6.899   4.007   5.194
 4495SOL     OW14383   5.152   6.426   2.270
 4495SOL    HW114384   5.096   6.501   2.234
 4495SOL    HW214385   5.112   6.339   2.243
 4496SOL     OW14386   5.561   3.912   6.051
 4496SOL    HW114387   5.615   3.948   6.127
 4496SOL    HW214388   5.507   3.834   6.083
 4497SOL     OW14389   5.622   5.296   6.877
 4497SOL    HW114390   5.654   5.374   6.823
 4497SOL    HW214391   5.551   5.247   6.827
 4498SOL     OW14392   0.361   3.726   6.714
 4498SOL    HW114393   0.372   3.641   6.662
 4498SOL    HW214394   0.385   3.710   6.810
 4499SOL     OW14395   6.941   3.322   4.728
 4499SOL    HW114396   6.845   3.320   4.753
 4499SOL    HW214397   6.997   3.290   4.804
 4500SOL     OW14398   2.943   3.395   4.648
 4500SOL    HW114399   2.926   3.380   4.746
 4500SOL    HW214400   2.981   3.312   4.608
 4501SOL     OW14401   0.463   4.248   5.267
 4501SOL    HW114402   0.455   4.238   5.366
 4501SOL    HW214403   0.553   4.213   5.237
 4502SOL     OW14404   1.550   2.746   6.992
 4502SOL    HW114405   1.455   2.771   7.013
 4502SOL    HW214406   1.601   2.739   0.055
 4503SOL     OW14407   2.204   1.443   3.794
 4503SOL    HW114408   2.134   1.455   3.724
 4503SOL    HW214409   2.294   1.439   3.751
 4504SOL     OW14410   6.056   2.668   5.866
 4504SOL    HW114411   6.111   2.734   5.816
 4504SOL    HW214412   6.109   2.584   5.880
 4505SOL     OW14413   1.509   6.421   5.258
 4505SOL    HW114414   1.418   6.386   5.237
 4505SOL    HW214415   1.573   6.344   5.263
 4506SOL     OW14416   4.328   1.208   5.263
 4506SOL    HW114417   4.260   1.213   5.336
 4506SOL    HW214418   4.410   1.259   5.290
 4507SOL     OW14419   4.599   4.696   0.860
 4507SOL    HW114420   4.602   4.734   0.953
 4507SOL    HW214421   4.640   4.762   0.796
 4508SOL     OW14422   1.326   3.932   0.053
 4508SOL    HW114423   1.269   4.010   0.078
 4508SOL    HW214424   1.307   3.906   6.981
 4509SOL     OW14425   4.082   1.898   4.508
 4509SOL    HW114426   4.071   1.803   4.539
 4509SOL    HW214427   4.038   1.959   4.573
 4510SOL     OW14428   5.499   0.460   5.154
 4510SOL    HW114429   5.577   0.480   5.094
 4510SOL    HW214430   5.530   0.459   5.249
 4511SOL     OW14431   6.737   3.039   0.463
 4511SOL    HW114432   6.747   2.984   0.545
 4511SOL    HW214433   6.687   3.123   0.485
 4512SOL     OW14434   2.066   6.319   6.947
 4512SOL    HW114435   2.030   6.402   6.904
 4512SOL    HW214436   2.029   6.312   0.017
 4513SOL     OW14437   4.906   6.581   1.779
 4513SOL    HW114438   4.954   6.499   1.809
 4513SOL    HW214439   4.943   6.611   1.691
 4514SOL     OW14440   3.481   1.034   5.182
 4514SOL    HW114441   3.499   1.000   5.090
 4514SOL    HW214442   3.488   1.134   5.183
 4515SOL     OW14443   6.844   4.843   0.389
 4515SOL    HW114444   6.938   4.821   0.414
 4515SOL    HW214445   6.841   4.934   0.348
 4516SOL     OW14446   0.837   1.208   5.055
 4516SOL    HW114447   0.827   1.204   4.955
 4516SOL    HW214448   0.899   1.282   5.079
 4517SOL     OW14449   3.469   6.676   6.407
 4517SOL    HW114450   3.448   6.753   6.467
 4517SOL    HW214451   3.519   6.708   6.327
 4518SOL     OW14452   0.804   2.035   3.714
 4518SOL    HW114453   0.779   2.012   3.619
 4518SOL    HW214454   0.742   2.106   3.747
 4519SOL     OW14455   6.976   2.525   3.686
 4519SOL    HW114456   0.037   2.570   3.655
 4519SOL    HW214457   7.000   2.450   3.748
 4520SOL     OW14458   6.278   4.571   2.355
 4520SOL    HW114459   6.332   4.580   2.439
 4520SOL    HW214460   6.311   4.493   2.302
 4521SOL     OW14461   4.884   2.358   6.371
 4521SOL    HW114462   4.958   2.348   6.304
 4521SOL    HW214463   4.924   2.373   6.462
 4522SOL     OW14464   5.970   6.392   3.326
 4522SOL    HW114465   5.949   6.489   3.325
 4522SOL    HW214466   5.936   6.349   3.242
 4523SOL     OW14467   2.870   4.752   0.413
 4523SOL    HW114468   2.834   4.690   0.483
 4523SOL    HW214469   2.946   4.707   0.365
 4524SOL     OW14470   5.197   1.298   5.254
 4524SOL    HW114471   5.211   1.262   5.162
 4524SOL    HW214472   5.263   1.257   5.317
 4525SOL     OW14473   6.507   1.349   4.276
 4525SOL    HW114474   6.543   1.333   4.368
 4525SOL    HW214475   6.580   1.333   4.209
 4526SOL     OW14476   4.671   6.724   1.183
 4526SOL    HW114477   4.750   6.779   1.155
 4526SOL    HW214478   4.587   6.772   1.157
 4527SOL     OW14479   5.080   1.426   2.736
 4527SOL    HW114480   5.151   1.431   2.806
 4527SOL    HW214481   5.086   1.338   2.688
 4528SOL     OW14482   5.444   0.394   0.290
 4528SOL    HW114483   5.348   0.419   0.277
 4528SOL    HW214484   5.494   0.408   0.205
 4529SOL     OW14485   2.430   0.627   2.692
 4529SOL    HW114486   2.428   0.527   2.699
 4529SOL    HW214487   2.349   0.665   2.737
 4530SOL     OW14488   0.777   3.451   5.472
 4530SOL    HW114489   0.859   3.447   5.529
 4530SOL    HW214490   0.802   3.435   5.376
 4531SOL     OW14491   0.857   3.636   3.959
 4531SOL    HW114492   0.891   3.639   4.052
 4531SOL    HW214493   0.812   3.548   3.943
 4532SOL     OW14494   6.419   1.255   0.977
 4532SOL    HW114495   6.514   1.222   0.981
 4532SOL    HW214496   6.416   1.338   0.922
 4533SOL     OW14497   2.022   6.263   2.846
 4533SOL    HW114498   2.087   6.339   2.851
 4533SOL    HW214499   1.934   6.292   2.883
 4534SOL     OW14500   5.903   3.974   5.013
 4534SOL    HW114501   5.944   3.884   4.997
 4534SOL    HW214502   5.935   4.009   5.101
 4535SOL     OW14503   5.183   3.431   2.052
 4535SOL    HW114504   5.090   3.395   2.058
 4535SOL    HW214505   5.249   3.357   2.068
 4536SOL     OW14506   5.276   0.938   4.643
 4536SOL    HW114507   5.176   0.939   4.642
 4536SOL    HW214508   5.309   0.965   4.733
 4537SOL     OW14509   3.741   3.422   6.799
 4537SOL    HW114510   3.789   3.347   6.846
 4537SOL    HW214511   3.763   3.509   6.844
 4538SOL     OW14512   3.348   1.675   2.988
 4538SOL    HW114513   3.436   1.718   2.967
 4538SOL    HW214514   3.295   1.735   3.049
 4539SOL     OW14515   1.829   2.232   3.430
 4539SOL    HW114516   1.784   2.317   3.403
 4539SOL    HW214517   1.796   2.157   3.373
 4540SOL     OW14518   3.513   3.001   4.690
 4540SOL    HW114519   3.529   3.084   4.636
 4540SOL    HW214520   3.500   3.026   4.786
 4541SOL     OW14521   5.114   1.746   0.526
 4541SOL    HW114522   5.045   1.736   0.597
 4541SOL    HW214523   5.169   1.662   0.521
 4542SOL     OW14524   5.957   5.917   1.951
 4542SOL    HW114525   5.954   5.975   1.870
 4542SOL    HW214526   6.045   5.871   1.957
 4543SOL     OW14527   4.798   1.996   1.063
 4543SOL    HW114528   4.834   1.907   1.034
 4543SOL    HW214529   4.871   2.064   1.059
 4544SOL     OW14530   2.732   6.036   6.655
 4544SOL    HW114531   2.711   6.051   6.559
 4544SOL    HW214532   2.690   5.951   6.686
 4545SOL     OW14533   4.435   2.047   5.269
 4545SOL    HW114534   4.437   1.949   5.251
 4545SOL    HW214535   4.475   2.096   5.192
 4546SOL     OW14536   1.062   6.420   6.647
 4546SOL    HW114537   0.982   6.401   6.590
 4546SOL    HW214538   1.063   6.357   6.724
 4547SOL     OW14539   5.995   2.718   1.402
 4547SOL    HW114540   6.046   2.683   1.481
 4547SOL    HW214541   6.006   2.817   1.398
 4548SOL     OW14542   0.324   4.160   3.666
 4548SOL    HW114543   0.338   4.138   3.762
 4548SOL    HW214544   0.405   4.134   3.613
 4549SOL     OW14545   6.575   3.569   2.803
 4549SOL    HW114546   6.477   3.549   2.802
 4549SOL    HW214547   6.595   3.635   2.875
 4550SOL     OW14548   1.152   5.944   3.096
 4550SOL    HW114549   1.097   5.899   3.026
 4550SOL    HW214550   1.235   5.891   3.112
 4551SOL     OW14551   0.531   2.897   5.158
 4551SOL    HW114552   0.496   2.853   5.076
 4551SOL    HW214553   0.591   2.833   5.208
 4552SOL     OW14554   0.546   3.451   4.630
 4552SOL    HW114555   0.569   3.380   4.564
 4552SOL    HW214556   0.553   3.415   4.722
 4553SOL     OW14557   4.593   5.119   0.544
 4553SOL    HW114558   4.671   5.180   0.556
 4553SOL    HW214559   4.605   5.065   0.461
 4554SOL     OW14560   4.148   7.011   2.943
 4554SOL    HW114561   4.116   6.937   2.883
 4554SOL    HW214562   4.234   0.026   2.907
 4555SOL     OW14563   4.610   2.039   6.757
 4555SOL    HW114564   4.540   1.976   6.724
 4555SOL    HW214565   4.671   1.992   6.821
 4556SOL     OW14566   4.276   0.491   3.676
 4556SOL    HW114567   4.250   0.397   3.653
 4556SOL    HW214568   4.373   0.494   3.699
 4557SOL     OW14569   5.473   0.458   5.738
 4557SOL    HW114570   5.540   0.453   5.664
 4557SOL    HW214571   5.430   0.549   5.738
 4558SOL     OW14572   5.810   3.738   6.220
 4558SOL    HW114573   5.727   3.697   6.184
 4558SOL    HW214574   5.789   3.790   6.302
 4559SOL     OW14575   1.291   6.749   1.440
 4559SOL    HW114576   1.305   6.726   1.344
 4559SOL    HW214577   1.293   6.849   1.451
 4560SOL     OW14578   5.304   2.825   2.782
 4560SOL    HW114579   5.386   2.813   2.838
 4560SOL    HW214580   5.312   2.910   2.730
 4561SOL     OW14581   3.308   1.479   0.113
 4561SOL    HW114582   3.306   1.564   0.061
 4561SOL    HW214583   3.253   1.490   0.196
 4562SOL     OW14584   3.401   5.859   6.273
 4562SOL    HW114585   3.377   5.921   6.348
 4562SOL    HW214586   3.346   5.882   6.193
 4563SOL     OW14587   5.690   1.725   0.581
 4563SOL    HW114588   5.608   1.675   0.552
 4563SOL    HW214589   5.694   1.726   0.681
 4564SOL     OW14590   1.132   5.334   0.995
 4564SOL    HW114591   1.160   5.240   1.014
 4564SOL    HW214592   1.161   5.359   0.903
 4565SOL     OW14593   0.614   1.408   4.915
 4565SOL    HW114594   0.518   1.409   4.887
 4565SOL    HW214595   0.622   1.356   5.001
 4566SOL     OW14596   0.414   0.224   6.550
 4566SOL    HW114597   0.341   0.187   6.607
 4566SOL    HW214598   0.496   0.168   6.561
 4567SOL     OW14599   6.853   1.249   0.563
 4567SOL    HW114600   6.887   1.197   0.642
 4567SOL    HW214601   6.885   1.344   0.570
 4568SOL     OW14602   3.045   4.418   5.655
 4568SOL    HW114603   2.984   4.339   5.661
 4568SOL    HW214604   3.081   4.440   5.746
 4569SOL     OW14605   1.245   1.604   4.215
 4569SOL    HW114606   1.152   1.573   4.195
 4569SOL    HW214607   1.310   1.531   4.194
 4570SOL     OW14608   0.116   5.771   3.257
 4570SOL    HW114609   0.098   5.717   3.175
 4570SOL    HW214610   0.210   5.757   3.287
 4571SOL     OW14611   3.107   3.214   4.497
 4571SOL    HW114612   3.186   3.155   4.517
 4571SOL    HW214613   3.068   3.187   4.409
 4572SOL     OW14614   1.054   6.980   1.212
 4572SOL    HW114615   1.015   0.048   1.204
 4572SOL    HW214616   1.152   6.984   1.195
 4573SOL     OW14617   6.035   5.670   1.469
 4573SOL    HW114618   6.002   5.678   1.375
 4573SOL    HW214619   6.129   5.703   1.473
 4574SOL     OW14620   6.795   4.716   1.528
 4574SOL    HW114621   6.726   4.644   1.540
 4574SOL    HW214622   6.759   4.786   1.466
 4575SOL     OW14623   6.535   1.711   1.148
 4575SOL    HW114624   6.608   1.646   1.127
 4575SOL    HW214625   6.512   1.705   1.245
 4576SOL     OW14626   3.011   6.089   6.709
 4576SOL    HW114627   3.082   6.045   6.653
 4576SOL    HW214628   2.921   6.058   6.679
 4577SOL     OW14629   0.954   3.472   3.147
 4577SOL    HW114630   0.910   3.480   3.057
 4577SOL    HW214631   0.892   3.424   3.210
 4578SOL     OW14632   0.337   3.453   3.546
 4578SOL    HW114633   0.312   3.549   3.558
 4578SOL    HW214634   0.258   3.395   3.570
 4579SOL     OW14635   4.975   1.836   2.796
 4579SOL    HW114636   4.902   1.833   2.864
 4579SOL    HW214637   4.973   1.924   2.748
 4580SOL     OW14638   6.011   5.401   0.928
 4580SOL    HW114639   6.074   5.348   0.871
 4580SOL    HW214640   6.045   5.495   0.936
 4581SOL     OW14641   3.494   5.359   3.278
 4581SOL    HW114642   3.551   5.281   3.252
 4581SOL    HW214643   3.540   5.444   3.251
 4582SOL     OW14644   5.322   6.767   3.470
 4582SOL    HW114645   5.276   6.853   3.491
 4582SOL    HW214646   5.347   6.721   3.554
 4583SOL     OW14647   2.781   1.793   5.536
 4583SOL    HW114648   2.782   1.716   5.472
 4583SOL    HW214649   2.741   1.873   5.491
 4584SOL     OW14650   6.891   6.014   5.960
 4584SOL    HW114651   6.857   6.015   6.054
 4584SOL    HW214652   6.816   5.994   5.898
 4585SOL     OW14653   3.219   6.167   3.331
 4585SOL    HW114654   3.271   6.129   3.408
 4585SOL    HW214655   3.271   6.243   3.291
 4586SOL     OW14656   3.628   5.786   2.010
 4586SOL    HW114657   3.690   5.845   1.958
 4586SOL    HW214658   3.667   5.767   2.100
 4587SOL     OW14659   3.701   3.031   1.252
 4587SOL    HW114660   3.617   3.042   1.199
 4587SOL    HW214661   3.724   3.117   1.297
 4588SOL     OW14662   3.987   3.895   4.957
 4588SOL    HW114663   3.976   3.922   4.862
 4588SOL    HW214664   3.922   3.823   4.980
 4589SOL     OW14665   6.145   2.300   3.059
 4589SOL    HW114666   6.084   2.357   3.004
 4589SOL    HW214667   6.192   2.235   2.999
 4590SOL     OW14668   4.112   5.498   2.619
 4590SOL    HW114669   4.161   5.556   2.553
 4590SOL    HW214670   4.177   5.462   2.686
 4591SOL     OW14671   6.499   5.532   5.578
 4591SOL    HW114672   6.545   5.459   5.527
 4591SOL    HW214673   6.516   5.619   5.532
 4592SOL     OW14674   3.751   2.598   0.692
 4592SOL    HW114675   3.702   2.632   0.612
 4592SOL    HW214676   3.770   2.501   0.680
 4593SOL     OW14677   3.991   6.021   2.611
 4593SOL    HW114678   4.062   6.011   2.680
 4593SOL    HW214679   3.927   6.093   2.639
 4594SOL     OW14680   3.002   1.356   1.649
 4594SOL    HW114681   3.012   1.355   1.549
 4594SOL    HW214682   2.911   1.388   1.673
 4595SOL     OW14683   3.448   2.996   6.230
 4595SOL    HW114684   3.396   3.022   6.311
 4595SOL    HW214685   3.399   3.025   6.148
 4596SOL     OW14686   5.912   6.430   2.646
 4596SOL    HW114687   6.008   6.412   2.629
 4596SOL    HW214688   5.889   6.523   2.615
 4597SOL     OW14689   5.354   4.440   6.124
 4597SOL    HW114690   5.362   4.465   6.221
 4597SOL    HW214691   5.367   4.341   6.114
 4598SOL     OW14692   2.067   5.565   0.013
 4598SOL    HW114693   2.108   5.479   7.007
 4598SOL    HW214694   1.995   5.546   0.080
 4599SOL     OW14695   1.435   4.379   1.379
 4599SOL    HW114696   1.459   4.294   1.333
 4599SOL    HW214697   1.390   4.441   1.314
 4600SOL     OW14698   3.345   5.903   0.184
 4600SOL    HW114699   3.275   5.865   0.122
 4600SOL    HW214700   3.331   5.866   0.276
 4601SOL     OW14701   2.301   1.148   4.862
 4601SOL    HW114702   2.293   1.132   4.961
 4601SOL    HW214703   2.397   1.166   4.840
 4602SOL     OW14704   1.977   0.054   1.548
 4602SOL    HW114705   1.954   0.046   1.451
 4602SOL    HW214706   2.070   0.089   1.558
 4603SOL     OW14707   2.975   6.924   1.872
 4603SOL    HW114708   3.000   6.984   1.796
 4603SOL    HW214709   3.058   6.885   1.912
 4604SOL     OW14710   3.776   0.212   2.577
 4604SOL    HW114711   3.826   0.127   2.559
 4604SOL    HW214712   3.678   0.193   2.579
 4605SOL     OW14713   4.911   0.788   4.395
 4605SOL    HW114714   5.002   0.748   4.386
 4605SOL    HW214715   4.896   0.816   4.490
 4606SOL     OW14716   6.684   6.661   4.570
 4606SOL    HW114717   6.694   6.681   4.473
 4606SOL    HW214718   6.734   6.578   4.593
 4607SOL     OW14719   2.822   1.761   1.494
 4607SOL    HW114720   2.755   1.801   1.432
 4607SOL    HW214721   2.786   1.675   1.530
 4608SOL     OW14722   1.196   5.200   4.982
 4608SOL    HW114723   1.288   5.162   4.990
 4608SOL    HW214724   1.193   5.267   4.908
 4609SOL     OW14725   4.356   5.807   0.131
 4609SOL    HW114726   4.429   5.788   0.197
 4609SOL    HW214727   4.392   5.863   0.057
 4610SOL     OW14728   0.332   2.710   0.131
 4610SOL    HW114729   0.416   2.675   0.173
 4610SOL    HW214730   0.286   2.635   0.083
 4611SOL     OW14731   0.543   3.747   6.930
 4611SOL    HW114732   0.531   3.685   7.008
 4611SOL    HW214733   0.601   3.702   6.861
 4612SOL     OW14734   1.866   6.047   6.390
 4612SOL    HW114735   1.925   6.084   6.461
 4612SOL    HW214736   1.799   6.116   6.363
 4613SOL     OW14737   3.172   5.439   2.490
 4613SOL    HW114738   3.116   5.513   2.453
 4613SOL    HW214739   3.149   5.353   2.443
 4614SOL     OW14740   2.229   5.535   0.348
 4614SOL    HW114741   2.215   5.474   0.270
 4614SOL    HW214742   2.323   5.524   0.382
 4615SOL     OW14743   1.332   1.938   0.043
 4615SOL    HW114744   1.354   2.036   0.047
 4615SOL    HW214745   1.367   1.900   6.980
 4616SOL     OW14746   6.114   6.935   6.519
 4616SOL    HW114747   6.061   6.864   6.473
 4616SOL    HW214748   6.199   6.952   6.470
 4617SOL     OW14749   0.865   2.726   2.875
 4617SOL    HW114750   0.777   2.685   2.852
 4617SOL    HW214751   0.933   2.700   2.805
 4618SOL     OW14752   0.936   2.842   5.533
 4618SOL    HW114753   1.031   2.831   5.503
 4618SOL    HW214754   0.922   2.934   5.569
 4619SOL     OW14755   4.939   1.140   3.882
 4619SOL    HW114756   4.841   1.144   3.898
 4619SOL    HW214757   4.967   1.045   3.866
 4620SOL     OW14758   3.416   4.690   0.042
 4620SOL    HW114759   3.353   4.767   0.032
 4620SOL    HW214760   3.409   4.631   6.984
 4621SOL     OW14761   6.567   1.355   4.825
 4621SOL    HW114762   6.553   1.293   4.902
 4621SOL    HW214763   6.606   1.441   4.856
 4622SOL     OW14764   2.121   3.394   0.723
 4622SOL    HW114765   2.177   3.464   0.680
 4622SOL    HW214766   2.026   3.425   0.729
 4623SOL     OW14767   6.885   4.839   0.849
 4623SOL    HW114768   6.923   4.931   0.850
 4623SOL    HW214769   6.801   4.837   0.903
 4624SOL     OW14770   4.643   1.116   3.912
 4624SOL    HW114771   4.678   1.027   3.941
 4624SOL    HW214772   4.570   1.102   3.844
 4625SOL     OW14773   0.861   4.135   6.821
 4625SOL    HW114774   0.960   4.123   6.809
 4625SOL    HW214775   0.839   4.232   6.825
 4626SOL     OW14776   6.349   4.931   1.773
 4626SOL    HW114777   6.432   4.885   1.804
 4626SOL    HW214778   6.331   5.010   1.832
 4627SOL     OW14779   3.405   5.720   5.297
 4627SOL    HW114780   3.501   5.747   5.308
 4627SOL    HW214781   3.397   5.621   5.305
 4628SOL     OW14782   6.181   4.799   2.062
 4628SOL    HW114783   6.203   4.897   2.058
 4628SOL    HW214784   6.141   4.778   2.151
 4629SOL     OW14785   2.086   5.340   5.664
 4629SOL    HW114786   2.125   5.284   5.738
 4629SOL    HW214787   2.129   5.316   5.577
 4630SOL     OW14788   2.666   5.773   3.394
 4630SOL    HW114789   2.601   5.841   3.429
 4630SOL    HW214790   2.631   5.681   3.411
 4631SOL     OW14791   2.852   6.409   3.727
 4631SOL    HW114792   2.924   6.363   3.673
 4631SOL    HW214793   2.793   6.340   3.768
 4632SOL     OW14794   4.518   5.068   4.294
 4632SOL    HW114795   4.518   4.991   4.358
 4632SOL    HW214796   4.562   5.146   4.337
 4633SOL     OW14797   6.240   1.944   5.150
 4633SOL    HW114798   6.298   1.863   5.145
 4633SOL    HW214799   6.192   1.946   5.238
 4634SOL     OW14800   2.767   4.584   0.612
 4634SOL    HW114801   2.679   4.544   0.587
 4634SOL    HW214802   2.828   4.513   0.646
 4635SOL     OW14803   5.301   3.205   2.420
 4635SOL    HW114804   5.400   3.208   2.431
 4635SOL    HW214805   5.277   3.153   2.338
 4636SOL     OW14806   2.979   5.218   0.685
 4636SOL    HW114807   3.002   5.131   0.641
 4636SOL    HW214808   2.928   5.201   0.769
 4637SOL     OW14809   1.032   0.113   6.061
 4637SOL    HW114810   0.949   0.169   6.066
 4637SOL    HW214811   1.020   0.029   6.114
 4638SOL     OW14812   4.030   3.477   6.197
 4638SOL    HW114813   4.038   3.377   6.193
 4638SOL    HW214814   4.118   3.517   6.224
 4639SOL     OW14815   0.485   4.276   5.545
 4639SOL    HW114816   0.482   4.209   5.618
 4639SOL    HW214817   0.460   4.366   5.581
 4640SOL     OW14818   5.240   4.574   3.693
 4640SOL    HW114819   5.234   4.672   3.710
 4640SOL    HW214820   5.150   4.538   3.672
 4641SOL     OW14821   2.601   4.870   4.461
 4641SOL    HW114822   2.595   4.799   4.531
 4641SOL    HW214823   2.541   4.846   4.385
 4642SOL     OW14824   5.998   5.495   4.357
 4642SOL    HW114825   5.912   5.454   4.328
 4642SOL    HW214826   6.069   5.426   4.360
 4643SOL     OW14827   4.184   2.094   1.491
 4643SOL    HW114828   4.204   2.131   1.582
 4643SOL    HW214829   4.113   2.024   1.498
 4644SOL     OW14830   1.374   6.378   4.669
 4644SOL    HW114831   1.327   6.365   4.756
 4644SOL    HW214832   1.341   6.312   4.602
 4645SOL     OW14833   2.388   6.566   4.242
 4645SOL    HW114834   2.474   6.580   4.193
 4645SOL    HW214835   2.405   6.567   4.340
 4646SOL     OW14836   2.985   0.153   2.327
 4646SOL    HW114837   2.947   0.243   2.309
 4646SOL    HW214838   3.045   0.126   2.252
 4647SOL     OW14839   0.633   0.199   3.645
 4647SOL    HW114840   0.587   0.224   3.560
 4647SOL    HW214841   0.673   0.280   3.687
 4648SOL     OW14842   2.771   6.552   2.951
 4648SOL    HW114843   2.712   6.569   3.030
 4648SOL    HW214844   2.832   6.630   2.938
 4649SOL     OW14845   5.405   0.734   5.687
 4649SOL    HW114846   5.316   0.754   5.728
 4649SOL    HW214847   5.474   0.793   5.727
 4650SOL     OW14848   4.594   6.272   3.100
 4650SOL    HW114849   4.645   6.353   3.072
 4650SOL    HW214850   4.641   6.228   3.177
 4651SOL     OW14851   6.926   2.133   1.723
 4651SOL    HW114852   6.907   2.226   1.754
 4651SOL    HW214853   6.850   2.099   1.668
 4652SOL     OW14854   6.975   0.592   4.329
 4652SOL    HW114855   6.978   0.636   4.239
 4652SOL    HW214856   6.892   0.537   4.337
 4653SOL     OW14857   6.890   6.553   0.327
 4653SOL    HW114858   6.881   6.609   0.245
 4653SOL    HW214859   6.838   6.469   0.316
 4654SOL     OW14860   0.625   6.897   0.572
 4654SOL    HW114861   0.711   6.848   0.583
 4654SOL    HW214862   0.587   6.878   0.481
 4655SOL     OW14863   0.213   4.135   2.741
 4655SOL    HW114864   0.229   4.233   2.729
 4655SOL    HW214865   0.206   4.114   2.839
 4656SOL     OW14866   1.148   0.751   2.866
 4656SOL    HW114867   1.167   0.783   2.959
 4656SOL    HW214868   1.233   0.750   2.813
 4657SOL     OW14869   5.127   6.475   1.423
 4657SOL    HW114870   5.042   6.486   1.372
 4657SOL    HW214871   5.204   6.495   1.363
 4658SOL     OW14872   4.302   0.059   3.333
 4658SOL    HW114873   4.215   0.014   3.312
 4658SOL    HW214874   4.286   0.138   3.392
 4659SOL     OW14875   1.875   2.792   5.271
 4659SOL    HW114876   1.843   2.702   5.301
 4659SOL    HW214877   1.798   2.845   5.235
 4660SOL     OW14878   0.110   1.504   5.388
 4660SOL    HW114879   0.188   1.529   5.330
 4660SOL    HW214880   0.136   1.432   5.451
 4661SOL     OW14881   3.534   4.141   4.343
 4661SOL    HW114882   3.475   4.167   4.266
 4661SOL    HW214883   3.479   4.135   4.426
 4662SOL     OW14884   4.944   0.481   5.371
 4662SOL    HW114885   5.000   0.406   5.334
 4662SOL    HW214886   4.991   0.523   5.448
 4663SOL     OW14887   6.765   1.986   2.180
 4663SOL    HW114888   6.849   1.975   2.127
 4663SOL    HW214889   6.748   2.084   2.196
 4664SOL     OW14890   2.434   2.549   6.494
 4664SOL    HW114891   2.407   2.568   6.400
 4664SOL    HW214892   2.531   2.569   6.506
 4665SOL     OW14893   5.109   0.225   6.384
 4665SOL    HW114894   5.055   0.225   6.300
 4665SOL    HW214895   5.204   0.202   6.363
 4666SOL     OW14896   2.089   2.149   7.000
 4666SOL    HW114897   2.042   2.069   0.016
 4666SOL    HW214898   2.155   2.184   0.044
 4667SOL     OW14899   6.804   4.963   6.506
 4667SOL    HW114900   6.727   4.968   6.569
 4667SOL    HW214901   6.800   5.040   6.441
 4668SOL     OW14902   6.457   1.388   4.580
 4668SOL    HW114903   6.357   1.392   4.581
 4668SOL    HW214904   6.490   1.374   4.673
 4669SOL     OW14905   1.731   6.408   0.344
 4669SOL    HW114906   1.753   6.363   0.431
 4669SOL    HW214907   1.680   6.344   0.287
 4670SOL     OW14908   2.788   1.441   5.032
 4670SOL    HW114909   2.880   1.403   5.023
 4670SOL    HW214910   2.792   1.540   5.019
 4671SOL     OW14911   6.063   3.214   1.683
 4671SOL    HW114912   5.992   3.252   1.743
 4671SOL    HW214913   6.022   3.185   1.597
 4672SOL     OW14914   1.761   4.142   6.268
 4672SOL    HW114915   1.840   4.165   6.212
 4672SOL    HW214916   1.723   4.054   6.239
 4673SOL     OW14917   3.636   0.430   2.286
 4673SOL    HW114918   3.616   0.474   2.198
 4673SOL    HW214919   3.600   0.485   2.360
 4674SOL     OW14920   4.926   5.406   5.635
 4674SOL    HW114921   4.940   5.417   5.537
 4674SOL    HW214922   4.898   5.494   5.674
 4675SOL     OW14923   1.297   3.997   0.970
 4675SOL    HW114924   1.380   3.943   0.961
 4675SOL    HW214925   1.220   3.936   0.991
 4676SOL     OW14926   1.573   5.743   3.378
 4676SOL    HW114927   1.474   5.752   3.391
 4676SOL    HW214928   1.618   5.830   3.400
 4677SOL     OW14929   1.725   2.337   0.532
 4677SOL    HW114930   1.682   2.326   0.621
 4677SOL    HW214931   1.767   2.251   0.504
 4678SOL     OW14932   1.728   4.415   3.085
 4678SOL    HW114933   1.714   4.508   3.117
 4678SOL    HW214934   1.696   4.350   3.155
 4679SOL     OW14935   5.497   6.157   1.655
 4679SOL    HW114936   5.547   6.217   1.593
 4679SOL    HW214937   5.484   6.068   1.612
 4680SOL     OW14938   2.744   1.529   1.633
 4680SOL    HW114939   2.695   1.443   1.650
 4680SOL    HW214940   2.721   1.595   1.705
 4681SOL     OW14941   5.263   4.249   0.305
 4681SOL    HW114942   5.274   4.164   0.356
 4681SOL    HW214943   5.246   4.324   0.369
 4682SOL     OW14944   4.739   3.425   6.463
 4682SOL    HW114945   4.828   3.396   6.428
 4682SOL    HW214946   4.742   3.523   6.485
 4683SOL     OW14947   5.628   4.234   3.685
 4683SOL    HW114948   5.532   4.227   3.710
 4683SOL    HW214949   5.676   4.152   3.714
 4684SOL     OW14950   4.040   6.490   0.412
 4684SOL    HW114951   4.041   6.470   0.510
 4684SOL    HW214952   4.126   6.458   0.372
 4685SOL     OW14953   2.561   3.611   6.107
 4685SOL    HW114954   2.599   3.592   6.016
 4685SOL    HW214955   2.471   3.652   6.098
 4686SOL     OW14956   3.396   6.224   1.071
 4686SOL    HW114957   3.315   6.234   1.014
 4686SOL    HW214958   3.477   6.251   1.018
 4687SOL     OW14959   2.992   1.657   3.481
 4687SOL    HW114960   2.920   1.726   3.485
 4687SOL    HW214961   3.072   1.694   3.435
 4688SOL     OW14962   5.442   2.561   6.051
 4688SOL    HW114963   5.428   2.532   6.145
 4688SOL    HW214964   5.366   2.621   6.023
 4689SOL     OW14965   5.325   0.942   0.607
 4689SOL    HW114966   5.262   0.942   0.684
 4689SOL    HW214967   5.305   0.865   0.548
 4690SOL     OW14968   2.533   1.571   0.702
 4690SOL    HW114969   2.443   1.584   0.659
 4690SOL    HW214970   2.603   1.610   0.642
 4691SOL     OW14971   5.297   4.379   0.001
 4691SOL    HW114972   5.207   4.343   7.000
 4691SOL    HW214973   5.323   4.347   0.092
 4692SOL     OW14974   6.476   4.196   2.875
 4692SOL    HW114975   6.547   4.198   2.945
 4692SOL    HW214976   6.394   4.243   2.908
 4693SOL     OW14977   1.539   1.040   3.677
 4693SOL    HW114978   1.586   0.957   3.646
 4693SOL    HW214979   1.559   1.115   3.613
 4694SOL     OW14980   2.702   1.147   0.664
 4694SOL    HW114981   2.684   1.051   0.687
 4694SOL    HW214982   2.790   1.154   0.617
 4695SOL     OW14983   1.195   5.513   0.712
 4695SOL    HW114984   1.284   5.557   0.719
 4695SOL    HW214985   1.123   5.583   0.721
 4696SOL     OW14986   1.148   5.251   6.218
 4696SOL    HW114987   1.165   5.233   6.314
 4696SOL    HW214988   1.073   5.193   6.186
 4697SOL     OW14989   1.969   3.942   1.205
 4697SOL    HW114990   1.989   3.850   1.238
 4697SOL    HW214991   2.047   4.001   1.222
 4698SOL     OW14992   4.641   0.274   3.281
 4698SOL    HW114993   4.729   0.318   3.264
 4698SOL    HW214994   4.616   0.284   3.378
 4699SOL     OW14995   0.337   0.707   2.283
 4699SOL    HW114996   0.342   0.620   2.332
 4699SOL    HW214997   0.253   0.711   2.229
 4700SOL     OW14998   6.449   1.999   2.733
 4700SOL    HW114999   6.423   1.936   2.660
 4700SOL    HW215000   6.524   2.058   2.702
 4701SOL     OW15001   3.273   2.062   1.997
 4701SOL    HW115002   3.288   1.964   1.980
 4701SOL    HW215003   3.188   2.074   2.048
 4702SOL     OW15004   4.817   5.089   6.906
 4702SOL    HW115005   4.780   5.080   6.814
 4702SOL    HW215006   4.915   5.067   6.904
 4703SOL     OW15007   1.097   4.694   2.583
 4703SOL    HW115008   1.160   4.765   2.551
 4703SOL    HW215009   1.027   4.679   2.513
 4704SOL     OW15010   0.113   6.122   5.896
 4704SOL    HW115011   0.018   6.098   5.914
 4704SOL    HW215012   0.173   6.063   5.950
 4705SOL     OW15013   3.140   2.271   1.062
 4705SOL    HW115014   3.121   2.186   1.112
 4705SOL    HW215015   3.057   2.328   1.060
 4706SOL     OW15016   1.356   0.369   0.823
 4706SOL    HW115017   1.327   0.275   0.804
 4706SOL    HW215018   1.422   0.369   0.898
 4707SOL     OW15019   1.769   6.502   1.122
 4707SOL    HW115020   1.720   6.487   1.208
 4707SOL    HW215021   1.704   6.528   1.051
 4708SOL     OW15022   1.474   2.137   4.820
 4708SOL    HW115023   1.570   2.125   4.846
 4708SOL    HW215024   1.456   2.089   4.734
 4709SOL     OW15025   5.147   4.940   4.708
 4709SOL    HW115026   5.082   4.972   4.640
 4709SOL    HW215027   5.100   4.886   4.777
 4710SOL     OW15028   5.293   6.940   4.764
 4710SOL    HW115029   5.326   7.020   4.813
 4710SOL    HW215030   5.276   6.964   4.668
 4711SOL     OW15031   6.202   3.005   3.646
 4711SOL    HW115032   6.153   2.920   3.626
 4711SOL    HW215033   6.190   3.028   3.743
 4712SOL     OW15034   4.311   4.697   5.702
 4712SOL    HW115035   4.352   4.646   5.778
 4712SOL    HW215036   4.211   4.695   5.711
 4713SOL     OW15037   5.701   4.416   1.224
 4713SOL    HW115038   5.695   4.414   1.124
 4713SOL    HW215039   5.609   4.424   1.262
 4714SOL     OW15040   6.443   1.738   6.280
 4714SOL    HW115041   6.420   1.816   6.221
 4714SOL    HW215042   6.359   1.701   6.320
 4715SOL     OW15043   6.032   1.895   1.980
 4715SOL    HW115044   6.002   1.800   1.974
 4715SOL    HW215045   6.006   1.933   2.069
 4716SOL     OW15046   3.922   5.523   5.557
 4716SOL    HW115047   3.990   5.513   5.630
 4716SOL    HW215048   3.917   5.619   5.529
 4717SOL     OW15049   2.611   5.305   5.661
 4717SOL    HW115050   2.666   5.288   5.579
 4717SOL    HW215051   2.521   5.262   5.649
 4718SOL     OW15052   5.349   2.934   0.789
 4718SOL    HW115053   5.351   3.022   0.836
 4718SOL    HW215054   5.258   2.894   0.797
 4719SOL     OW15055   6.094   3.176   3.374
 4719SOL    HW115056   6.135   3.085   3.370
 4719SOL    HW215057   5.997   3.169   3.351
 4720SOL     OW15058   3.332   5.176   0.500
 4720SOL    HW115059   3.366   5.269   0.495
 4720SOL    HW215060   3.321   5.149   0.595
 4721SOL     OW15061   6.209   3.613   1.754
 4721SOL    HW115062   6.306   3.595   1.737
 4721SOL    HW215063   6.200   3.684   1.824
 4722SOL     OW15064   1.005   4.707   6.812
 4722SOL    HW115065   0.908   4.726   6.793
 4722SOL    HW215066   1.053   4.695   6.725
 4723SOL     OW15067   3.677   4.698   5.727
 4723SOL    HW115068   3.609   4.641   5.775
 4723SOL    HW215069   3.737   4.741   5.794
 4724SOL     OW15070   0.013   6.544   3.907
 4724SOL    HW115071   0.036   6.453   3.873
 4724SOL    HW215072   0.097   6.599   3.914
 4725SOL     OW15073   5.333   5.259   0.641
 4725SOL    HW115074   5.276   5.243   0.560
 4725SOL    HW215075   5.295   5.210   0.719
 4726SOL     OW15076   1.915   2.889   5.942
 4726SOL    HW115077   1.897   2.836   6.025
 4726SOL    HW215078   1.865   2.976   5.946
 4727SOL     OW15079   0.510   5.415   0.950
 4727SOL    HW115080   0.554   5.494   0.908
 4727SOL    HW215081   0.566   5.333   0.936
 4728SOL     OW15082   6.331   1.052   3.032
 4728SOL    HW115083   6.280   1.135   3.008
 4728SOL    HW215084   6.359   1.005   2.948
 4729SOL     OW15085   5.393   0.688   0.072
 4729SOL    HW115086   5.320   0.636   0.117
 4729SOL    HW215087   5.474   0.630   0.063
 4730SOL     OW15088   3.785   0.081   4.720
 4730SOL    HW115089   3.727   0.081   4.638
 4730SOL    HW215090   3.879   0.061   4.695
 4731SOL     OW15091   3.032   0.268   0.737
 4731SOL    HW115092   3.009   0.310   0.825
 4731SOL    HW215093   3.045   0.339   0.668
 4732SOL     OW15094   0.490   3.896   4.858
 4732SOL    HW115095   0.497   3.844   4.943
 4732SOL    HW215096   0.395   3.921   4.842
 4733SOL     OW15097   2.140   3.916   3.144
 4733SOL    HW115098   2.105   3.847   3.081
 4733SOL    HW215099   2.182   3.990   3.091
 4734SOL     OW15100   5.261   3.819   5.719
 4734SOL    HW115101   5.329   3.842   5.650
 4734SOL    HW215102   5.170   3.822   5.678
 4735SOL     OW15103   0.393   6.253   4.445
 4735SOL    HW115104   0.322   6.195   4.405
 4735SOL    HW215105   0.357   6.296   4.529
 4736SOL     OW15106   6.746   2.000   3.563
 4736SOL    HW115107   6.651   1.971   3.549
 4736SOL    HW215108   6.804   1.959   3.492
 4737SOL     OW15109   2.079   5.161   1.062
 4737SOL    HW115110   2.167   5.149   1.109
 4737SOL    HW215111   2.070   5.255   1.032
 4738SOL     OW15112   2.518   0.367   4.272
 4738SOL    HW115113   2.589   0.324   4.328
 4738SOL    HW215114   2.548   0.459   4.245
 4739SOL     OW15115   6.097   2.881   4.612
 4739SOL    HW115116   6.016   2.936   4.632
 4739SOL    HW215117   6.149   2.867   4.697
 4740SOL     OW15118   0.457   1.305   1.685
 4740SOL    HW115119   0.459   1.278   1.781
 4740SOL    HW215120   0.489   1.399   1.676
 4741SOL     OW15121   4.066   4.390   0.969
 4741SOL    HW115122   4.045   4.448   1.048
 4741SOL    HW215123   4.013   4.422   0.890
 4742SOL     OW15124   2.631   5.871   1.756
 4742SOL    HW115125   2.612   5.776   1.732
 4742SOL    HW215126   2.574   5.897   1.834
 4743SOL     OW15127   2.436   1.361   5.988
 4743SOL    HW115128   2.424   1.305   5.906
 4743SOL    HW215129   2.528   1.348   6.024
 4744SOL     OW15130   1.773   3.651   5.420
 4744SOL    HW115131   1.871   3.638   5.433
 4744SOL    HW215132   1.726   3.564   5.429
 4745SOL     OW15133   2.743   5.273   5.425
 4745SOL    HW115134   2.714   5.192   5.374
 4745SOL    HW215135   2.841   5.267   5.444
 4746SOL     OW15136   6.135   5.516   6.943
 4746SOL    HW115137   6.071   5.458   6.994
 4746SOL    HW215138   6.127   5.497   6.845
 4747SOL     OW15139   6.944   2.409   0.106
 4747SOL    HW115140   6.989   2.323   0.129
 4747SOL    HW215141   7.010   2.470   0.062
 4748SOL     OW15142   0.990   0.782   1.385
 4748SOL    HW115143   1.023   0.761   1.477
 4748SOL    HW215144   1.063   0.767   1.318
 4749SOL     OW15145   1.948   6.398   0.178
 4749SOL    HW115146   2.027   6.386   0.238
 4749SOL    HW215147   1.864   6.400   0.233
 4750SOL     OW15148   0.404   1.610   4.118
 4750SOL    HW115149   0.351   1.570   4.193
 4750SOL    HW215150   0.349   1.680   4.072
 4751SOL     OW15151   1.387   4.327   6.715
 4751SOL    HW115152   1.418   4.326   6.810
 4751SOL    HW215153   1.384   4.233   6.681
 4752SOL     OW15154   2.412   6.339   1.110
 4752SOL    HW115155   2.484   6.296   1.165
 4752SOL    HW215156   2.379   6.274   1.042
 4753SOL     OW15157   5.703   0.190   5.336
 4753SOL    HW115158   5.698   0.175   5.237
 4753SOL    HW215159   5.611   0.179   5.375
 4754SOL     OW15160   6.666   0.096   6.566
 4754SOL    HW115161   6.763   0.105   6.542
 4754SOL    HW215162   6.615   0.065   6.485
 4755SOL     OW15163   2.631   1.277   6.237
 4755SOL    HW115164   2.696   1.291   6.162
 4755SOL    HW215165   2.586   1.363   6.259
 4756SOL     OW15166   5.001   2.588   1.856
 4756SOL    HW115167   5.100   2.577   1.864
 4756SOL    HW215168   4.972   2.666   1.911
 4757SOL     OW15169   2.339   2.735   2.127
 4757SOL    HW115170   2.373   2.683   2.206
 4757SOL    HW215171   2.239   2.732   2.127
 4758SOL     OW15172   4.339   5.177   5.571
 4758SOL    HW115173   4.395   5.110   5.522
 4758SOL    HW215174   4.243   5.151   5.565
 4759SOL     OW15175   5.438   6.082   4.913
 4759SOL    HW115176   5.480   6.123   4.994
 4759SOL    HW215177   5.492   6.003   4.883
 4760SOL     OW15178   1.623   1.205   1.344
 4760SOL    HW115179   1.681   1.262   1.403
 4760SOL    HW215180   1.559   1.153   1.401
 4761SOL     OW15181   6.688   0.369   6.933
 4761SOL    HW115182   6.746   0.405   6.859
 4761SOL    HW215183   6.638   0.289   6.899
 4762SOL     OW15184   2.267   4.704   1.982
 4762SOL    HW115185   2.343   4.652   2.022
 4762SOL    HW215186   2.228   4.765   2.051
 4763SOL     OW15187   6.321   5.866   2.872
 4763SOL    HW115188   6.260   5.932   2.828
 4763SOL    HW215189   6.287   5.846   2.964
 4764SOL     OW15190   4.479   3.741   5.350
 4764SOL    HW115191   4.530   3.676   5.294
 4764SOL    HW215192   4.526   3.752   5.438
 4765SOL     OW15193   4.791   5.896   5.408
 4765SOL    HW115194   4.808   5.912   5.311
 4765SOL    HW215195   4.774   5.984   5.454
 4766SOL     OW15196   2.910   1.006   3.268
 4766SOL    HW115197   2.961   1.052   3.340
 4766SOL    HW215198   2.849   1.071   3.223
 4767SOL     OW15199   3.739   7.013   1.120
 4767SOL    HW115200   3.777   0.081   1.107
 4767SOL    HW215201   3.701   6.979   1.034
 4768SOL     OW15202   5.045   1.610   4.623
 4768SOL    HW115203   5.041   1.681   4.553
 4768SOL    HW215204   5.009   1.524   4.585
 4769SOL     OW15205   3.664   5.547   1.526
 4769SOL    HW115206   3.739   5.587   1.473
 4769SOL    HW215207   3.701   5.496   1.603
 4770SOL     OW15208   2.074   0.462   3.010
 4770SOL    HW115209   2.146   0.469   3.079
 4770SOL    HW215210   2.088   0.532   2.940
 4771SOL     OW15211   3.164   4.874   6.395
 4771SOL    HW115212   3.253   4.842   6.365
 4771SOL    HW215213   3.094   4.849   6.328
 4772SOL     OW15214   2.737   0.185   1.211
 4772SOL    HW115215   2.767   0.126   1.136
 4772SOL    HW215216   2.643   0.216   1.194
 4773SOL     OW15217   0.164   5.922   4.051
 4773SOL    HW115218   0.217   5.856   4.104
 4773SOL    HW215219   0.067   5.896   4.053
 4774SOL     OW15220   0.662   3.054   2.447
 4774SOL    HW115221   0.606   2.997   2.386
 4774SOL    HW215222   0.717   2.995   2.506
 4775SOL     OW15223   4.840   0.488   2.538
 4775SOL    HW115224   4.884   0.417   2.484
 4775SOL    HW215225   4.859   0.472   2.635
 4776SOL     OW15226   2.529   6.187   2.403
 4776SOL    HW115227   2.447   6.214   2.454
 4776SOL    HW215228   2.571   6.108   2.447
 4777SOL     OW15229   2.711   4.406   0.913
 4777SOL    HW115230   2.722   4.357   1.000
 4777SOL    HW215231   2.618   4.443   0.908
 4778SOL     OW15232   4.927   3.599   1.886
 4778SOL    HW115233   5.023   3.606   1.860
 4778SOL    HW215234   4.902   3.502   1.892
 4779SOL     OW15235   6.777   0.245   2.931
 4779SOL    HW115236   6.737   0.333   2.956
 4779SOL    HW215237   6.729   0.172   2.980
 4780SOL     OW15238   0.776   0.549   6.013
 4780SOL    HW115239   0.687   0.532   5.970
 4780SOL    HW215240   0.762   0.574   6.108
 4781SOL     OW15241   2.107   5.980   1.062
 4781SOL    HW115242   2.012   5.950   1.055
 4781SOL    HW215243   2.167   5.899   1.062
 4782SOL     OW15244   5.673   0.665   6.887
 4782SOL    HW115245   5.747   0.732   6.882
 4782SOL    HW215246   5.600   0.692   6.825
 4783SOL     OW15247   4.570   4.238   0.697
 4783SOL    HW115248   4.616   4.292   0.768
 4783SOL    HW215249   4.499   4.294   0.654
 4784SOL     OW15250   6.295   4.750   5.386
 4784SOL    HW115251   6.342   4.734   5.299
 4784SOL    HW215252   6.240   4.671   5.409
 4785SOL     OW15253   6.519   6.749   1.181
 4785SOL    HW115254   6.428   6.767   1.143
 4785SOL    HW215255   6.522   6.779   1.276
 4786SOL     OW15256   2.010   2.710   2.072
 4786SOL    HW115257   2.005   2.809   2.059
 4786SOL    HW215258   2.003   2.690   2.170
 4787SOL     OW15259   2.873   2.302   3.600
 4787SOL    HW115260   2.890   2.236   3.674
 4787SOL    HW215261   2.915   2.268   3.516
 4788SOL     OW15262   1.101   5.476   5.560
 4788SOL    HW115263   1.130   5.411   5.631
 4788SOL    HW215264   1.127   5.569   5.587
 4789SOL     OW15265   5.199   0.481   0.180
 4789SOL    HW115266   5.116   0.486   0.234
 4789SOL    HW215267   5.175   0.460   0.085
 4790SOL     OW15268   5.250   2.055   6.496
 4790SOL    HW115269   5.315   2.059   6.419
 4790SOL    HW215270   5.157   2.057   6.461
 4791SOL     OW15271   5.850   0.003   2.229
 4791SOL    HW115272   5.862   0.040   2.321
 4791SOL    HW215273   5.795   6.943   2.233
 4792SOL     OW15274   2.163   3.127   2.641
 4792SOL    HW115275   2.190   3.043   2.688
 4792SOL    HW215276   2.150   3.108   2.543
 4793SOL     OW15277   1.237   0.256   5.648
 4793SOL    HW115278   1.270   0.343   5.684
 4793SOL    HW215279   1.232   0.189   5.722
 4794SOL     OW15280   3.431   6.849   2.701
 4794SOL    HW115281   3.458   6.925   2.642
 4794SOL    HW215282   3.507   6.825   2.762
 4795SOL     OW15283   6.436   2.712   4.685
 4795SOL    HW115284   6.520   2.702   4.738
 4795SOL    HW215285   6.407   2.622   4.651
 4796SOL     OW15286   4.912   3.126   0.456
 4796SOL    HW115287   4.867   3.097   0.540
 4796SOL    HW215288   4.888   3.063   0.382
 4797SOL     OW15289   1.015   5.046   6.080
 4797SOL    HW115290   1.068   4.971   6.121
 4797SOL    HW215291   0.989   5.022   5.987
 4798SOL     OW15292   0.168   4.616   4.717
 4798SOL    HW115293   0.207   4.704   4.743
 4798SOL    HW215294   0.179   4.551   4.792
 4799SOL     OW15295   5.595   1.293   4.957
 4799SOL    HW115296   5.512   1.307   4.903
 4799SOL    HW215297   5.628   1.381   4.992
 4800SOL     OW15298   2.819   2.816   6.127
 4800SOL    HW115299   2.725   2.781   6.132
 4800SOL    HW215300   2.863   2.807   6.216
 4801SOL     OW15301   1.761   1.980   0.299
 4801SOL    HW115302   1.662   1.993   0.306
 4801SOL    HW215303   1.807   2.026   0.375
 4802SOL     OW15304   2.201   6.583   1.919
 4802SOL    HW115305   2.173   6.644   1.993
 4802SOL    HW215306   2.301   6.585   1.911
 4803SOL     OW15307   0.915   6.939   0.969
 4803SOL    HW115308   1.002   6.915   1.012
 4803SOL    HW215309   0.854   6.978   1.037
 4804SOL     OW15310   4.330   5.495   6.927
 4804SOL    HW115311   4.320   5.595   6.925
 4804SOL    HW215312   4.239   5.453   6.918
 4805SOL     OW15313   6.878   0.238   0.458
 4805SOL    HW115314   6.978   0.229   0.456
 4805SOL    HW215315   6.854   0.335   0.451
 4806SOL     OW15316   6.773   3.999   3.032
 4806SOL    HW115317   6.723   4.084   3.049
 4806SOL    HW215318   6.812   3.965   3.118
 4807SOL     OW15319   0.837   5.843   1.699
 4807SOL    HW115320   0.796   5.774   1.639
 4807SOL    HW215321   0.793   5.931   1.683
 4808SOL     OW15322   5.562   3.367   0.727
 4808SOL    HW115323   5.484   3.307   0.709
 4808SOL    HW215324   5.605   3.339   0.813
 4809SOL     OW15325   3.078   4.768   0.080
 4809SOL    HW115326   3.109   4.706   0.008
 4809SOL    HW215327   2.980   4.783   0.071
 4810SOL     OW15328   0.757   5.475   1.830
 4810SOL    HW115329   0.843   5.452   1.785
 4810SOL    HW215330   0.769   5.558   1.886
 4811SOL     OW15331   3.110   4.996   1.964
 4811SOL    HW115332   3.199   5.036   1.941
 4811SOL    HW215333   3.101   4.908   1.916
 4812SOL     OW15334   0.083   5.071   4.167
 4812SOL    HW115335   0.095   5.150   4.107
 4812SOL    HW215336   0.021   5.096   4.242
 4813SOL     OW15337   5.028   1.573   2.297
 4813SOL    HW115338   5.092   1.592   2.372
 4813SOL    HW215339   4.997   1.660   2.258
 4814SOL     OW15340   6.573   4.169   0.546
 4814SOL    HW115341   6.606   4.140   0.456
 4814SOL    HW215342   6.549   4.266   0.544
 4815SOL     OW15343   5.160   5.172   2.239
 4815SOL    HW115344   5.208   5.092   2.201
 4815SOL    HW215345   5.221   5.251   2.238
 4816SOL     OW15346   5.280   5.348   2.814
 4816SOL    HW115347   5.329   5.412   2.755
 4816SOL    HW215348   5.324   5.258   2.810
 4817SOL     OW15349   0.745   1.858   5.582
 4817SOL    HW115350   0.798   1.942   5.586
 4817SOL    HW215351   0.726   1.826   5.674
 4818SOL     OW15352   0.075   6.943   3.670
 4818SOL    HW115353   0.029   0.008   3.686
 4818SOL    HW215354   0.169   6.948   3.705
 4819SOL     OW15355   1.358   3.521   0.190
 4819SOL    HW115356   1.378   3.522   0.092
 4819SOL    HW215357   1.437   3.557   0.241
 4820SOL     OW15358   0.235   3.288   1.555
 4820SOL    HW115359   0.193   3.202   1.526
 4820SOL    HW215360   0.179   3.365   1.524
 4821SOL     OW15361   0.135   5.998   1.941
 4821SOL    HW115362   0.075   5.932   1.986
 4821SOL    HW215363   0.229   5.986   1.974
 4822SOL     OW15364   0.898   4.105   4.369
 4822SOL    HW115365   0.957   4.185   4.360
 4822SOL    HW215366   0.885   4.063   4.279
 4823SOL     OW15367   1.224   2.741   2.518
 4823SOL    HW115368   1.187   2.802   2.589
 4823SOL    HW215369   1.302   2.787   2.474
 4824SOL     OW15370   5.104   0.843   5.269
 4824SOL    HW115371   5.181   0.778   5.263
 4824SOL    HW215372   5.018   0.794   5.252
 4825SOL     OW15373   1.443   0.464   4.218
 4825SOL    HW115374   1.395   0.443   4.303
 4825SOL    HW215375   1.494   0.549   4.229
 4826SOL     OW15376   4.822   7.015   1.654
 4826SOL    HW115377   4.841   6.953   1.730
 4826SOL    HW215378   4.832   0.087   1.686
 4827SOL     OW15379   6.662   1.853   0.121
 4827SOL    HW115380   6.619   1.819   0.205
 4827SOL    HW215381   6.727   1.926   0.144
 4828SOL     OW15382   4.744   0.026   2.604
 4828SOL    HW115383   4.664   7.002   2.643
 4828SOL    HW215384   4.713   0.101   2.547
 4829SOL     OW15385   4.248   6.672   5.757
 4829SOL    HW115386   4.193   6.752   5.733
 4829SOL    HW215387   4.291   6.688   5.847
 4830SOL     OW15388   3.796   5.634   3.386
 4830SOL    HW115389   3.763   5.647   3.480
 4830SOL    HW215390   3.720   5.645   3.322
 4831SOL     OW15391   3.518   5.402   5.755
 4831SOL    HW115392   3.566   5.435   5.674
 4831SOL    HW215393   3.515   5.475   5.824
 4832SOL     OW15394   2.956   3.351   4.945
 4832SOL    HW115395   2.903   3.323   5.025
 4832SOL    HW215396   3.033   3.408   4.974
 4833SOL     OW15397   5.632   2.782   4.525
 4833SOL    HW115398   5.674   2.743   4.607
 4833SOL    HW215399   5.643   2.882   4.526
 4834SOL     OW15400   2.403   5.427   2.591
 4834SOL    HW115401   2.323   5.367   2.586
 4834SOL    HW215402   2.480   5.383   2.547
 4835SOL     OW15403   6.851   3.583   5.592
 4835SOL    HW115404   6.911   3.535   5.527
 4835SOL    HW215405   6.793   3.517   5.639
 4836SOL     OW15406   4.919   0.656   5.148
 4836SOL    HW115407   4.900   0.588   5.219
 4836SOL    HW215408   4.875   0.742   5.171
 4837SOL     OW15409   6.773   2.903   3.925
 4837SOL    HW115410   6.820   2.930   4.010
 4837SOL    HW215411   6.697   2.965   3.908
 4838SOL     OW15412   1.452   4.387   6.356
 4838SOL    HW115413   1.548   4.375   6.383
 4838SOL    HW215414   1.394   4.386   6.437
 4839SOL     OW15415   2.304   2.308   0.427
 4839SOL    HW115416   2.259   2.322   0.515
 4839SOL    HW215417   2.403   2.315   0.438
 4840SOL     OW15418   4.840   3.855   5.196
 4840SOL    HW115419   4.795   3.884   5.281
 4840SOL    HW215420   4.839   3.755   5.191
 4841SOL     OW15421   3.063   5.166   3.635
 4841SOL    HW115422   2.965   5.168   3.654
 4841SOL    HW215423   3.111   5.227   3.698
 4842SOL     OW15424   2.663   5.230   2.805
 4842SOL    HW115425   2.663   5.262   2.710
 4842SOL    HW215426   2.749   5.258   2.849
 4843SOL     OW15427   0.299   2.730   1.929
 4843SOL    HW115428   0.202   2.705   1.923
 4843SOL    HW215429   0.307   2.829   1.937
 4844SOL     OW15430   1.163   5.242   5.270
 4844SOL    HW115431   1.208   5.227   5.182
 4844SOL    HW215432   1.197   5.327   5.311
 4845SOL     OW15433   4.404   4.415   5.354
 4845SOL    HW115434   4.355   4.424   5.267
 4845SOL    HW215435   4.451   4.501   5.374
 4846SOL     OW15436   0.369   2.715   4.438
 4846SOL    HW115437   0.283   2.726   4.486
 4846SOL    HW215438   0.412   2.804   4.425
 4847SOL     OW15439   2.693   6.365   5.858
 4847SOL    HW115440   2.724   6.386   5.765
 4847SOL    HW215441   2.633   6.438   5.890
 4848SOL     OW15442   2.667   1.285   3.846
 4848SOL    HW115443   2.747   1.274   3.787
 4848SOL    HW215444   2.684   1.242   3.934
 4849SOL     OW15445   2.165   0.587   0.432
 4849SOL    HW115446   2.067   0.585   0.412
 4849SOL    HW215447   2.191   0.500   0.475
 4850SOL     OW15448   4.887   0.867   1.172
 4850SOL    HW115449   4.871   0.794   1.106
 4850SOL    HW215450   4.976   0.852   1.216
 4851SOL     OW15451   3.160   6.448   0.036
 4851SOL    HW115452   3.141   6.521   6.993
 4851SOL    HW215453   3.258   6.433   0.041
 4852SOL     OW15454   4.269   5.289   5.122
 4852SOL    HW115455   4.221   5.269   5.207
 4852SOL    HW215456   4.247   5.382   5.093
 4853SOL     OW15457   3.630   0.497   3.212
 4853SOL    HW115458   3.653   0.575   3.155
 4853SOL    HW215459   3.677   0.505   3.300
 4854SOL     OW15460   5.831   5.827   1.539
 4854SOL    HW115461   5.888   5.749   1.513
 4854SOL    HW215462   5.757   5.837   1.472
 4855SOL     OW15463   6.434   4.718   5.157
 4855SOL    HW115464   6.425   4.663   5.074
 4855SOL    HW215465   6.518   4.772   5.153
 4856SOL     OW15466   0.547   4.018   2.446
 4856SOL    HW115467   0.646   4.014   2.459
 4856SOL    HW215468   0.514   3.928   2.418
 4857SOL     OW15469   2.921   2.193   4.121
 4857SOL    HW115470   2.962   2.224   4.206
 4857SOL    HW215471   2.831   2.237   4.109
 4858SOL     OW15472   0.639   0.043   4.767
 4858SOL    HW115473   0.583   0.069   4.845
 4858SOL    HW215474   0.584   0.046   4.683
 4859SOL     OW15475   0.811   5.730   1.947
 4859SOL    HW115476   0.882   5.757   2.013
 4859SOL    HW215477   0.832   5.769   1.858
 4860SOL     OW15478   4.976   5.471   0.674
 4860SOL    HW115479   4.949   5.546   0.612
 4860SOL    HW215480   5.073   5.480   0.697
 4861SOL     OW15481   6.864   4.833   6.117
 4861SOL    HW115482   6.765   4.829   6.109
 4861SOL    HW215483   6.897   4.921   6.082
 4862SOL     OW15484   2.502   4.901   4.972
 4862SOL    HW115485   2.542   4.811   4.988
 4862SOL    HW215486   2.556   4.970   5.020
 4863SOL     OW15487   4.569   2.619   3.020
 4863SOL    HW115488   4.539   2.670   2.939
 4863SOL    HW215489   4.669   2.610   3.018
 4864SOL     OW15490   2.989   1.059   2.124
 4864SOL    HW115491   3.026   1.149   2.103
 4864SOL    HW215492   2.952   1.059   2.217
 4865SOL     OW15493   3.806   5.256   5.632
 4865SOL    HW115494   3.808   5.356   5.630
 4865SOL    HW215495   3.754   5.225   5.711
 4866SOL     OW15496   5.796   4.756   1.792
 4866SOL    HW115497   5.803   4.686   1.721
 4866SOL    HW215498   5.883   4.805   1.799
 4867SOL     OW15499   4.969   5.474   2.463
 4867SOL    HW115500   4.933   5.564   2.487
 4867SOL    HW215501   4.999   5.427   2.547
 4868SOL     OW15502   0.484   5.782   1.086
 4868SOL    HW115503   0.453   5.698   1.132
 4868SOL    HW215504   0.541   5.758   1.008
 4869SOL     OW15505   6.829   1.729   6.951
 4869SOL    HW115506   6.919   1.734   6.994
 4869SOL    HW215507   6.763   1.780   7.006
 4870SOL     OW15508   4.667   6.396   1.720
 4870SOL    HW115509   4.729   6.470   1.746
 4870SOL    HW215510   4.637   6.409   1.625
 4871SOL     OW15511   1.161   2.271   3.677
 4871SOL    HW115512   1.223   2.331   3.729
 4871SOL    HW215513   1.210   2.187   3.652
 4872SOL     OW15514   1.237   0.033   2.817
 4872SOL    HW115515   1.188   7.013   2.741
 4872SOL    HW215516   1.172   0.074   2.880
 4873SOL     OW15517   0.008   5.618   4.725
 4873SOL    HW115518   6.931   5.608   4.735
 4873SOL    HW215519   0.027   5.693   4.662
 4874SOL     OW15520   5.498   3.509   3.081
 4874SOL    HW115521   5.429   3.439   3.064
 4874SOL    HW215522   5.452   3.595   3.106
 4875SOL     OW15523   5.492   1.515   1.024
 4875SOL    HW115524   5.504   1.559   1.114
 4875SOL    HW215525   5.543   1.566   0.955
 4876SOL     OW15526   6.705   1.011   6.817
 4876SOL    HW115527   6.742   0.976   6.903
 4876SOL    HW215528   6.611   0.980   6.805
 4877SOL     OW15529   6.163   1.329   1.205
 4877SOL    HW115530   6.151   1.248   1.262
 4877SOL    HW215531   6.260   1.339   1.183
 4878SOL     OW15532   6.959   1.592   1.500
 4878SOL    HW115533   7.006   1.641   1.573
 4878SOL    HW215534   6.881   1.541   1.539
 4879SOL     OW15535   3.926   4.899   3.570
 4879SOL    HW115536   3.836   4.904   3.527
 4879SOL    HW215537   3.936   4.973   3.636
 4880SOL     OW15538   5.783   1.493   6.983
 4880SOL    HW115539   5.881   1.474   6.972
 4880SOL    HW215540   5.766   1.528   0.052
 4881SOL     OW15541   3.316   6.226   6.163
 4881SOL    HW115542   3.245   6.161   6.189
 4881SOL    HW215543   3.305   6.251   6.067
 4882SOL     OW15544   5.618   1.236   5.318
 4882SOL    HW115545   5.659   1.146   5.327
 4882SOL    HW215546   5.688   1.304   5.298
 4883SOL     OW15547   6.397   4.624   1.659
 4883SOL    HW115548   6.488   4.582   1.655
 4883SOL    HW215549   6.365   4.626   1.753
 4884SOL     OW15550   3.456   6.182   1.747
 4884SOL    HW115551   3.407   6.264   1.778
 4884SOL    HW215552   3.519   6.152   1.819
 4885SOL     OW15553   1.955   0.174   1.032
 4885SOL    HW115554   1.989   0.255   1.079
 4885SOL    HW215555   2.031   0.116   1.004
 4886SOL     OW15556   6.184   0.496   0.292
 4886SOL    HW115557   6.247   0.516   0.367
 4886SOL    HW215558   6.090   0.508   0.324
 4887SOL     OW15559   6.877   1.971   3.801
 4887SOL    HW115560   6.944   2.043   3.813
 4887SOL    HW215561   6.805   2.002   3.739
 4888SOL     OW15562   2.087   6.031   2.678
 4888SOL    HW115563   2.187   6.037   2.670
 4888SOL    HW215564   2.056   6.099   2.745
 4889SOL     OW15565   1.028   1.961   6.727
 4889SOL    HW115566   1.008   1.962   6.825
 4889SOL    HW215567   1.114   1.912   6.712
 4890SOL     OW15568   0.959   0.831   4.209
 4890SOL    HW115569   0.977   0.808   4.113
 4890SOL    HW215570   1.039   0.810   4.265
 4891SOL     OW15571   0.944   5.047   0.759
 4891SOL    HW115572   1.015   5.058   0.829
 4891SOL    HW215573   0.987   5.017   0.673
 4892SOL     OW15574   0.938   5.345   1.447
 4892SOL    HW115575   0.850   5.367   1.404
 4892SOL    HW215576   0.938   5.249   1.474
 4893SOL     OW15577   0.385   4.113   6.451
 4893SOL    HW115578   0.344   4.126   6.361
 4893SOL    HW215579   0.387   4.201   6.499
 4894SOL     OW15580   2.211   0.974   3.384
 4894SOL    HW115581   2.276   1.010   3.318
 4894SOL    HW215582   2.120   1.012   3.366
 4895SOL     OW15583   0.764   2.835   0.323
 4895SOL    HW115584   0.732   2.912   0.268
 4895SOL    HW215585   0.857   2.853   0.355
 4896SOL     OW15586   3.583   4.982   4.925
 4896SOL    HW115587   3.577   4.908   4.992
 4896SOL    HW215588   3.493   5.026   4.916
 4897SOL     OW15589   3.396   5.687   0.455
 4897SOL    HW115590   3.430   5.779   0.472
 4897SOL    HW215591   3.388   5.638   0.543
 4898SOL     OW15592   5.411   1.437   5.666
 4898SOL    HW115593   5.399   1.409   5.571
 4898SOL    HW215594   5.331   1.491   5.694
 4899SOL     OW15595   6.324   4.629   3.480
 4899SOL    HW115596   6.415   4.631   3.521
 4899SOL    HW215597   6.260   4.680   3.538
 4900SOL     OW15598   0.408   6.522   5.922
 4900SOL    HW115599   0.328   6.476   5.883
 4900SOL    HW215600   0.379   6.605   5.968
 4901SOL     OW15601   1.051   6.133   3.948
 4901SOL    HW115602   1.001   6.128   3.862
 4901SOL    HW215603   0.994   6.176   4.018
 4902SOL     OW15604   2.824   5.057   1.455
 4902SOL    HW115605   2.732   5.085   1.481
 4902SOL    HW215606   2.877   5.034   1.537
 4903SOL     OW15607   4.480   6.969   6.640
 4903SOL    HW115608   4.560   0.007   6.643
 4903SOL    HW215609   4.448   6.951   6.733
 4904SOL     OW15610   2.354   5.997   4.326
 4904SOL    HW115611   2.443   6.042   4.326
 4904SOL    HW215612   2.327   5.976   4.232
 4905SOL     OW15613   4.777   3.078   1.701
 4905SOL    HW115614   4.744   3.034   1.785
 4905SOL    HW215615   4.699   3.104   1.644
 4906SOL     OW15616   5.249   0.113   0.630
 4906SOL    HW115617   5.345   0.141   0.619
 4906SOL    HW215618   5.200   0.183   0.681
 4907SOL     OW15619   3.867   0.168   3.474
 4907SOL    HW115620   3.807   0.088   3.465
 4907SOL    HW215621   3.908   0.168   3.566
 4908SOL     OW15622   3.450   6.432   6.515
 4908SOL    HW115623   3.486   6.356   6.461
 4908SOL    HW215624   3.471   6.518   6.469
 4909SOL     OW15625   6.620   6.147   5.420
 4909SOL    HW115626   6.541   6.110   5.468
 4909SOL    HW215627   6.609   6.245   5.407
 4910SOL     OW15628   5.107   0.521   5.018
 4910SOL    HW115629   5.050   0.584   5.072
 4910SOL    HW215630   5.139   0.446   5.076
 4911SOL     OW15631   0.240   2.617   5.683
 4911SOL    HW115632   0.337   2.595   5.672
 4911SOL    HW215633   0.229   2.715   5.696
 4912SOL     OW15634   3.686   1.825   2.110
 4912SOL    HW115635   3.624   1.898   2.082
 4912SOL    HW215636   3.775   1.838   2.066
 4913SOL     OW15637   3.665   3.760   3.263
 4913SOL    HW115638   3.568   3.747   3.242
 4913SOL    HW215639   3.719   3.689   3.219
 4914SOL     OW15640   2.193   6.620   3.612
 4914SOL    HW115641   2.171   6.547   3.546
 4914SOL    HW215642   2.148   6.705   3.584
 4915SOL     OW15643   3.950   6.537   3.893
 4915SOL    HW115644   3.922   6.526   3.988
 4915SOL    HW215645   4.011   6.615   3.885
 4916SOL     OW15646   2.666   2.006   3.007
 4916SOL    HW115647   2.670   2.032   2.911
 4916SOL    HW215648   2.594   2.058   3.053
 4917SOL     OW15649   1.894   4.644   0.909
 4917SOL    HW115650   1.966   4.710   0.931
 4917SOL    HW215651   1.850   4.615   0.994
 4918SOL     OW15652   2.160   0.202   2.185
 4918SOL    HW115653   2.096   0.143   2.134
 4918SOL    HW215654   2.232   0.146   2.225
 4919SOL     OW15655   1.930   2.641   2.318
 4919SOL    HW115656   1.963   2.670   2.408
 4919SOL    HW215657   1.937   2.541   2.311
 4920SOL     OW15658   4.240   0.769   1.104
 4920SOL    HW115659   4.259   0.731   1.014
 4920SOL    HW215660   4.322   0.814   1.139
 4921SOL     OW15661   2.010   4.100   1.865
 4921SOL    HW115662   1.967   4.122   1.778
 4921SOL    HW215663   1.949   4.124   1.940
 4922SOL     OW15664   1.589   3.182   5.408
 4922SOL    HW115665   1.627   3.269   5.376
 4922SOL    HW215666   1.490   3.191   5.418
 4923SOL     OW15667   5.035   0.654   1.722
 4923SOL    HW115668   4.939   0.625   1.720
 4923SOL    HW215669   5.089   0.587   1.772
 4924SOL     OW15670   0.687   3.954   4.474
 4924SOL    HW115671   0.734   4.037   4.445
 4924SOL    HW215672   0.754   3.885   4.500
 4925SOL     OW15673   5.015   6.366   0.380
 4925SOL    HW115674   5.100   6.324   0.347
 4925SOL    HW215675   5.032   6.407   0.469
 4926SOL     OW15676   4.651   2.437   2.154
 4926SOL    HW115677   4.739   2.409   2.115
 4926SOL    HW215678   4.606   2.358   2.196
 4927SOL     OW15679   3.152   3.031   3.082
 4927SOL    HW115680   3.167   3.129   3.087
 4927SOL    HW215681   3.109   3.000   3.167
 4928SOL     OW15682   0.667   6.619   0.076
 4928SOL    HW115683   0.651   6.563   0.158
 4928SOL    HW215684   0.629   6.710   0.091
 4929SOL     OW15685   1.051   5.171   4.333
 4929SOL    HW115686   1.045   5.076   4.364
 4929SOL    HW215687   1.135   5.212   4.369
 4930SOL     OW15688   0.485   2.154   0.486
 4930SOL    HW115689   0.483   2.056   0.468
 4930SOL    HW215690   0.544   2.173   0.564
 4931SOL     OW15691   0.591   0.353   0.677
 4931SOL    HW115692   0.641   0.278   0.633
 4931SOL    HW215693   0.542   0.406   0.608
 4932SOL     OW15694   2.596   1.824   1.316
 4932SOL    HW115695   2.512   1.836   1.370
 4932SOL    HW215696   2.588   1.741   1.260
 4933SOL     OW15697   2.863   1.021   3.774
 4933SOL    HW115698   2.776   1.008   3.727
 4933SOL    HW215699   2.890   1.117   3.767
 4934SOL     OW15700   0.706   5.927   4.077
 4934SOL    HW115701   0.652   5.869   4.016
 4934SOL    HW215702   0.686   6.023   4.059
 4935SOL     OW15703   1.837   1.696   7.000
 4935SOL    HW115704   1.909   1.764   6.984
 4935SOL    HW215705   1.793   1.674   6.913
 4936SOL     OW15706   3.685   6.030   1.543
 4936SOL    HW115707   3.635   6.040   1.457
 4936SOL    HW215708   3.686   5.934   1.571
 4937SOL     OW15709   0.753   2.890   5.974
 4937SOL    HW115710   0.724   2.819   5.909
 4937SOL    HW215711   0.839   2.863   6.017
 4938SOL     OW15712   3.380   4.477   1.558
 4938SOL    HW115713   3.467   4.494   1.604
 4938SOL    HW215714   3.319   4.428   1.619
 4939SOL     OW15715   1.585   2.106   1.564
 4939SOL    HW115716   1.548   2.153   1.644
 4939SOL    HW215717   1.535   2.021   1.549
 4940SOL     OW15718   6.926   2.879   3.694
 4940SOL    HW115719   6.885   2.868   3.785
 4940SOL    HW215720   0.002   2.872   3.701
 4941SOL     OW15721   4.285   2.343   5.329
 4941SOL    HW115722   4.330   2.379   5.411
 4941SOL    HW215723   4.235   2.416   5.283
 4942SOL     OW15724   5.253   2.602   3.540
 4942SOL    HW115725   5.272   2.591   3.637
 4942SOL    HW215726   5.199   2.524   3.507
 4943SOL     OW15727   5.091   2.938   6.609
 4943SOL    HW115728   5.147   2.894   6.679
 4943SOL    HW215729   5.033   2.870   6.565
 4944SOL     OW15730   1.453   5.313   1.141
 4944SOL    HW115731   1.447   5.303   1.240
 4944SOL    HW215732   1.545   5.288   1.111
 4945SOL     OW15733   1.957   0.684   5.147
 4945SOL    HW115734   1.943   0.620   5.071
 4945SOL    HW215735   1.931   0.639   5.232
 4946SOL     OW15736   1.422   5.038   0.600
 4946SOL    HW115737   1.336   5.072   0.638
 4946SOL    HW215738   1.445   5.088   0.517
 4947SOL     OW15739   1.946   0.869   1.705
 4947SOL    HW115740   2.005   0.892   1.628
 4947SOL    HW215741   2.002   0.839   1.782
 4948SOL     OW15742   1.569   2.354   1.416
 4948SOL    HW115743   1.595   2.276   1.474
 4948SOL    HW215744   1.494   2.326   1.355
 4949SOL     OW15745   6.594   3.182   5.868
 4949SOL    HW115746   6.629   3.171   5.961
 4949SOL    HW215747   6.630   3.109   5.810
 4950SOL     OW15748   2.459   4.544   5.410
 4950SOL    HW115749   2.404   4.581   5.336
 4950SOL    HW215750   2.538   4.496   5.372
 4951SOL     OW15751   5.101   5.777   3.696
 4951SOL    HW115752   5.132   5.863   3.735
 4951SOL    HW215753   5.180   5.726   3.661
 4952SOL     OW15754   0.338   0.282   6.197
 4952SOL    HW115755   0.402   0.223   6.148
 4952SOL    HW215756   0.302   0.352   6.134
 4953SOL     OW15757   1.744   1.869   4.949
 4953SOL    HW115758   1.742   1.814   5.033
 4953SOL    HW215759   1.679   1.831   4.884
 4954SOL     OW15760   3.141   4.000   5.233
 4954SOL    HW115761   3.229   4.027   5.194
 4954SOL    HW215762   3.067   4.049   5.187
 4955SOL     OW15763   2.986   6.136   7.022
 4955SOL    HW115764   2.927   6.215   0.010
 4955SOL    HW215765   3.079   6.159   0.027
 4956SOL     OW15766   2.288   0.307   5.141
 4956SOL    HW115767   2.323   0.327   5.049
 4956SOL    HW215768   2.297   0.388   5.199
 4957SOL     OW15769   6.375   3.920   6.566
 4957SOL    HW115770   6.302   3.981   6.596
 4957SOL    HW215771   6.451   3.925   6.632
 4958SOL     OW15772   2.468   0.300   6.597
 4958SOL    HW115773   2.538   0.332   6.661
 4958SOL    HW215774   2.383   0.350   6.613
 4959SOL     OW15775   0.081   3.078   1.774
 4959SOL    HW115776   0.022   3.154   1.747
 4959SOL    HW215777   0.135   3.048   1.695
 4960SOL     OW15778   3.885   4.947   4.185
 4960SOL    HW115779   3.831   4.949   4.269
 4960SOL    HW215780   3.964   4.886   4.197
 4961SOL     OW15781   3.212   0.780   6.827
 4961SOL    HW115782   3.150   0.747   6.898
 4961SOL    HW215783   3.167   0.772   6.738
 4962SOL     OW15784   0.141   3.743   1.177
 4962SOL    HW115785   0.189   3.813   1.124
 4962SOL    HW215786   0.147   3.765   1.275
 4963SOL     OW15787   0.494   4.115   6.898
 4963SOL    HW115788   0.584   4.156   6.900
 4963SOL    HW215789   0.490   4.045   6.826
 4964SOL     OW15790   2.559   6.616   4.827
 4964SOL    HW115791   2.533   6.537   4.883
 4964SOL    HW215792   2.645   6.597   4.780
 4965SOL     OW15793   1.401   6.582   2.934
 4965SOL    HW115794   1.495   6.584   2.968
 4965SOL    HW215795   1.381   6.667   2.886
 4966SOL     OW15796   3.352   6.582   4.408
 4966SOL    HW115797   3.308   6.552   4.323
 4966SOL    HW215798   3.334   6.516   4.481
 4967SOL     OW15799   3.853   4.709   5.515
 4967SOL    HW115800   3.812   4.786   5.465
 4967SOL    HW215801   3.790   4.678   5.585
 4968SOL     OW15802   0.565   1.758   3.958
 4968SOL    HW115803   0.492   1.826   3.948
 4968SOL    HW215804   0.526   1.673   3.993
 4969SOL     OW15805   0.804   6.218   2.609
 4969SOL    HW115806   0.736   6.264   2.553
 4969SOL    HW215807   0.871   6.285   2.642
 4970SOL     OW15808   1.412   1.125   1.569
 4970SOL    HW115809   1.465   1.059   1.623
 4970SOL    HW215810   1.385   1.202   1.626
 4971SOL     OW15811   6.698   6.009   2.795
 4971SOL    HW115812   6.700   6.011   2.895
 4971SOL    HW215813   6.772   6.067   2.759
 4972SOL     OW15814   1.505   4.145   1.221
 4972SOL    HW115815   1.524   4.142   1.123
 4972SOL    HW215816   1.547   4.066   1.266
 4973SOL     OW15817   0.427   0.742   0.772
 4973SOL    HW115818   0.445   0.807   0.846
 4973SOL    HW215819   0.355   0.679   0.800
 4974SOL     OW15820   3.534   4.608   5.993
 4974SOL    HW115821   3.442   4.644   6.005
 4974SOL    HW215822   3.599   4.664   6.044
 4975SOL     OW15823   5.953   3.573   7.010
 4975SOL    HW115824   5.910   3.493   0.027
 4975SOL    HW215825   5.931   3.578   6.913
 4976SOL     OW15826   1.195   6.875   4.301
 4976SOL    HW115827   1.174   6.959   4.352
 4976SOL    HW215828   1.168   6.886   4.206
 4977SOL     OW15829   2.809   5.398   6.186
 4977SOL    HW115830   2.718   5.415   6.222
 4977SOL    HW215831   2.805   5.383   6.088
 4978SOL     OW15832   5.164   4.565   5.085
 4978SOL    HW115833   5.154   4.468   5.104
 4978SOL    HW215834   5.150   4.582   4.988
 4979SOL     OW15835   1.697   6.863   6.415
 4979SOL    HW115836   1.709   6.766   6.394
 4979SOL    HW215837   1.774   6.896   6.471
 4980SOL     OW15838   6.132   3.909   2.792
 4980SOL    HW115839   6.225   3.929   2.761
 4980SOL    HW215840   6.102   3.821   2.755
 4981SOL     OW15841   3.628   5.069   1.930
 4981SOL    HW115842   3.557   5.098   1.866
 4981SOL    HW215843   3.648   4.972   1.916
 4982SOL     OW15844   4.808   1.379   6.845
 4982SOL    HW115845   4.839   1.413   6.757
 4982SOL    HW215846   4.831   1.444   6.917
 4983SOL     OW15847   6.587   5.208   3.840
 4983SOL    HW115848   6.673   5.248   3.870
 4983SOL    HW215849   6.522   5.207   3.916
 4984SOL     OW15850   5.172   4.309   2.912
 4984SOL    HW115851   5.167   4.367   2.830
 4984SOL    HW215852   5.085   4.312   2.961
 4985SOL     OW15853   5.859   5.823   2.975
 4985SOL    HW115854   5.895   5.773   2.896
 4985SOL    HW215855   5.890   5.779   3.059
 4986SOL     OW15856   0.863   4.716   1.871
 4986SOL    HW115857   0.959   4.734   1.893
 4986SOL    HW215858   0.824   4.797   1.826
 4987SOL     OW15859   0.896   0.245   2.334
 4987SOL    HW115860   0.875   0.299   2.252
 4987SOL    HW215861   0.896   0.304   2.414
 4988SOL     OW15862   5.811   7.010   3.352
 4988SOL    HW115863   5.853   0.007   3.441
 4988SOL    HW215864   5.838   0.058   3.286
 4989SOL     OW15865   4.959   1.185   2.383
 4989SOL    HW115866   4.916   1.274   2.396
 4989SOL    HW215867   5.046   1.197   2.335
 4990SOL     OW15868   4.366   1.478   6.481
 4990SOL    HW115869   4.321   1.393   6.454
 4990SOL    HW215870   4.400   1.470   6.575
 4991SOL     OW15871   1.011   5.809   5.062
 4991SOL    HW115872   1.041   5.873   4.991
 4991SOL    HW215873   1.091   5.774   5.111
 4992SOL     OW15874   0.106   0.722   3.704
 4992SOL    HW115875   0.077   0.816   3.687
 4992SOL    HW215876   0.089   0.699   3.800
 4993SOL     OW15877   4.508   6.174   5.573
 4993SOL    HW115878   4.446   6.121   5.514
 4993SOL    HW215879   4.462   6.256   5.605
 4994SOL     OW15880   2.989   5.027   5.628
 4994SOL    HW115881   2.985   4.952   5.563
 4994SOL    HW215882   2.903   5.033   5.678
 4995SOL     OW15883   0.192   0.724   4.623
 4995SOL    HW115884   0.208   0.787   4.699
 4995SOL    HW215885   0.094   0.717   4.605
 4996SOL     OW15886   0.450   1.915   4.382
 4996SOL    HW115887   0.386   1.979   4.425
 4996SOL    HW215888   0.487   1.956   4.298
 4997SOL     OW15889   3.436   1.994   1.235
 4997SOL    HW115890   3.498   1.981   1.313
 4997SOL    HW215891   3.342   1.990   1.267
 4998SOL     OW15892   1.106   3.392   3.447
 4998SOL    HW115893   1.179   3.376   3.380
 4998SOL    HW215894   1.144   3.385   3.540
 4999SOL     OW15895   1.114   3.720   4.660
 4999SOL    HW115896   1.063   3.692   4.741
 4999SOL    HW215897   1.075   3.804   4.622
 5000SOL     OW15898   3.117   5.694   3.104
 5000SOL    HW115899   3.202   5.690   3.156
 5000SOL    HW215900   3.042   5.660   3.161
 5001SOL     OW15901   1.046   5.115   2.832
 5001SOL    HW115902   1.061   5.194   2.892
 5001SOL    HW215903   1.119   5.048   2.846
 5002SOL     OW15904   0.647   4.371   2.687
 5002SOL    HW115905   0.649   4.379   2.587
 5002SOL    HW215906   0.559   4.402   2.721
 5003SOL     OW15907   4.274   6.141   3.163
 5003SOL    HW115908   4.176   6.139   3.145
 5003SOL    HW215909   4.322   6.173   3.081
 5004SOL     OW15910   3.200   5.960   6.089
 5004SOL    HW115911   3.143   5.911   6.023
 5004SOL    HW215912   3.148   5.975   6.173
 5005SOL     OW15913   3.050   3.092   6.226
 5005SOL    HW115914   2.953   3.083   6.251
 5005SOL    HW215915   3.083   3.183   6.250
 5006SOL     OW15916   5.397   1.392   1.818
 5006SOL    HW115917   5.400   1.468   1.753
 5006SOL    HW215918   5.302   1.368   1.838
 5007SOL     OW15919   6.416   0.715   1.142
 5007SOL    HW115920   6.393   0.777   1.068
 5007SOL    HW215921   6.333   0.688   1.191
 5008SOL     OW15922   6.615   6.774   1.712
 5008SOL    HW115923   6.584   6.847   1.772
 5008SOL    HW215924   6.708   6.746   1.737
 5009SOL     OW15925   0.777   2.688   0.793
 5009SOL    HW115926   0.702   2.721   0.736
 5009SOL    HW215927   0.863   2.724   0.759
 5010SOL     OW15928   3.571   2.598   0.048
 5010SOL    HW115929   3.598   2.600   6.975
 5010SOL    HW215930   3.536   2.507   0.070
 5011SOL     OW15931   1.863   3.667   7.019
 5011SOL    HW115932   1.909   3.587   0.033
 5011SOL    HW215933   1.791   3.696   0.060
 5012SOL     OW15934   5.541   2.334   5.948
 5012SOL    HW115935   5.511   2.424   5.980
 5012SOL    HW215936   5.519   2.265   6.018
 5013SOL     OW15937   6.064   0.645   5.131
 5013SOL    HW115938   6.034   0.554   5.159
 5013SOL    HW215939   6.140   0.637   5.067
 5014SOL     OW15940   6.732   3.897   0.627
 5014SOL    HW115941   6.746   3.982   0.575
 5014SOL    HW215942   6.758   3.911   0.722
 5015SOL     OW15943   5.541   0.185   4.328
 5015SOL    HW115944   5.504   0.125   4.257
 5015SOL    HW215945   5.480   0.263   4.340
 5016SOL     OW15946   1.272   3.576   5.118
 5016SOL    HW115947   1.290   3.611   5.026
 5016SOL    HW215948   1.277   3.652   5.183
 5017SOL     OW15949   0.870   2.668   1.043
 5017SOL    HW115950   0.829   2.700   0.958
 5017SOL    HW215951   0.917   2.744   1.089
 5018SOL     OW15952   0.424   5.310   2.214
 5018SOL    HW115953   0.393   5.248   2.142
 5018SOL    HW215954   0.471   5.388   2.173
 5019SOL     OW15955   1.677   5.693   5.665
 5019SOL    HW115956   1.760   5.644   5.692
 5019SOL    HW215957   1.598   5.633   5.673
 5020SOL     OW15958   0.517   6.573   4.865
 5020SOL    HW115959   0.567   6.528   4.791
 5020SOL    HW215960   0.437   6.620   4.827
 5021SOL     OW15961   1.588   0.655   0.917
 5021SOL    HW115962   1.599   0.557   0.933
 5021SOL    HW215963   1.669   0.703   0.952
 5022SOL     OW15964   0.142   2.769   1.553
 5022SOL    HW115965   0.075   2.808   1.615
 5022SOL    HW215966   0.095   2.715   1.483
 5023SOL     OW15967   0.074   3.469   1.414
 5023SOL    HW115968   0.071   3.475   1.315
 5023SOL    HW215969   0.007   3.532   1.454
 5024SOL     OW15970   5.222   3.992   0.634
 5024SOL    HW115971   5.141   4.045   0.612
 5024SOL    HW215972   5.280   4.044   0.697
 5025SOL     OW15973   4.109   1.678   4.280
 5025SOL    HW115974   4.140   1.771   4.299
 5025SOL    HW215975   4.009   1.676   4.275
 5026SOL     OW15976   6.185   5.868   4.588
 5026SOL    HW115977   6.153   5.805   4.517
 5026SOL    HW215978   6.258   5.824   4.641
 5027SOL     OW15979   5.162   0.903   0.838
 5027SOL    HW115980   5.207   0.871   0.921
 5027SOL    HW215981   5.119   0.992   0.855
 5028SOL     OW15982   0.196   2.073   2.971
 5028SOL    HW115983   0.172   2.078   3.067
 5028SOL    HW215984   0.207   2.165   2.934
 5029SOL     OW15985   6.371   2.775   2.289
 5029SOL    HW115986   6.319   2.765   2.374
 5029SOL    HW215987   6.457   2.822   2.308
 5030SOL     OW15988   6.781   5.971   6.220
 5030SOL    HW115989   6.681   5.965   6.214
 5030SOL    HW215990   6.808   5.967   6.316
 5031SOL     OW15991   0.008   1.234   5.260
 5031SOL    HW115992   6.947   1.266   5.215
 5031SOL    HW215993   0.087   1.256   5.203
 5032SOL     OW15994   3.341   2.270   6.259
 5032SOL    HW115995   3.383   2.361   6.258
 5032SOL    HW215996   3.411   2.202   6.237
 5033SOL     OW15997   2.536   1.507   0.423
 5033SOL    HW115998   2.615   1.498   0.484
 5033SOL    HW215999   2.452   1.510   0.478
 5034SOL     OW16000   4.391   6.556   4.183
 5034SOL    HW116001   4.445   6.571   4.266
 5034SOL    HW216002   4.355   6.644   4.150
 5035SOL     OW16003   6.648   4.150   4.931
 5035SOL    HW116004   6.702   4.174   5.013
 5035SOL    HW216005   6.704   4.165   4.850
 5036SOL     OW16006   6.946   4.274   5.598
 5036SOL    HW116007   6.928   4.316   5.509
 5036SOL    HW216008   6.874   4.299   5.662
 5037SOL     OW16009   4.212   4.261   1.388
 5037SOL    HW116010   4.310   4.243   1.378
 5037SOL    HW216011   4.185   4.246   1.483
 5038SOL     OW16012   3.880   3.349   4.132
 5038SOL    HW116013   3.839   3.289   4.064
 5038SOL    HW216014   3.948   3.408   4.088
 5039SOL     OW16015   2.024   3.455   6.066
 5039SOL    HW116016   2.118   3.427   6.087
 5039SOL    HW216017   2.004   3.434   5.970
 5040SOL     OW16018   1.327   5.153   5.491
 5040SOL    HW116019   1.427   5.161   5.484
 5040SOL    HW216020   1.287   5.159   5.400
 5041SOL     OW16021   0.828   3.181   1.996
 5041SOL    HW116022   0.729   3.172   1.996
 5041SOL    HW216023   0.859   3.211   2.087
 5042SOL     OW16024   0.161   3.929   6.620
 5042SOL    HW116025   0.147   3.959   6.526
 5042SOL    HW216026   0.239   3.866   6.624
 5043SOL     OW16027   4.308   0.733   0.353
 5043SOL    HW116028   4.263   0.645   0.365
 5043SOL    HW216029   4.342   0.742   0.260
 5044SOL     OW16030   6.936   6.309   1.602
 5044SOL    HW116031   0.008   6.311   1.633
 5044SOL    HW216032   6.893   6.397   1.621
 5045SOL     OW16033   6.282   4.681   5.759
 5045SOL    HW116034   6.283   4.780   5.750
 5045SOL    HW216035   6.376   4.648   5.773
 5046SOL     OW16036   3.617   3.774   4.269
 5046SOL    HW116037   3.569   3.784   4.183
 5046SOL    HW216038   3.675   3.855   4.284
 5047SOL     OW16039   2.172   3.390   2.609
 5047SOL    HW116040   2.204   3.428   2.696
 5047SOL    HW216041   2.180   3.290   2.612
 5048SOL     OW16042   1.853   0.917   5.094
 5048SOL    HW116043   1.919   0.843   5.107
 5048SOL    HW216044   1.788   0.917   5.170
 5049SOL     OW16045   6.281   1.036   6.236
 5049SOL    HW116046   6.189   1.022   6.272
 5049SOL    HW216047   6.301   0.966   6.167
 5050SOL     OW16048   1.674   1.656   6.793
 5050SOL    HW116049   1.703   1.619   6.705
 5050SOL    HW216050   1.633   1.583   6.848
 5051SOL     OW16051   3.864   4.437   1.203
 5051SOL    HW116052   3.948   4.488   1.224
 5051SOL    HW216053   3.792   4.501   1.176
 5052SOL     OW16054   3.746   1.838   6.114
 5052SOL    HW116055   3.740   1.909   6.044
 5052SOL    HW216056   3.835   1.844   6.160
 5053SOL     OW16057   0.956   4.955   3.181
 5053SOL    HW116058   0.963   5.050   3.151
 5053SOL    HW216059   0.997   4.946   3.272
 5054SOL     OW16060   3.412   4.891   5.571
 5054SOL    HW116061   3.426   4.796   5.597
 5054SOL    HW216062   3.334   4.898   5.509
 5055SOL     OW16063   0.550   3.078   6.076
 5055SOL    HW116064   0.456   3.058   6.046
 5055SOL    HW216065   0.604   2.994   6.071
 5056SOL     OW16066   4.711   4.094   5.062
 5056SOL    HW116067   4.708   4.050   4.973
 5056SOL    HW216068   4.718   4.024   5.134
 5057SOL     OW16069   1.121   6.965   2.587
 5057SOL    HW116070   1.126   6.870   2.617
 5057SOL    HW216071   1.168   6.975   2.500
 5058SOL     OW16072   3.358   4.631   6.758
 5058SOL    HW116073   3.425   4.557   6.749
 5058SOL    HW216074   3.406   4.719   6.752
 5059SOL     OW16075   6.878   0.024   3.216
 5059SOL    HW116076   6.909   0.041   3.123
 5059SOL    HW216077   6.956   0.019   3.277
 5060SOL     OW16078   6.891   2.154   5.913
 5060SOL    HW116079   6.835   2.071   5.912
 5060SOL    HW216080   6.845   2.225   5.965
 5061SOL     OW16081   4.773   2.474   7.010
 5061SOL    HW116082   4.722   2.402   6.963
 5061SOL    HW216083   4.718   2.557   7.015
 5062SOL     OW16084   0.480   0.082   2.178
 5062SOL    HW116085   0.517   0.150   2.242
 5062SOL    HW216086   0.547   0.010   2.163
 5063SOL     OW16087   0.742   6.581   1.779
 5063SOL    HW116088   0.670   6.523   1.817
 5063SOL    HW216089   0.757   6.659   1.839
 5064SOL     OW16090   4.652   3.371   0.174
 5064SOL    HW116091   4.662   3.404   0.268
 5064SOL    HW216092   4.557   3.342   0.159
 5065SOL     OW16093   3.255   6.916   5.209
 5065SOL    HW116094   3.283   6.997   5.259
 5065SOL    HW216095   3.332   6.884   5.153
 5066SOL     OW16096   5.334   4.391   1.616
 5066SOL    HW116097   5.418   4.355   1.657
 5066SOL    HW216098   5.257   4.333   1.642
 5067SOL     OW16099   5.156   1.565   0.218
 5067SOL    HW116100   5.220   1.632   0.256
 5067SOL    HW216101   5.063   1.591   0.243
 5068SOL     OW16102   3.290   4.404   0.787
 5068SOL    HW116103   3.301   4.474   0.717
 5068SOL    HW216104   3.228   4.333   0.753
 5069SOL     OW16105   1.128   4.319   3.141
 5069SOL    HW116106   1.172   4.229   3.133
 5069SOL    HW216107   1.190   4.389   3.106
 5070SOL     OW16108   5.040   3.529   4.113
 5070SOL    HW116109   5.128   3.575   4.122
 5070SOL    HW216110   5.011   3.495   4.202
 5071SOL     OW16111   4.171   2.160   5.083
 5071SOL    HW116112   4.121   2.121   5.006
 5071SOL    HW216113   4.176   2.260   5.073
 5072SOL     OW16114   0.004   5.322   0.725
 5072SOL    HW116115   0.024   5.399   0.785
 5072SOL    HW216116   0.068   5.323   0.648
 5073SOL     OW16117   6.925   6.684   2.198
 5073SOL    HW116118   6.832   6.710   2.174
 5073SOL    HW216119   6.923   6.600   2.253
 5074SOL     OW16120   2.889   3.813   6.818
 5074SOL    HW116121   2.839   3.730   6.843
 5074SOL    HW216122   2.946   3.842   6.894
 5075SOL     OW16123   0.055   0.949   5.574
 5075SOL    HW116124   0.124   0.929   5.643
 5075SOL    HW216125   0.003   0.866   5.553
 5076SOL     OW16126   3.443   0.342   0.722
 5076SOL    HW116127   3.486   0.253   0.704
 5076SOL    HW216128   3.408   0.379   0.636
 5077SOL     OW16129   1.323   2.467   3.829
 5077SOL    HW116130   1.300   2.543   3.769
 5077SOL    HW216131   1.415   2.434   3.809
 5078SOL     OW16132   1.349   2.192   3.401
 5078SOL    HW116133   1.319   2.276   3.446
 5078SOL    HW216134   1.338   2.202   3.302
 5079SOL     OW16135   3.070   5.563   6.062
 5079SOL    HW116136   2.991   5.511   6.093
 5079SOL    HW216137   3.153   5.528   6.105
 5080SOL     OW16138   5.791   6.600   4.936
 5080SOL    HW116139   5.880   6.641   4.954
 5080SOL    HW216140   5.729   6.621   5.011
 5081SOL     OW16141   3.197   3.824   3.391
 5081SOL    HW116142   3.226   3.763   3.464
 5081SOL    HW216143   3.207   3.919   3.420
 5082SOL     OW16144   6.096   6.550   5.859
 5082SOL    HW116145   6.021   6.560   5.794
 5082SOL    HW216146   6.172   6.609   5.832
 5083SOL     OW16147   1.473   0.186   2.323
 5083SOL    HW116148   1.514   0.277   2.333
 5083SOL    HW216149   1.401   0.190   2.254
 5084SOL     OW16150   1.398   4.817   4.070
 5084SOL    HW116151   1.429   4.785   3.980
 5084SOL    HW216152   1.366   4.739   4.124
 5085SOL     OW16153   5.675   1.151   6.414
 5085SOL    HW116154   5.751   1.207   6.447
 5085SOL    HW216155   5.593   1.171   6.467
 5086SOL     OW16156   6.544   4.919   3.758
 5086SOL    HW116157   6.563   5.017   3.765
 5086SOL    HW216158   6.629   4.868   3.769
 5087SOL     OW16159   6.276   6.317   4.270
 5087SOL    HW116160   6.223   6.271   4.341
 5087SOL    HW216161   6.328   6.392   4.311
 5088SOL     OW16162   6.475   0.669   6.240
 5088SOL    HW116163   6.464   0.704   6.333
 5088SOL    HW216164   6.511   0.742   6.181
 5089SOL     OW16165   6.696   3.331   2.766
 5089SOL    HW116166   6.684   3.261   2.837
 5089SOL    HW216167   6.639   3.410   2.786
 5090SOL     OW16168   2.248   4.686   1.433
 5090SOL    HW116169   2.219   4.648   1.520
 5090SOL    HW216170   2.215   4.627   1.358
 5091SOL     OW16171   1.439   6.132   3.019
 5091SOL    HW116172   1.465   6.185   2.938
 5091SOL    HW216173   1.343   6.149   3.040
 5092SOL     OW16174   3.489   2.363   1.572
 5092SOL    HW116175   3.460   2.278   1.527
 5092SOL    HW216176   3.565   2.344   1.635
 5093SOL     OW16177   1.435   2.458   2.048
 5093SOL    HW116178   1.456   2.520   1.972
 5093SOL    HW216179   1.390   2.509   2.121
 5094SOL     OW16180   1.333   6.891   5.897
 5094SOL    HW116181   1.429   6.916   5.910
 5094SOL    HW216182   1.319   6.862   5.802
 5095SOL     OW16183   1.699   0.663   4.564
 5095SOL    HW116184   1.783   0.694   4.609
 5095SOL    HW216185   1.720   0.582   4.508
 5096SOL     OW16186   4.965   3.690   0.684
 5096SOL    HW116187   5.064   3.690   0.667
 5096SOL    HW216188   4.917   3.699   0.597
 5097SOL     OW16189   1.497   0.847   5.577
 5097SOL    HW116190   1.444   0.823   5.658
 5097SOL    HW216191   1.594   0.846   5.599
 5098SOL     OW16192   0.737   1.134   2.006
 5098SOL    HW116193   0.711   1.205   2.073
 5098SOL    HW216194   0.657   1.077   1.987
 5099SOL     OW16195   0.888   0.520   5.374
 5099SOL    HW116196   0.811   0.570   5.413
 5099SOL    HW216197   0.915   0.447   5.437
 5100SOL     OW16198   5.450   6.680   6.544
 5100SOL    HW116199   5.373   6.724   6.591
 5100SOL    HW216200   5.518   6.651   6.612
 5101SOL     OW16201   4.565   6.393   0.113
 5101SOL    HW116202   4.491   6.407   0.178
 5101SOL    HW216203   4.652   6.390   0.162
 5102SOL     OW16204   5.382   0.999   5.549
 5102SOL    HW116205   5.285   0.979   5.560
 5102SOL    HW216206   5.431   0.974   5.632
 5103SOL     OW16207   0.287   0.577   4.289
 5103SOL    HW116208   0.192   0.549   4.305
 5103SOL    HW216209   0.294   0.620   4.199
 5104SOL     OW16210   2.651   0.971   1.800
 5104SOL    HW116211   2.745   0.957   1.767
 5104SOL    HW216212   2.591   0.988   1.723
 5105SOL     OW16213   4.497   4.348   6.164
 5105SOL    HW116214   4.410   4.322   6.205
 5105SOL    HW216215   4.481   4.416   6.092
 5106SOL     OW16216   3.258   0.130   2.650
 5106SOL    HW116217   3.174   0.182   2.662
 5106SOL    HW216218   3.240   0.050   2.594
 5107SOL     OW16219   3.016   0.391   6.926
 5107SOL    HW116220   3.113   0.409   6.915
 5107SOL    HW216221   2.991   0.308   6.876
 5108SOL     OW16222   2.986   3.900   3.875
 5108SOL    HW116223   2.984   3.951   3.961
 5108SOL    HW216224   3.068   3.925   3.824
 5109SOL     OW16225   0.233   1.494   0.697
 5109SOL    HW116226   0.244   1.457   0.789
 5109SOL    HW216227   0.271   1.431   0.630
 5110SOL     OW16228   2.142   6.556   5.820
 5110SOL    HW116229   2.173   6.471   5.863
 5110SOL    HW216230   2.045   6.548   5.799
 5111SOL     OW16231   1.280   1.767   6.395
 5111SOL    HW116232   1.356   1.703   6.386
 5111SOL    HW216233   1.281   1.831   6.319
 5112SOL     OW16234   0.297   6.467   3.705
 5112SOL    HW116235   0.392   6.474   3.674
 5112SOL    HW216236   0.278   6.539   3.772
 5113SOL     OW16237   1.325   0.738   0.248
 5113SOL    HW116238   1.410   0.724   0.299
 5113SOL    HW216239   1.342   0.801   0.172
 5114SOL     OW16240   3.482   4.944   0.397
 5114SOL    HW116241   3.504   5.037   0.370
 5114SOL    HW216242   3.499   4.882   0.321
 5115SOL     OW16243   1.529   3.867   6.418
 5115SOL    HW116244   1.535   3.924   6.335
 5115SOL    HW216245   1.467   3.791   6.402
 5116SOL     OW16246   5.104   4.687   6.607
 5116SOL    HW116247   5.033   4.755   6.624
 5116SOL    HW216248   5.062   4.598   6.591
 5117SOL     OW16249   2.664   4.633   4.191
 5117SOL    HW116250   2.663   4.566   4.117
 5117SOL    HW216251   2.582   4.690   4.186
 5118SOL     OW16252   4.547   5.781   0.302
 5118SOL    HW116253   4.644   5.762   0.289
 5118SOL    HW216254   4.536   5.867   0.353
 5119SOL     OW16255   5.503   0.830   1.984
 5119SOL    HW116256   5.464   0.918   2.012
 5119SOL    HW216257   5.455   0.797   1.903
 5120SOL     OW16258   5.788   0.976   2.785
 5120SOL    HW116259   5.778   0.880   2.761
 5120SOL    HW216260   5.818   1.028   2.705
 5121SOL     OW16261   0.228   3.342   5.508
 5121SOL    HW116262   0.316   3.384   5.485
 5121SOL    HW216263   0.233   3.243   5.494
 5122SOL     OW16264   2.257   0.417   3.237
 5122SOL    HW116265   2.332   0.481   3.257
 5122SOL    HW216266   2.284   0.325   3.264
 5123SOL     OW16267   5.133   3.794   3.101
 5123SOL    HW116268   5.077   3.717   3.072
 5123SOL    HW216269   5.120   3.870   3.038
 5124SOL     OW16270   2.888   6.596   6.854
 5124SOL    HW116271   2.811   6.659   6.847
 5124SOL    HW216272   2.865   6.522   6.918
 5125SOL     OW16273   0.383   3.433   3.981
 5125SOL    HW116274   0.300   3.400   3.935
 5125SOL    HW216275   0.460   3.427   3.918
 5126SOL     OW16276   5.942   4.764   6.581
 5126SOL    HW116277   5.936   4.863   6.568
 5126SOL    HW216278   5.852   4.723   6.567
 5127SOL     OW16279   5.754   3.652   6.530
 5127SOL    HW116280   5.666   3.696   6.513
 5127SOL    HW216281   5.745   3.588   6.606
 5128SOL     OW16282   1.235   0.870   6.667
 5128SOL    HW116283   1.317   0.877   6.724
 5128SOL    HW216284   1.252   0.808   6.591
 5129SOL     OW16285   5.202   0.535   2.307
 5129SOL    HW116286   5.234   0.480   2.385
 5129SOL    HW216287   5.268   0.529   2.233
 5130SOL     OW16288   1.157   5.273   4.706
 5130SOL    HW116289   1.106   5.187   4.700
 5130SOL    HW216290   1.195   5.295   4.616
 5131SOL     OW16291   3.177   5.178   3.382
 5131SOL    HW116292   3.233   5.095   3.388
 5131SOL    HW216293   3.103   5.173   3.449
 5132SOL     OW16294   3.366   1.176   6.455
 5132SOL    HW116295   3.458   1.213   6.457
 5132SOL    HW216296   3.353   1.114   6.533
 5133SOL     OW16297   3.915   5.709   6.738
 5133SOL    HW116298   3.998   5.763   6.720
 5133SOL    HW216299   3.895   5.652   6.658
 5134SOL     OW16300   6.537   6.836   1.452
 5134SOL    HW116301   6.454   6.890   1.461
 5134SOL    HW216302   6.584   6.833   1.540
 5135SOL     OW16303   6.419   3.073   1.930
 5135SOL    HW116304   6.352   3.053   2.002
 5135SOL    HW216305   6.374   3.120   1.855
 5136SOL     OW16306   0.883   1.038   6.495
 5136SOL    HW116307   0.947   1.112   6.478
 5136SOL    HW216308   0.910   0.989   6.578
 5137SOL     OW16309   5.360   2.128   5.268
 5137SOL    HW116310   5.360   2.068   5.188
 5137SOL    HW216311   5.337   2.075   5.350
 5138SOL     OW16312   3.778   3.583   4.398
 5138SOL    HW116313   3.740   3.529   4.322
 5138SOL    HW216314   3.719   3.662   4.414
 5139SOL     OW16315   2.075   0.204   4.989
 5139SOL    HW116316   2.148   0.232   5.053
 5139SOL    HW216317   1.987   0.207   5.036
 5140SOL     OW16318   4.424   2.161   6.180
 5140SOL    HW116319   4.429   2.260   6.193
 5140SOL    HW216320   4.448   2.138   6.086
 5141SOL     OW16321   6.679   2.944   1.886
 5141SOL    HW116322   6.755   2.966   1.947
 5141SOL    HW216323   6.595   2.986   1.920
 5142SOL     OW16324   7.017   6.725   3.532
 5142SOL    HW116325   6.950   6.658   3.565
 5142SOL    HW216326   0.016   6.789   3.605
 5143SOL     OW16327   0.663   5.005   4.187
 5143SOL    HW116328   0.574   4.984   4.146
 5143SOL    HW216329   0.712   5.070   4.129
 5144SOL     OW16330   1.650   3.514   6.426
 5144SOL    HW116331   1.702   3.467   6.355
 5144SOL    HW216332   1.712   3.542   6.500
 5145SOL     OW16333   2.559   6.653   6.493
 5145SOL    HW116334   2.655   6.623   6.492
 5145SOL    HW216335   2.502   6.583   6.452
 5146SOL     OW16336   4.721   4.673   6.067
 5146SOL    HW116337   4.694   4.624   6.150
 5146SOL    HW216338   4.781   4.614   6.013
 5147SOL     OW16339   4.821   2.847   3.331
 5147SOL    HW116340   4.753   2.774   3.336
 5147SOL    HW216341   4.818   2.902   3.414
 5148SOL     OW16342   0.667   0.687   1.845
 5148SOL    HW116343   0.632   0.606   1.891
 5148SOL    HW216344   0.767   0.685   1.845
 5149SOL     OW16345   5.640   4.490   3.366
 5149SOL    HW116346   5.662   4.578   3.324
 5149SOL    HW216347   5.682   4.486   3.457
 5150SOL     OW16348   1.010   5.169   3.717
 5150SOL    HW116349   1.062   5.218   3.787
 5150SOL    HW216350   1.051   5.079   3.702
 5151SOL     OW16351   5.774   4.646   2.052
 5151SOL    HW116352   5.781   4.685   1.960
 5151SOL    HW216353   5.837   4.568   2.059
 5152SOL     OW16354   1.260   0.236   6.136
 5152SOL    HW116355   1.169   0.203   6.109
 5152SOL    HW216356   1.309   0.267   6.055
 5153SOL     OW16357   1.328   2.165   0.506
 5153SOL    HW116358   1.360   2.250   0.465
 5153SOL    HW216359   1.341   2.168   0.605
 5154SOL     OW16360   0.668   3.099   6.681
 5154SOL    HW116361   0.752   3.101   6.627
 5154SOL    HW216362   0.596   3.051   6.629
 5155SOL     OW16363   2.302   1.558   0.540
 5155SOL    HW116364   2.260   1.477   0.497
 5155SOL    HW216365   2.231   1.626   0.557
 5156SOL     OW16366   5.824   5.087   5.664
 5156SOL    HW116367   5.917   5.119   5.681
 5156SOL    HW216368   5.766   5.165   5.641
 5157SOL     OW16369   3.955   0.756   2.347
 5157SOL    HW116370   3.980   0.853   2.344
 5157SOL    HW216371   3.881   0.739   2.282
 5158SOL     OW16372   4.254   1.249   3.012
 5158SOL    HW116373   4.346   1.273   2.981
 5158SOL    HW216374   4.230   1.305   3.092
 5159SOL     OW16375   5.577   3.680   5.850
 5159SOL    HW116376   5.564   3.623   5.769
 5159SOL    HW216377   5.494   3.732   5.867
 5160SOL     OW16378   6.883   6.604   3.015
 5160SOL    HW116379   6.884   6.664   3.096
 5160SOL    HW216380   6.958   6.630   2.954
 5161SOL     OW16381   0.933   3.168   0.253
 5161SOL    HW116382   0.976   3.163   0.163
 5161SOL    HW216383   0.837   3.140   0.246
 5162SOL     OW16384   7.017   6.568   2.574
 5162SOL    HW116385   6.987   6.535   2.484
 5162SOL    HW216386   6.937   6.597   2.627
 5163SOL     OW16387   3.079   6.795   1.580
 5163SOL    HW116388   2.988   6.773   1.614
 5163SOL    HW216389   3.117   6.717   1.531
 5164SOL     OW16390   2.993   3.857   1.332
 5164SOL    HW116391   3.025   3.770   1.292
 5164SOL    HW216392   2.906   3.842   1.379
 5165SOL     OW16393   1.417   4.920   0.006
 5165SOL    HW116394   1.354   4.931   0.084
 5165SOL    HW216395   1.381   4.850   6.968
 5166SOL     OW16396   2.026   5.692   1.817
 5166SOL    HW116397   2.043   5.715   1.721
 5166SOL    HW216398   2.005   5.595   1.825
 5167SOL     OW16399   5.024   3.029   5.363
 5167SOL    HW116400   5.089   3.026   5.287
 5167SOL    HW216401   4.947   3.089   5.339
 5168SOL     OW16402   4.228   2.270   2.152
 5168SOL    HW116403   4.154   2.308   2.095
 5168SOL    HW216404   4.228   2.171   2.145
 5169SOL     OW16405   4.053   0.327   4.008
 5169SOL    HW116406   4.030   0.416   4.046
 5169SOL    HW216407   3.974   0.266   4.015
 5170SOL     OW16408   1.414   3.628   6.322
 5170SOL    HW116409   1.490   3.570   6.353
 5170SOL    HW216410   1.407   3.622   6.223
 5171SOL     OW16411   1.799   5.859   5.412
 5171SOL    HW116412   1.764   5.807   5.489
 5171SOL    HW216413   1.805   5.956   5.436
 5172SOL     OW16414   0.097   5.751   3.714
 5172SOL    HW116415   0.103   5.712   3.805
 5172SOL    HW216416   0.188   5.752   3.672
 5173SOL     OW16417   4.605   3.730   5.614
 5173SOL    HW116418   4.552   3.794   5.671
 5173SOL    HW216419   4.561   3.641   5.614
 5174SOL     OW16420   2.729   6.615   3.549
 5174SOL    HW116421   2.741   6.534   3.607
 5174SOL    HW216422   2.634   6.620   3.518
 5175SOL     OW16423   2.688   4.267   6.913
 5175SOL    HW116424   2.594   4.300   6.909
 5175SOL    HW216425   2.736   4.292   6.828
 5176SOL     OW16426   5.378   5.682   0.290
 5176SOL    HW116427   5.421   5.619   0.225
 5176SOL    HW216428   5.446   5.746   0.325
 5177SOL     OW16429   4.825   0.675   0.889
 5177SOL    HW116430   4.780   0.657   0.976
 5177SOL    HW216431   4.808   0.770   0.861
 5178SOL     OW16432   1.230   3.432   1.754
 5178SOL    HW116433   1.146   3.382   1.776
 5178SOL    HW216434   1.206   3.524   1.723
 5179SOL     OW16435   6.042   4.437   3.213
 5179SOL    HW116436   5.996   4.364   3.162
 5179SOL    HW216437   6.039   4.522   3.160
 5180SOL     OW16438   2.475   0.269   1.327
 5180SOL    HW116439   2.471   0.368   1.314
 5180SOL    HW216440   2.517   0.249   1.416
 5181SOL     OW16441   0.607   0.417   6.415
 5181SOL    HW116442   0.569   0.344   6.358
 5181SOL    HW216443   0.707   0.416   6.409
 5182SOL     OW16444   4.362   5.365   3.216
 5182SOL    HW116445   4.285   5.405   3.165
 5182SOL    HW216446   4.369   5.408   3.306
 5183SOL     OW16447   4.282   1.516   3.559
 5183SOL    HW116448   4.320   1.601   3.524
 5183SOL    HW216449   4.236   1.467   3.485
 5184SOL     OW16450   2.099   1.543   4.018
 5184SOL    HW116451   2.140   1.506   3.934
 5184SOL    HW216452   2.004   1.511   4.025
 5185SOL     OW16453   5.580   0.493   1.904
 5185SOL    HW116454   5.530   0.555   1.844
 5185SOL    HW216455   5.520   0.418   1.933
 5186SOL     OW16456   6.750   2.994   5.745
 5186SOL    HW116457   6.837   3.018   5.789
 5186SOL    HW216458   6.763   2.988   5.646
 5187SOL     OW16459   2.020   4.814   5.386
 5187SOL    HW116460   2.104   4.797   5.438
 5187SOL    HW216461   2.009   4.744   5.316
 5188SOL     OW16462   6.890   6.848   1.798
 5188SOL    HW116463   6.799   6.883   1.820
 5188SOL    HW216464   6.944   6.922   1.758
 5189SOL     OW16465   5.625   0.311   6.067
 5189SOL    HW116466   5.661   0.326   6.159
 5189SOL    HW216467   5.557   0.238   6.069
 5190SOL     OW16468   1.461   3.126   1.467
 5190SOL    HW116469   1.505   3.172   1.544
 5190SOL    HW216470   1.532   3.088   1.406
 5191SOL     OW16471   2.918   5.872   2.266
 5191SOL    HW116472   2.989   5.889   2.197
 5191SOL    HW216473   2.927   5.939   2.339
 5192SOL     OW16474   2.184   5.250   2.063
 5192SOL    HW116475   2.085   5.270   2.063
 5192SOL    HW216476   2.222   5.271   2.153
 5193SOL     OW16477   5.988   0.754   6.935
 5193SOL    HW116478   5.989   0.679   6.869
 5193SOL    HW216479   6.080   0.793   6.942
 5194SOL     OW16480   4.395   2.051   6.967
 5194SOL    HW116481   4.356   2.114   0.011
 5194SOL    HW216482   4.384   2.089   6.875
 5195SOL     OW16483   0.032   0.849   4.055
 5195SOL    HW116484   0.025   0.925   4.119
 5195SOL    HW216485   6.964   0.820   4.027
 5196SOL     OW16486   4.727   6.313   3.359
 5196SOL    HW116487   4.747   6.393   3.416
 5196SOL    HW216488   4.784   6.316   3.278
 5197SOL     OW16489   1.239   4.529   5.702
 5197SOL    HW116490   1.152   4.546   5.747
 5197SOL    HW216491   1.313   4.576   5.752
 5198SOL     OW16492   5.235   5.610   3.009
 5198SOL    HW116493   5.180   5.528   3.020
 5198SOL    HW216494   5.180   5.691   3.030
 5199SOL     OW16495   6.642   5.338   1.260
 5199SOL    HW116496   6.609   5.412   1.318
 5199SOL    HW216497   6.680   5.265   1.317
 5200SOL     OW16498   0.275   3.750   5.752
 5200SOL    HW116499   0.284   3.833   5.697
 5200SOL    HW216500   0.213   3.768   5.829
 5201SOL     OW16501   1.777   5.546   3.976
 5201SOL    HW116502   1.725   5.481   3.920
 5201SOL    HW216503   1.737   5.637   3.967
 5202SOL     OW16504   6.736   3.722   6.665
 5202SOL    HW116505   6.657   3.759   6.714
 5202SOL    HW216506   6.704   3.678   6.581
 5203SOL     OW16507   0.420   2.362   6.764
 5203SOL    HW116508   0.484   2.402   6.699
 5203SOL    HW216509   0.443   2.266   6.778
 5204SOL     OW16510   4.264   5.251   0.388
 5204SOL    HW116511   4.306   5.306   0.316
 5204SOL    HW216512   4.289   5.155   0.375
 5205SOL     OW16513   1.941   1.122   1.453
 5205SOL    HW116514   1.919   1.037   1.406
 5205SOL    HW216515   2.036   1.148   1.432
 5206SOL     OW16516   0.631   4.386   0.048
 5206SOL    HW116517   0.599   4.469   0.095
 5206SOL    HW216518   0.597   4.386   6.977
 5207SOL     OW16519   1.669   5.517   4.468
 5207SOL    HW116520   1.732   5.441   4.454
 5207SOL    HW216521   1.721   5.600   4.486
 5208SOL     OW16522   3.987   0.593   0.211
 5208SOL    HW116523   4.039   0.672   0.244
 5208SOL    HW216524   3.890   0.615   0.208
 5209SOL     OW16525   6.062   5.988   3.294
 5209SOL    HW116526   5.969   5.975   3.326
 5209SOL    HW216527   6.126   5.976   3.370
 5210SOL     OW16528   4.841   3.800   4.001
 5210SOL    HW116529   4.866   3.730   3.935
 5210SOL    HW216530   4.809   3.756   4.086
 5211SOL     OW16531   3.281   3.536   3.242
 5211SOL    HW116532   3.340   3.603   3.197
 5211SOL    HW216533   3.283   3.451   3.191
 5212SOL     OW16534   0.723   2.170   0.651
 5212SOL    HW116535   0.688   2.168   0.744
 5212SOL    HW216536   0.783   2.250   0.640
 5213SOL     OW16537   4.965   2.536   5.537
 5213SOL    HW116538   4.986   2.448   5.494
 5213SOL    HW216539   5.038   2.601   5.518
 5214SOL     OW16540   5.646   1.776   5.378
 5214SOL    HW116541   5.733   1.733   5.353
 5214SOL    HW216542   5.664   1.869   5.412
 5215SOL     OW16543   5.181   4.343   3.495
 5215SOL    HW116544   5.099   4.366   3.546
 5215SOL    HW216545   5.237   4.424   3.482
 5216SOL     OW16546   4.897   4.534   1.422
 5216SOL    HW116547   4.923   4.610   1.363
 5216SOL    HW216548   4.922   4.448   1.378
 5217SOL     OW16549   3.434   5.365   3.973
 5217SOL    HW116550   3.444   5.377   4.072
 5217SOL    HW216551   3.507   5.415   3.926
 5218SOL     OW16552   1.455   6.795   3.743
 5218SOL    HW116553   1.543   6.757   3.771
 5218SOL    HW216554   1.465   6.839   3.653
 5219SOL     OW16555   3.029   6.926   6.227
 5219SOL    HW116556   3.104   6.976   6.270
 5219SOL    HW216557   2.976   6.879   6.298
 5220SOL     OW16558   1.202   5.926   1.981
 5220SOL    HW116559   1.248   5.845   2.016
 5220SOL    HW216560   1.251   6.008   2.012
 5221SOL     OW16561   5.241   0.965   4.352
 5221SOL    HW116562   5.328   0.983   4.305
 5221SOL    HW216563   5.259   0.950   4.450
 5222SOL     OW16564   2.182   0.590   3.898
 5222SOL    HW116565   2.163   0.511   3.955
 5222SOL    HW216566   2.216   0.665   3.955
 5223SOL     OW16567   5.001   0.243   1.542
 5223SOL    HW116568   5.073   0.306   1.515
 5223SOL    HW216569   4.943   0.223   1.463
 5224SOL     OW16570   6.551   2.145   2.499
 5224SOL    HW116571   6.509   2.111   2.414
 5224SOL    HW216572   6.650   2.150   2.487
 5225SOL     OW16573   6.737   0.116   4.269
 5225SOL    HW116574   6.670   0.058   4.316
 5225SOL    HW216575   6.718   0.116   4.171
 5226SOL     OW16576   1.036   6.289   4.383
 5226SOL    HW116577   0.959   6.227   4.402
 5226SOL    HW216578   1.009   6.356   4.314
 5227SOL     OW16579   6.679   5.512   3.743
 5227SOL    HW116580   6.700   5.435   3.684
 5227SOL    HW216581   6.729   5.593   3.712
 5228SOL     OW16582   5.436   1.636   0.555
 5228SOL    HW116583   5.385   1.551   0.554
 5228SOL    HW216584   5.423   1.683   0.643
 5229SOL     OW16585   1.088   4.116   6.513
 5229SOL    HW116586   1.135   4.109   6.425
 5229SOL    HW216587   1.059   4.025   6.543
 5230SOL     OW16588   0.204   0.969   1.082
 5230SOL    HW116589   0.270   0.970   1.007
 5230SOL    HW216590   0.242   0.917   1.159
 5231SOL     OW16591   3.895   3.019   4.474
 5231SOL    HW116592   3.919   3.080   4.550
 5231SOL    HW216593   3.943   3.049   4.392
 5232SOL     OW16594   4.814   2.121   6.535
 5232SOL    HW116595   4.750   2.080   6.600
 5232SOL    HW216596   4.784   2.214   6.514
 5233SOL     OW16597   6.186   6.125   1.754
 5233SOL    HW116598   6.138   6.051   1.707
 5233SOL    HW216599   6.199   6.201   1.691
 5234SOL     OW16600   3.319   0.433   0.484
 5234SOL    HW116601   3.322   0.445   0.385
 5234SOL    HW216602   3.240   0.481   0.521
 5235SOL     OW16603   1.858   3.470   0.736
 5235SOL    HW116604   1.798   3.393   0.714
 5235SOL    HW216605   1.836   3.547   0.676
 5236SOL     OW16606   5.532   3.103   1.145
 5236SOL    HW116607   5.516   3.019   1.197
 5236SOL    HW216608   5.535   3.181   1.208
 5237SOL     OW16609   2.510   1.851   5.291
 5237SOL    HW116610   2.443   1.894   5.231
 5237SOL    HW216611   2.558   1.922   5.343
 5238SOL     OW16612   1.073   5.313   0.334
 5238SOL    HW116613   1.056   5.379   0.260
 5238SOL    HW216614   0.993   5.310   0.394
 5239SOL     OW16615   3.066   3.031   4.013
 5239SOL    HW116616   3.051   3.100   3.943
 5239SOL    HW216617   3.059   3.074   4.104
 5240SOL     OW16618   2.866   2.441   5.282
 5240SOL    HW116619   2.782   2.434   5.227
 5240SOL    HW216620   2.942   2.399   5.232
 5241SOL     OW16621   0.931   6.109   6.645
 5241SOL    HW116622   0.862   6.164   6.599
 5241SOL    HW216623   0.901   6.014   6.649
 5242SOL     OW16624   5.869   1.297   5.537
 5242SOL    HW116625   5.796   1.228   5.547
 5242SOL    HW216626   5.849   1.355   5.459
 5243SOL     OW16627   0.797   5.937   0.998
 5243SOL    HW116628   0.780   5.986   1.084
 5243SOL    HW216629   0.809   5.840   1.016
 5244SOL     OW16630   3.886   3.877   5.857
 5244SOL    HW116631   3.817   3.825   5.908
 5244SOL    HW216632   3.974   3.869   5.903
 5245SOL     OW16633   4.146   4.055   5.659
 5245SOL    HW116634   4.169   4.139   5.610
 5245SOL    HW216635   4.127   4.077   5.755
 5246SOL     OW16636   0.398   3.298   2.839
 5246SOL    HW116637   0.324   3.278   2.904
 5246SOL    HW216638   0.480   3.325   2.890
 5247SOL     OW16639   6.827   5.428   0.388
 5247SOL    HW116640   6.854   5.500   0.452
 5247SOL    HW216641   6.874   5.442   0.300
 5248SOL     OW16642   5.323   0.786   6.037
 5248SOL    HW116643   5.224   0.791   6.022
 5248SOL    HW216644   5.363   0.876   6.021
 5249SOL     OW16645   0.692   5.509   4.248
 5249SOL    HW116646   0.596   5.495   4.222
 5249SOL    HW216647   0.747   5.432   4.215
 5250SOL     OW16648   0.431   1.410   6.464
 5250SOL    HW116649   0.384   1.364   6.540
 5250SOL    HW216650   0.473   1.494   6.497
 5251SOL     OW16651   6.537   3.711   0.686
 5251SOL    HW116652   6.576   3.675   0.772
 5251SOL    HW216653   6.607   3.763   0.637
 5252SOL     OW16654   2.704   6.140   0.829
 5252SOL    HW116655   2.645   6.113   0.905
 5252SOL    HW216656   2.677   6.230   0.795
 5253SOL     OW16657   5.643   3.563   4.600
 5253SOL    HW116658   5.559   3.537   4.552
 5253SOL    HW216659   5.651   3.507   4.683
 5254SOL     OW16660   4.445   1.239   4.217
 5254SOL    HW116661   4.518   1.178   4.185
 5254SOL    HW216662   4.444   1.239   4.317
 5255SOL     OW16663   3.433   0.405   4.944
 5255SOL    HW116664   3.509   0.453   4.901
 5255SOL    HW216665   3.425   0.433   5.039
 5256SOL     OW16666   5.301   1.166   3.327
 5256SOL    HW116667   5.396   1.187   3.305
 5256SOL    HW216668   5.242   1.194   3.251
 5257SOL     OW16669   3.767   0.030   0.709
 5257SOL    HW116670   3.775   6.994   0.790
 5257SOL    HW216671   3.778   6.998   0.627
 5258SOL     OW16672   5.094   4.156   2.639
 5258SOL    HW116673   5.155   4.112   2.574
 5258SOL    HW216674   5.007   4.106   2.644
 5259SOL     OW16675   4.576   6.246   2.409
 5259SOL    HW116676   4.640   6.170   2.396
 5259SOL    HW216677   4.628   6.331   2.422
 5260SOL     OW16678   5.506   3.619   0.679
 5260SOL    HW116679   5.526   3.655   0.770
 5260SOL    HW216680   5.528   3.522   0.676
 5261SOL     OW16681   6.827   1.964   5.146
 5261SOL    HW116682   6.844   2.062   5.144
 5261SOL    HW216683   6.831   1.931   5.241
 5262SOL     OW16684   2.680   0.390   2.645
 5262SOL    HW116685   2.696   0.478   2.600
 5262SOL    HW216686   2.587   0.388   2.682
 5263SOL     OW16687   1.464   0.298   5.945
 5263SOL    HW116688   1.504   0.211   5.973
 5263SOL    HW216689   1.514   0.334   5.866
 5264SOL     OW16690   6.437   1.432   1.496
 5264SOL    HW116691   6.435   1.340   1.457
 5264SOL    HW216692   6.350   1.452   1.539
 5265SOL     OW16693   5.540   4.133   2.358
 5265SOL    HW116694   5.528   4.099   2.264
 5265SOL    HW216695   5.537   4.233   2.358
 5266SOL     OW16696   1.909   6.380   1.559
 5266SOL    HW116697   1.911   6.478   1.539
 5266SOL    HW216698   1.998   6.350   1.594
 5267SOL     OW16699   4.749   5.019   5.543
 5267SOL    HW116700   4.692   4.943   5.573
 5267SOL    HW216701   4.795   4.995   5.458
 5268SOL     OW16702   6.651   5.553   5.315
 5268SOL    HW116703   6.732   5.612   5.315
 5268SOL    HW216704   6.680   5.457   5.309
 5269SOL     OW16705   1.828   5.576   3.678
 5269SOL    HW116706   1.902   5.643   3.685
 5269SOL    HW216707   1.752   5.605   3.737
 5270SOL     OW16708   5.572   2.191   1.342
 5270SOL    HW116709   5.542   2.238   1.425
 5270SOL    HW216710   5.491   2.163   1.289
 5271SOL     OW16711   4.615   5.035   5.276
 5271SOL    HW116712   4.658   4.954   5.237
 5271SOL    HW216713   4.568   5.086   5.204
 5272SOL     OW16714   0.390   5.674   4.926
 5272SOL    HW116715   0.467   5.726   4.888
 5272SOL    HW216716   0.395   5.676   5.026
 5273SOL     OW16717   0.645   2.207   3.801
 5273SOL    HW116718   0.548   2.186   3.798
 5273SOL    HW216719   0.668   2.245   3.891
 5274SOL     OW16720   6.873   5.071   3.719
 5274SOL    HW116721   6.948   5.103   3.777
 5274SOL    HW216722   6.851   4.977   3.743
 5275SOL     OW16723   2.797   0.044   6.260
 5275SOL    HW116724   2.877   0.002   6.218
 5275SOL    HW216725   2.716   7.011   6.242
 5276SOL     OW16726   0.108   6.790   1.232
 5276SOL    HW116727   0.054   6.790   1.147
 5276SOL    HW216728   0.053   6.830   1.306
 5277SOL     OW16729   1.482   2.088   3.623
 5277SOL    HW116730   1.427   2.019   3.668
 5277SOL    HW216731   1.432   2.127   3.546
 5278SOL     OW16732   6.473   6.636   6.051
 5278SOL    HW116733   6.549   6.628   6.116
 5278SOL    HW216734   6.393   6.674   6.098
 5279SOL     OW16735   1.349   5.509   6.296
 5279SOL    HW116736   1.358   5.608   6.289
 5279SOL    HW216737   1.280   5.478   6.230
 5280SOL     OW16738   3.724   6.072   5.292
 5280SOL    HW116739   3.630   6.104   5.307
 5280SOL    HW216740   3.742   6.070   5.193
 5281SOL     OW16741   1.120   0.390   4.664
 5281SOL    HW116742   1.171   0.321   4.716
 5281SOL    HW216743   1.054   0.435   4.725
 5282SOL     OW16744   1.879   0.221   2.739
 5282SOL    HW116745   1.856   0.136   2.787
 5282SOL    HW216746   1.892   0.295   2.805
 5283SOL     OW16747   0.759   0.441   3.660
 5283SOL    HW116748   0.727   0.458   3.753
 5283SOL    HW216749   0.733   0.518   3.602
 5284SOL     OW16750   4.971   2.363   2.365
 5284SOL    HW116751   4.875   2.341   2.386
 5284SOL    HW216752   5.027   2.282   2.380
 5285SOL     OW16753   0.798   2.884   3.147
 5285SOL    HW116754   0.756   2.973   3.128
 5285SOL    HW216755   0.861   2.861   3.073
 5286SOL     OW16756   6.866   3.655   0.422
 5286SOL    HW116757   6.933   3.729   0.415
 5286SOL    HW216758   6.819   3.644   0.335
 5287SOL     OW16759   3.253   5.576   2.123
 5287SOL    HW116760   3.291   5.521   2.198
 5287SOL    HW216761   3.161   5.607   2.147
 5288SOL     OW16762   5.112   0.130   2.102
 5288SOL    HW116763   5.085   0.226   2.103
 5288SOL    HW216764   5.195   0.118   2.155
 5289SOL     OW16765   2.518   5.473   6.530
 5289SOL    HW116766   2.528   5.446   6.434
 5289SOL    HW216767   2.525   5.391   6.588
 5290SOL     OW16768   1.699   4.593   5.631
 5290SOL    HW116769   1.613   4.560   5.592
 5290SOL    HW216770   1.693   4.591   5.731
 5291SOL     OW16771   2.420   4.411   5.642
 5291SOL    HW116772   2.461   4.321   5.647
 5291SOL    HW216773   2.463   4.464   5.569
 5292SOL     OW16774   6.531   3.926   6.326
 5292SOL    HW116775   6.477   3.857   6.278
 5292SOL    HW216776   6.482   3.956   6.408
 5293SOL     OW16777   2.148   5.327   4.514
 5293SOL    HW116778   2.240   5.303   4.483
 5293SOL    HW216779   2.082   5.306   4.442
 5294SOL     OW16780   4.642   0.899   5.480
 5294SOL    HW116781   4.561   0.905   5.421
 5294SOL    HW216782   4.638   0.815   5.533
 5295SOL     OW16783   4.066   0.913   3.317
 5295SOL    HW116784   3.987   0.859   3.345
 5295SOL    HW216785   4.060   0.934   3.220
 5296SOL     OW16786   3.584   3.785   0.661
 5296SOL    HW116787   3.637   3.858   0.704
 5296SOL    HW216788   3.535   3.820   0.582
 5297SOL     OW16789   2.308   3.559   0.654
 5297SOL    HW116790   2.390   3.552   0.711
 5297SOL    HW216791   2.331   3.603   0.568
 5298SOL     OW16792   2.437   6.120   6.934
 5298SOL    HW116793   2.357   6.076   6.894
 5298SOL    HW216794   2.420   6.219   6.942
 5299SOL     OW16795   3.244   2.437   0.581
 5299SOL    HW116796   3.215   2.531   0.594
 5299SOL    HW216797   3.182   2.376   0.630
 5300SOL     OW16798   0.734   4.944   0.911
 5300SOL    HW116799   0.789   4.963   0.830
 5300SOL    HW216800   0.679   4.862   0.896
 5301SOL     OW16801   4.249   0.082   6.655
 5301SOL    HW116802   4.345   0.056   6.644
 5301SOL    HW216803   4.196   0.043   6.580
 5302SOL     OW16804   5.051   5.953   4.037
 5302SOL    HW116805   4.996   5.876   4.002
 5302SOL    HW216806   5.069   5.940   4.134
 5303SOL     OW16807   0.037   5.358   6.005
 5303SOL    HW116808   6.994   5.315   6.067
 5303SOL    HW216809   0.034   5.312   5.917
 5304SOL     OW16810   6.314   0.833   0.886
 5304SOL    HW116811   6.231   0.777   0.897
 5304SOL    HW216812   6.289   0.930   0.888
 5305SOL     OW16813   1.827   5.307   2.258
 5305SOL    HW116814   1.738   5.278   2.292
 5305SOL    HW216815   1.899   5.254   2.303
 5306SOL     OW16816   0.261   4.546   5.842
 5306SOL    HW116817   0.279   4.634   5.885
 5306SOL    HW216818   0.205   4.560   5.760
 5307SOL     OW16819   4.549   2.017   0.508
 5307SOL    HW116820   4.630   2.032   0.565
 5307SOL    HW216821   4.530   2.099   0.455
 5308SOL     OW16822   1.305   4.480   3.026
 5308SOL    HW116823   1.401   4.464   3.003
 5308SOL    HW216824   1.290   4.578   3.041
 5309SOL     OW16825   3.584   6.123   2.068
 5309SOL    HW116826   3.603   6.109   2.165
 5309SOL    HW216827   3.637   6.201   2.035
 5310SOL     OW16828   6.274   3.230   2.714
 5310SOL    HW116829   6.190   3.229   2.660
 5310SOL    HW216830   6.342   3.287   2.668
 5311SOL     OW16831   5.719   0.352   6.865
 5311SOL    HW116832   5.741   0.277   6.803
 5311SOL    HW216833   5.669   0.423   6.815
 5312SOL     OW16834   0.544   5.742   1.967
 5312SOL    HW116835   0.641   5.752   1.945
 5312SOL    HW216836   0.504   5.670   1.911
 5313SOL     OW16837   0.687   4.536   5.375
 5313SOL    HW116838   0.588   4.524   5.366
 5313SOL    HW216839   0.707   4.603   5.447
 5314SOL     OW16840   4.895   0.098   1.085
 5314SOL    HW116841   4.911   0.167   1.156
 5314SOL    HW216842   4.915   0.138   0.996
 5315SOL     OW16843   4.917   2.801   2.963
 5315SOL    HW116844   4.863   2.719   2.982
 5315SOL    HW216845   4.950   2.798   2.868
 5316SOL     OW16846   1.033   4.089   5.108
 5316SOL    HW116847   1.122   4.059   5.076
 5316SOL    HW216848   1.033   4.189   5.119
 5317SOL     OW16849   6.305   1.372   5.533
 5317SOL    HW116850   6.227   1.362   5.593
 5317SOL    HW216851   6.288   1.446   5.467
 5318SOL     OW16852   0.539   2.836   0.964
 5318SOL    HW116853   0.454   2.784   0.961
 5318SOL    HW216854   0.592   2.809   1.044
 5319SOL     OW16855   4.869   6.397   1.156
 5319SOL    HW116856   4.804   6.376   1.229
 5319SOL    HW216857   4.922   6.315   1.134
 5320SOL     OW16858   3.942   5.609   1.441
 5320SOL    HW116859   3.977   5.523   1.479
 5320SOL    HW216860   4.010   5.681   1.452
 5321SOL     OW16861   2.403   4.459   4.867
 5321SOL    HW116862   2.349   4.539   4.892
 5321SOL    HW216863   2.342   4.386   4.838
 5322SOL     OW16864   5.734   0.108   0.221
 5322SOL    HW116865   5.753   0.147   0.311
 5322SOL    HW216866   5.813   0.123   0.161
 5323SOL     OW16867   4.382   1.142   5.633
 5323SOL    HW116868   4.416   1.048   5.644
 5323SOL    HW216869   4.296   1.141   5.582
 5324SOL     OW16870   3.110   2.216   0.295
 5324SOL    HW116871   3.140   2.311   0.295
 5324SOL    HW216872   3.022   2.208   0.341
 5325SOL     OW16873   3.053   1.320   5.082
 5325SOL    HW116874   3.120   1.394   5.082
 5325SOL    HW216875   3.100   1.232   5.072
 5326SOL     OW16876   6.709   5.805   3.304
 5326SOL    HW116877   6.788   5.852   3.344
 5326SOL    HW216878   6.709   5.709   3.333
 5327SOL     OW16879   6.062   2.388   4.733
 5327SOL    HW116880   6.074   2.481   4.766
 5327SOL    HW216881   6.078   2.323   4.807
 5328SOL     OW16882   3.318   3.696   6.014
 5328SOL    HW116883   3.329   3.647   6.101
 5328SOL    HW216884   3.396   3.757   6.000
 5329SOL     OW16885   0.701   5.273   6.616
 5329SOL    HW116886   0.649   5.305   6.538
 5329SOL    HW216887   0.702   5.173   6.617
 5330SOL     OW16888   3.696   4.746   6.958
 5330SOL    HW116889   3.630   4.776   0.004
 5330SOL    HW216890   3.756   4.822   6.934
 5331SOL     OW16891   6.180   2.226   6.720
 5331SOL    HW116892   6.235   2.192   6.643
 5331SOL    HW216893   6.115   2.295   6.687
 5332SOL     OW16894   1.471   3.715   1.677
 5332SOL    HW116895   1.499   3.643   1.613
 5332SOL    HW216896   1.376   3.700   1.705
 5333SOL     OW16897   1.311   1.317   3.231
 5333SOL    HW116898   1.255   1.250   3.181
 5333SOL    HW216899   1.355   1.379   3.166
 5334SOL     OW16900   3.186   0.529   5.132
 5334SOL    HW116901   3.283   0.519   5.154
 5334SOL    HW216902   3.174   0.612   5.076
 5335SOL     OW16903   6.613   6.031   1.126
 5335SOL    HW116904   6.625   6.125   1.095
 5335SOL    HW216905   6.687   6.007   1.188
 5336SOL     OW16906   1.783   3.412   2.258
 5336SOL    HW116907   1.838   3.470   2.198
 5336SOL    HW216908   1.809   3.316   2.245
 5337SOL     OW16909   4.955   3.755   1.184
 5337SOL    HW116910   4.865   3.734   1.147
 5337SOL    HW216911   4.954   3.745   1.283
 5338SOL     OW16912   5.669   1.488   6.624
 5338SOL    HW116913   5.757   1.519   6.587
 5338SOL    HW216914   5.651   1.535   6.710
 5339SOL     OW16915   6.982   1.300   3.639
 5339SOL    HW116916   6.941   1.316   3.729
 5339SOL    HW216917   6.919   1.332   3.568
 5340SOL     OW16918   5.959   3.351   0.459
 5340SOL    HW116919   5.949   3.359   0.559
 5340SOL    HW216920   5.869   3.335   0.418
 5341SOL     OW16921   3.866   2.226   6.097
 5341SOL    HW116922   3.922   2.149   6.127
 5341SOL    HW216923   3.910   2.312   6.125
 5342SOL     OW16924   3.951   0.475   5.257
 5342SOL    HW116925   3.888   0.551   5.240
 5342SOL    HW216926   3.933   0.401   5.191
 5343SOL     OW16927   3.251   3.686   3.672
 5343SOL    HW116928   3.329   3.671   3.612
 5343SOL    HW216929   3.173   3.631   3.642
 5344SOL     OW16930   1.874   2.545   2.717
 5344SOL    HW116931   1.781   2.514   2.696
 5344SOL    HW216932   1.899   2.619   2.655
 5345SOL     OW16933   4.116   5.807   1.520
 5345SOL    HW116934   4.204   5.837   1.482
 5345SOL    HW216935   4.123   5.803   1.619
 5346SOL     OW16936   3.189   6.288   3.746
 5346SOL    HW116937   3.214   6.384   3.762
 5346SOL    HW216938   3.262   6.229   3.781
 5347SOL     OW16939   6.962   2.429   2.186
 5347SOL    HW116940   0.007   2.357   2.174
 5347SOL    HW216941   6.963   2.462   2.280
 5348SOL     OW16942   0.851   1.714   0.529
 5348SOL    HW116943   0.950   1.708   0.526
 5348SOL    HW216944   0.819   1.776   0.457
 5349SOL     OW16945   1.293   2.372   0.839
 5349SOL    HW116946   1.256   2.279   0.837
 5349SOL    HW216947   1.219   2.438   0.827
 5350SOL     OW16948   2.129   0.525   6.308
 5350SOL    HW116949   2.062   0.532   6.381
 5350SOL    HW216950   2.195   0.452   6.329
 5351SOL     OW16951   5.233   5.532   1.639
 5351SOL    HW116952   5.228   5.456   1.704
 5351SOL    HW216953   5.326   5.569   1.637
 5352SOL     OW16954   2.343   5.979   4.066
 5352SOL    HW116955   2.373   6.073   4.054
 5352SOL    HW216956   2.289   5.950   3.986
 5353SOL     OW16957   3.649   6.006   4.630
 5353SOL    HW116958   3.604   5.929   4.585
 5353SOL    HW216959   3.713   5.972   4.699
 5354SOL     OW16960   2.123   4.801   2.194
 5354SOL    HW116961   2.023   4.805   2.186
 5354SOL    HW216962   2.148   4.727   2.257
 5355SOL     OW16963   4.903   2.441   4.030
 5355SOL    HW116964   4.948   2.484   3.952
 5355SOL    HW216965   4.930   2.345   4.036
 5356SOL     OW16966   5.842   4.322   1.558
 5356SOL    HW116967   5.894   4.281   1.632
 5356SOL    HW216968   5.903   4.344   1.482
 5357SOL     OW16969   3.625   0.434   1.126
 5357SOL    HW116970   3.526   0.429   1.141
 5357SOL    HW216971   3.644   0.446   1.028
 5358SOL     OW16972   4.015   2.060   0.935
 5358SOL    HW116973   4.071   2.142   0.946
 5358SOL    HW216974   3.919   2.087   0.926
 5359SOL     OW16975   2.052   1.938   0.227
 5359SOL    HW116976   2.092   1.980   0.309
 5359SOL    HW216977   1.953   1.930   0.239
 5360SOL     OW16978   3.995   6.708   4.710
 5360SOL    HW116979   3.962   6.676   4.799
 5360SOL    HW216980   4.094   6.698   4.706
 5361SOL     OW16981   2.178   6.922   4.783
 5361SOL    HW116982   2.101   6.979   4.758
 5361SOL    HW216983   2.207   6.943   4.877
 5362SOL     OW16984   4.959   4.408   3.644
 5362SOL    HW116985   5.001   4.339   3.702
 5362SOL    HW216986   4.866   4.428   3.677
 5363SOL     OW16987   0.791   6.222   6.428
 5363SOL    HW116988   0.727   6.150   6.400
 5363SOL    HW216989   0.877   6.211   6.380
 5364SOL     OW16990   6.539   5.720   1.003
 5364SOL    HW116991   6.512   5.778   1.079
 5364SOL    HW216992   6.485   5.635   1.005
 5365SOL     OW16993   4.011   3.268   6.619
 5365SOL    HW116994   3.923   3.247   6.662
 5365SOL    HW216995   4.080   3.283   6.690
 5366SOL     OW16996   5.116   4.704   1.263
 5366SOL    HW116997   5.134   4.702   1.361
 5366SOL    HW216998   5.196   4.670   1.214
 5367SOL     OW16999   0.210   5.418   0.576
 5367SOL    HW117000   0.286   5.480   0.598
 5367SOL    HW217001   0.171   5.444   0.488
 5368SOL     OW17002   5.351   1.459   2.842
 5368SOL    HW117003   5.399   1.372   2.845
 5368SOL    HW217004   5.322   1.483   2.935
 5369SOL     OW17005   3.018   6.247   3.536
 5369SOL    HW117006   3.049   6.240   3.442
 5369SOL    HW217007   3.096   6.237   3.598
 5370SOL     OW17008   3.872   3.156   1.680
 5370SOL    HW117009   3.788   3.210   1.688
 5370SOL    HW217010   3.887   3.105   1.764
 5371SOL     OW17011   1.901   3.691   4.480
 5371SOL    HW117012   1.987   3.738   4.497
 5371SOL    HW217013   1.904   3.600   4.523
 5372SOL     OW17014   2.381   5.642   2.758
 5372SOL    HW117015   2.293   5.684   2.734
 5372SOL    HW217016   2.399   5.566   2.695
 5373SOL     OW17017   2.943   4.893   4.141
 5373SOL    HW117018   2.874   4.959   4.109
 5373SOL    HW217019   3.025   4.900   4.085
 5374SOL     OW17020   1.026   3.533   6.993
 5374SOL    HW117021   1.107   3.519   6.935
 5374SOL    HW217022   1.028   3.625   0.008
 5375SOL     OW17023   1.253   4.754   5.027
 5375SOL    HW117024   1.167   4.805   5.018
 5375SOL    HW217025   1.234   4.661   5.060
 5376SOL     OW17026   1.545   3.008   1.087
 5376SOL    HW117027   1.515   3.088   1.034
 5376SOL    HW217028   1.569   3.037   1.179
 5377SOL     OW17029   0.095   6.983   1.650
 5377SOL    HW117030   0.141   6.900   1.681
 5377SOL    HW217031   0.086   6.982   1.551
 5378SOL     OW17032   6.840   0.225   1.496
 5378SOL    HW117033   6.756   0.173   1.511
 5378SOL    HW217034   6.818   0.314   1.457
 5379SOL     OW17035   0.262   5.240   4.634
 5379SOL    HW117036   0.341   5.290   4.671
 5379SOL    HW217037   0.179   5.278   4.674
 5380SOL     OW17038   1.793   1.032   3.112
 5380SOL    HW117039   1.726   0.986   3.171
 5380SOL    HW217040   1.877   0.979   3.110
 5381SOL     OW17041   6.689   3.636   0.211
 5381SOL    HW117042   6.628   3.567   0.251
 5381SOL    HW217043   6.690   3.626   0.112
 5382SOL     OW17044   3.132   0.103   2.074
 5382SOL    HW117045   3.200   0.082   2.003
 5382SOL    HW217046   3.042   0.113   2.032
 5383SOL     OW17047   2.919   2.150   5.100
 5383SOL    HW117048   2.920   2.150   5.200
 5383SOL    HW217049   3.010   2.176   5.066
 5384SOL     OW17050   6.670   1.100   3.931
 5384SOL    HW117051   6.623   1.126   3.847
 5384SOL    HW217052   6.613   1.036   3.983
 5385SOL     OW17053   3.008   3.947   3.164
 5385SOL    HW117054   2.953   3.955   3.247
 5385SOL    HW217055   3.004   3.852   3.130
 5386SOL     OW17056   4.763   6.605   4.127
 5386SOL    HW117057   4.729   6.690   4.167
 5386SOL    HW217058   4.733   6.528   4.183
 5387SOL     OW17059   1.868   5.605   3.405
 5387SOL    HW117060   1.839   5.601   3.501
 5387SOL    HW217061   1.838   5.692   3.365
 5388SOL     OW17062   5.172   6.528   3.318
 5388SOL    HW117063   5.100   6.557   3.381
 5388SOL    HW217064   5.235   6.605   3.302
 5389SOL     OW17065   5.022   0.952   1.636
 5389SOL    HW117066   5.024   0.969   1.538
 5389SOL    HW217067   4.975   0.865   1.654
 5390SOL     OW17068   4.508   5.127   4.015
 5390SOL    HW117069   4.524   5.225   4.004
 5390SOL    HW217070   4.524   5.101   4.110
 5391SOL     OW17071   2.608   2.212   0.495
 5391SOL    HW117072   2.574   2.124   0.527
 5391SOL    HW217073   2.610   2.277   0.570
 5392SOL     OW17074   6.132   3.869   0.588
 5392SOL    HW117075   6.208   3.923   0.551
 5392SOL    HW217076   6.105   3.800   0.521
 5393SOL     OW17077   6.373   6.537   6.920
 5393SOL    HW117078   6.358   6.559   6.824
 5393SOL    HW217079   6.289   6.504   6.961
 5394SOL     OW17080   6.996   3.799   6.404
 5394SOL    HW117081   6.910   3.797   6.455
 5394SOL    HW217082   6.980   3.840   6.314
 5395SOL     OW17083   4.797   0.825   1.778
 5395SOL    HW117084   4.870   0.855   1.840
 5395SOL    HW217085   4.722   0.891   1.782
 5396SOL     OW17086   4.914   3.599   3.165
 5396SOL    HW117087   4.897   3.501   3.174
 5396SOL    HW217088   4.914   3.642   3.255
 5397SOL     OW17089   6.604   2.836   1.644
 5397SOL    HW117090   6.541   2.909   1.617
 5397SOL    HW217091   6.661   2.868   1.720
 5398SOL     OW17092   3.631   1.684   1.834
 5398SOL    HW117093   3.593   1.755   1.895
 5398SOL    HW217094   3.696   1.726   1.771
 5399SOL     OW17095   2.109   6.488   0.608
 5399SOL    HW117096   2.079   6.574   0.649
 5399SOL    HW217097   2.168   6.439   0.671
 5400SOL     OW17098   3.066   4.222   0.689
 5400SOL    HW117099   2.979   4.220   0.738
 5400SOL    HW217100   3.054   4.265   0.600
 5401SOL     OW17101   5.714   3.574   1.280
 5401SOL    HW117102   5.743   3.655   1.329
 5401SOL    HW217103   5.724   3.589   1.181
 5402SOL     OW17104   2.473   6.006   2.041
 5402SOL    HW117105   2.434   5.963   2.123
 5402SOL    HW217106   2.399   6.026   1.976
 5403SOL     OW17107   6.251   3.238   6.249
 5403SOL    HW117108   6.151   3.243   6.257
 5403SOL    HW217109   6.277   3.222   6.154
 5404SOL     OW17110   0.705   1.926   3.414
 5404SOL    HW117111   0.691   2.024   3.427
 5404SOL    HW217112   0.793   1.910   3.370
 5405SOL     OW17113   6.165   5.685   0.451
 5405SOL    HW117114   6.206   5.775   0.439
 5405SOL    HW217115   6.226   5.628   0.506
 5406SOL     OW17116   2.363   1.598   6.417
 5406SOL    HW117117   2.308   1.534   6.364
 5406SOL    HW217118   2.306   1.674   6.449
 5407SOL     OW17119   4.793   3.629   0.476
 5407SOL    HW117120   4.725   3.686   0.522
 5407SOL    HW217121   4.772   3.532   0.492
 5408SOL     OW17122   2.775   1.376   6.029
 5408SOL    HW117123   2.852   1.383   6.092
 5408SOL    HW217124   2.807   1.338   5.942
 5409SOL     OW17125   5.346   0.249   3.622
 5409SOL    HW117126   5.302   0.238   3.533
 5409SOL    HW217127   5.446   0.240   3.611
 5410SOL     OW17128   2.666   2.450   1.845
 5410SOL    HW117129   2.662   2.403   1.756
 5410SOL    HW217130   2.762   2.462   1.872
 5411SOL     OW17131   6.639   4.879   5.763
 5411SOL    HW117132   6.586   4.941   5.822
 5411SOL    HW217133   6.720   4.927   5.728
 5412SOL     OW17134   5.116   2.100   0.696
 5412SOL    HW117135   5.212   2.096   0.722
 5412SOL    HW217136   5.101   2.177   0.633
 5413SOL     OW17137   3.072   1.379   1.369
 5413SOL    HW117138   3.027   1.376   1.280
 5413SOL    HW217139   3.161   1.334   1.363
 5414SOL     OW17140   5.357   2.404   4.672
 5414SOL    HW117141   5.258   2.411   4.669
 5414SOL    HW217142   5.384   2.309   4.689
 5415SOL     OW17143   0.482   5.751   1.363
 5415SOL    HW117144   0.469   5.824   1.430
 5415SOL    HW217145   0.505   5.791   1.274
 5416SOL     OW17146   5.161   5.487   5.821
 5416SOL    HW117147   5.079   5.542   5.836
 5416SOL    HW217148   5.136   5.390   5.815
 5417SOL     OW17149   3.396   6.842   5.450
 5417SOL    HW117150   3.324   6.884   5.395
 5417SOL    HW217151   3.422   6.754   5.409
 5418SOL     OW17152   3.412   0.348   3.679
 5418SOL    HW117153   3.357   0.430   3.664
 5418SOL    HW217154   3.384   0.277   3.614
 5419SOL     OW17155   3.456   5.415   0.189
 5419SOL    HW117156   3.385   5.470   0.235
 5419SOL    HW217157   3.418   5.372   0.108
 5420SOL     OW17158   1.591   3.105   2.545
 5420SOL    HW117159   1.675   3.093   2.492
 5420SOL    HW217160   1.614   3.110   2.643
 5421SOL     OW17161   1.654   3.533   1.896
 5421SOL    HW117162   1.648   3.578   1.807
 5421SOL    HW217163   1.563   3.522   1.935
 5422SOL     OW17164   0.309   5.128   0.606
 5422SOL    HW117165   0.288   5.112   0.702
 5422SOL    HW217166   0.289   5.223   0.583
 5423SOL     OW17167   6.799   3.339   6.578
 5423SOL    HW117168   6.700   3.346   6.563
 5423SOL    HW217169   6.847   3.359   6.493
 5424SOL     OW17170   5.779   3.132   3.394
 5424SOL    HW117171   5.766   3.047   3.446
 5424SOL    HW217172   5.806   3.205   3.456
 5425SOL     OW17173   4.221   1.090   4.774
 5425SOL    HW117174   4.318   1.105   4.753
 5425SOL    HW217175   4.199   1.130   4.862
 5426SOL     OW17176   6.209   5.644   4.426
 5426SOL    HW117177   6.131   5.587   4.399
 5426SOL    HW217178   6.292   5.588   4.431
 5427SOL     OW17179   5.169   5.268   6.254
 5427SOL    HW117180   5.182   5.238   6.348
 5427SOL    HW217181   5.158   5.368   6.253
 5428SOL     OW17182   6.936   6.908   1.420
 5428SOL    HW117183   6.862   6.946   1.365
 5428SOL    HW217184   6.908   6.819   1.456
 5429SOL     OW17185   2.220   2.113   6.445
 5429SOL    HW117186   2.262   2.064   6.369
 5429SOL    HW217187   2.179   2.198   6.412
 5430SOL     OW17188   0.302   3.067   5.868
 5430SOL    HW117189   0.359   3.143   5.837
 5430SOL    HW217190   0.259   3.023   5.788
 5431SOL     OW17191   2.947   6.190   0.658
 5431SOL    HW117192   2.946   6.123   0.583
 5431SOL    HW217193   2.861   6.183   0.709
 5432SOL     OW17194   5.456   0.701   6.727
 5432SOL    HW117195   5.480   0.798   6.728
 5432SOL    HW217196   5.395   0.682   6.650
 5433SOL     OW17197   6.988   1.541   4.901
 5433SOL    HW117198   0.024   1.513   4.976
 5433SOL    HW217199   7.010   1.634   4.873
 5434SOL     OW17200   3.064   0.709   5.537
 5434SOL    HW117201   3.020   0.636   5.589
 5434SOL    HW217202   3.019   0.719   5.449
 5435SOL     OW17203   5.959   6.938   1.881
 5435SOL    HW117204   5.946   0.003   1.834
 5435SOL    HW217205   6.054   6.932   1.913
 5436SOL     OW17206   5.291   3.625   4.152
 5436SOL    HW117207   5.336   3.710   4.179
 5436SOL    HW217208   5.342   3.547   4.188
 5437SOL     OW17209   2.698   4.053   0.436
 5437SOL    HW117210   2.753   4.024   0.358
 5437SOL    HW217211   2.733   4.011   0.520
 5438SOL     OW17212   6.625   2.880   2.353
 5438SOL    HW117213   6.635   2.979   2.368
 5438SOL    HW217214   6.688   2.832   2.414
 5439SOL     OW17215   0.770   2.552   1.284
 5439SOL    HW117216   0.818   2.561   1.197
 5439SOL    HW217217   0.813   2.610   1.353
 5440SOL     OW17218   1.126   1.411   0.744
 5440SOL    HW117219   1.074   1.372   0.820
 5440SOL    HW217220   1.202   1.465   0.780
 5441SOL     OW17221   4.417   2.388   3.028
 5441SOL    HW117222   4.469   2.472   3.010
 5441SOL    HW217223   4.421   2.366   3.126
 5442SOL     OW17224   3.488   6.402   3.500
 5442SOL    HW117225   3.497   6.485   3.444
 5442SOL    HW217226   3.446   6.426   3.588
 5443SOL     OW17227   3.440   0.369   4.282
 5443SOL    HW117228   3.508   0.330   4.220
 5443SOL    HW217229   3.394   0.296   4.332
 5444SOL     OW17230   1.013   0.742   3.973
 5444SOL    HW117231   0.965   0.750   3.885
 5444SOL    HW217232   1.106   0.711   3.957
 5445SOL     OW17233   6.516   3.957   3.484
 5445SOL    HW117234   6.553   3.885   3.425
 5445SOL    HW217235   6.487   3.918   3.571
 5446SOL     OW17236   6.589   5.085   4.637
 5446SOL    HW117237   6.629   5.001   4.675
 5446SOL    HW217238   6.531   5.061   4.559
 5447SOL     OW17239   3.117   2.334   6.791
 5447SOL    HW117240   3.072   2.396   6.726
 5447SOL    HW217241   3.158   2.258   6.741
 5448SOL     OW17242   4.351   3.063   5.449
 5448SOL    HW117243   4.326   3.084   5.543
 5448SOL    HW217244   4.269   3.033   5.399
 5449SOL     OW17245   1.870   3.188   6.464
 5449SOL    HW117246   1.803   3.240   6.411
 5449SOL    HW217247   1.835   3.096   6.481
 5450SOL     OW17248   2.140   0.880   1.528
 5450SOL    HW117249   2.170   0.975   1.541
 5450SOL    HW217250   2.220   0.820   1.523
 5451SOL     OW17251   1.892   6.093   3.263
 5451SOL    HW117252   1.982   6.135   3.266
 5451SOL    HW217253   1.852   6.105   3.172
 5452SOL     OW17254   2.165   4.540   0.045
 5452SOL    HW117255   2.133   4.501   6.982
 5452SOL    HW217256   2.090   4.542   0.111
 5453SOL     OW17257   6.017   4.097   0.658
 5453SOL    HW117258   5.963   4.101   0.742
 5453SOL    HW217259   6.062   4.007   0.652
 5454SOL     OW17260   0.591   4.436   6.784
 5454SOL    HW117261   0.542   4.518   6.814
 5454SOL    HW217262   0.529   4.377   6.733
 5455SOL     OW17263   6.394   3.539   6.880
 5455SOL    HW117264   6.347   3.626   6.897
 5455SOL    HW217265   6.486   3.543   6.920
 5456SOL     OW17266   3.443   6.418   0.021
 5456SOL    HW117267   3.508   6.488   0.048
 5456SOL    HW217268   3.423   6.426   6.946
 5457SOL     OW17269   5.633   2.477   0.497
 5457SOL    HW117270   5.592   2.438   0.579
 5457SOL    HW217271   5.715   2.425   0.472
 5458SOL     OW17272   0.523   4.591   0.199
 5458SOL    HW117273   0.463   4.670   0.211
 5458SOL    HW217274   0.565   4.567   0.287
 5459SOL     OW17275   1.752   4.463   6.958
 5459SOL    HW117276   1.747   4.366   6.984
 5459SOL    HW217277   1.666   4.507   6.981
 5460SOL     OW17278   2.783   6.940   2.725
 5460SOL    HW117279   2.790   6.964   2.628
 5460SOL    HW217280   2.813   7.017   2.780
 5461SOL     OW17281   6.413   6.428   5.280
 5461SOL    HW117282   6.367   6.361   5.222
 5461SOL    HW217283   6.430   6.512   5.229
 5462SOL     OW17284   1.176   0.338   0.035
 5462SOL    HW117285   1.168   0.287   0.120
 5462SOL    HW217286   1.109   0.412   0.035
 5463SOL     OW17287   6.361   2.200   6.925
 5463SOL    HW117288   6.313   2.224   6.841
 5463SOL    HW217289   6.303   2.222   7.004
 5464SOL     OW17290   1.714   0.679   4.196
 5464SOL    HW117291   1.640   0.720   4.141
 5464SOL    HW217292   1.704   0.708   4.291
 5465SOL     OW17293   3.657   7.003   3.397
 5465SOL    HW117294   3.585   6.942   3.432
 5465SOL    HW217295   3.615   0.063   3.359
 5466SOL     OW17296   5.714   4.505   5.179
 5466SOL    HW117297   5.718   4.431   5.113
 5466SOL    HW217298   5.633   4.562   5.160
 5467SOL     OW17299   5.119   2.377   3.474
 5467SOL    HW117300   5.117   2.332   3.564
 5467SOL    HW217301   5.210   2.364   3.433
 5468SOL     OW17302   5.305   1.969   4.503
 5468SOL    HW117303   5.273   1.875   4.492
 5468SOL    HW217304   5.314   2.012   4.413
 5469SOL     OW17305   3.924   5.491   6.928
 5469SOL    HW117306   3.967   5.580   6.915
 5469SOL    HW217307   3.830   5.494   6.893
 5470SOL     OW17308   2.502   5.555   3.390
 5470SOL    HW117309   2.418   5.538   3.441
 5470SOL    HW217310   2.483   5.546   3.292
 5471SOL     OW17311   5.779   6.728   1.342
 5471SOL    HW117312   5.808   6.698   1.433
 5471SOL    HW217313   5.781   6.650   1.279
 5472SOL     OW17314   4.024   4.289   6.008
 5472SOL    HW117315   3.987   4.319   5.920
 5472SOL    HW217316   4.101   4.227   5.992
 5473SOL     OW17317   0.780   3.836   3.263
 5473SOL    HW117318   0.773   3.930   3.229
 5473SOL    HW217319   0.855   3.830   3.329
 5474SOL     OW17320   1.250   4.343   4.052
 5474SOL    HW117321   1.214   4.251   4.065
 5474SOL    HW217322   1.238   4.371   3.957
 5475SOL     OW17323   3.116   2.731   0.153
 5475SOL    HW117324   3.142   2.787   0.232
 5475SOL    HW217325   3.198   2.688   0.115
 5476SOL     OW17326   2.285   3.731   6.151
 5476SOL    HW117327   2.238   3.732   6.063
 5476SOL    HW217328   2.270   3.819   6.197
 5477SOL     OW17329   1.883   3.472   3.485
 5477SOL    HW117330   1.901   3.427   3.572
 5477SOL    HW217331   1.834   3.558   3.502
 5478SOL     OW17332   5.176   5.276   5.173
 5478SOL    HW117333   5.215   5.306   5.260
 5478SOL    HW217334   5.172   5.353   5.109
 5479SOL     OW17335   4.877   0.838   5.841
 5479SOL    HW117336   4.799   0.879   5.889
 5479SOL    HW217337   4.863   0.739   5.835
 5480SOL     OW17338   0.104   3.338   3.862
 5480SOL    HW117339   0.058   3.346   3.773
 5480SOL    HW217340   0.089   3.247   3.900
 5481SOL     OW17341   3.641   0.859   4.440
 5481SOL    HW117342   3.683   0.812   4.363
 5481SOL    HW217343   3.710   0.877   4.510
 5482SOL     OW17344   3.864   4.382   1.593
 5482SOL    HW117345   3.918   4.467   1.594
 5482SOL    HW217346   3.916   4.310   1.548
 5483SOL     OW17347   0.887   3.104   5.536
 5483SOL    HW117348   0.963   3.145   5.486
 5483SOL    HW217349   0.897   3.124   5.634
 5484SOL     OW17350   4.861   0.251   5.047
 5484SOL    HW117351   4.815   0.340   5.049
 5484SOL    HW217352   4.792   0.178   5.051
 5485SOL     OW17353   3.452   6.631   5.314
 5485SOL    HW117354   3.533   6.637   5.256
 5485SOL    HW217355   3.401   6.548   5.291
 5486SOL     OW17356   2.466   5.915   5.060
 5486SOL    HW117357   2.417   5.999   5.036
 5486SOL    HW217358   2.469   5.855   4.980
 5487SOL     OW17359   2.772   4.642   6.283
 5487SOL    HW117360   2.831   4.722   6.296
 5487SOL    HW217361   2.766   4.620   6.186
 5488SOL     OW17362   0.078   1.169   0.323
 5488SOL    HW117363   7.004   1.194   0.311
 5488SOL    HW217364   0.084   1.077   0.361
 5489SOL     OW17365   6.592   3.634   2.176
 5489SOL    HW117366   6.624   3.655   2.268
 5489SOL    HW217367   6.662   3.582   2.127
 5490SOL     OW17368   1.850   6.714   2.638
 5490SOL    HW117369   1.942   6.688   2.608
 5490SOL    HW217370   1.856   6.794   2.697
 5491SOL     OW17371   6.752   2.795   1.139
 5491SOL    HW117372   6.722   2.888   1.160
 5491SOL    HW217373   6.683   2.730   1.170
 5492SOL     OW17374   1.368   3.675   5.681
 5492SOL    HW117375   1.436   3.617   5.726
 5492SOL    HW217376   1.346   3.637   5.591
 5493SOL     OW17377   4.116   3.650   2.171
 5493SOL    HW117378   4.077   3.600   2.249
 5493SOL    HW217379   4.181   3.717   2.205
 5494SOL     OW17380   6.009   4.350   5.406
 5494SOL    HW117381   5.958   4.296   5.473
 5494SOL    HW217382   6.060   4.422   5.453
 5495SOL     OW17383   6.010   0.853   0.510
 5495SOL    HW117384   6.070   0.900   0.446
 5495SOL    HW217385   5.933   0.813   0.461
 5496SOL     OW17386   4.394   0.599   4.392
 5496SOL    HW117387   4.432   0.686   4.361
 5496SOL    HW217388   4.332   0.615   4.469
 5497SOL     OW17389   0.176   0.867   5.796
 5497SOL    HW117390   0.152   0.771   5.808
 5497SOL    HW217391   0.161   0.915   5.883
 5498SOL     OW17392   0.370   5.040   1.725
 5498SOL    HW117393   0.377   5.106   1.800
 5498SOL    HW217394   0.302   5.073   1.659
 5499SOL     OW17395   0.437   0.783   3.753
 5499SOL    HW117396   0.484   0.781   3.841
 5499SOL    HW217397   0.340   0.806   3.767
 5500SOL     OW17398   1.871   1.377   0.051
 5500SOL    HW117399   1.822   1.368   0.138
 5500SOL    HW217400   1.804   1.394   7.000
 5501SOL     OW17401   4.132   2.142   0.398
 5501SOL    HW117402   4.187   2.070   0.439
 5501SOL    HW217403   4.164   2.160   0.305
 5502SOL     OW17404   4.845   3.704   6.457
 5502SOL    HW117405   4.920   3.720   6.521
 5502SOL    HW217406   4.880   3.703   6.364
 5503SOL     OW17407   0.543   3.928   0.379
 5503SOL    HW117408   0.597   3.936   0.463
 5503SOL    HW217409   0.489   4.011   0.366
 5504SOL     OW17410   4.248   0.659   6.438
 5504SOL    HW117411   4.293   0.729   6.382
 5504SOL    HW217412   4.311   0.629   6.510
 5505SOL     OW17413   2.248   4.135   3.902
 5505SOL    HW117414   2.255   4.036   3.889
 5505SOL    HW217415   2.261   4.181   3.814
 5506SOL     OW17416   0.137   3.592   6.350
 5506SOL    HW117417   0.081   3.674   6.364
 5506SOL    HW217418   0.232   3.618   6.338
 5507SOL     OW17419   3.621   0.439   5.647
 5507SOL    HW117420   3.566   0.452   5.564
 5507SOL    HW217421   3.593   0.505   5.717
 5508SOL     OW17422   1.101   1.027   0.039
 5508SOL    HW117423   1.061   1.041   0.129
 5508SOL    HW217424   1.036   0.980   7.003
 5509SOL     OW17425   0.342   5.286   1.370
 5509SOL    HW117426   0.382   5.218   1.308
 5509SOL    HW217427   0.258   5.250   1.410
 5510SOL     OW17428   5.045   5.694   0.183
 5510SOL    HW117429   5.125   5.670   0.238
 5510SOL    HW217430   5.073   5.753   0.107
 5511SOL     OW17431   0.488   1.479   5.491
 5511SOL    HW117432   0.554   1.542   5.532
 5511SOL    HW217433   0.423   1.448   5.561
 5512SOL     OW17434   3.259   0.922   1.774
 5512SOL    HW117435   3.184   0.857   1.778
 5512SOL    HW217436   3.228   1.007   1.731
 5513SOL     OW17437   4.005   4.921   6.212
 5513SOL    HW117438   3.918   4.968   6.197
 5513SOL    HW217439   4.037   4.939   6.305
 5514SOL     OW17440   3.214   6.451   5.252
 5514SOL    HW117441   3.244   6.396   5.173
 5514SOL    HW217442   3.128   6.415   5.287
 5515SOL     OW17443   2.503   5.626   2.028
 5515SOL    HW117444   2.574   5.686   2.065
 5515SOL    HW217445   2.452   5.675   1.957
 5516SOL     OW17446   2.420   2.720   5.061
 5516SOL    HW117447   2.488   2.708   4.988
 5516SOL    HW217448   2.405   2.817   5.077
 5517SOL     OW17449   1.912   4.036   2.545
 5517SOL    HW117450   1.915   3.944   2.585
 5517SOL    HW217451   1.881   4.101   2.614
 5518SOL     OW17452   5.121   4.385   5.726
 5518SOL    HW117453   5.159   4.471   5.692
 5518SOL    HW217454   5.068   4.341   5.654
 5519SOL     OW17455   4.872   2.693   3.559
 5519SOL    HW117456   4.893   2.691   3.462
 5519SOL    HW217457   4.930   2.626   3.607
 5520SOL     OW17458   5.772   6.294   2.117
 5520SOL    HW117459   5.803   6.316   2.210
 5520SOL    HW217460   5.847   6.252   2.066
 5521SOL     OW17461   5.652   5.037   2.199
 5521SOL    HW117462   5.696   4.987   2.274
 5521SOL    HW217463   5.715   5.042   2.121
 5522SOL     OW17464   5.808   5.223   1.511
 5522SOL    HW117465   5.776   5.177   1.594
 5522SOL    HW217466   5.813   5.322   1.528
 5523SOL     OW17467   5.937   1.065   3.009
 5523SOL    HW117468   5.911   0.989   3.067
 5523SOL    HW217469   5.884   1.063   2.924
 5524SOL     OW17470   3.633   0.849   5.381
 5524SOL    HW117471   3.546   0.837   5.333
 5524SOL    HW217472   3.622   0.829   5.478
 5525SOL     OW17473   6.487   2.905   1.001
 5525SOL    HW117474   6.497   3.005   0.999
 5525SOL    HW217475   6.575   2.863   0.979
 5526SOL     OW17476   4.791   4.055   3.253
 5526SOL    HW117477   4.888   4.055   3.229
 5526SOL    HW217478   4.765   3.965   3.286
 5527SOL     OW17479   5.088   2.768   4.225
 5527SOL    HW117480   5.129   2.838   4.167
 5527SOL    HW217481   5.031   2.707   4.170
 5528SOL     OW17482   1.077   2.171   1.623
 5528SOL    HW117483   1.049   2.100   1.558
 5528SOL    HW217484   1.000   2.231   1.643
 5529SOL     OW17485   2.407   0.966   2.799
 5529SOL    HW117486   2.329   0.974   2.861
 5529SOL    HW217487   2.467   1.045   2.810
 5530SOL     OW17488   6.274   2.319   1.320
 5530SOL    HW117489   6.279   2.327   1.420
 5530SOL    HW217490   6.179   2.329   1.290
 5531SOL     OW17491   3.628   3.828   1.329
 5531SOL    HW117492   3.528   3.835   1.326
 5531SOL    HW217493   3.653   3.744   1.377
 5532SOL     OW17494   2.238   2.268   0.694
 5532SOL    HW117495   2.277   2.177   0.680
 5532SOL    HW217496   2.272   2.307   0.780
 5533SOL     OW17497   4.515   1.194   4.584
 5533SOL    HW117498   4.452   1.270   4.594
 5533SOL    HW217499   4.607   1.223   4.609
 5534SOL     OW17500   0.877   1.199   5.412
 5534SOL    HW117501   0.779   1.187   5.396
 5534SOL    HW217502   0.905   1.139   5.487
 5535SOL     OW17503   1.065   1.574   2.587
 5535SOL    HW117504   1.115   1.487   2.597
 5535SOL    HW217505   1.064   1.621   2.674
 5536SOL     OW17506   2.895   1.150   5.281
 5536SOL    HW117507   2.913   1.235   5.232
 5536SOL    HW217508   2.796   1.136   5.287
 5537SOL     OW17509   3.819   1.381   2.915
 5537SOL    HW117510   3.730   1.373   2.871
 5537SOL    HW217511   3.852   1.290   2.941
 5538SOL     OW17512   4.557   5.494   4.779
 5538SOL    HW117513   4.606   5.475   4.864
 5538SOL    HW217514   4.618   5.482   4.701
 5539SOL     OW17515   2.495   2.609   0.689
 5539SOL    HW117516   2.512   2.643   0.781
 5539SOL    HW217517   2.398   2.620   0.666
 5540SOL     OW17518   5.211   4.891   3.040
 5540SOL    HW117519   5.121   4.881   2.997
 5540SOL    HW217520   5.218   4.981   3.084
 5541SOL     OW17521   4.888   1.604   6.066
 5541SOL    HW117522   4.933   1.532   6.012
 5541SOL    HW217523   4.953   1.678   6.082
 5542SOL     OW17524   3.418   4.773   6.261
 5542SOL    HW117525   3.377   4.771   6.169
 5542SOL    HW217526   3.503   4.720   6.261
 5543SOL     OW17527   6.084   3.555   6.436
 5543SOL    HW117528   6.011   3.490   6.459
 5543SOL    HW217529   6.066   3.594   6.346
 5544SOL     OW17530   5.724   0.954   5.380
 5544SOL    HW117531   5.717   0.994   5.472
 5544SOL    HW217532   5.820   0.932   5.361
 5545SOL     OW17533   4.073   1.990   2.495
 5545SOL    HW117534   4.090   2.088   2.503
 5545SOL    HW217535   4.150   1.947   2.447
 5546SOL     OW17536   1.692   5.386   5.897
 5546SOL    HW117537   1.790   5.399   5.879
 5546SOL    HW217538   1.673   5.404   5.993
 5547SOL     OW17539   3.111   5.009   5.909
 5547SOL    HW117540   3.076   5.016   5.815
 5547SOL    HW217541   3.048   4.954   5.963
 5548SOL     OW17542   6.225   3.689   5.266
 5548SOL    HW117543   6.127   3.685   5.286
 5548SOL    HW217544   6.242   3.654   5.175
 5549SOL     OW17545   2.752   4.738   6.926
 5549SOL    HW117546   2.676   4.785   6.881
 5549SOL    HW217547   2.718   4.685   7.003
 5550SOL     OW17548   3.231   5.943   1.406
 5550SOL    HW117549   3.200   5.848   1.411
 5550SOL    HW217550   3.202   5.992   1.488
 5551SOL     OW17551   1.408   1.919   3.327
 5551SOL    HW117552   1.384   2.009   3.362
 5551SOL    HW217553   1.491   1.926   3.272
 5552SOL     OW17554   6.952   2.339   1.499
 5552SOL    HW117555   6.993   2.262   1.450
 5552SOL    HW217556   6.998   2.351   1.587
 5553SOL     OW17557   4.492   5.998   0.438
 5553SOL    HW117558   4.392   6.010   0.442
 5553SOL    HW217559   4.534   6.051   0.512
 5554SOL     OW17560   2.999   1.836   5.142
 5554SOL    HW117561   2.991   1.927   5.101
 5554SOL    HW217562   2.913   1.786   5.127
 5555SOL     OW17563   0.121   5.109   3.539
 5555SOL    HW117564   0.101   5.066   3.627
 5555SOL    HW217565   0.039   5.110   3.482
 5556SOL     OW17566   0.508   2.332   5.541
 5556SOL    HW117567   0.409   2.330   5.526
 5556SOL    HW217568   0.543   2.239   5.544
 5557SOL     OW17569   1.864   6.633   4.047
 5557SOL    HW117570   1.833   6.564   4.113
 5557SOL    HW217571   1.950   6.673   4.078
 5558SOL     OW17572   5.161   2.990   5.115
 5558SOL    HW117573   5.252   2.950   5.127
 5558SOL    HW217574   5.167   3.072   5.059
 5559SOL     OW17575   1.943   0.680   0.795
 5559SOL    HW117576   1.994   0.752   0.747
 5559SOL    HW217577   1.886   0.722   0.866
 5560SOL     OW17578   0.386   0.957   3.543
 5560SOL    HW117579   0.320   1.033   3.546
 5560SOL    HW217580   0.381   0.905   3.628
 5561SOL     OW17581   1.493   3.054   3.444
 5561SOL    HW117582   1.523   2.959   3.440
 5561SOL    HW217583   1.543   3.108   3.376
 5562SOL     OW17584   2.505   3.409   6.277
 5562SOL    HW117585   2.529   3.491   6.225
 5562SOL    HW217586   2.503   3.330   6.216
 5563SOL     OW17587   4.872   5.799   2.274
 5563SOL    HW117588   4.936   5.770   2.345
 5563SOL    HW217589   4.778   5.784   2.305
 5564SOL     OW17590   5.051   3.851   1.698
 5564SOL    HW117591   5.039   3.945   1.731
 5564SOL    HW217592   5.128   3.808   1.746
 5565SOL     OW17593   3.273   2.412   5.550
 5565SOL    HW117594   3.368   2.382   5.557
 5565SOL    HW217595   3.267   2.489   5.487
 5566SOL     OW17596   1.906   5.054   1.264
 5566SOL    HW117597   1.948   5.088   1.180
 5566SOL    HW217598   1.884   4.957   1.253
 5567SOL     OW17599   1.709   5.516   1.862
 5567SOL    HW117600   1.665   5.541   1.776
 5567SOL    HW217601   1.801   5.483   1.844
 5568SOL     OW17602   3.595   1.106   1.974
 5568SOL    HW117603   3.497   1.101   1.991
 5568SOL    HW217604   3.624   1.202   1.973
 5569SOL     OW17605   4.535   1.883   0.126
 5569SOL    HW117606   4.547   1.793   0.083
 5569SOL    HW217607   4.488   1.944   0.062
 5570SOL     OW17608   6.795   4.068   5.785
 5570SOL    HW117609   6.745   4.021   5.859
 5570SOL    HW217610   6.741   4.146   5.753
 5571SOL     OW17611   6.566   5.499   6.924
 5571SOL    HW117612   6.489   5.539   6.974
 5571SOL    HW217613   6.573   5.540   6.834
 5572SOL     OW17614   4.701   2.724   6.379
 5572SOL    HW117615   4.656   2.639   6.407
 5572SOL    HW217616   4.727   2.717   6.283
 5573SOL     OW17617   1.373   3.724   0.740
 5573SOL    HW117618   1.381   3.638   0.689
 5573SOL    HW217619   1.283   3.765   0.722
 5574SOL     OW17620   0.781   5.669   5.359
 5574SOL    HW117621   0.854   5.709   5.415
 5574SOL    HW217622   0.773   5.571   5.380
 5575SOL     OW17623   1.321   1.563   0.828
 5575SOL    HW117624   1.394   1.619   0.787
 5575SOL    HW217625   1.361   1.496   0.890
 5576SOL     OW17626   6.112   6.367   0.340
 5576SOL    HW117627   6.175   6.429   0.293
 5576SOL    HW217628   6.155   6.332   0.423
 5577SOL     OW17629   1.804   3.923   5.300
 5577SOL    HW117630   1.834   3.851   5.362
 5577SOL    HW217631   1.868   3.930   5.223
 5578SOL     OW17632   4.268   2.512   0.117
 5578SOL    HW117633   4.278   2.570   0.197
 5578SOL    HW217634   4.204   2.554   0.052
 5579SOL     OW17635   4.962   3.998   6.704
 5579SOL    HW117636   4.871   3.978   6.741
 5579SOL    HW217637   5.014   3.913   6.696
 5580SOL     OW17638   5.931   1.575   0.532
 5580SOL    HW117639   5.986   1.615   0.605
 5580SOL    HW217640   5.841   1.617   0.531
 5581SOL     OW17641   2.231   1.809   6.512
 5581SOL    HW117642   2.155   1.829   6.573
 5581SOL    HW217643   2.252   1.890   6.457
 5582SOL     OW17644   3.850   3.121   3.693
 5582SOL    HW117645   3.780   3.192   3.686
 5582SOL    HW217646   3.813   3.034   3.661
 5583SOL     OW17647   3.732   0.203   1.531
 5583SOL    HW117648   3.778   0.282   1.572
 5583SOL    HW217649   3.685   0.233   1.448
 5584SOL     OW17650   6.437   2.978   3.513
 5584SOL    HW117651   6.361   2.980   3.578
 5584SOL    HW217652   6.415   2.916   3.438
 5585SOL     OW17653   5.812   0.128   4.320
 5585SOL    HW117654   5.856   0.217   4.313
 5585SOL    HW217655   5.713   0.140   4.322
 5586SOL     OW17656   1.815   0.953   5.890
 5586SOL    HW117657   1.873   1.032   5.872
 5586SOL    HW217658   1.742   0.979   5.953
 5587SOL     OW17659   3.299   0.149   4.409
 5587SOL    HW117660   3.352   0.097   4.476
 5587SOL    HW217661   3.241   0.087   4.356
 5588SOL     OW17662   2.920   0.038   5.834
 5588SOL    HW117663   2.897   0.074   5.744
 5588SOL    HW217664   3.014   0.004   5.833
 5589SOL     OW17665   4.483   3.053   6.154
 5589SOL    HW117666   4.506   3.014   6.243
 5589SOL    HW217667   4.407   3.117   6.165
 5590SOL     OW17668   6.816   6.228   3.606
 5590SOL    HW117669   6.892   6.210   3.544
 5590SOL    HW217670   6.840   6.198   3.698
 5591SOL     OW17671   4.929   0.890   0.484
 5591SOL    HW117672   4.996   0.839   0.431
 5591SOL    HW217673   4.941   0.988   0.468
 5592SOL     OW17674   1.939   3.486   2.581
 5592SOL    HW117675   1.879   3.441   2.515
 5592SOL    HW217676   2.031   3.448   2.576
 5593SOL     OW17677   1.752   3.103   5.863
 5593SOL    HW117678   1.664   3.075   5.902
 5593SOL    HW217679   1.751   3.086   5.764
 5594SOL     OW17680   1.760   0.781   7.012
 5594SOL    HW117681   1.753   0.682   7.023
 5594SOL    HW217682   1.799   0.821   0.072
 5595SOL     OW17683   6.946   2.534   5.773
 5595SOL    HW117684   6.962   2.629   5.801
 5595SOL    HW217685   6.850   2.512   5.785
 5596SOL     OW17686   4.813   0.729   3.278
 5596SOL    HW117687   4.846   0.655   3.336
 5596SOL    HW217688   4.716   0.745   3.296
 5597SOL     OW17689   0.230   0.656   6.338
 5597SOL    HW117690   0.168   0.659   6.259
 5597SOL    HW217691   0.229   0.564   6.377
 5598SOL     OW17692   6.546   1.641   3.624
 5598SOL    HW117693   6.589   1.695   3.697
 5598SOL    HW217694   6.570   1.545   3.636
 5599SOL     OW17695   4.919   3.329   3.192
 5599SOL    HW117696   4.989   3.270   3.153
 5599SOL    HW217697   4.905   3.305   3.288
 5600SOL     OW17698   2.415   1.791   2.228
 5600SOL    HW117699   2.359   1.840   2.294
 5600SOL    HW217700   2.489   1.744   2.275
 5601SOL     OW17701   5.758   2.713   5.637
 5601SOL    HW117702   5.760   2.754   5.729
 5601SOL    HW217703   5.664   2.712   5.603
 5602SOL     OW17704   0.384   1.905   2.541
 5602SOL    HW117705   0.292   1.895   2.505
 5602SOL    HW217706   0.381   1.903   2.641
 5603SOL     OW17707   4.026   2.117   4.713
 5603SOL    HW117708   4.035   2.210   4.676
 5603SOL    HW217709   3.955   2.116   4.784
 5604SOL     OW17710   0.780   0.160   4.169
 5604SOL    HW117711   0.743   0.247   4.137
 5604SOL    HW217712   0.705   0.098   4.193
 5605SOL     OW17713   2.987   6.064   4.416
 5605SOL    HW117714   3.031   5.976   4.437
 5605SOL    HW217715   3.053   6.138   4.429
 5606SOL     OW17716   4.369   2.299   0.953
 5606SOL    HW117717   4.361   2.347   1.040
 5606SOL    HW217718   4.391   2.364   0.880
 5607SOL     OW17719   6.180   2.497   2.547
 5607SOL    HW117720   6.148   2.516   2.454
 5607SOL    HW217721   6.170   2.399   2.567
 5608SOL     OW17722   4.764   0.732   3.633
 5608SOL    HW117723   4.761   0.791   3.714
 5608SOL    HW217724   4.773   0.789   3.551
 5609SOL     OW17725   6.487   0.108   0.702
 5609SOL    HW117726   6.572   0.154   0.728
 5609SOL    HW217727   6.495   0.010   0.722
 5610SOL     OW17728   5.081   4.610   0.196
 5610SOL    HW117729   5.177   4.601   0.224
 5610SOL    HW217730   5.023   4.557   0.258
 5611SOL     OW17731   0.184   4.750   1.220
 5611SOL    HW117732   0.264   4.697   1.191
 5611SOL    HW217733   0.104   4.691   1.225
 5612SOL     OW17734   2.902   1.384   0.755
 5612SOL    HW117735   2.948   1.311   0.805
 5612SOL    HW217736   2.892   1.358   0.659
 5613SOL     OW17737   6.859   5.501   5.653
 5613SOL    HW117738   6.867   5.507   5.753
 5613SOL    HW217739   6.822   5.586   5.617
 5614SOL     OW17740   5.566   2.327   4.153
 5614SOL    HW117741   5.634   2.357   4.220
 5614SOL    HW217742   5.479   2.372   4.172
 5615SOL     OW17743   0.274   3.070   3.228
 5615SOL    HW117744   0.362   3.060   3.275
 5615SOL    HW217745   0.214   3.127   3.283
 5616SOL     OW17746   1.523   3.556   2.703
 5616SOL    HW117747   1.559   3.552   2.796
 5616SOL    HW217748   1.598   3.550   2.638
 5617SOL     OW17749   1.855   5.347   6.624
 5617SOL    HW117750   1.913   5.366   6.545
 5617SOL    HW217751   1.761   5.375   6.604
 5618SOL     OW17752   6.778   5.996   3.069
 5618SOL    HW117753   6.741   6.087   3.090
 5618SOL    HW217754   6.753   5.933   3.142
 5619SOL     OW17755   3.746   2.920   4.142
 5619SOL    HW117756   3.798   2.834   4.146
 5619SOL    HW217757   3.692   2.930   4.225
 5620SOL     OW17758   4.715   4.766   5.236
 5620SOL    HW117759   4.717   4.694   5.166
 5620SOL    HW217760   4.808   4.799   5.252
 5621SOL     OW17761   1.293   2.192   5.603
 5621SOL    HW117762   1.220   2.256   5.579
 5621SOL    HW217763   1.257   2.099   5.604
 5622SOL     OW17764   4.484   5.880   4.706
 5622SOL    HW117765   4.462   5.928   4.621
 5622SOL    HW217766   4.549   5.935   4.759
 5623SOL     OW17767   5.008   5.960   3.518
 5623SOL    HW117768   4.919   5.941   3.477
 5623SOL    HW217769   5.035   5.881   3.574
 5624SOL     OW17770   6.751   5.067   4.291
 5624SOL    HW117771   6.676   5.050   4.227
 5624SOL    HW217772   6.716   5.066   4.385
 5625SOL     OW17773   0.994   5.838   5.452
 5625SOL    HW117774   0.935   5.893   5.511
 5625SOL    HW217775   1.080   5.818   5.501
 5626SOL     OW17776   1.352   4.305   4.953
 5626SOL    HW117777   1.338   4.292   4.855
 5626SOL    HW217778   1.407   4.229   4.989
 5627SOL     OW17779   1.233   5.727   6.666
 5627SOL    HW117780   1.286   5.781   6.732
 5627SOL    HW217781   1.220   5.781   6.583
 5628SOL     OW17782   2.398   2.249   1.501
 5628SOL    HW117783   2.429   2.226   1.593
 5628SOL    HW217784   2.299   2.262   1.502
 5629SOL     OW17785   5.263   3.866   1.481
 5629SOL    HW117786   5.239   3.924   1.403
 5629SOL    HW217787   5.182   3.849   1.537
 5630SOL     OW17788   1.479   4.266   6.984
 5630SOL    HW117789   1.572   4.249   7.017
 5630SOL    HW217790   1.416   4.267   0.039
 5631SOL     OW17791   3.855   1.024   1.616
 5631SOL    HW117792   3.918   0.969   1.561
 5631SOL    HW217793   3.907   1.086   1.674
 5632SOL     OW17794   5.732   6.949   5.866
 5632SOL    HW117795   5.721   6.911   5.775
 5632SOL    HW217796   5.725   0.026   5.862
 5633SOL     OW17797   0.838   5.501   6.154
 5633SOL    HW117798   0.824   5.412   6.112
 5633SOL    HW217799   0.900   5.556   6.098
 5634SOL     OW17800   2.496   0.045   0.398
 5634SOL    HW117801   2.550   0.006   0.473
 5634SOL    HW217802   2.478   6.997   0.331
 5635SOL     OW17803   1.855   0.749   6.304
 5635SOL    HW117804   1.873   0.775   6.209
 5635SOL    HW217805   1.864   0.829   6.363
 5636SOL     OW17806   6.077   1.536   5.745
 5636SOL    HW117807   6.012   1.463   5.724
 5636SOL    HW217808   6.144   1.502   5.811
 5637SOL     OW17809   4.603   6.161   4.823
 5637SOL    HW117810   4.536   6.157   4.897
 5637SOL    HW217811   4.692   6.186   4.861
 5638SOL     OW17812   6.099   5.337   1.193
 5638SOL    HW117813   6.182   5.282   1.182
 5638SOL    HW217814   6.052   5.344   1.105
 5639SOL     OW17815   1.133   0.519   1.079
 5639SOL    HW117816   1.217   0.572   1.069
 5639SOL    HW217817   1.087   0.512   0.990
 5640SOL     OW17818   2.575   5.983   3.056
 5640SOL    HW117819   2.596   5.887   3.037
 5640SOL    HW217820   2.587   6.037   2.972
 5641SOL     OW17821   0.834   4.442   3.874
 5641SOL    HW117822   0.819   4.391   3.959
 5641SOL    HW217823   0.911   4.402   3.824
 5642SOL     OW17824   1.492   5.095   0.334
 5642SOL    HW117825   1.465   5.179   0.286
 5642SOL    HW217826   1.586   5.071   0.310
 5643SOL     OW17827   4.484   1.818   4.811
 5643SOL    HW117828   4.498   1.779   4.720
 5643SOL    HW217829   4.449   1.912   4.803
 5644SOL     OW17830   4.135   0.624   5.099
 5644SOL    HW117831   4.104   0.576   5.182
 5644SOL    HW217832   4.147   0.721   5.119
 5645SOL     OW17833   5.385   5.296   3.777
 5645SOL    HW117834   5.384   5.380   3.831
 5645SOL    HW217835   5.348   5.315   3.686
 5646SOL     OW17836   0.746   6.586   4.413
 5646SOL    HW117837   0.681   6.526   4.367
 5646SOL    HW217838   0.833   6.538   4.426
 5647SOL     OW17839   5.749   5.600   5.707
 5647SOL    HW117840   5.715   5.594   5.801
 5647SOL    HW217841   5.672   5.616   5.645
 5648SOL     OW17842   1.525   1.951   4.035
 5648SOL    HW117843   1.583   1.995   3.966
 5648SOL    HW217844   1.547   1.853   4.039
 5649SOL     OW17845   0.592   1.277   5.349
 5649SOL    HW117846   0.683   1.306   5.318
 5649SOL    HW217847   0.549   1.351   5.401
 5650SOL     OW17848   6.591   4.953   6.692
 5650SOL    HW117849   6.628   4.929   6.782
 5650SOL    HW217850   6.521   4.887   6.667
 5651SOL     OW17851   6.926   0.818   2.428
 5651SOL    HW117852   6.974   0.878   2.364
 5651SOL    HW217853   6.829   0.815   2.404
 5652SOL     OW17854   4.762   5.386   0.830
 5652SOL    HW117855   4.808   5.322   0.891
 5652SOL    HW217856   4.813   5.393   0.744
 5653SOL     OW17857   0.373   5.707   6.581
 5653SOL    HW117858   0.372   5.684   6.484
 5653SOL    HW217859   0.326   5.794   6.596
 5654SOL     OW17860   6.521   6.986   5.283
 5654SOL    HW117861   6.450   0.007   5.338
 5654SOL    HW217862   6.611   0.001   5.308
 5655SOL     OW17863   6.706   3.366   4.409
 5655SOL    HW117864   6.645   3.293   4.442
 5655SOL    HW217865   6.761   3.331   4.334
 5656SOL     OW17866   3.493   4.545   0.285
 5656SOL    HW117867   3.478   4.583   0.194
 5656SOL    HW217868   3.418   4.572   0.345
 5657SOL     OW17869   3.617   0.392   1.828
 5657SOL    HW117870   3.639   0.439   1.742
 5657SOL    HW217871   3.639   0.295   1.819
 5658SOL     OW17872   3.423   0.022   5.897
 5658SOL    HW117873   3.415   0.087   5.973
 5658SOL    HW217874   3.334   7.000   5.883
 5659SOL     OW17875   3.136   3.940   2.712
 5659SOL    HW117876   3.204   3.963   2.642
 5659SOL    HW217877   3.154   3.994   2.795
 5660SOL     OW17878   5.095   6.591   6.736
 5660SOL    HW117879   5.165   6.657   6.766
 5660SOL    HW217880   5.051   6.551   6.816
 5661SOL     OW17881   6.071   5.556   4.089
 5661SOL    HW117882   6.015   5.609   4.024
 5661SOL    HW217883   6.026   5.556   4.178
 5662SOL     OW17884   1.970   4.708   3.975
 5662SOL    HW117885   1.991   4.741   4.067
 5662SOL    HW217886   2.046   4.730   3.913
 5663SOL     OW17887   1.437   4.297   0.804
 5663SOL    HW117888   1.397   4.303   0.895
 5663SOL    HW217889   1.484   4.383   0.781
 5664SOL     OW17890   6.815   4.654   2.264
 5664SOL    HW117891   6.867   4.731   2.226
 5664SOL    HW217892   6.724   4.652   2.223
 5665SOL     OW17893   2.420   3.264   5.703
 5665SOL    HW117894   2.482   3.342   5.708
 5665SOL    HW217895   2.326   3.296   5.694
 5666SOL     OW17896   5.648   4.435   0.944
 5666SOL    HW117897   5.551   4.448   0.923
 5666SOL    HW217898   5.700   4.512   0.910
 5667SOL     OW17899   6.872   4.959   3.156
 5667SOL    HW117900   6.892   5.013   3.074
 5667SOL    HW217901   6.857   4.864   3.129
 5668SOL     OW17902   5.639   2.068   6.591
 5668SOL    HW117903   5.615   1.994   6.528
 5668SOL    HW217904   5.735   2.059   6.618
 5669SOL     OW17905   0.644   4.893   6.485
 5669SOL    HW117906   0.653   4.967   6.419
 5669SOL    HW217907   0.584   4.822   6.447
 5670SOL     OW17908   0.508   3.541   4.200
 5670SOL    HW117909   0.490   3.635   4.227
 5670SOL    HW217910   0.446   3.514   4.126
 5671SOL     OW17911   1.329   0.527   5.731
 5671SOL    HW117912   1.245   0.563   5.691
 5671SOL    HW217913   1.365   0.594   5.797
 5672SOL     OW17914   4.989   4.593   5.496
 5672SOL    HW117915   4.919   4.592   5.568
 5672SOL    HW217916   5.079   4.598   5.538
 5673SOL     OW17917   0.570   0.501   2.014
 5673SOL    HW117918   0.556   0.508   2.112
 5673SOL    HW217919   0.484   0.475   1.969
 5674SOL     OW17920   6.661   3.400   1.503
 5674SOL    HW117921   6.705   3.358   1.424
 5674SOL    HW217922   6.697   3.492   1.516
 5675SOL     OW17923   4.499   2.319   5.172
 5675SOL    HW117924   4.408   2.326   5.213
 5675SOL    HW217925   4.544   2.408   5.176
 5676SOL     OW17926   2.047   0.470   1.964
 5676SOL    HW117927   1.949   0.457   1.950
 5676SOL    HW217928   2.067   0.461   2.062
 5677SOL     OW17929   6.445   1.073   3.481
 5677SOL    HW117930   6.451   0.978   3.450
 5677SOL    HW217931   6.492   1.132   3.416
 5678SOL     OW17932   2.892   0.020   3.180
 5678SOL    HW117933   2.966   0.046   3.118
 5678SOL    HW217934   2.923   6.970   3.241
 5679SOL     OW17935   1.914   6.701   4.744
 5679SOL    HW117936   1.826   6.740   4.718
 5679SOL    HW217937   1.901   6.637   4.820
 5680SOL     OW17938   2.245   5.343   6.537
 5680SOL    HW117939   2.257   5.443   6.530
 5680SOL    HW217940   2.236   5.318   6.633
 5681SOL     OW17941   1.364   3.208   6.918
 5681SOL    HW117942   1.313   3.127   6.947
 5681SOL    HW217943   1.442   3.180   6.864
 5682SOL     OW17944   1.092   3.107   5.884
 5682SOL    HW117945   1.027   3.182   5.899
 5682SOL    HW217946   1.077   3.067   5.794
 5683SOL     OW17947   3.458   2.516   6.219
 5683SOL    HW117948   3.417   2.601   6.186
 5683SOL    HW217949   3.512   2.474   6.146
 5684SOL     OW17950   3.848   4.061   3.992
 5684SOL    HW117951   3.940   4.088   3.965
 5684SOL    HW217952   3.790   4.055   3.910
 5685SOL     OW17953   6.971   4.857   2.179
 5685SOL    HW117954   6.952   4.938   2.123
 5685SOL    HW217955   0.047   4.843   2.186
 5686SOL     OW17956   3.507   0.080   0.623
 5686SOL    HW117957   3.598   0.068   0.663
 5686SOL    HW217958   3.458   7.016   0.625
 5687SOL     OW17959   5.290   5.261   5.434
 5687SOL    HW117960   5.235   5.186   5.396
 5687SOL    HW217961   5.387   5.241   5.421
 5688SOL     OW17962   5.711   1.991   1.437
 5688SOL    HW117963   5.724   2.011   1.535
 5688SOL    HW217964   5.671   2.071   1.392
 5689SOL     OW17965   4.180   1.913   0.805
 5689SOL    HW117966   4.109   1.971   0.846
 5689SOL    HW217967   4.217   1.853   0.876
 5690SOL     OW17968   4.075   5.901   1.232
 5690SOL    HW117969   4.085   5.860   1.322
 5690SOL    HW217970   4.049   5.997   1.242
 5691SOL     OW17971   1.885   6.982   1.787
 5691SOL    HW117972   1.936   6.902   1.820
 5691SOL    HW217973   1.904   6.995   1.689
 5692SOL     OW17974   6.678   3.172   6.173
 5692SOL    HW117975   6.699   3.102   6.242
 5692SOL    HW217976   6.757   3.231   6.161
 5693SOL     OW17977   4.402   2.345   2.613
 5693SOL    HW117978   4.333   2.323   2.682
 5693SOL    HW217979   4.454   2.425   2.643
 5694SOL     OW17980   0.647   0.879   3.414
 5694SOL    HW117981   0.677   0.903   3.322
 5694SOL    HW217982   0.568   0.935   3.439
 5695SOL     OW17983   1.744   3.389   3.256
 5695SOL    HW117984   1.801   3.433   3.324
 5695SOL    HW217985   1.682   3.456   3.215
 5696SOL     OW17986   2.666   0.796   5.249
 5696SOL    HW117987   2.654   0.716   5.192
 5696SOL    HW217988   2.671   0.768   5.345
 5697SOL     OW17989   6.524   2.878   0.351
 5697SOL    HW117990   6.517   2.876   0.451
 5697SOL    HW217991   6.609   2.924   0.325
 5698SOL     OW17992   0.594   3.551   1.960
 5698SOL    HW117993   0.563   3.620   1.895
 5698SOL    HW217994   0.518   3.522   2.018
 5699SOL     OW17995   5.619   0.851   4.916
 5699SOL    HW117996   5.613   0.836   5.015
 5699SOL    HW217997   5.697   0.909   4.896
 5700SOL     OW17998   1.531   5.856   5.235
 5700SOL    HW117999   1.627   5.865   5.264
 5700SOL    HW218000   1.527   5.828   5.140
 5701SOL     OW18001   6.796   5.521   2.175
 5701SOL    HW118002   6.703   5.554   2.156
 5701SOL    HW218003   6.829   5.562   2.261
 5702SOL     OW18004   2.215   6.667   6.583
 5702SOL    HW118005   2.138   6.693   6.642
 5702SOL    HW218006   2.220   6.567   6.577
 5703SOL     OW18007   4.315   4.962   0.355
 5703SOL    HW118008   4.325   4.902   0.434
 5703SOL    HW218009   4.237   4.932   0.300
 5704SOL     OW18010   4.632   5.324   3.634
 5704SOL    HW118011   4.605   5.410   3.678
 5704SOL    HW218012   4.655   5.342   3.538
 5705SOL     OW18013   6.095   0.140   1.288
 5705SOL    HW118014   6.035   0.085   1.347
 5705SOL    HW218015   6.040   0.198   1.228
 5706SOL     OW18016   1.299   1.465   6.879
 5706SOL    HW118017   1.223   1.514   6.836
 5706SOL    HW218018   1.270   1.430   6.968
 5707SOL     OW18019   1.963   1.230   6.245
 5707SOL    HW118020   1.971   1.330   6.251
 5707SOL    HW218021   2.048   1.188   6.275
 5708SOL     OW18022   5.015   0.005   2.681
 5708SOL    HW118023   4.944   0.075   2.687
 5708SOL    HW218024   4.990   6.950   2.738
 5709SOL     OW18025   0.468   6.264   3.011
 5709SOL    HW118026   0.566   6.260   3.030
 5709SOL    HW218027   0.447   6.203   2.935
 5710SOL     OW18028   2.964   3.204   5.946
 5710SOL    HW118029   3.026   3.258   5.889
 5710SOL    HW218030   2.996   3.205   6.041
 5711SOL     OW18031   4.694   1.418   3.904
 5711SOL    HW118032   4.610   1.463   3.936
 5711SOL    HW218033   4.692   1.321   3.928
 5712SOL     OW18034   0.226   6.347   5.766
 5712SOL    HW118035   0.227   6.264   5.822
 5712SOL    HW218036   0.200   6.324   5.672
 5713SOL     OW18037   0.071   2.830   2.479
 5713SOL    HW118038   0.139   2.853   2.410
 5713SOL    HW218039   0.113   2.829   2.569
 5714SOL     OW18040   1.056   0.633   5.661
 5714SOL    HW118041   1.057   0.632   5.761
 5714SOL    HW218042   0.961   0.629   5.629
 5715SOL     OW18043   1.433   6.477   2.104
 5715SOL    HW118044   1.416   6.410   2.032
 5715SOL    HW218045   1.393   6.565   2.077
 5716SOL     OW18046   1.571   3.945   6.162
 5716SOL    HW118047   1.534   3.949   6.069
 5716SOL    HW218048   1.631   3.865   6.171
 5717SOL     OW18049   1.194   4.251   0.981
 5717SOL    HW118050   1.240   4.162   0.980
 5717SOL    HW218051   1.148   4.265   0.894
 5718SOL     OW18052   2.509   4.776   6.437
 5718SOL    HW118053   2.522   4.711   6.511
 5718SOL    HW218054   2.527   4.732   6.350
 5719SOL     OW18055   3.487   0.330   6.708
 5719SOL    HW118056   3.470   0.348   6.611
 5719SOL    HW218057   3.559   0.261   6.718
 5720SOL     OW18058   1.260   5.485   5.336
 5720SOL    HW118059   1.177   5.503   5.389
 5720SOL    HW218060   1.330   5.552   5.360
 5721SOL     OW18061   0.442   3.186   1.339
 5721SOL    HW118062   0.348   3.205   1.314
 5721SOL    HW218063   0.446   3.159   1.435
 5722SOL     OW18064   5.446   0.153   4.957
 5722SOL    HW118065   5.407   0.096   5.030
 5722SOL    HW218066   5.531   0.195   4.991
 5723SOL     OW18067   3.751   5.610   0.629
 5723SOL    HW118068   3.806   5.538   0.586
 5723SOL    HW218069   3.722   5.676   0.559
 5724SOL     OW18070   5.439   2.021   6.312
 5724SOL    HW118071   5.509   2.091   6.299
 5724SOL    HW218072   5.481   1.938   6.346
 5725SOL     OW18073   5.505   5.060   4.669
 5725SOL    HW118074   5.464   4.975   4.702
 5725SOL    HW218075   5.460   5.088   4.584
 5726SOL     OW18076   5.854   3.796   5.607
 5726SOL    HW118077   5.813   3.805   5.698
 5726SOL    HW218078   5.786   3.820   5.538
 5727SOL     OW18079   5.787   1.873   3.480
 5727SOL    HW118080   5.699   1.847   3.521
 5727SOL    HW218081   5.771   1.914   3.390
 5728SOL     OW18082   5.968   0.881   5.256
 5728SOL    HW118083   6.018   0.935   5.188
 5728SOL    HW218084   5.941   0.794   5.215
 5729SOL     OW18085   0.197   1.275   6.320
 5729SOL    HW118086   0.266   1.217   6.363
 5729SOL    HW218087   0.183   1.357   6.375
 5730SOL     OW18088   4.120   5.489   5.756
 5730SOL    HW118089   4.203   5.524   5.713
 5730SOL    HW218090   4.138   5.398   5.794
 5731SOL     OW18091   2.825   1.005   4.198
 5731SOL    HW118092   2.799   0.947   4.121
 5731SOL    HW218093   2.832   0.950   4.281
 5732SOL     OW18094   6.102   5.108   5.112
 5732SOL    HW118095   6.045   5.040   5.158
 5732SOL    HW218096   6.094   5.196   5.160
 5733SOL     OW18097   3.488   0.694   6.887
 5733SOL    HW118098   3.544   0.770   6.919
 5733SOL    HW218099   3.395   0.703   6.922
 5734SOL     OW18100   1.614   6.972   5.752
 5734SOL    HW118101   1.628   6.958   5.850
 5734SOL    HW218102   1.638   0.043   5.727
 5735SOL     OW18103   4.135   0.863   2.144
 5735SOL    HW118104   4.071   0.798   2.102
 5735SOL    HW218105   4.148   0.942   2.084
 5736SOL     OW18106   4.583   4.247   6.926
 5736SOL    HW118107   4.519   4.214   6.995
 5736SOL    HW218108   4.665   4.284   6.971
 5737SOL     OW18109   4.877   5.159   1.459
 5737SOL    HW118110   4.947   5.228   1.475
 5737SOL    HW218111   4.792   5.203   1.429
 5738SOL     OW18112   3.625   1.209   6.410
 5738SOL    HW118113   3.679   1.130   6.439
 5738SOL    HW218114   3.621   1.213   6.310
 5739SOL     OW18115   2.792   0.690   6.057
 5739SOL    HW118116   2.760   0.684   5.963
 5739SOL    HW218117   2.713   0.687   6.119
 5740SOL     OW18118   5.417   3.615   1.031
 5740SOL    HW118119   5.366   3.531   1.049
 5740SOL    HW218120   5.415   3.673   1.113
 5741SOL     OW18121   0.664   3.339   4.184
 5741SOL    HW118122   0.603   3.418   4.193
 5741SOL    HW218123   0.674   3.293   4.272
 5742SOL     OW18124   4.572   6.978   3.398
 5742SOL    HW118125   4.473   6.986   3.394
 5742SOL    HW218126   4.614   0.044   3.380
 5743SOL     OW18127   3.477   4.006   5.407
 5743SOL    HW118128   3.577   3.992   5.407
 5743SOL    HW218129   3.446   4.016   5.313
 5744SOL     OW18130   5.719   6.644   3.031
 5744SOL    HW118131   5.698   6.550   3.060
 5744SOL    HW218132   5.743   6.699   3.111
 5745SOL     OW18133   2.223   2.522   3.648
 5745SOL    HW118134   2.172   2.549   3.566
 5745SOL    HW218135   2.312   2.567   3.647
 5746SOL     OW18136   4.161   0.299   3.432
 5746SOL    HW118137   4.115   0.358   3.365
 5746SOL    HW218138   4.093   0.241   3.477
 5747SOL     OW18139   1.135   5.805   1.739
 5747SOL    HW118140   1.040   5.799   1.708
 5747SOL    HW218141   1.137   5.837   1.833
 5748SOL     OW18142   0.187   5.987   0.709
 5748SOL    HW118143   0.255   5.949   0.771
 5748SOL    HW218144   0.101   6.002   0.757
 5749SOL     OW18145   1.535   6.555   4.998
 5749SOL    HW118146   1.532   6.558   5.098
 5749SOL    HW218147   1.567   6.465   4.968
 5750SOL     OW18148   0.005   4.196   4.332
 5750SOL    HW118149   0.045   4.106   4.316
 5750SOL    HW218150   6.953   4.188   4.397
 5751SOL     OW18151   2.167   3.624   4.355
 5751SOL    HW118152   2.164   3.544   4.415
 5751SOL    HW218153   2.172   3.707   4.411
 5752SOL     OW18154   5.630   0.396   0.769
 5752SOL    HW118155   5.581   0.376   0.684
 5752SOL    HW218156   5.620   0.319   0.832
 5753SOL     OW18157   3.128   4.095   4.757
 5753SOL    HW118158   3.092   4.011   4.797
 5753SOL    HW218159   3.059   4.136   4.697
 5754SOL     OW18160   1.044   6.023   1.461
 5754SOL    HW118161   0.954   5.980   1.472
 5754SOL    HW218162   1.108   5.957   1.421
 5755SOL     OW18163   2.293   2.451   7.001
 5755SOL    HW118164   2.316   2.403   6.916
 5755SOL    HW218165   2.277   2.385   0.051
 5756SOL     OW18166   5.967   6.243   1.927
 5756SOL    HW118167   5.982   6.174   1.856
 5756SOL    HW218168   6.055   6.280   1.957
 5757SOL     OW18169   6.837   6.503   3.534
 5757SOL    HW118170   6.847   6.483   3.437
 5757SOL    HW218171   6.867   6.424   3.588
 5758SOL     OW18172   1.442   6.448   3.217
 5758SOL    HW118173   1.470   6.362   3.258
 5758SOL    HW218174   1.460   6.447   3.119
 5759SOL     OW18175   4.090   6.845   2.053
 5759SOL    HW118176   4.128   6.780   1.987
 5759SOL    HW218177   3.991   6.832   2.060
 5760SOL     OW18178   6.602   3.231   2.080
 5760SOL    HW118179   6.572   3.258   2.172
 5760SOL    HW218180   6.530   3.180   2.035
 5761SOL     OW18181   5.363   5.817   4.747
 5761SOL    HW118182   5.449   5.783   4.785
 5761SOL    HW218183   5.326   5.889   4.806
 5762SOL     OW18184   5.814   4.286   6.861
 5762SOL    HW118185   5.733   4.232   6.883
 5762SOL    HW218186   5.885   4.225   6.825
 5763SOL     OW18187   5.353   0.554   0.564
 5763SOL    HW118188   5.274   0.560   0.624
 5763SOL    HW218189   5.363   0.460   0.531
 5764SOL     OW18190   4.294   5.266   3.631
 5764SOL    HW118191   4.246   5.354   3.625
 5764SOL    HW218192   4.347   5.251   3.548
 5765SOL     OW18193   6.363   5.174   1.244
 5765SOL    HW118194   6.351   5.079   1.215
 5765SOL    HW218195   6.459   5.200   1.236
 5766SOL     OW18196   1.259   1.414   4.787
 5766SOL    HW118197   1.175   1.437   4.738
 5766SOL    HW218198   1.269   1.314   4.791
 5767SOL     OW18199   1.898   0.863   0.210
 5767SOL    HW118200   1.995   0.843   0.198
 5767SOL    HW218201   1.880   0.890   0.304
 5768SOL     OW18202   6.459   6.620   4.023
 5768SOL    HW118203   6.515   6.591   3.945
 5768SOL    HW218204   6.376   6.564   4.027
 5769SOL     OW18205   1.936   5.126   6.751
 5769SOL    HW118206   1.923   5.210   6.699
 5769SOL    HW218207   1.846   5.093   6.783
 5770SOL     OW18208   0.613   5.937   0.802
 5770SOL    HW118209   0.686   5.943   0.870
 5770SOL    HW218210   0.530   5.980   0.838
 5771SOL     OW18211   2.076   5.425   3.728
 5771SOL    HW118212   1.995   5.472   3.693
 5771SOL    HW218213   2.119   5.481   3.799
 5772SOL     OW18214   4.400   0.126   2.050
 5772SOL    HW118215   4.403   0.127   2.150
 5772SOL    HW218216   4.321   0.073   2.021
 5773SOL     OW18217   4.225   1.930   1.902
 5773SOL    HW118218   4.210   1.960   1.996
 5773SOL    HW218219   4.257   2.007   1.847
 5774SOL     OW18220   1.170   6.444   3.930
 5774SOL    HW118221   1.259   6.423   3.891
 5774SOL    HW218222   1.098   6.412   3.868
 5775SOL     OW18223   1.024   5.591   3.156
 5775SOL    HW118224   0.982   5.626   3.240
 5775SOL    HW218225   0.954   5.583   3.085
 5776SOL     OW18226   2.005   0.493   3.413
 5776SOL    HW118227   2.100   0.466   3.398
 5776SOL    HW218228   2.001   0.558   3.489
 5777SOL     OW18229   1.669   0.359   3.187
 5777SOL    HW118230   1.586   0.414   3.186
 5777SOL    HW218231   1.687   0.328   3.280
 5778SOL     OW18232   1.082   1.588   6.768
 5778SOL    HW118233   1.052   1.647   6.843
 5778SOL    HW218234   1.029   1.503   6.771
 5779SOL     OW18235   4.730   2.344   6.708
 5779SOL    HW118236   4.674   2.317   6.786
 5779SOL    HW218237   4.823   2.313   6.721
 5780SOL     OW18238   5.366   5.053   3.873
 5780SOL    HW118239   5.463   5.074   3.883
 5780SOL    HW218240   5.318   5.132   3.835
 5781SOL     OW18241   6.804   4.576   5.028
 5781SOL    HW118242   6.714   4.561   4.989
 5781SOL    HW218243   6.796   4.618   5.119
 5782SOL     OW18244   0.991   1.633   0.236
 5782SOL    HW118245   1.039   1.546   0.237
 5782SOL    HW218246   1.048   1.703   0.279
 5783SOL     OW18247   1.539   1.660   1.804
 5783SOL    HW118248   1.611   1.635   1.739
 5783SOL    HW218249   1.578   1.666   1.896
 5784SOL     OW18250   0.269   6.215   6.892
 5784SOL    HW118251   0.210   6.295   6.903
 5784SOL    HW218252   0.334   6.232   6.818
 5785SOL     OW18253   2.763   1.756   0.809
 5785SOL    HW118254   2.696   1.795   0.746
 5785SOL    HW218255   2.828   1.827   0.836
 5786SOL     OW18256   0.106   4.446   6.822
 5786SOL    HW118257   0.013   4.432   6.857
 5786SOL    HW218258   0.172   4.405   6.885
 5787SOL     OW18259   2.026   2.164   5.576
 5787SOL    HW118260   2.000   2.239   5.637
 5787SOL    HW218261   2.123   2.171   5.552
 5788SOL     OW18262   2.218   1.292   2.605
 5788SOL    HW118263   2.261   1.328   2.522
 5788SOL    HW218264   2.140   1.234   2.579
 5789SOL     OW18265   3.320   5.528   6.838
 5789SOL    HW118266   3.238   5.474   6.822
 5789SOL    HW218267   3.359   5.555   6.750
 5790SOL     OW18268   0.305   3.144   4.431
 5790SOL    HW118269   0.214   3.125   4.469
 5790SOL    HW218270   0.299   3.225   4.371
 5791SOL     OW18271   3.017   0.273   2.594
 5791SOL    HW118272   3.042   0.369   2.580
 5791SOL    HW218273   2.922   0.259   2.565
 5792SOL     OW18274   0.106   2.037   3.229
 5792SOL    HW118275   0.111   1.974   3.306
 5792SOL    HW218276   0.045   2.113   3.252
 5793SOL     OW18277   7.003   0.955   3.643
 5793SOL    HW118278   6.983   1.036   3.698
 5793SOL    HW218279   7.019   0.983   3.548
 5794SOL     OW18280   3.836   2.655   0.077
 5794SOL    HW118281   3.877   2.621   0.162
 5794SOL    HW218282   3.740   2.630   0.075
 5795SOL     OW18283   5.883   5.409   5.529
 5795SOL    HW118284   5.798   5.364   5.559
 5795SOL    HW218285   5.908   5.479   5.596
 5796SOL     OW18286   3.478   0.684   0.220
 5796SOL    HW118287   3.549   0.618   0.247
 5796SOL    HW218288   3.504   0.775   0.251
 5797SOL     OW18289   3.851   1.871   5.291
 5797SOL    HW118290   3.852   1.787   5.235
 5797SOL    HW218291   3.943   1.906   5.300
 5798SOL     OW18292   0.644   4.003   5.415
 5798SOL    HW118293   0.616   3.974   5.324
 5798SOL    HW218294   0.684   4.095   5.410
 5799SOL     OW18295   5.605   0.527   3.635
 5799SOL    HW118296   5.532   0.557   3.697
 5799SOL    HW218297   5.587   0.564   3.544
 5800SOL     OW18298   5.659   5.928   1.080
 5800SOL    HW118299   5.754   5.959   1.090
 5800SOL    HW218300   5.608   5.993   1.025
 5801SOL     OW18301   0.904   2.062   3.978
 5801SOL    HW118302   0.975   2.131   3.983
 5801SOL    HW218303   0.890   2.036   3.882
 5802SOL     OW18304   0.715   4.513   6.476
 5802SOL    HW118305   0.687   4.462   6.557
 5802SOL    HW218306   0.805   4.481   6.446
 5803SOL     OW18307   1.602   5.014   1.509
 5803SOL    HW118308   1.532   4.951   1.544
 5803SOL    HW218309   1.608   5.004   1.410
 5804SOL     OW18310   6.320   4.323   3.813
 5804SOL    HW118311   6.411   4.282   3.809
 5804SOL    HW218312   6.292   4.333   3.909
 5805SOL     OW18313   3.876   4.150   6.725
 5805SOL    HW118314   3.853   4.228   6.783
 5805SOL    HW218315   3.837   4.067   6.762
 5806SOL     OW18316   0.590   6.910   6.962
 5806SOL    HW118317   0.654   6.862   6.902
 5806SOL    HW218318   0.621   7.004   6.975
 5807SOL     OW18319   1.250   3.923   1.887
 5807SOL    HW118320   1.291   3.909   1.978
 5807SOL    HW218321   1.319   3.960   1.825
 5808SOL     OW18322   5.402   3.497   2.706
 5808SOL    HW118323   5.440   3.511   2.615
 5808SOL    HW218324   5.432   3.408   2.742
 5809SOL     OW18325   6.342   2.672   4.263
 5809SOL    HW118326   6.341   2.612   4.344
 5809SOL    HW218327   6.307   2.762   4.289
 5810SOL     OW18328   3.342   1.119   4.260
 5810SOL    HW118329   3.275   1.047   4.246
 5810SOL    HW218330   3.411   1.116   4.188
 5811SOL     OW18331   3.336   0.175   4.846
 5811SOL    HW118332   3.252   0.153   4.896
 5811SOL    HW218333   3.373   0.262   4.879
 5812SOL     OW18334   5.050   0.184   4.342
 5812SOL    HW118335   5.016   0.238   4.419
 5812SOL    HW218336   5.108   0.241   4.284
 5813SOL     OW18337   1.284   1.024   6.201
 5813SOL    HW118338   1.278   1.123   6.217
 5813SOL    HW218339   1.247   1.002   6.111
 5814SOL     OW18340   6.327   4.026   0.500
 5814SOL    HW118341   6.289   4.116   0.477
 5814SOL    HW218342   6.425   4.026   0.482
 5815SOL     OW18343   4.458   2.438   3.327
 5815SOL    HW118344   4.556   2.426   3.336
 5815SOL    HW218345   4.410   2.363   3.372
 5816SOL     OW18346   5.782   6.714   0.296
 5816SOL    HW118347   5.791   6.623   0.335
 5816SOL    HW218348   5.727   6.709   0.212
 5817SOL     OW18349   5.811   2.958   5.444
 5817SOL    HW118350   5.770   2.882   5.494
 5817SOL    HW218351   5.851   3.023   5.508
 5818SOL     OW18352   6.514   5.846   4.676
 5818SOL    HW118353   6.479   5.911   4.744
 5818SOL    HW218354   6.439   5.785   4.648
 5819SOL     OW18355   4.188   0.346   0.944
 5819SOL    HW118356   4.192   0.361   0.845
 5819SOL    HW218357   4.097   0.369   0.978
 5820SOL     OW18358   5.100   6.957   3.573
 5820SOL    HW118359   5.033   6.897   3.617
 5820SOL    HW218360   5.137   7.021   3.640
 5821SOL     OW18361   2.305   0.646   1.726
 5821SOL    HW118362   2.245   0.571   1.698
 5821SOL    HW218363   2.255   0.708   1.786
 5822SOL     OW18364   0.731   2.511   2.029
 5822SOL    HW118365   0.717   2.475   1.936
 5822SOL    HW218366   0.645   2.548   2.063
 5823SOL     OW18367   0.721   0.804   5.301
 5823SOL    HW118368   0.737   0.841   5.210
 5823SOL    HW218369   0.624   0.782   5.312
 5824SOL     OW18370   6.805   6.643   2.745
 5824SOL    HW118371   6.798   6.742   2.731
 5824SOL    HW218372   6.797   6.623   2.843
 5825SOL     OW18373   2.095   1.991   5.896
 5825SOL    HW118374   2.187   1.978   5.858
 5825SOL    HW218375   2.038   1.913   5.870
 5826SOL     OW18376   6.888   6.221   5.492
 5826SOL    HW118377   6.807   6.163   5.502
 5826SOL    HW218378   6.869   6.293   5.426
 5827SOL     OW18379   1.054   5.584   4.822
 5827SOL    HW118380   1.060   5.531   4.907
 5827SOL    HW218381   1.006   5.530   4.753
 5828SOL     OW18382   0.314   3.559   1.768
 5828SOL    HW118383   0.325   3.567   1.669
 5828SOL    HW218384   0.357   3.637   1.813
 5829SOL     OW18385   2.935   1.244   2.597
 5829SOL    HW118386   2.973   1.323   2.645
 5829SOL    HW218387   2.963   1.160   2.644
 5830SOL     OW18388   3.696   0.491   5.995
 5830SOL    HW118389   3.638   0.522   5.920
 5830SOL    HW218390   3.748   0.410   5.966
 5831SOL     OW18391   6.052   6.707   4.109
 5831SOL    HW118392   6.015   6.800   4.109
 5831SOL    HW218393   5.976   6.642   4.107
 5832SOL     OW18394   4.216   3.501   5.255
 5832SOL    HW118395   4.175   3.575   5.307
 5832SOL    HW218396   4.230   3.530   5.160
 5833SOL     OW18397   3.207   3.456   4.237
 5833SOL    HW118398   3.218   3.456   4.137
 5833SOL    HW218399   3.129   3.512   4.262
 5834SOL     OW18400   6.070   1.895   0.566
 5834SOL    HW118401   6.123   1.962   0.513
 5834SOL    HW218402   5.987   1.938   0.600
 5835SOL     OW18403   5.249   2.836   3.280
 5835SOL    HW118404   5.199   2.782   3.213
 5835SOL    HW218405   5.253   2.931   3.250
 5836SOL     OW18406   2.903   5.673   3.289
 5836SOL    HW118407   2.820   5.714   3.327
 5836SOL    HW218408   2.944   5.613   3.358
 5837SOL     OW18409   4.212   4.648   6.748
 5837SOL    HW118410   4.302   4.681   6.719
 5837SOL    HW218411   4.214   4.548   6.756
 5838SOL     OW18412   1.830   1.900   6.070
 5838SOL    HW118413   1.771   1.931   5.996
 5838SOL    HW218414   1.874   1.979   6.114
 5839SOL     OW18415   0.287   2.544   2.450
 5839SOL    HW118416   0.277   2.620   2.385
 5839SOL    HW218417   0.384   2.532   2.472
 5840SOL     OW18418   1.301   5.525   0.032
 5840SOL    HW118419   1.355   5.600   7.017
 5840SOL    HW218420   1.306   5.526   0.132
 5841SOL     OW18421   5.806   2.938   2.203
 5841SOL    HW118422   5.720   2.907   2.243
 5841SOL    HW218423   5.839   3.019   2.253
 5842SOL     OW18424   3.605   3.138   0.732
 5842SOL    HW118425   3.520   3.155   0.682
 5842SOL    HW218426   3.647   3.225   0.757
 5843SOL     OW18427   2.138   3.719   2.416
 5843SOL    HW118428   2.103   3.697   2.507
 5843SOL    HW218429   2.115   3.645   2.352
 5844SOL     OW18430   0.325   6.771   6.012
 5844SOL    HW118431   0.259   6.838   5.979
 5844SOL    HW218432   0.413   6.787   5.967
 5845SOL     OW18433   0.999   1.201   2.982
 5845SOL    HW118434   1.081   1.153   3.013
 5845SOL    HW218435   0.963   1.255   3.058
 5846SOL     OW18436   6.732   2.879   4.981
 5846SOL    HW118437   6.703   2.806   4.920
 5846SOL    HW218438   6.704   2.967   4.944
 5847SOL     OW18439   1.955   1.961   2.270
 5847SOL    HW118440   2.035   1.965   2.330
 5847SOL    HW218441   1.873   1.985   2.321
 5848SOL     OW18442   2.680   4.955   3.690
 5848SOL    HW118443   2.673   5.016   3.611
 5848SOL    HW218444   2.589   4.943   3.730
 5849SOL     OW18445   0.550   0.529   5.823
 5849SOL    HW118446   0.605   0.591   5.768
 5849SOL    HW218447   0.465   0.574   5.849
 5850SOL     OW18448   0.934   3.518   1.921
 5850SOL    HW118449   0.844   3.561   1.930
 5850SOL    HW218450   0.930   3.444   1.854
 5851SOL     OW18451   5.520   3.103   2.568
 5851SOL    HW118452   5.481   3.012   2.579
 5851SOL    HW218453   5.494   3.160   2.646
 5852SOL     OW18454   4.312   6.280   2.926
 5852SOL    HW118455   4.368   6.355   2.962
 5852SOL    HW218456   4.316   6.281   2.826
 5853SOL     OW18457   3.020   5.785   5.928
 5853SOL    HW118458   3.059   5.705   5.972
 5853SOL    HW218459   2.944   5.757   5.869
 5854SOL     OW18460   6.642   3.440   5.715
 5854SOL    HW118461   6.639   3.358   5.771
 5854SOL    HW218462   6.576   3.431   5.640
 5855SOL     OW18463   1.069   0.761   4.636
 5855SOL    HW118464   1.037   0.680   4.686
 5855SOL    HW218465   1.036   0.844   4.682
 5856SOL     OW18466   2.076   5.477   3.281
 5856SOL    HW118467   2.006   5.517   3.340
 5856SOL    HW218468   2.033   5.436   3.201
 5857SOL     OW18469   5.910   2.757   4.997
 5857SOL    HW118470   5.846   2.725   5.067
 5857SOL    HW218471   5.984   2.808   5.041
 5858SOL     OW18472   2.492   2.201   1.776
 5858SOL    HW118473   2.423   2.266   1.807
 5858SOL    HW218474   2.570   2.202   1.838
 5859SOL     OW18475   5.808   6.156   0.967
 5859SOL    HW118476   5.712   6.167   0.944
 5859SOL    HW218477   5.855   6.105   0.894
 5860SOL     OW18478   2.317   4.408   1.849
 5860SOL    HW118479   2.351   4.314   1.843
 5860SOL    HW218480   2.385   4.470   1.809
 5861SOL     OW18481   5.079   1.655   3.685
 5861SOL    HW118482   5.158   1.598   3.706
 5861SOL    HW218483   5.085   1.687   3.590
 5862SOL     OW18484   4.124   5.502   3.066
 5862SOL    HW118485   4.048   5.491   3.002
 5862SOL    HW218486   4.088   5.503   3.160
 5863SOL     OW18487   2.387   0.972   5.571
 5863SOL    HW118488   2.443   0.989   5.652
 5863SOL    HW218489   2.378   0.873   5.557
 5864SOL     OW18490   4.253   3.768   1.657
 5864SOL    HW118491   4.219   3.760   1.751
 5864SOL    HW218492   4.353   3.772   1.657
 5865SOL     OW18493   5.720   0.699   3.978
 5865SOL    HW118494   5.735   0.613   4.028
 5865SOL    HW218495   5.634   0.693   3.927
 5866SOL     OW18496   4.105   6.178   6.585
 5866SOL    HW118497   4.130   6.106   6.521
 5866SOL    HW218498   4.006   6.187   6.589
 5867SOL     OW18499   0.366   2.735   0.591
 5867SOL    HW118500   0.347   2.833   0.576
 5867SOL    HW218501   0.309   2.681   0.530
 5868SOL     OW18502   0.233   0.425   5.212
 5868SOL    HW118503   0.180   0.499   5.169
 5868SOL    HW218504   0.190   0.400   5.298
 5869SOL     OW18505   2.405   4.931   3.739
 5869SOL    HW118506   2.374   5.003   3.678
 5869SOL    HW218507   2.328   4.873   3.765
 5870SOL     OW18508   4.878   5.172   4.785
 5870SOL    HW118509   4.880   5.117   4.868
 5870SOL    HW218510   4.959   5.153   4.730
 5871SOL     OW18511   3.906   4.065   0.135
 5871SOL    HW118512   3.870   4.071   0.228
 5871SOL    HW218513   3.847   4.116   0.072
 5872SOL     OW18514   4.137   5.730   7.000
 5872SOL    HW118515   4.218   5.746   0.034
 5872SOL    HW218516   4.056   5.759   0.027
 5873SOL     OW18517   2.286   2.834   0.188
 5873SOL    HW118518   2.216   2.829   0.259
 5873SOL    HW218519   2.250   2.798   0.102
 5874SOL     OW18520   2.635   3.080   1.175
 5874SOL    HW118521   2.605   3.162   1.225
 5874SOL    HW218522   2.638   3.100   1.077
 5875SOL     OW18523   3.883   1.344   0.533
 5875SOL    HW118524   3.791   1.307   0.525
 5875SOL    HW218525   3.926   1.310   0.617
 5876SOL     OW18526   3.324   3.195   6.576
 5876SOL    HW118527   3.355   3.119   6.519
 5876SOL    HW218528   3.231   3.220   6.552
 5877SOL     OW18529   6.214   6.333   1.555
 5877SOL    HW118530   6.312   6.320   1.536
 5877SOL    HW218531   6.197   6.428   1.579
 5878SOL     OW18532   5.261   5.853   2.797
 5878SOL    HW118533   5.302   5.882   2.883
 5878SOL    HW218534   5.166   5.825   2.813
 5879SOL     OW18535   3.759   3.358   6.181
 5879SOL    HW118536   3.691   3.325   6.116
 5879SOL    HW218537   3.847   3.315   6.162
 5880SOL     OW18538   4.830   3.582   5.587
 5880SOL    HW118539   4.751   3.643   5.580
 5880SOL    HW218540   4.858   3.554   5.495
 5881SOL     OW18541   1.288   6.571   2.472
 5881SOL    HW118542   1.284   6.520   2.386
 5881SOL    HW218543   1.383   6.577   2.502
 5882SOL     OW18544   1.177   6.557   5.773
 5882SOL    HW118545   1.254   6.503   5.740
 5882SOL    HW218546   1.182   6.650   5.736
 5883SOL     OW18547   0.037   2.982   0.622
 5883SOL    HW118548   0.084   2.951   0.540
 5883SOL    HW218549   0.079   2.941   0.703
 5884SOL     OW18550   6.454   1.208   3.746
 5884SOL    HW118551   6.381   1.218   3.814
 5884SOL    HW218552   6.421   1.153   3.670
 5885SOL     OW18553   0.430   5.554   0.630
 5885SOL    HW118554   0.444   5.603   0.544
 5885SOL    HW218555   0.509   5.566   0.689
 5886SOL     OW18556   1.377   3.008   3.027
 5886SOL    HW118557   1.425   3.072   3.087
 5886SOL    HW218558   1.278   3.019   3.039
 5887SOL     OW18559   2.222   1.957   1.556
 5887SOL    HW118560   2.205   2.051   1.528
 5887SOL    HW218561   2.149   1.926   1.617
 5888SOL     OW18562   2.770   0.136   0.709
 5888SOL    HW118563   2.869   0.140   0.723
 5888SOL    HW218564   2.744   0.199   0.636
 5889SOL     OW18565   6.939   1.639   1.233
 5889SOL    HW118566   6.896   1.564   1.183
 5889SOL    HW218567   6.947   1.614   1.330
 5890SOL     OW18568   2.392   6.363   2.630
 5890SOL    HW118569   2.350   6.381   2.719
 5890SOL    HW218570   2.482   6.405   2.626
 5891SOL     OW18571   3.133   3.517   0.421
 5891SOL    HW118572   3.127   3.503   0.322
 5891SOL    HW218573   3.056   3.573   0.452
 5892SOL     OW18574   0.351   3.884   0.613
 5892SOL    HW118575   0.355   3.789   0.582
 5892SOL    HW218576   0.444   3.919   0.624
 5893SOL     OW18577   0.990   5.357   1.747
 5893SOL    HW118578   0.990   5.359   1.647
 5893SOL    HW218579   1.083   5.373   1.781
 5894SOL     OW18580   0.964   5.843   5.880
 5894SOL    HW118581   1.057   5.865   5.851
 5894SOL    HW218582   0.958   5.746   5.903
 5895SOL     OW18583   6.286   3.004   5.076
 5895SOL    HW118584   6.192   2.972   5.090
 5895SOL    HW218585   6.292   3.100   5.103
 5896SOL     OW18586   5.338   1.642   1.710
 5896SOL    HW118587   5.242   1.664   1.691
 5896SOL    HW218588   5.396   1.702   1.654
 5897SOL     OW18589   3.874   1.265   1.845
 5897SOL    HW118590   3.808   1.327   1.888
 5897SOL    HW218591   3.830   1.176   1.831
 5898SOL     OW18592   1.624   1.589   5.662
 5898SOL    HW118593   1.624   1.545   5.572
 5898SOL    HW218594   1.671   1.530   5.728
 5899SOL     OW18595   6.437   5.695   6.321
 5899SOL    HW118596   6.498   5.620   6.345
 5899SOL    HW218597   6.486   5.782   6.325
 5900SOL     OW18598   0.025   5.384   3.281
 5900SOL    HW118599   0.112   5.342   3.256
 5900SOL    HW218600   0.040   5.452   3.352
 5901SOL     OW18601   1.329   0.092   6.634
 5901SOL    HW118602   1.289   0.003   6.657
 5901SOL    HW218603   1.347   0.095   6.535
 5902SOL     OW18604   5.812   3.759   4.701
 5902SOL    HW118605   5.767   3.688   4.647
 5902SOL    HW218606   5.753   3.784   4.778
 5903SOL     OW18607   5.447   2.702   6.882
 5903SOL    HW118608   5.454   2.613   6.927
 5903SOL    HW218609   5.525   2.714   6.820
 5904SOL     OW18610   1.528   5.090   1.872
 5904SOL    HW118611   1.617   5.056   1.904
 5904SOL    HW218612   1.470   5.014   1.845
 5905SOL     OW18613   5.445   0.898   3.698
 5905SOL    HW118614   5.482   0.987   3.724
 5905SOL    HW218615   5.350   0.909   3.668
 5906SOL     OW18616   5.385   1.254   5.457
 5906SOL    HW118617   5.470   1.258   5.404
 5906SOL    HW218618   5.380   1.167   5.506
 5907SOL     OW18619   1.526   1.233   0.384
 5907SOL    HW118620   1.539   1.153   0.325
 5907SOL    HW218621   1.615   1.270   0.410
 5908SOL     OW18622   4.118   3.229   7.011
 5908SOL    HW118623   4.062   3.286   0.047
 5908SOL    HW218624   4.097   3.249   6.915
 5909SOL     OW18625   0.428   4.590   5.559
 5909SOL    HW118626   0.407   4.671   5.503
 5909SOL    HW218627   0.344   4.537   5.570
 5910SOL     OW18628   1.726   4.018   1.713
 5910SOL    HW118629   1.722   4.077   1.794
 5910SOL    HW218630   1.738   3.923   1.741
 5911SOL     OW18631   6.717   5.186   6.374
 5911SOL    HW118632   6.645   5.190   6.305
 5911SOL    HW218633   6.729   5.276   6.415
 5912SOL     OW18634   5.985   3.107   6.940
 5912SOL    HW118635   5.902   3.062   6.907
 5912SOL    HW218636   5.982   3.114   0.017
 5913SOL     OW18637   2.253   2.545   5.531
 5913SOL    HW118638   2.244   2.643   5.545
 5913SOL    HW218639   2.347   2.523   5.505
 5914SOL     OW18640   2.363   5.868   0.466
 5914SOL    HW118641   2.444   5.852   0.410
 5914SOL    HW218642   2.379   5.834   0.558
 5915SOL     OW18643   5.548   2.749   2.898
 5915SOL    HW118644   5.570   2.732   2.802
 5915SOL    HW218645   5.520   2.664   2.942
 5916SOL     OW18646   4.215   0.314   5.953
 5916SOL    HW118647   4.295   0.365   5.919
 5916SOL    HW218648   4.172   0.266   5.877
 5917SOL     OW18649   3.554   2.880   3.317
 5917SOL    HW118650   3.503   2.840   3.393
 5917SOL    HW218651   3.496   2.944   3.267
 5918SOL     OW18652   1.444   3.594   4.099
 5918SOL    HW118653   1.432   3.691   4.081
 5918SOL    HW218654   1.506   3.555   4.030
 5919SOL     OW18655   3.137   2.684   0.605
 5919SOL    HW118656   3.222   2.736   0.598
 5919SOL    HW218657   3.073   2.734   0.664
 5920SOL     OW18658   3.259   6.856   0.013
 5920SOL    HW118659   3.173   6.829   0.055
 5920SOL    HW218660   3.280   6.796   6.959
 5921SOL     OW18661   3.873   5.125   6.028
 5921SOL    HW118662   3.968   5.140   6.000
 5921SOL    HW218663   3.812   5.162   5.958
 5922SOL     OW18664   6.566   4.901   3.210
 5922SOL    HW118665   6.590   4.808   3.238
 5922SOL    HW218666   6.571   4.962   3.289
 5923SOL     OW18667   6.520   0.436   3.731
 5923SOL    HW118668   6.494   0.465   3.823
 5923SOL    HW218669   6.592   0.367   3.737
 5924SOL     OW18670   5.171   2.659   4.946
 5924SOL    HW118671   5.146   2.603   4.867
 5924SOL    HW218672   5.153   2.608   5.030
 5925SOL     OW18673   5.337   5.902   2.234
 5925SOL    HW118674   5.409   5.968   2.214
 5925SOL    HW218675   5.289   5.878   2.149
 5926SOL     OW18676   3.721   5.288   1.711
 5926SOL    HW118677   3.691   5.202   1.671
 5926SOL    HW218678   3.695   5.291   1.807
 5927SOL     OW18679   2.861   5.709   1.356
 5927SOL    HW118680   2.836   5.795   1.400
 5927SOL    HW218681   2.826   5.632   1.410
 5928SOL     OW18682   1.633   0.836   2.045
 5928SOL    HW118683   1.598   0.911   2.102
 5928SOL    HW218684   1.702   0.786   2.097
 5929SOL     OW18685   0.933   6.714   5.653
 5929SOL    HW118686   0.956   6.768   5.572
 5929SOL    HW218687   0.928   6.618   5.629
 5930SOL     OW18688   6.247   1.448   4.103
 5930SOL    HW118689   6.326   1.499   4.069
 5930SOL    HW218690   6.212   1.491   4.186
 5931SOL     OW18691   5.996   5.250   1.857
 5931SOL    HW118692   5.910   5.224   1.812
 5931SOL    HW218693   6.024   5.179   1.921
 5932SOL     OW18694   2.161   6.507   0.899
 5932SOL    HW118695   2.256   6.517   0.928
 5932SOL    HW218696   2.117   6.434   0.951
 5933SOL     OW18697   0.445   3.777   2.356
 5933SOL    HW118698   0.499   3.718   2.297
 5933SOL    HW218699   0.369   3.725   2.394
 5934SOL     OW18700   3.733   3.528   3.090
 5934SOL    HW118701   3.791   3.449   3.070
 5934SOL    HW218702   3.681   3.511   3.174
 5935SOL     OW18703   3.355   4.084   4.595
 5935SOL    HW118704   3.294   4.087   4.674
 5935SOL    HW218705   3.450   4.093   4.625
 5936SOL     OW18706   5.047   4.432   6.503
 5936SOL    HW118707   4.988   4.352   6.497
 5936SOL    HW218708   5.045   4.483   6.417
 5937SOL     OW18709   0.689   3.873   1.214
 5937SOL    HW118710   0.767   3.923   1.250
 5937SOL    HW218711   0.703   3.775   1.227
 5938SOL     OW18712   1.871   4.593   3.470
 5938SOL    HW118713   1.905   4.594   3.564
 5938SOL    HW218714   1.814   4.512   3.456
 5939SOL     OW18715   3.349   0.694   3.328
 5939SOL    HW118716   3.314   0.776   3.372
 5939SOL    HW218717   3.321   0.694   3.232
 5940SOL     OW18718   3.572   6.611   2.407
 5940SOL    HW118719   3.502   6.553   2.365
 5940SOL    HW218720   3.547   6.707   2.396
 5941SOL     OW18721   6.040   4.836   1.816
 5941SOL    HW118722   6.086   4.818   1.903
 5941SOL    HW218723   6.109   4.843   1.743
 5942SOL     OW18724   3.970   3.197   6.179
 5942SOL    HW118725   3.964   3.109   6.225
 5942SOL    HW218726   3.995   3.184   6.083
 5943SOL     OW18727   2.031   5.650   0.496
 5943SOL    HW118728   1.957   5.584   0.501
 5943SOL    HW218729   2.106   5.612   0.441
 5944SOL     OW18730   4.821   1.415   2.441
 5944SOL    HW118731   4.732   1.460   2.433
 5944SOL    HW218732   4.881   1.469   2.499
 5945SOL     OW18733   6.662   4.864   5.054
 5945SOL    HW118734   6.723   4.912   4.990
 5945SOL    HW218735   6.678   4.897   5.147
 5946SOL     OW18736   3.361   4.146   5.603
 5946SOL    HW118737   3.402   4.093   5.529
 5946SOL    HW218738   3.340   4.084   5.679
 5947SOL     OW18739   4.214   3.331   1.834
 5947SOL    HW118740   4.278   3.255   1.823
 5947SOL    HW218741   4.131   3.299   1.879
 5948SOL     OW18742   3.715   4.925   3.023
 5948SOL    HW118743   3.668   4.988   3.086
 5948SOL    HW218744   3.814   4.942   3.027
 5949SOL     OW18745   3.865   4.836   1.163
 5949SOL    HW118746   3.801   4.760   1.153
 5949SOL    HW218747   3.814   4.921   1.172
 5950SOL     OW18748   5.899   2.081   4.371
 5950SOL    HW118749   5.902   2.169   4.419
 5950SOL    HW218750   5.957   2.015   4.419
 5951SOL     OW18751   1.301   6.485   4.237
 5951SOL    HW118752   1.349   6.496   4.324
 5951SOL    HW218753   1.207   6.456   4.254
 5952SOL     OW18754   6.564   5.863   3.968
 5952SOL    HW118755   6.468   5.851   3.943
 5952SOL    HW218756   6.613   5.905   3.892
 5953SOL     OW18757   6.796   3.160   5.179
 5953SOL    HW118758   6.864   3.231   5.201
 5953SOL    HW218759   6.843   3.073   5.165
 5954SOL     OW18760   6.840   4.566   5.948
 5954SOL    HW118761   6.925   4.517   5.966
 5954SOL    HW218762   6.848   4.660   5.979
 5955SOL     OW18763   5.497   5.472   1.845
 5955SOL    HW118764   5.589   5.492   1.880
 5955SOL    HW218765   5.431   5.483   1.919
 5956SOL     OW18766   3.839   2.059   0.048
 5956SOL    HW118767   3.900   2.014   7.005
 5956SOL    HW218768   3.851   2.017   0.138
 5957SOL     OW18769   5.413   6.475   6.363
 5957SOL    HW118770   5.508   6.449   6.342
 5957SOL    HW218771   5.413   6.560   6.416
 5958SOL     OW18772   6.616   6.294   2.040
 5958SOL    HW118773   6.706   6.250   2.040
 5958SOL    HW218774   6.592   6.320   1.946
 5959SOL     OW18775   3.109   2.152   5.620
 5959SOL    HW118776   3.016   2.187   5.608
 5959SOL    HW218777   3.168   2.187   5.547
 5960SOL     OW18778   2.863   0.235   3.857
 5960SOL    HW118779   2.937   0.296   3.833
 5960SOL    HW218780   2.780   0.288   3.877
 5961SOL     OW18781   3.418   0.941   4.893
 5961SOL    HW118782   3.377   0.867   4.840
 5961SOL    HW218783   3.444   1.015   4.832
 5962SOL     OW18784   5.097   5.592   2.757
 5962SOL    HW118785   5.172   5.608   2.821
 5962SOL    HW218786   5.010   5.600   2.806
 5963SOL     OW18787   3.952   3.674   2.992
 5963SOL    HW118788   4.013   3.617   3.048
 5963SOL    HW218789   3.857   3.651   3.013
 5964SOL     OW18790   6.749   5.248   6.911
 5964SOL    HW118791   6.698   5.197   6.979
 5964SOL    HW218792   6.697   5.330   6.884
 5965SOL     OW18793   1.599   2.445   6.389
 5965SOL    HW118794   1.619   2.377   6.460
 5965SOL    HW218795   1.579   2.533   6.433
 5966SOL     OW18796   2.987   5.614   4.925
 5966SOL    HW118797   3.022   5.556   4.851
 5966SOL    HW218798   3.047   5.606   5.005
 5967SOL     OW18799   4.642   6.446   2.752
 5967SOL    HW118800   4.678   6.525   2.802
 5967SOL    HW218801   4.689   6.439   2.664
 5968SOL     OW18802   6.596   1.840   2.913
 5968SOL    HW118803   6.651   1.764   2.879
 5968SOL    HW218804   6.531   1.868   2.843
 5969SOL     OW18805   6.033   3.197   4.215
 5969SOL    HW118806   6.004   3.164   4.305
 5969SOL    HW218807   5.989   3.284   4.195
 5970SOL     OW18808   1.117   3.821   2.734
 5970SOL    HW118809   1.161   3.782   2.815
 5970SOL    HW218810   1.124   3.921   2.738
 5971SOL     OW18811   2.228   6.979   3.196
 5971SOL    HW118812   2.189   7.011   3.110
 5971SOL    HW218813   2.168   7.006   3.271
 5972SOL     OW18814   4.622   6.415   1.004
 5972SOL    HW118815   4.690   6.422   1.077
 5972SOL    HW218816   4.656   6.458   0.921
 5973SOL     OW18817   1.980   4.702   2.730
 5973SOL    HW118818   2.043   4.756   2.674
 5973SOL    HW218819   1.951   4.621   2.679
 5974SOL     OW18820   6.757   4.041   6.201
 5974SOL    HW118821   6.735   4.137   6.181
 5974SOL    HW218822   6.688   4.003   6.262
 5975SOL     OW18823   3.841   2.372   1.161
 5975SOL    HW118824   3.750   2.394   1.195
 5975SOL    HW218825   3.897   2.336   1.235
 5976SOL     OW18826   3.263   2.983   4.546
 5976SOL    HW118827   3.347   2.964   4.597
 5976SOL    HW218828   3.190   2.922   4.578
 5977SOL     OW18829   1.856   4.256   2.173
 5977SOL    HW118830   1.762   4.287   2.163
 5977SOL    HW218831   1.918   4.324   2.134
 5978SOL     OW18832   5.345   3.827   2.641
 5978SOL    HW118833   5.392   3.807   2.727
 5978SOL    HW218834   5.252   3.792   2.645
 5979SOL     OW18835   6.142   0.449   3.774
 5979SOL    HW118836   6.195   0.374   3.733
 5979SOL    HW218837   6.102   0.419   3.860
 5980SOL     OW18838   4.537   4.363   0.253
 5980SOL    HW118839   4.609   4.364   0.184
 5980SOL    HW218840   4.504   4.456   0.269
 5981SOL     OW18841   6.319   1.560   1.872
 5981SOL    HW118842   6.413   1.575   1.842
 5981SOL    HW218843   6.313   1.471   1.918
 5982SOL     OW18844   6.360   2.139   6.530
 5982SOL    HW118845   6.430   2.199   6.492
 5982SOL    HW218846   6.328   2.077   6.458
 5983SOL     OW18847   1.891   2.350   4.114
 5983SOL    HW118848   1.988   2.328   4.124
 5983SOL    HW218849   1.844   2.274   4.070
 5984SOL     OW18850   0.003   6.201   4.458
 5984SOL    HW118851   0.022   6.284   4.511
 5984SOL    HW218852   0.087   6.150   4.444
 5985SOL     OW18853   5.492   2.150   3.489
 5985SOL    HW118854   5.454   2.165   3.580
 5985SOL    HW218855   5.590   2.171   3.490
 5986SOL     OW18856   3.099   3.036   3.383
 5986SOL    HW118857   3.057   2.983   3.456
 5986SOL    HW218858   3.039   3.114   3.360
 5987SOL     OW18859   4.655   0.111   5.472
 5987SOL    HW118860   4.592   0.185   5.495
 5987SOL    HW218861   4.730   0.109   5.539
 5988SOL     OW18862   4.290   0.024   4.710
 5988SOL    HW118863   4.194   7.017   4.711
 5988SOL    HW218864   4.341   6.996   4.779
 5989SOL     OW18865   2.084   0.109   6.388
 5989SOL    HW118866   2.150   0.161   6.443
 5989SOL    HW218867   2.091   0.137   6.292
 5990SOL     OW18868   3.567   4.388   0.588
 5990SOL    HW118869   3.477   4.363   0.554
 5990SOL    HW218870   3.623   4.305   0.597
 5991SOL     OW18871   3.971   5.110   5.240
 5991SOL    HW118872   3.889   5.112   5.297
 5991SOL    HW218873   3.945   5.107   5.143
 5992SOL     OW18874   3.794   1.205   4.113
 5992SOL    HW118875   3.794   1.219   4.212
 5992SOL    HW218876   3.884   1.228   4.076
 5993SOL     OW18877   2.748   5.974   5.591
 5993SOL    HW118878   2.838   5.948   5.554
 5993SOL    HW218879   2.759   6.006   5.685
 5994SOL     OW18880   6.130   2.258   2.173
 5994SOL    HW118881   6.049   2.267   2.114
 5994SOL    HW218882   6.203   2.213   2.122
 5995SOL     OW18883   6.884   5.313   1.078
 5995SOL    HW118884   6.796   5.332   1.123
 5995SOL    HW218885   6.957   5.315   1.147
 5996SOL     OW18886   0.213   5.989   0.019
 5996SOL    HW118887   0.216   6.076   6.993
 5996SOL    HW218888   0.285   5.929   7.007
 5997SOL     OW18889   0.613   0.297   1.765
 5997SOL    HW118890   0.539   0.251   1.814
 5997SOL    HW218891   0.693   0.303   1.825
 5998SOL     OW18892   5.064   2.102   2.432
 5998SOL    HW118893   5.125   2.098   2.511
 5998SOL    HW218894   5.082   2.025   2.371
 5999SOL     OW18895   1.363   1.714   3.527
 5999SOL    HW118896   1.382   1.785   3.459
 5999SOL    HW218897   1.268   1.721   3.557
 6000SOL     OW18898   4.114   4.891   2.260
 6000SOL    HW118899   4.061   4.934   2.332
 6000SOL    HW218900   4.053   4.861   2.186
 6001SOL     OW18901   6.931   3.250   6.809
 6001SOL    HW118902   6.997   3.323   6.830
 6001SOL    HW218903   6.876   3.277   6.730
 6002SOL     OW18904   0.714   0.110   1.458
 6002SOL    HW118905   0.691   0.013   1.470
 6002SOL    HW218906   0.633   0.166   1.475
 6003SOL     OW18907   5.664   3.837   4.916
 6003SOL    HW118908   5.590   3.835   4.983
 6003SOL    HW218909   5.725   3.914   4.935
 6004SOL     OW18910   0.529   3.419   3.062
 6004SOL    HW118911   0.571   3.412   3.152
 6004SOL    HW218912   0.431   3.440   3.072
 6005SOL     OW18913   4.178   5.378   4.125
 6005SOL    HW118914   4.145   5.289   4.093
 6005SOL    HW218915   4.268   5.397   4.085
 6006SOL     OW18916   2.880   6.790   6.405
 6006SOL    HW118917   2.838   6.701   6.425
 6006SOL    HW218918   2.836   6.861   6.461
 6007SOL     OW18919   5.122   2.845   3.582
 6007SOL    HW118920   5.186   2.778   3.545
 6007SOL    HW218921   5.029   2.811   3.571
 6008SOL     OW18922   3.355   5.257   5.934
 6008SOL    HW118923   3.397   5.284   5.847
 6008SOL    HW218924   3.306   5.171   5.922
 6009SOL     OW18925   2.953   1.857   4.784
 6009SOL    HW118926   2.869   1.868   4.731
 6009SOL    HW218927   2.982   1.946   4.820
 6010SOL     OW18928   2.299   4.244   2.517
 6010SOL    HW118929   2.286   4.271   2.421
 6010SOL    HW218930   2.299   4.145   2.524
 6011SOL     OW18931   5.394   2.718   1.682
 6011SOL    HW118932   5.330   2.691   1.754
 6011SOL    HW218933   5.368   2.672   1.597
 6012SOL     OW18934   0.077   2.105   6.872
 6012SOL    HW118935   0.054   2.202   6.872
 6012SOL    HW218936   0.173   2.094   6.844
 6013SOL     OW18937   6.514   0.995   1.870
 6013SOL    HW118938   6.595   1.019   1.924
 6013SOL    HW218939   6.432   1.025   1.917
 6014SOL     OW18940   6.200   1.573   0.683
 6014SOL    HW118941   6.185   1.482   0.645
 6014SOL    HW218942   6.204   1.640   0.609
 6015SOL     OW18943   5.778   2.352   4.831
 6015SOL    HW118944   5.856   2.378   4.775
 6015SOL    HW218945   5.704   2.418   4.817
 6016SOL     OW18946   0.352   0.695   5.498
 6016SOL    HW118947   0.320   0.781   5.539
 6016SOL    HW218948   0.399   0.715   5.412
 6017SOL     OW18949   5.769   5.274   3.739
 6017SOL    HW118950   5.844   5.306   3.797
 6017SOL    HW218951   5.784   5.177   3.717
 6018SOL     OW18952   3.199   2.912   0.333
 6018SOL    HW118953   3.280   2.854   0.338
 6018SOL    HW218954   3.195   2.972   0.412
 6019SOL     OW18955   4.692   1.433   3.622
 6019SOL    HW118956   4.705   1.439   3.721
 6019SOL    HW218957   4.705   1.524   3.582
 6020SOL     OW18958   3.490   0.075   2.545
 6020SOL    HW118959   3.508   0.107   2.452
 6020SOL    HW218960   3.402   0.110   2.576
 6021SOL     OW18961   4.620   0.809   2.922
 6021SOL    HW118962   4.590   0.757   3.002
 6021SOL    HW218963   4.600   0.756   2.839
 6022SOL     OW18964   5.026   1.383   3.031
 6022SOL    HW118965   4.957   1.401   2.962
 6022SOL    HW218966   4.985   1.389   3.122
 6023SOL     OW18967   6.539   0.850   3.347
 6023SOL    HW118968   6.608   0.884   3.283
 6023SOL    HW218969   6.582   0.788   3.412
 6024SOL     OW18970   0.471   4.903   2.497
 6024SOL    HW118971   0.420   4.888   2.582
 6024SOL    HW218972   0.533   4.981   2.508
 6025SOL     OW18973   4.434   0.933   2.040
 6025SOL    HW118974   4.420   1.032   2.040
 6025SOL    HW218975   4.453   0.901   2.133
 6026SOL     OW18976   0.190   4.993   5.094
 6026SOL    HW118977   0.181   5.091   5.076
 6026SOL    HW218978   0.285   4.972   5.114
 6027SOL     OW18979   1.992   4.125   6.117
 6027SOL    HW118980   1.998   4.214   6.072
 6027SOL    HW218981   1.946   4.061   6.055
 6028SOL     OW18982   1.652   4.424   0.522
 6028SOL    HW118983   1.555   4.408   0.504
 6028SOL    HW218984   1.663   4.505   0.579
 6029SOL     OW18985   1.755   6.109   0.601
 6029SOL    HW118986   1.673   6.083   0.551
 6029SOL    HW218987   1.762   6.209   0.607
 6030SOL     OW18988   2.544   1.071   2.276
 6030SOL    HW118989   2.567   1.008   2.202
 6030SOL    HW218990   2.547   1.023   2.363
 6031SOL     OW18991   5.333   6.444   6.094
 6031SOL    HW118992   5.338   6.495   6.180
 6031SOL    HW218993   5.253   6.475   6.042
 6032SOL     OW18994   1.566   3.940   2.658
 6032SOL    HW118995   1.590   3.942   2.561
 6032SOL    HW218996   1.526   3.852   2.680
 6033SOL     OW18997   2.248   1.969   3.293
 6033SOL    HW118998   2.206   2.044   3.242
 6033SOL    HW218999   2.255   1.994   3.390
 6034SOL     OW19000   2.502   4.699   4.655
 6034SOL    HW119001   2.535   4.691   4.749
 6034SOL    HW219002   2.510   4.610   4.609
 6035SOL     OW19003   4.984   0.874   3.867
 6035SOL    HW119004   4.911   0.813   3.896
 6035SOL    HW219005   5.071   0.844   3.906
 6036SOL     OW19006   0.153   6.825   4.837
 6036SOL    HW119007   0.152   6.804   4.935
 6036SOL    HW219008   0.175   6.922   4.825
 6037SOL     OW19009   4.734   4.536   5.637
 6037SOL    HW119010   4.695   4.487   5.715
 6037SOL    HW219011   4.676   4.615   5.616
 6038SOL     OW19012   0.043   3.316   5.883
 6038SOL    HW119013   0.054   3.383   5.809
 6038SOL    HW219014   7.019   3.360   5.960
 6039SOL     OW19015   3.326   3.655   2.419
 6039SOL    HW119016   3.304   3.701   2.333
 6039SOL    HW219017   3.403   3.592   2.404
 6040SOL     OW19018   1.105   1.611   5.966
 6040SOL    HW119019   1.112   1.513   5.987
 6040SOL    HW219020   1.122   1.624   5.868
 6041SOL     OW19021   0.918   1.970   0.005
 6041SOL    HW119022   0.945   1.874   0.006
 6041SOL    HW219023   0.819   1.977   0.016
 6042SOL     OW19024   5.388   4.957   2.205
 6042SOL    HW119025   5.363   4.926   2.297
 6042SOL    HW219026   5.481   4.995   2.207
 6043SOL     OW19027   1.290   4.995   4.581
 6043SOL    HW119028   1.324   5.085   4.609
 6043SOL    HW219029   1.365   4.942   4.541
 6044SOL     OW19030   0.299   1.436   0.961
 6044SOL    HW119031   0.265   1.528   0.981
 6044SOL    HW219032   0.240   1.369   1.006
 6045SOL     OW19033   5.782   5.590   0.703
 6045SOL    HW119034   5.702   5.646   0.679
 6045SOL    HW219035   5.755   5.520   0.769
 6046SOL     OW19036   2.830   2.594   0.069
 6046SOL    HW119037   2.919   2.591   0.024
 6046SOL    HW219038   2.769   2.526   0.029
 6047SOL     OW19039   6.200   0.838   4.348
 6047SOL    HW119040   6.151   0.808   4.267
 6047SOL    HW219041   6.294   0.862   4.324
 6048SOL     OW19042   3.850   0.719   3.902
 6048SOL    HW119043   3.862   0.807   3.947
 6048SOL    HW219044   3.937   0.688   3.864
 6049SOL     OW19045   4.444   3.447   6.671
 6049SOL    HW119046   4.508   3.511   6.713
 6049SOL    HW219047   4.495   3.379   6.618
 6050SOL     OW19048   3.821   4.273   5.549
 6050SOL    HW119049   3.751   4.272   5.477
 6050SOL    HW219050   3.837   4.180   5.581
 6051SOL     OW19051   2.194   2.459   2.415
 6051SOL    HW119052   2.153   2.440   2.326
 6051SOL    HW219053   2.273   2.518   2.403
 6052SOL     OW19054   6.823   0.962   0.045
 6052SOL    HW119055   6.838   0.863   0.036
 6052SOL    HW219056   6.826   0.988   0.141
 6053SOL     OW19057   3.667   0.472   6.836
 6053SOL    HW119058   3.609   0.542   6.876
 6053SOL    HW219059   3.612   0.410   6.781
 6054SOL     OW19060   1.770   4.831   1.131
 6054SOL    HW119061   1.803   4.875   1.047
 6054SOL    HW219062   1.741   4.738   1.111
 6055SOL     OW19063   5.122   0.977   5.517
 6055SOL    HW119064   5.041   1.000   5.571
 6055SOL    HW219065   5.093   0.933   5.432
 6056SOL     OW19066   4.304   1.256   5.885
 6056SOL    HW119067   4.352   1.206   5.813
 6056SOL    HW219068   4.218   1.210   5.907
 6057SOL     OW19069   4.488   0.867   5.246
 6057SOL    HW119070   4.481   0.769   5.230
 6057SOL    HW219071   4.462   0.916   5.162
 6058SOL     OW19072   5.154   3.250   4.483
 6058SOL    HW119073   5.065   3.230   4.442
 6058SOL    HW219074   5.227   3.228   4.418
 6059SOL     OW19075   4.825   5.106   6.198
 6059SOL    HW119076   4.812   5.180   6.132
 6059SOL    HW219077   4.914   5.062   6.182
 6060SOL     OW19078   3.982   4.370   5.746
 6060SOL    HW119079   3.919   4.337   5.675
 6060SOL    HW219080   4.011   4.463   5.723
 6061SOL     OW19081   3.542   2.202   6.544
 6061SOL    HW119082   3.481   2.124   6.555
 6061SOL    HW219083   3.489   2.281   6.512
 6062SOL     OW19084   2.150   1.038   5.128
 6062SOL    HW119085   2.067   1.090   5.149
 6062SOL    HW219086   2.153   0.955   5.184
 6063SOL     OW19087   4.369   0.339   6.636
 6063SOL    HW119088   4.354   0.383   6.725
 6063SOL    HW219089   4.315   0.255   6.630
 6064SOL     OW19090   1.665   5.595   2.844
 6064SOL    HW119091   1.668   5.689   2.876
 6064SOL    HW219092   1.664   5.593   2.744
 6065SOL     OW19093   6.134   6.805   0.862
 6065SOL    HW119094   6.096   6.717   0.832
 6065SOL    HW219095   6.058   6.866   0.886
 6066SOL     OW19096   4.524   1.872   1.249
 6066SOL    HW119097   4.532   1.969   1.222
 6066SOL    HW219098   4.548   1.815   1.170
 6067SOL     OW19099   6.496   1.368   5.942
 6067SOL    HW119100   6.497   1.278   5.898
 6067SOL    HW219101   6.537   1.360   6.033
 6068SOL     OW19102   4.869   2.938   4.668
 6068SOL    HW119103   4.915   2.936   4.757
 6068SOL    HW219104   4.851   2.844   4.638
 6069SOL     OW19105   0.196   3.920   5.524
 6069SOL    HW119106   0.115   3.977   5.544
 6069SOL    HW219107   0.166   3.834   5.483
 6070SOL     OW19108   4.118   1.685   6.466
 6070SOL    HW119109   4.085   1.778   6.449
 6070SOL    HW219110   4.199   1.688   6.524
 6071SOL     OW19111   4.228   5.830   5.803
 6071SOL    HW119112   4.277   5.908   5.763
 6071SOL    HW219113   4.201   5.766   5.730
 6072SOL     OW19114   1.328   2.275   1.701
 6072SOL    HW119115   1.319   2.372   1.726
 6072SOL    HW219116   1.238   2.240   1.675
 6073SOL     OW19117   6.396   3.232   0.252
 6073SOL    HW119118   6.298   3.228   0.233
 6073SOL    HW219119   6.416   3.181   0.336
 6074SOL     OW19120   0.861   6.904   4.596
 6074SOL    HW119121   0.840   6.884   4.692
 6074SOL    HW219122   0.877   6.818   4.546
 6075SOL     OW19123   6.773   3.366   6.987
 6075SOL    HW119124   6.685   3.328   7.018
 6075SOL    HW219125   6.817   3.301   6.925
 6076SOL     OW19126   2.205   6.626   4.696
 6076SOL    HW119127   2.272   6.629   4.622
 6076SOL    HW219128   2.143   6.704   4.688
 6077SOL     OW19129   5.929   5.849   2.612
 6077SOL    HW119130   5.868   5.773   2.635
 6077SOL    HW219131   6.014   5.840   2.663
 6078SOL     OW19132   3.426   5.175   3.774
 6078SOL    HW119133   3.455   5.232   3.851
 6078SOL    HW219134   3.403   5.234   3.696
 6079SOL     OW19135   2.262   3.387   0.184
 6079SOL    HW119136   2.253   3.392   0.084
 6079SOL    HW219137   2.198   3.320   0.220
 6080SOL     OW19138   6.277   1.781   1.086
 6080SOL    HW119139   6.371   1.752   1.102
 6080SOL    HW219140   6.270   1.820   0.994
 6081SOL     OW19141   6.709   3.349   4.084
 6081SOL    HW119142   6.653   3.371   4.004
 6081SOL    HW219143   6.795   3.399   4.080
 6082SOL     OW19144   3.791   0.244   2.963
 6082SOL    HW119145   3.836   0.253   3.052
 6082SOL    HW219146   3.860   0.241   2.891
 6083SOL     OW19147   1.253   5.393   6.627
 6083SOL    HW119148   1.164   5.426   6.595
 6083SOL    HW219149   1.324   5.457   6.597
 6084SOL     OW19150   6.260   5.306   4.672
 6084SOL    HW119151   6.197   5.232   4.695
 6084SOL    HW219152   6.333   5.271   4.614
 6085SOL     OW19153   0.035   4.033   7.000
 6085SOL    HW119154   0.035   4.082   6.914
 6085SOL    HW219155   6.996   3.955   6.994
 6086SOL     OW19156   4.131   1.424   4.223
 6086SOL    HW119157   4.084   1.409   4.136
 6086SOL    HW219158   4.119   1.519   4.251
 6087SOL     OW19159   5.454   6.784   6.917
 6087SOL    HW119160   5.514   6.856   6.953
 6087SOL    HW219161   5.401   6.820   6.840
 6088SOL     OW19162   0.324   6.690   4.649
 6088SOL    HW119163   0.323   6.747   4.567
 6088SOL    HW219164   0.258   6.726   4.715
 6089SOL     OW19165   0.660   3.718   0.742
 6089SOL    HW119166   0.752   3.707   0.781
 6089SOL    HW219167   0.596   3.657   0.788
 6090SOL     OW19168   0.754   6.180   6.085
 6090SOL    HW119169   0.721   6.132   6.166
 6090SOL    HW219170   0.713   6.272   6.082
 6091SOL     OW19171   6.599   1.567   1.858
 6091SOL    HW119172   6.626   1.479   1.899
 6091SOL    HW219173   6.658   1.640   1.894
 6092SOL     OW19174   2.463   0.969   2.542
 6092SOL    HW119175   2.442   0.961   2.639
 6092SOL    HW219176   2.378   0.984   2.490
 6093SOL     OW19177   1.889   3.518   1.222
 6093SOL    HW119178   1.938   3.548   1.141
 6093SOL    HW219179   1.921   3.569   1.302
 6094SOL     OW19180   1.440   1.675   1.107
 6094SOL    HW119181   1.450   1.578   1.086
 6094SOL    HW219182   1.527   1.711   1.142
 6095SOL     OW19183   5.310   3.194   7.016
 6095SOL    HW119184   5.257   3.248   0.059
 6095SOL    HW219185   5.397   3.166   0.035
 6096SOL     OW19186   5.144   1.318   3.854
 6096SOL    HW119187   5.066   1.257   3.872
 6096SOL    HW219188   5.178   1.302   3.762
 6097SOL     OW19189   2.209   0.988   2.427
 6097SOL    HW119190   2.142   1.059   2.449
 6097SOL    HW219191   2.162   0.903   2.405
 6098SOL     OW19192   2.162   2.671   6.132
 6098SOL    HW119193   2.235   2.661   6.065
 6098SOL    HW219194   2.116   2.583   6.145
 6099SOL     OW19195   5.476   5.726   5.182
 6099SOL    HW119196   5.450   5.789   5.255
 6099SOL    HW219197   5.549   5.766   5.128
 6100SOL     OW19198   6.560   3.358   6.346
 6100SOL    HW119199   6.580   3.291   6.275
 6100SOL    HW219200   6.464   3.384   6.341
 6101SOL     OW19201   6.754   2.073   5.606
 6101SOL    HW119202   6.740   2.027   5.694
 6101SOL    HW219203   6.669   2.119   5.579
 6102SOL     OW19204   3.072   0.753   4.997
 6102SOL    HW119205   3.015   0.825   5.037
 6102SOL    HW219206   3.107   0.783   4.908
 6103SOL     OW19207   0.261   0.683   4.040
 6103SOL    HW119208   0.198   0.762   4.037
 6103SOL    HW219209   0.350   0.710   4.002
 6104SOL     OW19210   5.711   1.863   0.007
 6104SOL    HW119211   5.771   1.890   0.082
 6104SOL    HW219212   5.685   1.945   6.978
 6105SOL     OW19213   3.625   5.702   6.173
 6105SOL    HW119214   3.698   5.770   6.173
 6105SOL    HW219215   3.551   5.732   6.234
 6106SOL     OW19216   2.868   4.933   6.525
 6106SOL    HW119217   2.905   4.892   6.441
 6106SOL    HW219218   2.792   4.994   6.500
 6107SOL     OW19219   2.236   4.697   4.933
 6107SOL    HW119220   2.149   4.649   4.947
 6107SOL    HW219221   2.226   4.764   4.860
 6108SOL     OW19222   0.730   2.315   4.053
 6108SOL    HW119223   0.783   2.390   4.013
 6108SOL    HW219224   0.788   2.234   4.061
 6109SOL     OW19225   4.874   2.677   0.481
 6109SOL    HW119226   4.972   2.668   0.496
 6109SOL    HW219227   4.858   2.721   0.393
 6110SOL     OW19228   3.459   2.218   5.941
 6110SOL    HW119229   3.524   2.282   5.981
 6110SOL    HW219230   3.366   2.244   5.966
 6111SOL     OW19231   0.892   4.770   3.008
 6111SOL    HW119232   0.904   4.848   3.069
 6111SOL    HW219233   0.875   4.688   3.062
 6112SOL     OW19234   1.986   1.860   3.214
 6112SOL    HW119235   1.979   1.804   3.132
 6112SOL    HW219236   2.081   1.887   3.228
 6113SOL     OW19237   1.026   0.612   5.942
 6113SOL    HW119238   0.943   0.570   5.978
 6113SOL    HW219239   1.103   0.593   6.003
 6114SOL     OW19240   5.355   5.462   6.903
 6114SOL    HW119241   5.275   5.452   6.961
 6114SOL    HW219242   5.438   5.453   6.958
 6115SOL     OW19243   4.926   5.223   3.114
 6115SOL    HW119244   4.981   5.222   3.030
 6115SOL    HW219245   4.886   5.314   3.125
 6116SOL     OW19246   2.777   1.069   1.564
 6116SOL    HW119247   2.858   1.025   1.602
 6116SOL    HW219248   2.784   1.070   1.464
 6117SOL     OW19249   5.773   6.785   4.339
 6117SOL    HW119250   5.814   6.832   4.417
 6117SOL    HW219251   5.687   6.831   4.314
 6118SOL     OW19252   6.363   1.542   2.656
 6118SOL    HW119253   6.339   1.528   2.752
 6118SOL    HW219254   6.444   1.488   2.634
 6119SOL     OW19255   0.590   4.881   4.819
 6119SOL    HW119256   0.574   4.958   4.757
 6119SOL    HW219257   0.631   4.806   4.768
 6120SOL     OW19258   3.319   0.195   3.934
 6120SOL    HW119259   3.296   0.118   3.874
 6120SOL    HW219260   3.314   0.280   3.881
 6121SOL     OW19261   0.422   2.697   3.558
 6121SOL    HW119262   0.418   2.724   3.462
 6121SOL    HW219263   0.469   2.768   3.611
 6122SOL     OW19264   4.006   6.174   3.123
 6122SOL    HW119265   3.973   6.081   3.112
 6122SOL    HW219266   3.937   6.229   3.171
 6123SOL     OW19267   6.879   0.978   1.353
 6123SOL    HW119268   6.795   0.932   1.327
 6123SOL    HW219269   6.858   1.061   1.404
 6124SOL     OW19270   3.331   0.114   5.353
 6124SOL    HW119271   3.424   0.141   5.326
 6124SOL    HW219272   3.265   0.174   5.309
 6125SOL     OW19273   1.738   6.203   1.690
 6125SOL    HW119274   1.821   6.256   1.671
 6125SOL    HW219275   1.755   6.106   1.669
 6126SOL     OW19276   4.975   4.915   3.810
 6126SOL    HW119277   4.929   5.001   3.788
 6126SOL    HW219278   5.046   4.932   3.878
 6127SOL     OW19279   1.986   6.620   1.454
 6127SOL    HW119280   2.016   6.705   1.497
 6127SOL    HW219281   2.022   6.615   1.361
 6128SOL     OW19282   0.360   3.015   0.597
 6128SOL    HW119283   0.394   3.064   0.677
 6128SOL    HW219284   0.263   3.036   0.583
 6129SOL     OW19285   6.061   3.670   2.666
 6129SOL    HW119286   6.136   3.644   2.605
 6129SOL    HW219287   5.981   3.697   2.611
 6130SOL     OW19288   5.718   2.877   3.528
 6130SOL    HW119289   5.626   2.863   3.490
 6130SOL    HW219290   5.757   2.789   3.555
 6131SOL     OW19291   0.233   1.672   5.970
 6131SOL    HW119292   0.136   1.668   5.947
 6131SOL    HW219293   0.245   1.645   6.066
 6132SOL     OW19294   3.719   2.294   0.078
 6132SOL    HW119295   3.759   2.205   0.055
 6132SOL    HW219296   3.756   2.364   0.016
 6133SOL     OW19297   0.741   3.437   1.619
 6133SOL    HW119298   0.668   3.437   1.551
 6133SOL    HW219299   0.747   3.527   1.662
 6134SOL     OW19300   3.348   3.448   6.834
 6134SOL    HW119301   3.305   3.527   6.790
 6134SOL    HW219302   3.301   3.428   6.920
 6135SOL     OW19303   6.264   6.850   1.103
 6135SOL    HW119304   6.281   6.943   1.138
 6135SOL    HW219305   6.241   6.854   1.006
 6136SOL     OW19306   1.351   1.599   2.459
 6136SOL    HW119307   1.265   1.554   2.433
 6136SOL    HW219308   1.394   1.639   2.378
 6137SOL     OW19309   3.222   6.763   5.637
 6137SOL    HW119310   3.262   6.689   5.691
 6137SOL    HW219311   3.292   6.802   5.577
 6138SOL     OW19312   3.776   6.421   2.416
 6138SOL    HW119313   3.791   6.413   2.318
 6138SOL    HW219314   3.742   6.513   2.437
 6139SOL     OW19315   1.715   4.289   5.226
 6139SOL    HW119316   1.651   4.280   5.302
 6139SOL    HW219317   1.802   4.246   5.252
 6140SOL     OW19318   1.123   0.040   1.907
 6140SOL    HW119319   1.124   6.966   1.928
 6140SOL    HW219320   1.195   0.060   1.840
 6141SOL     OW19321   0.106   5.790   5.633
 6141SOL    HW119322   0.153   5.875   5.657
 6141SOL    HW219323   0.017   5.811   5.592
 6142SOL     OW19324   6.797   3.854   0.892
 6142SOL    HW119325   6.773   3.947   0.920
 6142SOL    HW219326   6.727   3.791   0.924
 6143SOL     OW19327   6.234   5.229   6.186
 6143SOL    HW119328   6.249   5.179   6.100
 6143SOL    HW219329   6.152   5.286   6.177
 6144SOL     OW19330   0.115   3.817   3.266
 6144SOL    HW119331   0.084   3.722   3.276
 6144SOL    HW219332   0.215   3.819   3.267
 6145SOL     OW19333   5.217   5.129   3.191
 6145SOL    HW119334   5.279   5.117   3.268
 6145SOL    HW219335   5.126   5.151   3.225
 6146SOL     OW19336   5.499   1.430   3.199
 6146SOL    HW119337   5.569   1.358   3.200
 6146SOL    HW219338   5.542   1.518   3.180
 6147SOL     OW19339   2.246   4.532   2.996
 6147SOL    HW119340   2.346   4.539   2.995
 6147SOL    HW219341   2.219   4.453   2.941
 6148SOL     OW19342   5.943   6.120   4.497
 6148SOL    HW119343   5.903   6.093   4.584
 6148SOL    HW219344   5.996   6.204   4.510
 6149SOL     OW19345   3.288   4.978   3.089
 6149SOL    HW119346   3.301   5.056   3.150
 6149SOL    HW219347   3.241   4.905   3.139
 6150SOL     OW19348   4.840   5.743   6.753
 6150SOL    HW119349   4.810   5.796   6.674
 6150SOL    HW219350   4.781   5.664   6.765
 6151SOL     OW19351   5.036   2.302   5.396
 6151SOL    HW119352   5.131   2.310   5.367
 6151SOL    HW219353   4.991   2.232   5.341
 6152SOL     OW19354   5.654   4.680   6.552
 6152SOL    HW119355   5.563   4.699   6.589
 6152SOL    HW219356   5.687   4.592   6.587
 6153SOL     OW19357   4.619   3.934   1.403
 6153SOL    HW119358   4.548   3.982   1.351
 6153SOL    HW219359   4.611   3.835   1.387
 6154SOL     OW19360   5.996   2.022   2.195
 6154SOL    HW119361   6.030   2.110   2.227
 6154SOL    HW219362   6.003   1.955   2.269
 6155SOL     OW19363   0.299   3.329   4.235
 6155SOL    HW119364   0.277   3.342   4.139
 6155SOL    HW219365   0.375   3.389   4.261
 6156SOL     OW19366   5.453   6.514   3.154
 6156SOL    HW119367   5.443   6.499   3.055
 6156SOL    HW219368   5.444   6.612   3.173
 6157SOL     OW19369   1.909   2.048   3.719
 6157SOL    HW119370   1.901   2.073   3.622
 6157SOL    HW219371   1.846   1.973   3.739
 6158SOL     OW19372   4.292   0.497   6.866
 6158SOL    HW119373   4.270   0.594   6.866
 6158SOL    HW219374   4.217   0.446   6.909
 6159SOL     OW19375   5.413   2.137   0.005
 6159SOL    HW119376   5.375   2.055   0.047
 6159SOL    HW219377   5.341   2.205   7.015
 6160SOL     OW19378   5.133   5.697   0.918
 6160SOL    HW119379   5.080   5.652   0.990
 6160SOL    HW219380   5.107   5.793   0.912
 6161SOL     OW19381   5.849   0.703   5.862
 6161SOL    HW119382   5.764   0.652   5.878
 6161SOL    HW219383   5.877   0.748   5.947
 6162SOL     OW19384   1.253   5.425   4.144
 6162SOL    HW119385   1.193   5.368   4.089
 6162SOL    HW219386   1.289   5.500   4.088
 6163SOL     OW19387   5.906   3.904   0.814
 6163SOL    HW119388   5.982   3.844   0.839
 6163SOL    HW219389   5.859   3.867   0.735
 6164SOL     OW19390   2.562   1.615   1.157
 6164SOL    HW119391   2.639   1.607   1.095
 6164SOL    HW219392   2.542   1.526   1.198
 6165SOL     OW19393   4.147   6.178   0.262
 6165SOL    HW119394   4.062   6.161   0.210
 6165SOL    HW219395   4.162   6.103   0.326
 6166SOL     OW19396   3.128   2.001   6.061
 6166SOL    HW119397   3.107   1.955   6.147
 6166SOL    HW219398   3.075   2.085   6.054
 6167SOL     OW19399   0.252   4.565   2.501
 6167SOL    HW119400   0.310   4.518   2.434
 6167SOL    HW219401   0.169   4.511   2.515
 6168SOL     OW19402   0.261   3.948   1.705
 6168SOL    HW119403   0.330   3.945   1.634
 6168SOL    HW219404   0.300   3.915   1.791
 6169SOL     OW19405   2.268   4.228   2.219
 6169SOL    HW119406   2.175   4.202   2.247
 6169SOL    HW219407   2.318   4.146   2.191
 6170SOL     OW19408   0.046   3.097   5.348
 6170SOL    HW119409   0.126   3.042   5.323
 6170SOL    HW219410   0.057   3.189   5.311
 6171SOL     OW19411   0.952   0.466   0.520
 6171SOL    HW119412   0.915   0.504   0.605
 6171SOL    HW219413   1.014   0.533   0.478
 6172SOL     OW19414   0.592   2.723   3.099
 6172SOL    HW119415   0.619   2.666   3.021
 6172SOL    HW219416   0.667   2.785   3.121
 6173SOL     OW19417   6.811   6.922   2.767
 6173SOL    HW119418   6.812   6.980   2.685
 6173SOL    HW219419   6.861   6.967   2.840
 6174SOL     OW19420   5.392   4.417   2.597
 6174SOL    HW119421   5.306   4.467   2.596
 6174SOL    HW219422   5.430   4.413   2.505
 6175SOL     OW19423   2.493   1.251   5.126
 6175SOL    HW119424   2.517   1.165   5.082
 6175SOL    HW219425   2.504   1.326   5.061
 6176SOL     OW19426   4.079   4.306   5.280
 6176SOL    HW119427   4.140   4.356   5.219
 6176SOL    HW219428   4.130   4.273   5.359
 6177SOL     OW19429   5.530   1.161   1.784
 6177SOL    HW119430   5.485   1.250   1.780
 6177SOL    HW219431   5.563   1.136   1.692
 6178SOL     OW19432   5.022   3.982   2.311
 6178SOL    HW119433   5.107   3.985   2.362
 6178SOL    HW219434   4.996   3.887   2.292
 6179SOL     OW19435   6.549   5.045   1.956
 6179SOL    HW119436   6.515   5.068   2.047
 6179SOL    HW219437   6.577   5.129   1.909
 6180SOL     OW19438   3.026   4.975   0.526
 6180SOL    HW119439   2.969   4.893   0.519
 6180SOL    HW219440   3.122   4.949   0.527
 6181SOL     OW19441   4.706   5.065   6.665
 6181SOL    HW119442   4.607   5.057   6.674
 6181SOL    HW219443   4.728   5.126   6.589
 6182SOL     OW19444   3.051   3.340   0.187
 6182SOL    HW119445   3.047   3.355   0.089
 6182SOL    HW219446   2.999   3.257   0.210
 6183SOL     OW19447   1.394   2.375   1.210
 6183SOL    HW119448   1.352   2.462   1.185
 6183SOL    HW219449   1.345   2.300   1.165
 6184SOL     OW19450   2.746   0.903   6.289
 6184SOL    HW119451   2.832   0.855   6.276
 6184SOL    HW219452   2.709   0.931   6.201
 6185SOL     OW19453   3.702   2.941   5.232
 6185SOL    HW119454   3.688   2.901   5.141
 6185SOL    HW219455   3.634   2.903   5.296
 6186SOL     OW19456   5.977   1.903   1.714
 6186SOL    HW119457   5.987   1.881   1.811
 6186SOL    HW219458   6.038   1.977   1.689
 6187SOL     OW19459   5.216   2.327   5.194
 6187SOL    HW119460   5.276   2.358   5.120
 6187SOL    HW219461   5.255   2.245   5.236
 6188SOL     OW19462   2.090   1.829   5.207
 6188SOL    HW119463   2.036   1.853   5.287
 6188SOL    HW219464   2.134   1.740   5.222
 6189SOL     OW19465   5.000   6.364   1.951
 6189SOL    HW119466   4.913   6.315   1.951
 6189SOL    HW219467   5.025   6.388   2.046
 6190SOL     OW19468   6.261   2.342   5.518
 6190SOL    HW119469   6.322   2.268   5.492
 6190SOL    HW219470   6.187   2.306   5.575
 6191SOL     OW19471   3.117   3.619   6.746
 6191SOL    HW119472   3.036   3.591   6.695
 6191SOL    HW219473   3.154   3.703   6.706
 6192SOL     OW19474   2.348   1.937   0.151
 6192SOL    HW119475   2.251   1.925   0.131
 6192SOL    HW219476   2.359   1.999   0.229
 6193SOL     OW19477   5.169   5.707   0.458
 6193SOL    HW119478   5.253   5.697   0.405
 6193SOL    HW219479   5.178   5.656   0.544
 6194SOL     OW19480   6.822   0.645   6.266
 6194SOL    HW119481   6.799   0.619   6.360
 6194SOL    HW219482   6.807   0.744   6.255
 6195SOL     OW19483   6.262   0.411   5.426
 6195SOL    HW119484   6.324   0.383   5.500
 6195SOL    HW219485   6.302   0.385   5.338
 6196SOL     OW19486   5.091   3.792   2.699
 6196SOL    HW119487   5.011   3.797   2.639
 6196SOL    HW219488   5.091   3.705   2.748
 6197SOL     OW19489   2.670   5.613   2.565
 6197SOL    HW119490   2.703   5.652   2.650
 6197SOL    HW219491   2.577   5.647   2.547
 6198SOL     OW19492   6.031   6.185   6.757
 6198SOL    HW119493   5.963   6.187   6.684
 6198SOL    HW219494   5.986   6.199   6.845
 6199SOL     OW19495   0.991   0.115   0.790
 6199SOL    HW119496   0.971   0.030   0.839
 6199SOL    HW219497   1.088   0.118   0.767
 6200SOL     OW19498   1.961   2.299   1.918
 6200SOL    HW119499   1.873   2.345   1.933
 6200SOL    HW219500   2.014   2.349   1.850
 6201SOL     OW19501   6.485   3.563   3.769
 6201SOL    HW119502   6.503   3.593   3.863
 6201SOL    HW219503   6.410   3.618   3.730
 6202SOL     OW19504   6.546   1.375   3.051
 6202SOL    HW119505   6.578   1.345   2.961
 6202SOL    HW219506   6.458   1.421   3.041
 6203SOL     OW19507   6.517   5.537   1.972
 6203SOL    HW119508   6.458   5.530   2.052
 6203SOL    HW219509   6.461   5.556   1.891
 6204SOL     OW19510   1.616   6.986   5.421
 6204SOL    HW119511   1.623   6.994   5.321
 6204SOL    HW219512   1.620   0.054   5.462
 6205SOL     OW19513   4.811   4.142   2.365
 6205SOL    HW119514   4.786   4.121   2.460
 6205SOL    HW219515   4.888   4.084   2.337
 6206SOL     OW19516   5.257   2.425   3.760
 6206SOL    HW119517   5.231   2.335   3.795
 6206SOL    HW219518   5.356   2.433   3.759
 6207SOL     OW19519   1.514   5.675   4.263
 6207SOL    HW119520   1.452   5.645   4.335
 6207SOL    HW219521   1.603   5.630   4.274
 6208SOL     OW19522   3.737   2.454   5.712
 6208SOL    HW119523   3.821   2.469   5.765
 6208SOL    HW219524   3.713   2.538   5.663
 6209SOL     OW19525   3.803   4.007   1.157
 6209SOL    HW119526   3.858   4.050   1.228
 6209SOL    HW219527   3.819   3.908   1.156
 6210SOL     OW19528   4.612   2.673   3.297
 6210SOL    HW119529   4.536   2.617   3.330
 6210SOL    HW219530   4.616   2.668   3.197
 6211SOL     OW19531   4.717   5.421   5.016
 6211SOL    HW119532   4.805   5.462   4.996
 6211SOL    HW219533   4.684   5.453   5.104
 6212SOL     OW19534   3.770   5.315   6.175
 6212SOL    HW119535   3.815   5.248   6.116
 6212SOL    HW219536   3.838   5.370   6.223
 6213SOL     OW19537   4.616   6.070   0.727
 6213SOL    HW119538   4.564   6.079   0.812
 6213SOL    HW219539   4.637   5.973   0.710
 6214SOL     OW19540   6.377   6.186   5.073
 6214SOL    HW119541   6.387   6.175   5.172
 6214SOL    HW219542   6.462   6.221   5.034
 6215SOL     OW19543   5.119   2.340   6.262
 6215SOL    HW119544   5.214   2.371   6.271
 6215SOL    HW219545   5.113   2.274   6.187
 6216SOL     OW19546   4.942   3.000   3.142
 6216SOL    HW119547   4.913   2.942   3.218
 6216SOL    HW219548   4.900   2.967   3.057
 6217SOL     OW19549   0.888   4.211   2.652
 6217SOL    HW119550   0.829   4.292   2.651
 6217SOL    HW219551   0.855   4.144   2.586
 6218SOL     OW19552   4.748   6.515   0.778
 6218SOL    HW119553   4.671   6.523   0.715
 6218SOL    HW219554   4.779   6.607   0.803
 6219SOL     OW19555   1.321   0.887   5.276
 6219SOL    HW119556   1.293   0.811   5.335
 6219SOL    HW219557   1.260   0.891   5.197
 6220SOL     OW19558   4.139   1.041   0.850
 6220SOL    HW119559   4.078   0.986   0.907
 6220SOL    HW219560   4.234   1.015   0.869
 6221SOL     OW19561   6.557   6.130   6.653
 6221SOL    HW119562   6.470   6.093   6.620
 6221SOL    HW219563   6.554   6.140   6.752
 6222SOL     OW19564   6.304   1.402   2.222
 6222SOL    HW119565   6.375   1.376   2.287
 6222SOL    HW219566   6.216   1.365   2.252
 6223SOL     OW19567   0.183   5.283   4.057
 6223SOL    HW119568   0.204   5.361   4.117
 6223SOL    HW219569   0.264   5.225   4.049
 6224SOL     OW19570   4.673   1.900   6.313
 6224SOL    HW119571   4.608   1.871   6.242
 6224SOL    HW219572   4.682   2.000   6.310
 6225SOL     OW19573   3.734   6.660   6.192
 6225SOL    HW119574   3.730   6.572   6.240
 6225SOL    HW219575   3.721   6.645   6.094
 6226SOL     OW19576   1.232   1.232   3.893
 6226SOL    HW119577   1.288   1.272   3.821
 6226SOL    HW219578   1.160   1.296   3.919
 6227SOL     OW19579   3.021   3.944   5.480
 6227SOL    HW119580   3.083   3.962   5.404
 6227SOL    HW219581   2.961   4.023   5.493
 6228SOL     OW19582   1.941   2.784   4.202
 6228SOL    HW119583   1.887   2.807   4.121
 6228SOL    HW219584   1.895   2.710   4.253
 6229SOL     OW19585   0.212   3.520   4.438
 6229SOL    HW119586   0.116   3.503   4.462
 6229SOL    HW219587   0.225   3.506   4.340
 6230SOL     OW19588   0.491   0.984   1.971
 6230SOL    HW119589   0.498   0.955   1.875
 6230SOL    HW219590   0.423   1.057   1.979
 6231SOL     OW19591   6.595   4.659   0.092
 6231SOL    HW119592   6.517   4.596   0.091
 6231SOL    HW219593   6.636   4.661   0.183
 6232SOL     OW19594   5.440   1.186   0.063
 6232SOL    HW119595   5.446   1.099   0.015
 6232SOL    HW219596   5.420   1.259   7.021
 6233SOL     OW19597   0.219   3.260   1.204
 6233SOL    HW119598   0.180   3.183   1.153
 6233SOL    HW219599   0.185   3.346   1.165
 6234SOL     OW19600   6.691   0.006   4.649
 6234SOL    HW119601   6.768   6.981   4.606
 6234SOL    HW219602   6.614   6.966   4.660
 6235SOL     OW19603   6.646   0.864   2.340
 6235SOL    HW119604   6.565   0.843   2.394
 6235SOL    HW219605   6.691   0.946   2.377
 6236SOL     OW19606   0.500   4.176   0.878
 6236SOL    HW119607   0.531   4.084   0.899
 6236SOL    HW219608   0.400   4.179   0.879
 6237SOL     OW19609   3.818   0.675   1.467
 6237SOL    HW119610   3.884   0.721   1.525
 6237SOL    HW219611   3.729   0.721   1.473
 6238SOL     OW19612   2.426   6.652   4.530
 6238SOL    HW119613   2.408   6.751   4.527
 6238SOL    HW219614   2.524   6.636   4.522
 6239SOL     OW19615   4.896   0.605   3.043
 6239SOL    HW119616   4.842   0.610   3.126
 6239SOL    HW219617   4.931   0.695   3.020
 6240SOL     OW19618   3.918   3.084   4.963
 6240SOL    HW119619   3.939   3.013   5.031
 6240SOL    HW219620   3.856   3.048   4.894
 6241SOL     OW19621   2.862   6.802   3.723
 6241SOL    HW119622   2.795   6.749   3.671
 6241SOL    HW219623   2.814   6.865   3.784
 6242SOL     OW19624   2.822   1.852   3.540
 6242SOL    HW119625   2.790   1.917   3.472
 6242SOL    HW219626   2.844   1.900   3.625
 6243SOL     OW19627   5.635   1.444   5.948
 6243SOL    HW119628   5.577   1.374   5.905
 6243SOL    HW219629   5.712   1.399   5.993
 6244SOL     OW19630   4.279   4.617   2.282
 6244SOL    HW119631   4.219   4.680   2.234
 6244SOL    HW219632   4.336   4.568   2.216
 6245SOL     OW19633   0.604   4.693   2.323
 6245SOL    HW119634   0.628   4.736   2.236
 6245SOL    HW219635   0.556   4.758   2.381
 6246SOL     OW19636   0.840   6.811   4.186
 6246SOL    HW119637   0.935   6.817   4.157
 6246SOL    HW219638   0.834   6.753   4.267
 6247SOL     OW19639   6.831   5.738   3.655
 6247SOL    HW119640   6.830   5.763   3.558
 6247SOL    HW219641   6.922   5.753   3.692
 6248SOL     OW19642   3.469   3.171   6.938
 6248SOL    HW119643   3.479   3.211   0.006
 6248SOL    HW219644   3.414   3.088   6.944
 6249SOL     OW19645   6.543   2.549   0.935
 6249SOL    HW119646   6.555   2.463   0.885
 6249SOL    HW219647   6.567   2.626   0.875
 6250SOL     OW19648   0.659   0.498   0.899
 6250SOL    HW119649   0.636   0.442   0.819
 6250SOL    HW219650   0.581   0.500   0.961
 6251SOL     OW19651   3.024   6.726   4.743
 6251SOL    HW119652   3.088   6.702   4.816
 6251SOL    HW219653   2.990   6.819   4.758
 6252SOL     OW19654   2.802   5.523   0.060
 6252SOL    HW119655   2.812   5.532   6.984
 6252SOL    HW219656   2.891   5.502   0.101
 6253SOL     OW19657   3.348   5.099   4.928
 6253SOL    HW119658   3.275   5.078   4.863
 6253SOL    HW219659   3.318   5.074   5.020
 6254SOL     OW19660   0.043   6.274   1.215
 6254SOL    HW119661   0.083   6.349   1.267
 6254SOL    HW219662   0.090   6.189   1.239
 6255SOL     OW19663   0.299   1.949   1.137
 6255SOL    HW119664   0.248   1.931   1.222
 6255SOL    HW219665   0.339   2.040   1.141
 6256SOL     OW19666   4.940   5.257   2.797
 6256SOL    HW119667   4.853   5.283   2.838
 6256SOL    HW219668   5.007   5.330   2.810
 6257SOL     OW19669   4.181   3.860   1.178
 6257SOL    HW119670   4.233   3.935   1.138
 6257SOL    HW219671   4.097   3.895   1.218
 6258SOL     OW19672   4.727   6.346   6.259
 6258SOL    HW119673   4.714   6.346   6.359
 6258SOL    HW219674   4.785   6.269   6.233
 6259SOL     OW19675   1.871   6.974   5.254
 6259SOL    HW119676   1.923   6.910   5.310
 6259SOL    HW219677   1.898   6.966   5.159
 6260SOL     OW19678   2.485   1.211   0.454
 6260SOL    HW119679   2.528   1.209   0.544
 6260SOL    HW219680   2.555   1.225   0.384
 6261SOL     OW19681   3.759   6.205   1.754
 6261SOL    HW119682   3.782   6.294   1.715
 6261SOL    HW219683   3.694   6.158   1.694
 6262SOL     OW19684   6.591   6.708   2.227
 6262SOL    HW119685   6.595   6.802   2.261
 6262SOL    HW219686   6.549   6.649   2.296
 6263SOL     OW19687   6.885   5.872   4.883
 6263SOL    HW119688   6.981   5.861   4.857
 6263SOL    HW219689   6.835   5.788   4.862
 6264SOL     OW19690   1.080   0.261   1.239
 6264SOL    HW119691   1.063   0.304   1.150
 6264SOL    HW219692   1.043   0.319   1.312
 6265SOL     OW19693   4.702   2.055   0.236
 6265SOL    HW119694   4.786   2.006   0.262
 6265SOL    HW219695   4.635   1.989   0.201
 6266SOL     OW19696   2.985   5.481   3.467
 6266SOL    HW119697   2.909   5.425   3.433
 6266SOL    HW219698   2.978   5.491   3.566
 6267SOL     OW19699   1.048   7.010   5.020
 6267SOL    HW119700   1.059   0.067   5.080
 6267SOL    HW219701   1.134   6.993   4.971
 6268SOL     OW19702   2.876   0.308   1.883
 6268SOL    HW119703   2.788   0.266   1.906
 6268SOL    HW219704   2.886   0.394   1.934
 6269SOL     OW19705   5.663   5.779   1.318
 6269SOL    HW119706   5.660   5.681   1.302
 6269SOL    HW219707   5.652   5.828   1.232
 6270SOL     OW19708   1.627   5.990   0.405
 6270SOL    HW119709   1.660   5.944   0.322
 6270SOL    HW219710   1.535   6.025   0.390
 6271SOL     OW19711   6.246   3.096   6.811
 6271SOL    HW119712   6.247   3.118   6.713
 6271SOL    HW219713   6.152   3.093   6.845
 6272SOL     OW19714   6.060   0.095   0.156
 6272SOL    HW119715   6.134   0.152   0.123
 6272SOL    HW219716   6.087   0.052   0.242
 6273SOL     OW19717   7.004   0.213   1.692
 6273SOL    HW119718   6.936   0.226   1.620
 6273SOL    HW219719   0.030   0.127   1.676
 6274SOL     OW19720   3.434   5.941   5.091
 6274SOL    HW119721   3.409   5.864   5.151
 6274SOL    HW219722   3.462   6.019   5.146
 6275SOL     OW19723   1.842   5.583   0.200
 6275SOL    HW119724   1.862   5.567   0.297
 6275SOL    HW219725   1.758   5.536   0.175
 6276SOL     OW19726   1.968   5.712   3.059
 6276SOL    HW119727   2.018   5.773   3.121
 6276SOL    HW219728   1.870   5.726   3.072
 6277SOL     OW19729   5.449   2.893   1.305
 6277SOL    HW119730   5.361   2.855   1.274
 6277SOL    HW219731   5.523   2.834   1.274
 6278SOL     OW19732   2.823   6.777   5.877
 6278SOL    HW119733   2.801   6.785   5.779
 6278SOL    HW219734   2.853   6.866   5.911
 6279SOL     OW19735   2.748   6.812   1.971
 6279SOL    HW119736   2.663   6.820   1.918
 6279SOL    HW219737   2.823   6.852   1.920
 6280SOL     OW19738   6.833   1.798   6.535
 6280SOL    HW119739   6.864   1.827   6.625
 6280SOL    HW219740   6.741   1.834   6.519
 6281SOL     OW19741   5.948   4.102   5.266
 6281SOL    HW119742   5.959   4.188   5.314
 6281SOL    HW219743   6.038   4.061   5.251
 6282SOL     OW19744   0.849   3.620   5.970
 6282SOL    HW119745   0.815   3.712   5.991
 6282SOL    HW219746   0.888   3.578   6.052
 6283SOL     OW19747   1.107   6.190   5.658
 6283SOL    HW119748   1.115   6.090   5.660
 6283SOL    HW219749   1.039   6.219   5.726
 6284SOL     OW19750   2.033   4.437   6.825
 6284SOL    HW119751   2.026   4.351   6.775
 6284SOL    HW219752   1.942   4.476   6.837
 6285SOL     OW19753   1.385   3.395   3.403
 6285SOL    HW119754   1.420   3.404   3.310
 6285SOL    HW219755   1.434   3.323   3.451
 6286SOL     OW19756   0.549   3.156   4.775
 6286SOL    HW119757   0.582   3.071   4.735
 6286SOL    HW219758   0.521   3.141   4.869
 6287SOL     OW19759   4.353   4.868   5.086
 6287SOL    HW119760   4.440   4.878   5.039
 6287SOL    HW219761   4.294   4.946   5.065
 6288SOL     OW19762   3.639   3.098   6.629
 6288SOL    HW119763   3.581   3.021   6.605
 6288SOL    HW219764   3.691   3.127   6.549
 6289SOL     OW19765   2.269   4.905   6.426
 6289SOL    HW119766   2.190   4.850   6.398
 6289SOL    HW219767   2.350   4.847   6.430
 6290SOL     OW19768   5.084   5.701   5.220
 6290SOL    HW119769   5.094   5.725   5.316
 6290SOL    HW219770   5.169   5.662   5.186
 6291SOL     OW19771   3.177   3.205   2.710
 6291SOL    HW119772   3.226   3.128   2.751
 6291SOL    HW219773   3.122   3.172   2.633
 6292SOL     OW19774   2.117   3.299   4.767
 6292SOL    HW119775   2.120   3.283   4.865
 6292SOL    HW219776   2.115   3.211   4.718
 6293SOL     OW19777   4.654   1.184   6.981
 6293SOL    HW119778   4.718   1.254   6.949
 6293SOL    HW219779   4.693   1.094   6.963
 6294SOL     OW19780   2.528   1.671   3.595
 6294SOL    HW119781   2.478   1.738   3.651
 6294SOL    HW219782   2.542   1.709   3.504
 6295SOL     OW19783   5.641   4.594   5.542
 6295SOL    HW119784   5.634   4.645   5.628
 6295SOL    HW219785   5.597   4.505   5.554
 6296SOL     OW19786   0.248   2.524   6.564
 6296SOL    HW119787   0.205   2.603   6.610
 6296SOL    HW219788   0.262   2.451   6.631
 6297SOL     OW19789   5.976   0.408   3.979
 6297SOL    HW119790   5.916   0.452   4.045
 6297SOL    HW219791   5.933   0.324   3.946
 6298SOL     OW19792   6.142   4.637   0.369
 6298SOL    HW119793   6.177   4.620   0.277
 6298SOL    HW219794   6.130   4.735   0.382
 6299SOL     OW19795   4.825   2.178   2.934
 6299SOL    HW119796   4.843   2.151   2.839
 6299SOL    HW219797   4.727   2.193   2.946
 6300SOL     OW19798   3.005   0.033   5.532
 6300SOL    HW119799   2.978   0.114   5.480
 6300SOL    HW219800   3.097   0.047   5.570
 6301SOL     OW19801   3.345   6.651   0.788
 6301SOL    HW119802   3.267   6.604   0.829
 6301SOL    HW219803   3.400   6.586   0.736
 6302SOL     OW19804   2.845   1.230   5.765
 6302SOL    HW119805   2.935   1.186   5.758
 6302SOL    HW219806   2.840   1.307   5.701
 6303SOL     OW19807   1.354   5.840   5.985
 6303SOL    HW119808   1.444   5.854   6.027
 6303SOL    HW219809   1.293   5.915   6.011
 6304SOL     OW19810   4.048   0.978   3.054
 6304SOL    HW119811   3.948   0.983   3.054
 6304SOL    HW219812   4.082   0.994   2.962
 6305SOL     OW19813   0.507   5.906   6.106
 6305SOL    HW119814   0.532   5.813   6.082
 6305SOL    HW219815   0.476   5.955   6.024
 6306SOL     OW19816   6.859   4.545   3.552
 6306SOL    HW119817   6.847   4.483   3.629
 6306SOL    HW219818   6.946   4.593   3.560
 6307SOL     OW19819   4.132   3.598   3.442
 6307SOL    HW119820   4.118   3.576   3.345
 6307SOL    HW219821   4.114   3.695   3.457
 6308SOL     OW19822   0.184   2.855   0.405
 6308SOL    HW119823   0.175   2.757   0.385
 6308SOL    HW219824   0.116   2.906   0.352
 6309SOL     OW19825   1.546   6.154   4.386
 6309SOL    HW119826   1.541   6.215   4.307
 6309SOL    HW219827   1.456   6.146   4.428
 6310SOL     OW19828   2.167   6.601   3.181
 6310SOL    HW119829   2.262   6.633   3.180
 6310SOL    HW219830   2.147   6.557   3.094
 6311SOL     OW19831   5.304   1.082   6.141
 6311SOL    HW119832   5.362   1.150   6.186
 6311SOL    HW219833   5.209   1.093   6.172
 6312SOL     OW19834   3.090   6.652   6.674
 6312SOL    HW119835   3.056   6.738   6.635
 6312SOL    HW219836   3.016   6.607   6.723
 6313SOL     OW19837   5.777   6.373   3.124
 6313SOL    HW119838   5.781   6.342   3.029
 6313SOL    HW219839   5.720   6.311   3.177
 6314SOL     OW19840   2.262   0.145   1.631
 6314SOL    HW119841   2.352   0.161   1.590
 6314SOL    HW219842   2.262   0.179   1.724
 6315SOL     OW19843   2.491   2.619   3.693
 6315SOL    HW119844   2.457   2.695   3.748
 6315SOL    HW219845   2.560   2.568   3.745
 6316SOL     OW19846   5.714   1.518   4.475
 6316SOL    HW119847   5.700   1.421   4.456
 6316SOL    HW219848   5.678   1.572   4.400
 6317SOL     OW19849   4.884   4.606   1.826
 6317SOL    HW119850   4.867   4.684   1.766
 6317SOL    HW219851   4.814   4.537   1.813
 6318SOL     OW19852   6.503   0.148   5.905
 6318SOL    HW119853   6.495   0.050   5.926
 6318SOL    HW219854   6.420   0.179   5.860
 6319SOL     OW19855   5.655   1.952   4.336
 6319SOL    HW119856   5.731   2.016   4.329
 6319SOL    HW219857   5.671   1.888   4.412
 6320SOL     OW19858   6.811   1.360   4.333
 6320SOL    HW119859   6.802   1.361   4.233
 6320SOL    HW219860   6.895   1.311   4.358
 6321SOL     OW19861   5.806   2.243   0.575
 6321SOL    HW119862   5.775   2.155   0.538
 6321SOL    HW219863   5.768   2.257   0.666
 6322SOL     OW19864   1.898   0.847   1.345
 6322SOL    HW119865   1.803   0.846   1.376
 6322SOL    HW219866   1.951   0.783   1.400
 6323SOL     OW19867   2.791   2.877   1.293
 6323SOL    HW119868   2.739   2.945   1.242
 6323SOL    HW219869   2.859   2.923   1.350
 6324SOL     OW19870   4.503   1.434   0.891
 6324SOL    HW119871   4.540   1.441   0.798
 6324SOL    HW219872   4.576   1.451   0.957
 6325SOL     OW19873   1.852   2.595   3.353
 6325SOL    HW119874   1.837   2.596   3.254
 6325SOL    HW219875   1.793   2.663   3.396
 6326SOL     OW19876   5.358   4.797   6.042
 6326SOL    HW119877   5.386   4.890   6.066
 6326SOL    HW219878   5.351   4.742   6.125
 6327SOL     OW19879   0.147   0.439   3.057
 6327SOL    HW119880   0.145   0.343   3.083
 6327SOL    HW219881   0.065   0.461   3.003
 6328SOL     OW19882   4.209   3.483   5.787
 6328SOL    HW119883   4.174   3.409   5.730
 6328SOL    HW219884   4.276   3.536   5.735
 6329SOL     OW19885   1.483   2.901   5.760
 6329SOL    HW119886   1.476   2.970   5.833
 6329SOL    HW219887   1.556   2.927   5.697
 6330SOL     OW19888   5.531   0.566   3.373
 6330SOL    HW119889   5.461   0.506   3.334
 6330SOL    HW219890   5.540   0.648   3.316
 6331SOL     OW19891   6.968   3.443   2.585
 6331SOL    HW119892   6.958   3.448   2.684
 6331SOL    HW219893   6.987   3.348   2.559
 6332SOL     OW19894   2.455   1.720   0.921
 6332SOL    HW119895   2.486   1.670   1.001
 6332SOL    HW219896   2.494   1.680   0.838
 6333SOL     OW19897   4.980   1.302   0.537
 6333SOL    HW119898   5.010   1.299   0.632
 6333SOL    HW219899   4.924   1.384   0.523
 6334SOL     OW19900   2.262   1.286   2.149
 6334SOL    HW119901   2.313   1.339   2.081
 6334SOL    HW219902   2.320   1.212   2.183
 6335SOL     OW19903   6.049   1.395   0.387
 6335SOL    HW119904   5.993   1.472   0.417
 6335SOL    HW219905   6.118   1.376   0.456
 6336SOL     OW19906   0.642   3.494   6.245
 6336SOL    HW119907   0.640   3.396   6.223
 6336SOL    HW219908   0.737   3.523   6.256
 6337SOL     OW19909   4.547   5.745   5.416
 6337SOL    HW119910   4.636   5.790   5.415
 6337SOL    HW219911   4.475   5.813   5.404
 6338SOL     OW19912   3.021   1.844   4.092
 6338SOL    HW119913   3.105   1.864   4.042
 6338SOL    HW219914   3.030   1.758   4.142
 6339SOL     OW19915   1.360   4.466   3.327
 6339SOL    HW119916   1.299   4.407   3.379
 6339SOL    HW219917   1.311   4.506   3.250
 6340SOL     OW19918   2.156   4.215   1.535
 6340SOL    HW119919   2.126   4.212   1.440
 6340SOL    HW219920   2.220   4.140   1.552
 6341SOL     OW19921   1.160   4.658   3.535
 6341SOL    HW119922   1.240   4.609   3.569
 6341SOL    HW219923   1.085   4.651   3.602
 6342SOL     OW19924   1.892   1.783   2.061
 6342SOL    HW119925   1.916   1.832   2.145
 6342SOL    HW219926   1.927   1.834   1.982
 6343SOL     OW19927   2.362   6.064   0.992
 6343SOL    HW119928   2.426   6.005   1.043
 6343SOL    HW219929   2.268   6.039   1.016
 6344SOL     OW19930   0.203   1.164   3.575
 6344SOL    HW119931   0.113   1.194   3.605
 6344SOL    HW219932   0.221   1.199   3.483
 6345SOL     OW19933   5.802   3.817   1.376
 6345SOL    HW119934   5.861   3.883   1.330
 6345SOL    HW219935   5.723   3.864   1.415
 6346SOL     OW19936   0.001   4.414   5.091
 6346SOL    HW119937   6.942   4.460   5.056
 6346SOL    HW219938   0.071   4.483   5.112
 6347SOL     OW19939   2.514   1.941   2.596
 6347SOL    HW119940   2.446   2.010   2.573
 6347SOL    HW219941   2.579   1.932   2.520
 6348SOL     OW19942   0.220   2.332   5.454
 6348SOL    HW119943   0.247   2.366   5.364
 6348SOL    HW219944   0.189   2.237   5.445
 6349SOL     OW19945   0.298   0.748   6.990
 6349SOL    HW119946   0.264   0.811   6.920
 6349SOL    HW219947   0.242   0.755   0.049
 6350SOL     OW19948   1.273   4.386   1.594
 6350SOL    HW119949   1.345   4.361   1.529
 6350SOL    HW219950   1.186   4.349   1.562
 6351SOL     OW19951   5.661   3.476   2.175
 6351SOL    HW119952   5.673   3.545   2.103
 6351SOL    HW219953   5.629   3.391   2.134
 6352SOL     OW19954   2.446   0.607   4.850
 6352SOL    HW119955   2.481   0.581   4.761
 6352SOL    HW219956   2.379   0.680   4.840
 6353SOL     OW19957   3.187   6.019   6.507
 6353SOL    HW119958   3.155   6.096   6.453
 6353SOL    HW219959   3.284   6.031   6.529
 6354SOL     OW19960   4.589   4.852   2.422
 6354SOL    HW119961   4.497   4.817   2.403
 6354SOL    HW219962   4.639   4.787   2.479
 6355SOL     OW19963   2.920   4.827   0.866
 6355SOL    HW119964   2.943   4.755   0.931
 6355SOL    HW219965   3.002   4.857   0.818
 6356SOL     OW19966   5.691   3.937   6.361
 6356SOL    HW119967   5.603   3.983   6.348
 6356SOL    HW219968   5.729   3.962   6.450
 6357SOL     OW19969   5.458   1.430   1.506
 6357SOL    HW119970   5.438   1.513   1.455
 6357SOL    HW219971   5.374   1.397   1.550
 6358SOL     OW19972   1.536   2.528   6.838
 6358SOL    HW119973   1.501   2.449   6.888
 6358SOL    HW219974   1.557   2.602   6.902
 6359SOL     OW19975   5.921   5.958   0.108
 6359SOL    HW119976   5.943   6.013   0.188
 6359SOL    HW219977   5.826   5.927   0.115
 6360SOL     OW19978   0.870   2.503   2.693
 6360SOL    HW119979   0.793   2.567   2.704
 6360SOL    HW219980   0.835   2.409   2.696
 6361SOL     OW19981   0.565   0.476   0.191
 6361SOL    HW119982   0.621   0.513   0.117
 6361SOL    HW219983   0.469   0.473   0.161
 6362SOL     OW19984   0.804   5.271   7.007
 6362SOL    HW119985   0.826   5.191   6.951
 6362SOL    HW219986   0.713   5.304   6.982
 6363SOL     OW19987   3.154   5.346   3.860
 6363SOL    HW119988   3.244   5.318   3.895
 6363SOL    HW219989   3.084   5.328   3.929
 6364SOL     OW19990   2.504   2.557   4.804
 6364SOL    HW119991   2.440   2.618   4.758
 6364SOL    HW219992   2.592   2.558   4.755
 6365SOL     OW19993   5.801   5.034   3.615
 6365SOL    HW119994   5.736   4.971   3.657
 6365SOL    HW219995   5.819   5.006   3.521
 6366SOL     OW19996   5.539   6.638   4.548
 6366SOL    HW119997   5.573   6.686   4.629
 6366SOL    HW219998   5.594   6.663   4.469
 6367SOL     OW19999   2.785   1.785   2.846
 6367SOL    HW120000   2.833   1.813   2.763
 6367SOL    HW220001   2.752   1.866   2.894
 6368SOL     OW20002   4.876   3.206   4.883
 6368SOL    HW120003   4.849   3.243   4.794
 6368SOL    HW220004   4.895   3.108   4.875
 6369SOL     OW20005   3.045   6.148   6.212
 6369SOL    HW120006   2.978   6.186   6.149
 6369SOL    HW220007   3.012   6.158   6.306
 6370SOL     OW20008   5.603   3.383   3.964
 6370SOL    HW120009   5.550   3.366   3.881
 6370SOL    HW220010   5.679   3.318   3.968
 6371SOL     OW20011   5.424   4.116   1.867
 6371SOL    HW120012   5.476   4.036   1.836
 6371SOL    HW220013   5.336   4.119   1.820
 6372SOL     OW20014   6.927   0.721   2.686
 6372SOL    HW120015   6.834   0.719   2.724
 6372SOL    HW220016   6.923   0.746   2.590
 6373SOL     OW20017   5.419   3.736   1.265
 6373SOL    HW120018   5.480   3.667   1.304
 6373SOL    HW220019   5.342   3.751   1.327
 6374SOL     OW20020   4.818   2.893   0.686
 6374SOL    HW120021   4.819   2.808   0.633
 6374SOL    HW220022   4.737   2.894   0.744
 6375SOL     OW20023   6.351   2.555   2.128
 6375SOL    HW120024   6.368   2.638   2.076
 6375SOL    HW220025   6.330   2.579   2.223
 6376SOL     OW20026   3.522   0.688   6.620
 6376SOL    HW120027   3.612   0.656   6.590
 6376SOL    HW220028   3.504   0.656   6.713
 6377SOL     OW20029   0.113   0.641   0.631
 6377SOL    HW120030   0.013   0.639   0.618
 6377SOL    HW220031   0.158   0.640   0.541
 6378SOL     OW20032   5.557   5.752   3.254
 6378SOL    HW120033   5.549   5.847   3.224
 6378SOL    HW220034   5.648   5.717   3.230
 6379SOL     OW20035   2.776   6.037   0.132
 6379SOL    HW120036   2.709   5.996   0.070
 6379SOL    HW220037   2.858   6.062   0.080
 6380SOL     OW20038   1.325   3.079   5.464
 6380SOL    HW120039   1.266   3.010   5.506
 6380SOL    HW220040   1.268   3.143   5.411
 6381SOL     OW20041   4.535   2.893   0.302
 6381SOL    HW120042   4.528   2.988   0.334
 6381SOL    HW220043   4.503   2.887   0.208
 6382SOL     OW20044   1.958   1.875   1.176
 6382SOL    HW120045   1.925   1.796   1.229
 6382SOL    HW220046   2.042   1.850   1.128
 6383SOL     OW20047   1.767   2.042   2.436
 6383SOL    HW120048   1.773   2.141   2.443
 6383SOL    HW220049   1.683   2.017   2.388
 6384SOL     OW20050   6.156   2.468   1.957
 6384SOL    HW120051   6.203   2.511   2.034
 6384SOL    HW220052   6.224   2.424   1.898
 6385SOL     OW20053   6.998   2.916   1.108
 6385SOL    HW120054   0.048   2.880   1.166
 6385SOL    HW220055   6.910   2.883   1.141
 6386SOL     OW20056   1.967   3.433   0.118
 6386SOL    HW120057   1.985   3.345   0.161
 6386SOL    HW220058   2.031   3.447   0.043
 6387SOL     OW20059   6.407   0.443   6.770
 6387SOL    HW120060   6.427   0.538   6.795
 6387SOL    HW220061   6.458   0.382   6.830
 6388SOL     OW20062   6.323   5.534   2.689
 6388SOL    HW120063   6.304   5.442   2.654
 6388SOL    HW220064   6.252   5.560   2.753
 6389SOL     OW20065   1.408   0.690   6.487
 6389SOL    HW120066   1.444   0.765   6.431
 6389SOL    HW220067   1.387   0.612   6.427
 6390SOL     OW20068   6.750   1.381   6.665
 6390SOL    HW120069   6.790   1.318   6.732
 6390SOL    HW220070   6.823   1.423   6.611
 6391SOL     OW20071   1.395   1.574   5.222
 6391SOL    HW120072   1.354   1.643   5.282
 6391SOL    HW220073   1.390   1.605   5.128
 6392SOL     OW20074   4.182   6.344   3.889
 6392SOL    HW120075   4.141   6.281   3.954
 6392SOL    HW220076   4.134   6.432   3.891
 6393SOL     OW20077   6.676   5.685   1.442
 6393SOL    HW120078   6.621   5.752   1.492
 6393SOL    HW220079   6.656   5.593   1.477
 6394SOL     OW20080   1.293   5.539   1.106
 6394SOL    HW120081   1.372   5.483   1.131
 6394SOL    HW220082   1.219   5.479   1.074
 6395SOL     OW20083   1.871   4.210   3.474
 6395SOL    HW120084   1.850   4.144   3.545
 6395SOL    HW220085   1.799   4.280   3.472
 6396SOL     OW20086   0.262   3.611   0.533
 6396SOL    HW120087   0.357   3.590   0.557
 6396SOL    HW220088   0.201   3.567   0.599
 6397SOL     OW20089   5.827   2.217   3.746
 6397SOL    HW120090   5.797   2.262   3.830
 6397SOL    HW220091   5.925   2.233   3.733
 6398SOL     OW20092   1.332   6.986   1.144
 6398SOL    HW120093   1.402   6.929   1.188
 6398SOL    HW220094   1.322   6.957   1.049
 6399SOL     OW20095   2.554   0.644   6.209
 6399SOL    HW120096   2.501   0.697   6.144
 6399SOL    HW220097   2.515   0.653   6.300
 6400SOL     OW20098   1.482   5.536   3.069
 6400SOL    HW120099   1.530   5.567   2.988
 6400SOL    HW220100   1.548   5.508   3.139
 6401SOL     OW20101   3.978   5.864   3.359
 6401SOL    HW120102   3.941   5.773   3.371
 6401SOL    HW220103   3.904   5.931   3.359
 6402SOL     OW20104   2.327   4.706   5.214
 6402SOL    HW120105   2.317   4.654   5.129
 6402SOL    HW220106   2.316   4.803   5.196
 6403SOL     OW20107   4.829   6.181   4.972
 6403SOL    HW120108   4.796   6.201   5.064
 6403SOL    HW220109   4.900   6.246   4.947
 6404SOL     OW20110   3.862   0.470   2.660
 6404SOL    HW120111   3.827   0.389   2.611
 6404SOL    HW220112   3.795   0.499   2.728
 6405SOL     OW20113   5.355   1.587   2.322
 6405SOL    HW120114   5.310   1.577   2.411
 6405SOL    HW220115   5.292   1.559   2.250
 6406SOL     OW20116   1.290   2.633   2.820
 6406SOL    HW120117   1.254   2.644   2.727
 6406SOL    HW220118   1.274   2.540   2.852
 6407SOL     OW20119   2.212   5.986   2.974
 6407SOL    HW120120   2.252   5.928   3.046
 6407SOL    HW220121   2.135   5.938   2.933
 6408SOL     OW20122   6.496   0.969   0.347
 6408SOL    HW120123   6.494   0.890   0.408
 6408SOL    HW220124   6.574   1.028   0.371
 6409SOL     OW20125   6.779   4.752   3.822
 6409SOL    HW120126   6.769   4.692   3.901
 6409SOL    HW220127   6.857   4.722   3.767
 6410SOL     OW20128   3.103   1.916   5.771
 6410SOL    HW120129   3.127   1.988   5.706
 6410SOL    HW220130   3.105   1.953   5.864
 6411SOL     OW20131   0.428   2.242   2.432
 6411SOL    HW120132   0.329   2.258   2.438
 6411SOL    HW220133   0.461   2.204   2.518
 6412SOL     OW20134   3.089   0.645   0.020
 6412SOL    HW120135   3.067   0.566   6.985
 6412SOL    HW220136   3.009   0.705   0.025
 6413SOL     OW20137   4.446   5.058   3.763
 6413SOL    HW120138   4.456   5.080   3.860
 6413SOL    HW220139   4.410   5.138   3.715
 6414SOL     OW20140   1.416   6.722   0.452
 6414SOL    HW120141   1.462   6.794   0.402
 6414SOL    HW220142   1.322   6.713   0.420
 6415SOL     OW20143   1.050   2.533   3.336
 6415SOL    HW120144   0.988   2.611   3.341
 6415SOL    HW220145   1.041   2.489   3.246
 6416SOL     OW20146   2.767   0.701   6.770
 6416SOL    HW120147   2.668   0.715   6.775
 6416SOL    HW220148   2.809   0.730   6.855
 6417SOL     OW20149   4.322   1.585   0.584
 6417SOL    HW120150   4.229   1.618   0.598
 6417SOL    HW220151   4.386   1.640   0.637
 6418SOL     OW20152   4.414   5.184   1.359
 6418SOL    HW120153   4.416   5.084   1.360
 6418SOL    HW220154   4.329   5.215   1.317
 6419SOL     OW20155   0.682   6.557   6.801
 6419SOL    HW120156   0.711   6.518   6.889
 6419SOL    HW220157   0.736   6.638   6.781
 6420SOL     OW20158   2.035   3.422   4.158
 6420SOL    HW120159   2.021   3.411   4.257
 6420SOL    HW220160   2.084   3.508   4.141
 6421SOL     OW20161   5.227   6.943   1.858
 6421SOL    HW120162   5.151   7.008   1.864
 6421SOL    HW220163   5.270   6.935   1.948
 6422SOL     OW20164   6.452   2.362   4.685
 6422SOL    HW120165   6.403   2.340   4.770
 6422SOL    HW220166   6.545   2.390   4.707
 6423SOL     OW20167   2.448   4.478   4.440
 6423SOL    HW120168   2.405   4.492   4.351
 6423SOL    HW220169   2.542   4.446   4.426
 6424SOL     OW20170   6.903   4.531   4.775
 6424SOL    HW120171   6.995   4.562   4.749
 6424SOL    HW220172   6.871   4.582   4.855
 6425SOL     OW20173   0.154   6.005   2.841
 6425SOL    HW120174   0.098   5.988   2.922
 6425SOL    HW220175   0.230   5.940   2.839
 6426SOL     OW20176   4.506   4.506   4.722
 6426SOL    HW120177   4.440   4.520   4.796
 6426SOL    HW220178   4.578   4.444   4.754
 6427SOL     OW20179   2.922   3.634   3.540
 6427SOL    HW120180   2.882   3.719   3.506
 6427SOL    HW220181   2.942   3.573   3.463
 6428SOL     OW20182   5.065   2.630   0.227
 6428SOL    HW120183   4.978   2.680   0.225
 6428SOL    HW220184   5.124   2.669   0.298
 6429SOL     OW20185   2.274   0.656   5.839
 6429SOL    HW120186   2.361   0.608   5.830
 6429SOL    HW220187   2.200   0.589   5.849
 6430SOL     OW20188   6.667   0.548   4.852
 6430SOL    HW120189   6.734   0.474   4.852
 6430SOL    HW220190   6.576   0.511   4.835
 6431SOL     OW20191   3.980   4.655   1.625
 6431SOL    HW120192   4.029   4.689   1.705
 6431SOL    HW220193   3.885   4.686   1.628
 6432SOL     OW20194   4.401   4.562   6.007
 6432SOL    HW120195   4.305   4.544   6.026
 6432SOL    HW220196   4.420   4.659   6.021
 6433SOL     OW20197   2.290   5.862   6.441
 6433SOL    HW120198   2.308   5.955   6.474
 6433SOL    HW220199   2.206   5.828   6.483
 6434SOL     OW20200   3.288   5.607   5.677
 6434SOL    HW120201   3.320   5.524   5.632
 6434SOL    HW220202   3.362   5.645   5.733
 6435SOL     OW20203   5.387   1.271   0.891
 6435SOL    HW120204   5.420   1.356   0.932
 6435SOL    HW220205   5.444   1.194   0.922
 6436SOL     OW20206   0.233   3.768   4.132
 6436SOL    HW120207   0.216   3.752   4.035
 6436SOL    HW220208   0.328   3.799   4.144
 6437SOL     OW20209   0.398   1.410   5.727
 6437SOL    HW120210   0.340   1.361   5.791
 6437SOL    HW220211   0.387   1.509   5.741
 6438SOL     OW20212   0.491   5.685   0.403
 6438SOL    HW120213   0.525   5.771   0.442
 6438SOL    HW220214   0.402   5.701   0.359
 6439SOL     OW20215   5.465   0.036   3.361
 6439SOL    HW120216   5.510   0.107   3.307
 6439SOL    HW220217   5.367   0.057   3.368
 6440SOL     OW20218   2.239   1.372   6.237
 6440SOL    HW120219   2.256   1.286   6.286
 6440SOL    HW220220   2.289   1.370   6.150
 6441SOL     OW20221   0.326   0.990   2.668
 6441SOL    HW120222   0.378   1.014   2.750
 6441SOL    HW220223   0.379   0.927   2.612
 6442SOL     OW20224   3.202   2.846   5.609
 6442SOL    HW120225   3.229   2.836   5.513
 6442SOL    HW220226   3.108   2.813   5.620
 6443SOL     OW20227   4.658   2.601   1.342
 6443SOL    HW120228   4.618   2.625   1.430
 6443SOL    HW220229   4.704   2.680   1.303
 6444SOL     OW20230   0.035   3.321   5.177
 6444SOL    HW120231   0.027   3.403   5.121
 6444SOL    HW220232   0.094   3.255   5.132
 6445SOL     OW20233   3.169   4.082   3.497
 6445SOL    HW120234   3.127   4.163   3.455
 6445SOL    HW220235   3.257   4.107   3.537
 6446SOL     OW20236   2.415   1.768   6.728
 6446SOL    HW120237   2.357   1.786   6.648
 6446SOL    HW220238   2.469   1.686   6.711
 6447SOL     OW20239   6.592   4.065   1.008
 6447SOL    HW120240   6.534   4.060   0.927
 6447SOL    HW220241   6.644   4.150   1.008
 6448SOL     OW20242   4.892   5.143   1.756
 6448SOL    HW120243   4.848   5.172   1.671
 6448SOL    HW220244   4.949   5.063   1.738
 6449SOL     OW20245   2.182   6.086   1.309
 6449SOL    HW120246   2.137   6.027   1.242
 6449SOL    HW220247   2.127   6.168   1.324
 6450SOL     OW20248   0.162   3.768   0.803
 6450SOL    HW120249   0.220   3.803   0.730
 6450SOL    HW220250   0.077   3.734   0.764
 6451SOL     OW20251   3.253   2.218   1.397
 6451SOL    HW120252   3.159   2.217   1.430
 6451SOL    HW220253   3.258   2.174   1.307
 6452SOL     OW20254   5.388   2.545   3.053
 6452SOL    HW120255   5.350   2.607   3.122
 6452SOL    HW220256   5.313   2.498   3.007
 6453SOL     OW20257   3.554   6.934   0.925
 6453SOL    HW120258   3.464   6.977   0.934
 6453SOL    HW220259   3.544   6.846   0.879
 6454SOL     OW20260   5.917   2.672   2.643
 6454SOL    HW120261   5.952   2.726   2.719
 6454SOL    HW220262   5.943   2.715   2.557
 6455SOL     OW20263   6.686   3.628   3.615
 6455SOL    HW120264   6.717   3.541   3.576
 6455SOL    HW220265   6.619   3.609   3.687
 6456SOL     OW20266   6.295   1.507   2.947
 6456SOL    HW120267   6.325   1.584   3.004
 6456SOL    HW220268   6.200   1.484   2.969
 6457SOL     OW20269   4.740   0.363   2.232
 6457SOL    HW120270   4.700   0.454   2.234
 6457SOL    HW220271   4.700   0.310   2.157
 6458SOL     OW20272   0.849   4.877   3.578
 6458SOL    HW120273   0.882   4.797   3.627
 6458SOL    HW220274   0.914   4.900   3.504
 6459SOL     OW20275   6.381   2.992   2.638
 6459SOL    HW120276   6.342   3.073   2.681
 6459SOL    HW220277   6.317   2.956   2.570
 6460SOL     OW20278   6.973   5.528   6.747
 6460SOL    HW120279   0.030   5.576   6.783
 6460SOL    HW220280   6.890   5.576   6.774
 6461SOL     OW20281   2.904   4.878   1.279
 6461SOL    HW120282   2.841   4.801   1.264
 6461SOL    HW220283   2.874   4.930   1.359
 6462SOL     OW20284   1.314   3.946   5.040
 6462SOL    HW120285   1.412   3.951   5.023
 6462SOL    HW220286   1.297   3.892   5.123
 6463SOL     OW20287   4.298   1.352   1.600
 6463SOL    HW120288   4.379   1.376   1.652
 6463SOL    HW220289   4.217   1.393   1.642
 6464SOL     OW20290   0.867   5.727   4.156
 6464SOL    HW120291   0.810   5.660   4.203
 6464SOL    HW220292   0.810   5.803   4.124
 6465SOL     OW20293   4.620   1.843   3.389
 6465SOL    HW120294   4.681   1.896   3.330
 6465SOL    HW220295   4.567   1.905   3.446
 6466SOL     OW20296   0.663   3.188   6.930
 6466SOL    HW120297   0.651   3.170   6.832
 6466SOL    HW220298   0.702   3.279   6.943
 6467SOL     OW20299   3.326   1.175   0.874
 6467SOL    HW120300   3.366   1.227   0.950
 6467SOL    HW220301   3.398   1.152   0.809
 6468SOL     OW20302   3.207   0.369   0.220
 6468SOL    HW120303   3.165   0.287   0.183
 6468SOL    HW220304   3.138   0.442   0.224
 6469SOL     OW20305   3.639   1.701   2.837
 6469SOL    HW120306   3.693   1.672   2.916
 6469SOL    HW220307   3.674   1.789   2.803
 6470SOL     OW20308   6.580   2.053   6.954
 6470SOL    HW120309   6.493   2.101   6.941
 6470SOL    HW220310   6.575   1.998   0.015
 6471SOL     OW20311   0.177   5.902   5.194
 6471SOL    HW120312   0.081   5.901   5.164
 6471SOL    HW220313   0.199   5.814   5.236
 6472SOL     OW20314   7.020   5.454   2.653
 6472SOL    HW120315   6.940   5.452   2.593
 6472SOL    HW220316   7.012   5.531   2.717
 6473SOL     OW20317   2.823   0.888   4.464
 6473SOL    HW120318   2.744   0.934   4.504
 6473SOL    HW220319   2.819   0.790   4.485
 6474SOL     OW20320   3.876   5.928   4.972
 6474SOL    HW120321   3.967   5.911   4.934
 6474SOL    HW220322   3.848   5.849   5.027
 6475SOL     OW20323   5.494   4.836   2.701
 6475SOL    HW120324   5.575   4.889   2.725
 6475SOL    HW220325   5.511   4.786   2.616
 6476SOL     OW20326   4.033   1.387   6.159
 6476SOL    HW120327   4.000   1.476   6.128
 6476SOL    HW220328   4.133   1.389   6.165
 6477SOL     OW20329   6.695   6.151   1.638
 6477SOL    HW120330   6.773   6.130   1.697
 6477SOL    HW220331   6.724   6.156   1.543
 6478SOL     OW20332   3.650   5.521   1.886
 6478SOL    HW120333   3.622   5.615   1.905
 6478SOL    HW220334   3.570   5.464   1.870
 6479SOL     OW20335   3.483   6.287   4.055
 6479SOL    HW120336   3.396   6.240   4.070
 6479SOL    HW220337   3.522   6.315   4.143
 6480SOL     OW20338   3.547   1.170   6.992
 6480SOL    HW120339   3.550   1.219   0.057
 6480SOL    HW220340   3.457   1.180   6.951
 6481SOL     OW20341   3.315   2.678   1.717
 6481SOL    HW120342   3.257   2.704   1.794
 6481SOL    HW220343   3.297   2.583   1.693
 6482SOL     OW20344   6.758   3.493   5.061
 6482SOL    HW120345   6.761   3.426   4.987
 6482SOL    HW220346   6.676   3.549   5.052
 6483SOL     OW20347   0.873   5.387   5.436
 6483SOL    HW120348   0.913   5.302   5.403
 6483SOL    HW220349   0.936   5.430   5.501
 6484SOL     OW20350   2.936   0.730   4.209
 6484SOL    HW120351   2.972   0.816   4.246
 6484SOL    HW220352   3.012   0.673   4.179
 6485SOL     OW20353   2.314   6.944   4.513
 6485SOL    HW120354   2.275   6.927   4.604
 6485SOL    HW220355   2.323   0.020   4.499
 6486SOL     OW20356   1.936   5.410   3.063
 6486SOL    HW120357   1.901   5.500   3.086
 6486SOL    HW220358   1.944   5.402   2.963
 6487SOL     OW20359   0.351   4.642   4.123
 6487SOL    HW120360   0.444   4.678   4.138
 6487SOL    HW220361   0.337   4.628   4.025
 6488SOL     OW20362   4.405   5.151   4.596
 6488SOL    HW120363   4.374   5.172   4.689
 6488SOL    HW220364   4.332   5.173   4.531
 6489SOL     OW20365   4.215   3.226   5.994
 6489SOL    HW120366   4.205   3.142   5.941
 6489SOL    HW220367   4.195   3.305   5.935
 6490SOL     OW20368   1.874   2.130   6.591
 6490SOL    HW120369   1.947   2.160   6.652
 6490SOL    HW220370   1.823   2.055   6.634
 6491SOL     OW20371   1.685   0.499   7.021
 6491SOL    HW120372   1.620   0.502   6.945
 6491SOL    HW220373   1.700   0.404   0.026
 6492SOL     OW20374   3.499   3.985   4.897
 6492SOL    HW120375   3.556   3.912   4.935
 6492SOL    HW220376   3.547   4.028   4.820
 6493SOL     OW20377   1.168   4.404   6.081
 6493SOL    HW120378   1.112   4.448   6.151
 6493SOL    HW220379   1.110   4.376   6.005
 6494SOL     OW20380   6.179   6.703   2.349
 6494SOL    HW120381   6.108   6.634   2.366
 6494SOL    HW220382   6.145   6.770   2.282
 6495SOL     OW20383   0.077   7.013   3.399
 6495SOL    HW120384   0.052   6.976   3.489
 6495SOL    HW220385   0.168   0.031   3.405
 6496SOL     OW20386   4.900   0.708   2.049
 6496SOL    HW120387   4.926   0.802   2.032
 6496SOL    HW220388   4.980   0.649   2.043
 6497SOL     OW20389   6.950   1.884   0.378
 6497SOL    HW120390   6.889   1.942   0.432
 6497SOL    HW220391   0.022   1.912   0.393
 6498SOL     OW20392   0.993   4.248   3.687
 6498SOL    HW120393   0.970   4.242   3.589
 6498SOL    HW220394   0.965   4.164   3.733
 6499SOL     OW20395   5.642   3.673   3.562
 6499SOL    HW120396   5.679   3.662   3.654
 6499SOL    HW220397   5.565   3.610   3.550
 6500SOL     OW20398   1.512   4.193   2.952
 6500SOL    HW120399   1.565   4.275   2.933
 6500SOL    HW220400   1.434   4.189   2.890
 6501SOL     OW20401   6.285   2.033   0.939
 6501SOL    HW120402   6.186   2.046   0.944
 6501SOL    HW220403   6.306   1.957   0.878
 6502SOL     OW20404   6.281   3.880   1.514
 6502SOL    HW120405   6.187   3.913   1.505
 6502SOL    HW220406   6.287   3.786   1.480
 6503SOL     OW20407   6.530   3.173   5.259
 6503SOL    HW120408   6.621   3.200   5.229
 6503SOL    HW220409   6.509   3.081   5.224
 6504SOL     OW20410   4.667   6.164   6.557
 6504SOL    HW120411   4.605   6.240   6.575
 6504SOL    HW220412   4.755   6.180   6.602
 6505SOL     OW20413   5.714   5.488   6.725
 6505SOL    HW120414   5.685   5.451   6.637
 6505SOL    HW220415   5.729   5.586   6.717
 6506SOL     OW20416   0.358   3.088   2.485
 6506SOL    HW120417   0.301   3.060   2.408
 6506SOL    HW220418   0.357   3.188   2.494
 6507SOL     OW20419   3.743   4.731   6.697
 6507SOL    HW120420   3.724   4.747   6.794
 6507SOL    HW220421   3.705   4.643   6.670
 6508SOL     OW20422   1.095   6.355   1.971
 6508SOL    HW120423   1.086   6.258   1.950
 6508SOL    HW220424   1.069   6.409   1.892
 6509SOL     OW20425   3.720   1.666   5.883
 6509SOL    HW120426   3.714   1.724   5.964
 6509SOL    HW220427   3.627   1.646   5.850
 6510SOL     OW20428   4.474   6.019   5.826
 6510SOL    HW120429   4.521   5.932   5.838
 6510SOL    HW220430   4.541   6.093   5.818
 6511SOL     OW20431   3.236   0.817   0.273
 6511SOL    HW120432   3.273   0.901   0.233
 6511SOL    HW220433   3.292   0.739   0.244
 6512SOL     OW20434   3.224   0.709   1.169
 6512SOL    HW120435   3.247   0.788   1.227
 6512SOL    HW220436   3.127   0.689   1.178
 6513SOL     OW20437   2.746   5.491   4.084
 6513SOL    HW120438   2.690   5.564   4.122
 6513SOL    HW220439   2.843   5.517   4.086
 6514SOL     OW20440   5.746   0.204   5.820
 6514SOL    HW120441   5.734   0.250   5.732
 6514SOL    HW220442   5.687   0.246   5.888
 6515SOL     OW20443   2.210   5.233   2.571
 6515SOL    HW120444   2.222   5.144   2.528
 6515SOL    HW220445   2.131   5.230   2.633
 6516SOL     OW20446   6.738   3.423   0.817
 6516SOL    HW120447   6.650   3.376   0.803
 6516SOL    HW220448   6.765   3.468   0.731
 6517SOL     OW20449   0.131   2.732   6.787
 6517SOL    HW120450   0.142   2.796   6.711
 6517SOL    HW220451   0.136   2.783   6.873
 6518SOL     OW20452   1.173   1.686   2.844
 6518SOL    HW120453   1.204   1.721   2.932
 6518SOL    HW220454   1.136   1.594   2.857
 6519SOL     OW20455   1.249   1.811   3.106
 6519SOL    HW120456   1.287   1.789   3.196
 6519SOL    HW220457   1.274   1.904   3.080
 6520SOL     OW20458   0.266   5.778   0.254
 6520SOL    HW120459   0.261   5.875   0.277
 6520SOL    HW220460   0.252   5.766   0.155
 6521SOL     OW20461   1.172   3.134   4.413
 6521SOL    HW120462   1.178   3.112   4.510
 6521SOL    HW220463   1.091   3.191   4.396
 6522SOL     OW20464   2.649   3.805   5.300
 6522SOL    HW120465   2.574   3.836   5.242
 6522SOL    HW220466   2.730   3.788   5.244
 6523SOL     OW20467   6.259   0.740   0.171
 6523SOL    HW120468   6.358   0.746   0.182
 6523SOL    HW220469   6.229   0.646   0.188
 6524SOL     OW20470   2.132   2.253   1.505
 6524SOL    HW120471   2.096   2.199   1.429
 6524SOL    HW220472   2.058   2.305   1.547
 6525SOL     OW20473   1.098   4.605   3.270
 6525SOL    HW120474   1.092   4.615   3.369
 6525SOL    HW220475   1.034   4.535   3.239
 6526SOL     OW20476   6.732   0.180   0.685
 6526SOL    HW120477   6.779   0.199   0.599
 6526SOL    HW220478   6.795   0.132   0.747
 6527SOL     OW20479   0.614   2.526   0.501
 6527SOL    HW120480   0.560   2.472   0.565
 6527SOL    HW220481   0.617   2.622   0.531
 6528SOL     OW20482   5.822   0.858   5.650
 6528SOL    HW120483   5.914   0.877   5.615
 6528SOL    HW220484   5.829   0.806   5.735
 6529SOL     OW20485   6.780   1.085   2.421
 6529SOL    HW120486   6.804   1.134   2.504
 6529SOL    HW220487   6.825   1.127   2.343
 6530SOL     OW20488   0.615   2.533   2.392
 6530SOL    HW120489   0.589   2.490   2.305
 6530SOL    HW220490   0.684   2.603   2.375
 6531SOL     OW20491   3.824   3.366   5.762
 6531SOL    HW120492   3.805   3.441   5.698
 6531SOL    HW220493   3.809   3.398   5.856
 6532SOL     OW20494   1.284   0.558   0.624
 6532SOL    HW120495   1.306   0.486   0.691
 6532SOL    HW220496   1.318   0.645   0.658
 6533SOL     OW20497   4.131   3.609   0.072
 6533SOL    HW120498   4.169   3.544   0.139
 6533SOL    HW220499   4.079   3.679   0.120
 6534SOL     OW20500   6.065   4.738   2.418
 6534SOL    HW120501   6.124   4.658   2.423
 6534SOL    HW220502   6.119   4.819   2.394
 6535SOL     OW20503   6.286   3.279   5.203
 6535SOL    HW120504   6.240   3.341   5.267
 6535SOL    HW220505   6.382   3.269   5.229
 6536SOL     OW20506   0.524   3.686   5.108
 6536SOL    HW120507   0.607   3.691   5.164
 6536SOL    HW220508   0.444   3.701   5.165
 6537SOL     OW20509   6.143   4.987   4.084
 6537SOL    HW120510   6.164   4.891   4.067
 6537SOL    HW220511   6.045   5.003   4.068
 6538SOL     OW20512   2.470   3.509   5.369
 6538SOL    HW120513   2.515   3.580   5.423
 6538SOL    HW220514   2.523   3.424   5.373
 6539SOL     OW20515   6.465   0.429   6.017
 6539SOL    HW120516   6.447   0.437   6.115
 6539SOL    HW220517   6.488   0.335   5.994
 6540SOL     OW20518   4.800   2.738   6.116
 6540SOL    HW120519   4.822   2.660   6.058
 6540SOL    HW220520   4.782   2.818   6.059
 6541SOL     OW20521   5.619   1.030   4.532
 6541SOL    HW120522   5.678   0.980   4.468
 6541SOL    HW220523   5.552   0.966   4.572
 6542SOL     OW20524   1.311   3.619   4.803
 6542SOL    HW120525   1.247   3.664   4.741
 6542SOL    HW220526   1.326   3.525   4.773
 6543SOL     OW20527   3.961   2.255   5.295
 6543SOL    HW120528   3.915   2.272   5.383
 6543SOL    HW220529   3.994   2.341   5.257
 6544SOL     OW20530   1.155   6.364   2.234
 6544SOL    HW120531   1.094   6.425   2.284
 6544SOL    HW220532   1.129   6.360   2.138
 6545SOL     OW20533   4.584   0.040   1.363
 6545SOL    HW120534   4.595   0.049   1.264
 6545SOL    HW220535   4.645   6.991   1.397
 6546SOL     OW20536   5.162   3.955   6.139
 6546SOL    HW120537   5.241   4.016   6.140
 6546SOL    HW220538   5.078   4.009   6.138
 6547SOL     OW20539   5.681   5.808   0.109
 6547SOL    HW120540   5.630   5.779   0.190
 6547SOL    HW220541   5.742   5.734   0.079
 6548SOL     OW20542   0.518   2.569   5.656
 6548SOL    HW120543   0.515   2.474   5.623
 6548SOL    HW220544   0.613   2.597   5.667
 6549SOL     OW20545   5.359   6.641   1.892
 6549SOL    HW120546   5.316   6.558   1.857
 6549SOL    HW220547   5.323   6.720   1.844
 6550SOL     OW20548   6.646   6.801   3.039
 6550SOL    HW120549   6.573   6.742   3.003
 6550SOL    HW220550   6.733   6.750   3.039
 6551SOL     OW20551   3.165   3.252   1.553
 6551SOL    HW120552   3.148   3.345   1.584
 6551SOL    HW220553   3.195   3.253   1.458
 6552SOL     OW20554   2.119   6.934   0.092
 6552SOL    HW120555   2.185   6.865   0.123
 6552SOL    HW220556   2.162   0.001   0.093
 6553SOL     OW20557   0.317   0.460   2.847
 6553SOL    HW120558   0.313   0.547   2.798
 6553SOL    HW220559   0.248   0.459   2.920
 6554SOL     OW20560   3.179   1.092   4.991
 6554SOL    HW120561   3.146   1.102   4.897
 6554SOL    HW220562   3.279   1.087   4.992
 6555SOL     OW20563   6.420   2.067   4.529
 6555SOL    HW120564   6.415   2.161   4.495
 6555SOL    HW220565   6.439   2.068   4.627
 6556SOL     OW20566   5.218   2.823   3.829
 6556SOL    HW120567   5.194   2.888   3.901
 6556SOL    HW220568   5.186   2.856   3.741
 6557SOL     OW20569   1.698   6.778   2.273
 6557SOL    HW120570   1.707   6.785   2.174
 6557SOL    HW220571   1.629   6.843   2.305
 6558SOL     OW20572   5.517   4.924   0.421
 6558SOL    HW120573   5.513   5.023   0.437
 6558SOL    HW220574   5.486   4.904   0.328
 6559SOL     OW20575   6.207   2.933   6.071
 6559SOL    HW120576   6.239   2.879   5.993
 6559SOL    HW220577   6.271   2.923   6.147
 6560SOL     OW20578   5.183   4.888   0.564
 6560SOL    HW120579   5.135   4.837   0.636
 6560SOL    HW220580   5.280   4.867   0.568
 6561SOL     OW20581   3.605   4.868   0.630
 6561SOL    HW120582   3.637   4.951   0.677
 6561SOL    HW220583   3.549   4.894   0.551
 6562SOL     OW20584   6.038   2.654   1.041
 6562SOL    HW120585   6.122   2.632   1.089
 6562SOL    HW220586   6.029   2.754   1.034
 6563SOL     OW20587   5.001   6.616   4.725
 6563SOL    HW120588   5.080   6.631   4.664
 6563SOL    HW220589   4.917   6.613   4.670
 6564SOL     OW20590   6.937   3.980   2.386
 6564SOL    HW120591   7.004   3.959   2.458
 6564SOL    HW220592   6.851   3.934   2.405
 6565SOL     OW20593   5.847   0.179   2.463
 6565SOL    HW120594   5.907   0.221   2.532
 6565SOL    HW220595   5.757   0.222   2.467
 6566SOL     OW20596   3.704   6.189   2.528
 6566SOL    HW120597   3.739   6.184   2.621
 6566SOL    HW220598   3.731   6.275   2.486
 6567SOL     OW20599   4.453   0.446   1.380
 6567SOL    HW120600   4.420   0.393   1.302
 6567SOL    HW220601   4.534   0.401   1.420
 6568SOL     OW20602   3.632   0.851   1.889
 6568SOL    HW120603   3.612   0.946   1.914
 6568SOL    HW220604   3.560   0.817   1.828
 6569SOL     OW20605   0.943   3.548   5.738
 6569SOL    HW120606   0.958   3.623   5.673
 6569SOL    HW220607   0.908   3.585   5.825
 6570SOL     OW20608   3.590   6.499   1.814
 6570SOL    HW120609   3.491   6.491   1.800
 6570SOL    HW220610   3.628   6.561   1.745
 6571SOL     OW20611   2.766   5.066   3.417
 6571SOL    HW120612   2.780   5.128   3.340
 6571SOL    HW220613   2.778   4.972   3.387
 6572SOL     OW20614   0.355   6.112   4.110
 6572SOL    HW120615   0.304   6.038   4.066
 6572SOL    HW220616   0.373   6.088   4.205
 6573SOL     OW20617   2.087   1.518   2.701
 6573SOL    HW120618   2.151   1.448   2.671
 6573SOL    HW220619   2.016   1.477   2.758
 6574SOL     OW20620   1.911   6.163   1.946
 6574SOL    HW120621   2.007   6.184   1.932
 6574SOL    HW220622   1.888   6.079   1.895
 6575SOL     OW20623   6.831   0.249   2.416
 6575SOL    HW120624   6.857   0.281   2.508
 6575SOL    HW220625   6.755   0.304   2.382
 6576SOL     OW20626   3.479   5.885   0.686
 6576SOL    HW120627   3.482   5.825   0.765
 6576SOL    HW220628   3.435   5.972   0.711
 6577SOL     OW20629   2.072   2.197   3.886
 6577SOL    HW120630   2.020   2.153   3.812
 6577SOL    HW220631   2.145   2.136   3.916
 6578SOL     OW20632   1.981   5.412   1.833
 6578SOL    HW120633   1.930   5.358   1.901
 6578SOL    HW220634   2.072   5.373   1.820
 6579SOL     OW20635   0.284   1.210   3.843
 6579SOL    HW120636   0.257   1.225   3.748
 6579SOL    HW220637   0.232   1.270   3.903
 6580SOL     OW20638   0.960   0.207   6.916
 6580SOL    HW120639   1.038   0.205   6.978
 6580SOL    HW220640   0.876   0.191   6.967
 6581SOL     OW20641   1.731   1.948   6.737
 6581SOL    HW120642   1.643   1.931   6.781
 6581SOL    HW220643   1.802   1.896   6.783
 6582SOL     OW20644   6.361   0.790   2.860
 6582SOL    HW120645   6.385   0.718   2.795
 6582SOL    HW220646   6.317   0.750   2.940
 6583SOL     OW20647   4.344   6.176   6.741
 6583SOL    HW120648   4.378   6.083   6.730
 6583SOL    HW220649   4.268   6.191   6.678
 6584SOL     OW20650   3.454   2.271   1.011
 6584SOL    HW120651   3.361   2.287   1.045
 6584SOL    HW220652   3.464   2.176   0.984
 6585SOL     OW20653   5.964   0.317   1.131
 6585SOL    HW120654   5.903   0.395   1.143
 6585SOL    HW220655   6.053   0.348   1.098
 6586SOL     OW20656   6.272   2.440   5.860
 6586SOL    HW120657   6.262   2.436   5.959
 6586SOL    HW220658   6.237   2.356   5.819
 6587SOL     OW20659   1.262   4.208   5.463
 6587SOL    HW120660   1.292   4.172   5.551
 6587SOL    HW220661   1.342   4.220   5.403
 6588SOL     OW20662   0.548   3.126   0.421
 6588SOL    HW120663   0.486   3.096   0.494
 6588SOL    HW220664   0.642   3.127   0.455
 6589SOL     OW20665   6.713   0.836   1.686
 6589SOL    HW120666   6.707   0.803   1.592
 6589SOL    HW220667   6.682   0.931   1.689
 6590SOL     OW20668   1.170   0.704   4.372
 6590SOL    HW120669   1.136   0.739   4.459
 6590SOL    HW220670   1.181   0.605   4.378
 6591SOL     OW20671   5.353   4.679   3.999
 6591SOL    HW120672   5.305   4.593   3.983
 6591SOL    HW220673   5.319   4.749   3.935
 6592SOL     OW20674   4.972   6.402   2.948
 6592SOL    HW120675   4.950   6.368   3.039
 6592SOL    HW220676   4.982   6.325   2.885
 6593SOL     OW20677   2.699   2.357   2.539
 6593SOL    HW120678   2.677   2.272   2.587
 6593SOL    HW220679   2.631   2.427   2.561
 6594SOL     OW20680   4.007   1.991   6.177
 6594SOL    HW120681   4.023   1.964   6.271
 6594SOL    HW220682   4.073   1.945   6.117
 6595SOL     OW20683   1.960   2.148   4.910
 6595SOL    HW120684   1.870   2.118   4.880
 6595SOL    HW220685   2.010   2.188   4.833
 6596SOL     OW20686   5.574   5.980   2.522
 6596SOL    HW120687   5.476   5.993   2.533
 6596SOL    HW220688   5.612   5.940   2.606
 6597SOL     OW20689   1.304   4.889   2.494
 6597SOL    HW120690   1.375   4.863   2.428
 6597SOL    HW220691   1.341   4.883   2.587
 6598SOL     OW20692   1.952   4.883   4.270
 6598SOL    HW120693   1.853   4.881   4.283
 6598SOL    HW220694   1.975   4.952   4.201
 6599SOL     OW20695   6.002   6.086   5.994
 6599SOL    HW120696   5.936   6.102   5.920
 6599SOL    HW220697   6.085   6.045   5.956
 6600SOL     OW20698   4.655   6.774   5.406
 6600SOL    HW120699   4.575   6.732   5.362
 6600SOL    HW220700   4.648   6.874   5.398
 6601SOL     OW20701   1.299   3.130   2.323
 6601SOL    HW120702   1.299   3.109   2.421
 6601SOL    HW220703   1.380   3.184   2.300
 6602SOL     OW20704   2.244   0.119   1.266
 6602SOL    HW120705   2.328   0.174   1.270
 6602SOL    HW220706   2.167   0.173   1.298
 6603SOL     OW20707   0.415   2.777   3.302
 6603SOL    HW120708   0.441   2.738   3.214
 6603SOL    HW220709   0.442   2.873   3.306
 6604SOL     OW20710   2.076   6.817   1.817
 6604SOL    HW120711   2.115   6.829   1.726
 6604SOL    HW220712   2.069   6.720   1.838
 6605SOL     OW20713   6.133   5.453   1.713
 6605SOL    HW120714   6.128   5.462   1.614
 6605SOL    HW220715   6.058   5.395   1.745
 6606SOL     OW20716   1.926   3.412   3.773
 6606SOL    HW120717   1.855   3.357   3.817
 6606SOL    HW220718   2.013   3.363   3.778
 6607SOL     OW20719   5.579   3.812   3.353
 6607SOL    HW120720   5.606   3.769   3.439
 6607SOL    HW220721   5.654   3.808   3.288
 6608SOL     OW20722   6.948   6.950   6.281
 6608SOL    HW120723   0.012   6.993   6.305
 6608SOL    HW220724   6.915   6.986   6.194
 6609SOL     OW20725   4.694   2.146   5.747
 6609SOL    HW120726   4.767   2.079   5.740
 6609SOL    HW220727   4.665   2.174   5.656
 6610SOL     OW20728   2.987   5.466   1.145
 6610SOL    HW120729   2.956   5.533   1.212
 6610SOL    HW220730   3.066   5.417   1.181
 6611SOL     OW20731   4.928   2.157   3.997
 6611SOL    HW120732   4.987   2.079   4.017
 6611SOL    HW220733   4.832   2.127   3.995
 6612SOL     OW20734   5.921   2.080   6.642
 6612SOL    HW120735   5.984   2.007   6.669
 6612SOL    HW220736   5.943   2.163   6.694
 6613SOL     OW20737   4.923   0.496   6.925
 6613SOL    HW120738   4.893   0.548   7.005
 6613SOL    HW220739   5.016   0.463   6.940
 6614SOL     OW20740   4.448   5.913   2.176
 6614SOL    HW120741   4.430   6.010   2.196
 6614SOL    HW220742   4.364   5.860   2.189
 6615SOL     OW20743   2.703   5.923   0.678
 6615SOL    HW120744   2.659   5.852   0.732
 6615SOL    HW220745   2.722   6.002   0.736
 6616SOL     OW20746   4.572   0.739   6.387
 6616SOL    HW120747   4.645   0.671   6.393
 6616SOL    HW220748   4.503   0.719   6.457
 6617SOL     OW20749   4.079   0.670   3.788
 6617SOL    HW120750   4.117   0.595   3.734
 6617SOL    HW220751   4.133   0.753   3.774
 6618SOL     OW20752   0.399   2.037   3.189
 6618SOL    HW120753   0.451   1.961   3.152
 6618SOL    HW220754   0.302   2.012   3.193
 6619SOL     OW20755   4.677   6.201   4.195
 6619SOL    HW120756   4.722   6.211   4.106
 6619SOL    HW220757   4.687   6.286   4.247
 6620SOL     OW20758   0.556   3.447   3.730
 6620SOL    HW120759   0.505   3.444   3.644
 6620SOL    HW220760   0.624   3.374   3.731
 6621SOL     OW20761   3.928   3.350   5.054
 6621SOL    HW120762   3.926   3.260   5.010
 6621SOL    HW220763   3.981   3.413   4.997
 6622SOL     OW20764   6.937   6.059   0.886
 6622SOL    HW120765   6.870   6.090   0.953
 6622SOL    HW220766   6.914   6.097   0.796
 6623SOL     OW20767   3.125   4.681   5.770
 6623SOL    HW120768   3.200   4.647   5.713
 6623SOL    HW220769   3.038   4.662   5.725
 6624SOL     OW20770   0.804   2.205   4.759
 6624SOL    HW120771   0.831   2.261   4.681
 6624SOL    HW220772   0.806   2.108   4.733
 6625SOL     OW20773   6.001   2.759   5.533
 6625SOL    HW120774   5.929   2.717   5.587
 6625SOL    HW220775   5.968   2.844   5.493
 6626SOL     OW20776   2.866   6.520   4.875
 6626SOL    HW120777   2.929   6.586   4.834
 6626SOL    HW220778   2.861   6.535   4.974
 6627SOL     OW20779   1.186   5.942   4.524
 6627SOL    HW120780   1.199   5.891   4.609
 6627SOL    HW220781   1.121   5.893   4.466
 6628SOL     OW20782   4.850   5.648   4.198
 6628SOL    HW120783   4.883   5.609   4.284
 6628SOL    HW220784   4.818   5.741   4.213
 6629SOL     OW20785   5.361   6.112   6.829
 6629SOL    HW120786   5.295   6.165   6.881
 6629SOL    HW220787   5.386   6.030   6.881
 6630SOL     OW20788   2.190   1.616   1.518
 6630SOL    HW120789   2.122   1.574   1.459
 6630SOL    HW220790   2.182   1.716   1.512
 6631SOL     OW20791   1.855   4.858   6.176
 6631SOL    HW120792   1.834   4.877   6.271
 6631SOL    HW220793   1.794   4.911   6.117
 6632SOL     OW20794   1.182   0.150   0.267
 6632SOL    HW120795   1.272   0.117   0.296
 6632SOL    HW220796   1.131   0.182   0.347
 6633SOL     OW20797   3.204   5.557   6.488
 6633SOL    HW120798   3.136   5.601   6.546
 6633SOL    HW220799   3.166   5.473   6.449
 6634SOL     OW20800   5.132   1.551   5.112
 6634SOL    HW120801   5.135   1.648   5.136
 6634SOL    HW220802   5.166   1.497   5.190
 6635SOL     OW20803   5.255   4.654   2.096
 6635SOL    HW120804   5.344   4.609   2.086
 6635SOL    HW220805   5.209   4.656   2.007
 6636SOL     OW20806   3.575   0.104   1.720
 6636SOL    HW120807   3.606   0.158   1.641
 6636SOL    HW220808   3.627   0.019   1.725
 6637SOL     OW20809   1.563   0.815   0.643
 6637SOL    HW120810   1.552   0.753   0.721
 6637SOL    HW220811   1.503   0.894   0.655
 6638SOL     OW20812   3.258   3.926   3.784
 6638SOL    HW120813   3.261   3.832   3.750
 6638SOL    HW220814   3.300   3.987   3.716
 6639SOL     OW20815   4.722   2.893   1.286
 6639SOL    HW120816   4.730   2.966   1.218
 6639SOL    HW220817   4.650   2.916   1.352
 6640SOL     OW20818   0.923   2.885   5.145
 6640SOL    HW120819   0.861   2.844   5.212
 6640SOL    HW220820   1.018   2.872   5.175
 6641SOL     OW20821   3.884   1.699   0.992
 6641SOL    HW120822   3.797   1.683   1.037
 6641SOL    HW220823   3.889   1.795   0.962
 6642SOL     OW20824   1.296   5.603   0.321
 6642SOL    HW120825   1.199   5.620   0.309
 6642SOL    HW220826   1.332   5.663   0.393
 6643SOL     OW20827   4.943   6.670   0.334
 6643SOL    HW120828   4.876   6.727   0.381
 6643SOL    HW220829   4.947   6.580   0.377
 6644SOL     OW20830   1.766   6.385   2.921
 6644SOL    HW120831   1.690   6.378   2.856
 6644SOL    HW220832   1.751   6.465   2.979
 6645SOL     OW20833   6.305   2.905   0.192
 6645SOL    HW120834   6.323   2.963   0.112
 6645SOL    HW220835   6.388   2.896   0.246
 6646SOL     OW20836   3.931   6.945   6.823
 6646SOL    HW120837   3.855   6.905   6.772
 6646SOL    HW220838   3.941   0.019   6.799
 6647SOL     OW20839   4.660   5.075   1.081
 6647SOL    HW120840   4.691   4.980   1.084
 6647SOL    HW220841   4.637   5.106   1.173
 6648SOL     OW20842   3.063   6.372   5.013
 6648SOL    HW120843   3.041   6.379   4.916
 6648SOL    HW220844   3.037   6.281   5.046
 6649SOL     OW20845   5.958   2.541   6.841
 6649SOL    HW120846   5.975   2.474   6.768
 6649SOL    HW220847   5.892   2.503   6.906
 6650SOL     OW20848   3.071   1.224   5.474
 6650SOL    HW120849   3.073   1.312   5.426
 6650SOL    HW220850   3.013   1.160   5.424
 6651SOL     OW20851   0.708   1.667   6.902
 6651SOL    HW120852   0.699   1.600   6.828
 6651SOL    HW220853   0.659   1.750   6.878
 6652SOL     OW20854   1.237   4.861   0.216
 6652SOL    HW120855   1.269   4.856   0.311
 6652SOL    HW220856   1.156   4.804   0.204
 6653SOL     OW20857   5.411   2.704   0.593
 6653SOL    HW120858   5.409   2.802   0.613
 6653SOL    HW220859   5.502   2.677   0.562
 6654SOL     OW20860   0.619   4.413   3.107
 6654SOL    HW120861   0.597   4.486   3.043
 6654SOL    HW220862   0.540   4.394   3.165
 6655SOL     OW20863   6.801   5.283   1.675
 6655SOL    HW120864   6.886   5.335   1.670
 6655SOL    HW220865   6.757   5.299   1.763
 6656SOL     OW20866   4.219   1.441   2.569
 6656SOL    HW120867   4.218   1.369   2.500
 6656SOL    HW220868   4.142   1.502   2.554
 6657SOL     OW20869   5.565   2.546   4.805
 6657SOL    HW120870   5.519   2.634   4.813
 6657SOL    HW220871   5.522   2.492   4.732
 6658SOL     OW20872   6.180   6.564   4.743
 6658SOL    HW120873   6.224   6.476   4.729
 6658SOL    HW220874   6.235   6.619   4.806
 6659SOL     OW20875   1.268   4.754   1.936
 6659SOL    HW120876   1.225   4.685   1.878
 6659SOL    HW220877   1.201   4.792   1.999
 6660SOL     OW20878   0.556   5.421   2.908
 6660SOL    HW120879   0.523   5.492   2.847
 6660SOL    HW220880   0.479   5.367   2.942
 6661SOL     OW20881   3.280   6.551   4.153
 6661SOL    HW120882   3.343   6.608   4.101
 6661SOL    HW220883   3.246   6.478   4.095
 6662SOL     OW20884   2.601   6.884   1.687
 6662SOL    HW120885   2.650   6.951   1.632
 6662SOL    HW220886   2.530   6.931   1.741
 6663SOL     OW20887   1.336   5.040   6.025
 6663SOL    HW120888   1.285   5.125   6.013
 6663SOL    HW220889   1.421   5.044   5.973
 6664SOL     OW20890   2.668   0.775   1.520
 6664SOL    HW120891   2.762   0.784   1.553
 6664SOL    HW220892   2.622   0.864   1.526
 6665SOL     OW20893   2.504   0.532   5.820
 6665SOL    HW120894   2.517   0.452   5.879
 6665SOL    HW220895   2.584   0.591   5.825
 6666SOL     OW20896   5.925   5.929   4.731
 6666SOL    HW120897   6.023   5.924   4.715
 6666SOL    HW220898   5.881   5.844   4.699
 6667SOL     OW20899   6.256   6.312   5.726
 6667SOL    HW120900   6.280   6.396   5.774
 6667SOL    HW220901   6.162   6.288   5.746
 6668SOL     OW20902   6.862   6.633   1.467
 6668SOL    HW120903   6.840   6.595   1.557
 6668SOL    HW220904   6.785   6.619   1.405
 6669SOL     OW20905   2.051   1.521   2.012
 6669SOL    HW120906   2.010   1.435   2.044
 6669SOL    HW220907   2.023   1.595   2.072
 6670SOL     OW20908   3.450   2.019   6.845
 6670SOL    HW120909   3.464   1.984   6.938
 6670SOL    HW220910   3.485   1.952   6.779
 6671SOL     OW20911   5.090   6.572   0.079
 6671SOL    HW120912   5.055   6.561   0.171
 6671SOL    HW220913   5.027   6.530   0.014
 6672SOL     OW20914   1.323   2.626   0.265
 6672SOL    HW120915   1.326   2.682   0.349
 6672SOL    HW220916   1.360   2.535   0.285
 6673SOL     OW20917   5.396   3.460   4.459
 6673SOL    HW120918   5.402   3.412   4.372
 6673SOL    HW220919   5.301   3.487   4.476
 6674SOL     OW20920   0.465   2.980   6.566
 6674SOL    HW120921   0.389   2.933   6.611
 6674SOL    HW220922   0.429   3.040   6.494
 6675SOL     OW20923   4.517   2.873   6.977
 6675SOL    HW120924   4.434   2.856   6.924
 6675SOL    HW220925   4.591   2.898   6.915
 6676SOL     OW20926   1.249   3.913   3.819
 6676SOL    HW120927   1.346   3.889   3.814
 6676SOL    HW220928   1.195   3.832   3.839
 6677SOL     OW20929   0.530   1.079   0.468
 6677SOL    HW120930   0.466   1.026   0.412
 6677SOL    HW220931   0.547   1.168   0.423
 6678SOL     OW20932   1.647   4.672   0.668
 6678SOL    HW120933   1.734   4.718   0.648
 6678SOL    HW220934   1.596   4.726   0.735
 6679SOL     OW20935   2.621   1.018   3.627
 6679SOL    HW120936   2.633   1.108   3.585
 6679SOL    HW220937   2.525   0.992   3.624
 6680SOL     OW20938   5.443   6.828   0.340
 6680SOL    HW120939   5.505   6.779   0.401
 6680SOL    HW220940   5.377   6.763   0.301
 6681SOL     OW20941   4.489   5.556   1.583
 6681SOL    HW120942   4.542   5.492   1.639
 6681SOL    HW220943   4.450   5.627   1.642
 6682SOL     OW20944   3.197   5.712   0.000
 6682SOL    HW120945   3.236   5.652   6.953
 6682SOL    HW220946   3.117   5.759   6.986
 6683SOL     OW20947   6.078   3.724   6.684
 6683SOL    HW120948   6.091   3.652   6.616
 6683SOL    HW220949   6.055   3.809   6.638
 6684SOL     OW20950   3.249   7.002   1.637
 6684SOL    HW120951   3.195   0.062   1.624
 6684SOL    HW220952   3.196   6.923   1.605
 6685SOL     OW20953   4.058   3.563   6.551
 6685SOL    HW120954   4.092   3.610   6.632
 6685SOL    HW220955   4.053   3.465   6.569
 6686SOL     OW20956   5.606   5.267   4.078
 6686SOL    HW120957   5.512   5.299   4.084
 6686SOL    HW220958   5.611   5.191   4.013
 6687SOL     OW20959   6.560   2.267   1.857
 6687SOL    HW120960   6.639   2.289   1.800
 6687SOL    HW220961   6.537   2.170   1.844
 6688SOL     OW20962   3.777   5.079   1.228
 6688SOL    HW120963   3.677   5.083   1.224
 6688SOL    HW220964   3.814   5.172   1.226
 6689SOL     OW20965   2.796   5.106   6.222
 6689SOL    HW120966   2.868   5.145   6.165
 6689SOL    HW220967   2.722   5.072   6.164
 6690SOL     OW20968   0.798   0.274   6.079
 6690SOL    HW120969   0.731   0.262   6.152
 6690SOL    HW220970   0.809   0.371   6.059
 6691SOL     OW20971   1.945   1.808   2.554
 6691SOL    HW120972   1.905   1.745   2.621
 6691SOL    HW220973   2.019   1.860   2.598
 6692SOL     OW20974   4.261   4.707   1.488
 6692SOL    HW120975   4.178   4.756   1.461
 6692SOL    HW220976   4.239   4.638   1.557
 6693SOL     OW20977   4.668   1.520   5.150
 6693SOL    HW120978   4.762   1.516   5.118
 6693SOL    HW220979   4.608   1.550   5.076
 6694SOL     OW20980   3.709   5.992   1.147
 6694SOL    HW120981   3.706   5.950   1.056
 6694SOL    HW220982   3.785   6.057   1.151
 6695SOL     OW20983   3.042   2.099   0.047
 6695SOL    HW120984   3.078   2.137   0.131
 6695SOL    HW220985   2.948   2.131   0.033
 6696SOL     OW20986   4.022   3.882   4.290
 6696SOL    HW120987   4.014   3.870   4.389
 6696SOL    HW220988   3.968   3.961   4.261
 6697SOL     OW20989   4.785   1.979   2.370
 6697SOL    HW120990   4.715   2.004   2.303
 6697SOL    HW220991   4.747   1.912   2.435
 6698SOL     OW20992   3.661   4.203   1.718
 6698SOL    HW120993   3.572   4.228   1.680
 6698SOL    HW220994   3.722   4.282   1.716
 6699SOL     OW20995   1.271   4.910   5.627
 6699SOL    HW120996   1.280   4.996   5.576
 6699SOL    HW220997   1.359   4.886   5.668
 6700SOL     OW20998   6.094   0.602   0.661
 6700SOL    HW120999   6.062   0.689   0.623
 6700SOL    HW221000   6.020   0.535   0.660
 6701SOL     OW21001   5.846   6.602   1.597
 6701SOL    HW121002   5.859   6.579   1.694
 6701SOL    HW221003   5.818   6.521   1.547
 6702SOL     OW21004   2.542   1.977   1.059
 6702SOL    HW121005   2.565   1.959   1.155
 6702SOL    HW221006   2.520   1.891   1.013
 6703SOL     OW21007   1.683   1.979   5.842
 6703SOL    HW121008   1.688   2.047   5.770
 6703SOL    HW221009   1.588   1.972   5.874
 6704SOL     OW21010   3.872   1.668   5.032
 6704SOL    HW121011   3.896   1.581   4.989
 6704SOL    HW221012   3.884   1.743   4.966
 6705SOL     OW21013   6.508   3.684   1.320
 6705SOL    HW121014   6.454   3.742   1.259
 6705SOL    HW221015   6.516   3.728   1.409
 6706SOL     OW21016   0.734   6.115   1.197
 6706SOL    HW121017   0.704   6.206   1.225
 6706SOL    HW221018   0.765   6.064   1.278
 6707SOL     OW21019   6.268   0.504   2.488
 6707SOL    HW121020   6.279   0.439   2.563
 6707SOL    HW221021   6.198   0.471   2.425
 6708SOL     OW21022   6.771   4.202   1.308
 6708SOL    HW121023   6.770   4.105   1.331
 6708SOL    HW221024   6.768   4.212   1.209
 6709SOL     OW21025   1.502   4.593   2.048
 6709SOL    HW121026   1.404   4.612   2.039
 6709SOL    HW221027   1.549   4.618   1.964
 6710SOL     OW21028   4.126   1.121   2.047
 6710SOL    HW121029   4.076   1.196   2.090
 6710SOL    HW221030   4.223   1.145   2.042
 6711SOL     OW21031   4.527   5.960   6.646
 6711SOL    HW121032   4.573   5.879   6.610
 6711SOL    HW221033   4.584   6.041   6.628
 6712SOL     OW21034   6.011   3.679   0.399
 6712SOL    HW121035   5.974   3.587   0.390
 6712SOL    HW221036   6.097   3.686   0.347
 6713SOL     OW21037   1.815   0.441   4.115
 6713SOL    HW121038   1.752   0.365   4.130
 6713SOL    HW221039   1.778   0.523   4.159
 6714SOL     OW21040   5.820   1.199   0.349
 6714SOL    HW121041   5.901   1.256   0.360
 6714SOL    HW221042   5.781   1.179   0.439
 6715SOL     OW21043   1.254   1.199   1.089
 6715SOL    HW121044   1.253   1.209   1.188
 6715SOL    HW221045   1.305   1.117   1.064
 6716SOL     OW21046   6.793   5.448   2.541
 6716SOL    HW121047   6.739   5.377   2.497
 6716SOL    HW221048   6.735   5.500   2.604
 6717SOL     OW21049   3.293   2.715   6.881
 6717SOL    HW121050   3.339   2.700   6.793
 6717SOL    HW221051   3.264   2.627   6.918
 6718SOL     OW21052   3.343   1.077   2.046
 6718SOL    HW121053   3.374   1.013   2.116
 6718SOL    HW221054   3.259   1.042   2.003
 6719SOL     OW21055   1.844   6.946   0.142
 6719SOL    HW121056   1.839   0.021   0.158
 6719SOL    HW221057   1.939   6.920   0.121
 6720SOL     OW21058   2.445   0.815   6.005
 6720SOL    HW121059   2.381   0.888   6.028
 6720SOL    HW221060   2.409   0.761   5.929
 6721SOL     OW21061   0.383   1.347   0.544
 6721SOL    HW121062   0.463   1.403   0.565
 6721SOL    HW221063   0.393   1.257   0.587
 6722SOL     OW21064   6.436   2.973   6.958
 6722SOL    HW121065   6.531   2.978   6.928
 6722SOL    HW221066   6.380   3.034   6.902
 6723SOL     OW21067   1.474   1.968   6.240
 6723SOL    HW121068   1.489   1.909   6.161
 6723SOL    HW221069   1.538   1.943   6.313
 6724SOL     OW21070   2.254   3.148   6.005
 6724SOL    HW121071   2.207   3.093   5.936
 6724SOL    HW221072   2.200   3.229   6.026
 6725SOL     OW21073   5.890   2.885   3.204
 6725SOL    HW121074   5.847   2.963   3.250
 6725SOL    HW221075   5.977   2.864   3.250
 6726SOL     OW21076   0.205   1.265   5.544
 6726SOL    HW121077   0.255   1.191   5.499
 6726SOL    HW221078   0.226   1.266   5.642
 6727SOL     OW21079   0.946   4.630   5.564
 6727SOL    HW121080   1.029   4.674   5.528
 6727SOL    HW221081   0.954   4.530   5.553
 6728SOL     OW21082   4.062   1.886   3.314
 6728SOL    HW121083   4.014   1.973   3.301
 6728SOL    HW221084   4.105   1.859   3.228
 6729SOL     OW21085   5.608   1.897   1.065
 6729SOL    HW121086   5.556   1.983   1.062
 6729SOL    HW221087   5.631   1.875   1.159
 6730SOL     OW21088   1.572   1.092   0.835
 6730SOL    HW121089   1.531   1.046   0.913
 6730SOL    HW221090   1.504   1.101   0.762
 6731SOL     OW21091   2.302   6.599   1.187
 6731SOL    HW121092   2.333   6.504   1.186
 6731SOL    HW221093   2.203   6.602   1.178
 6732SOL     OW21094   5.872   4.326   4.425
 6732SOL    HW121095   5.938   4.252   4.410
 6732SOL    HW221096   5.787   4.306   4.375
 6733SOL     OW21097   3.290   6.175   7.017
 6733SOL    HW121098   3.361   6.243   6.997
 6733SOL    HW221099   3.333   6.085   0.006
 6734SOL     OW21100   5.211   1.533   4.812
 6734SOL    HW121101   5.149   1.516   4.889
 6734SOL    HW221102   5.157   1.565   4.734
 6735SOL     OW21103   5.782   3.173   4.085
 6735SOL    HW121104   5.783   3.249   4.150
 6735SOL    HW221105   5.774   3.087   4.135
 6736SOL     OW21106   3.363   4.092   1.241
 6736SOL    HW121107   3.402   4.047   1.161
 6736SOL    HW221108   3.280   4.141   1.214
 6737SOL     OW21109   0.795   2.727   1.473
 6737SOL    HW121110   0.785   2.823   1.501
 6737SOL    HW221111   0.791   2.668   1.553
 6738SOL     OW21112   1.667   5.436   3.294
 6738SOL    HW121113   1.713   5.513   3.338
 6738SOL    HW221114   1.642   5.368   3.362
 6739SOL     OW21115   6.699   0.004   3.875
 6739SOL    HW121116   6.691   7.012   3.777
 6739SOL    HW221117   6.738   6.946   3.918
 6740SOL     OW21118   6.550   6.946   4.382
 6740SOL    HW121119   6.546   6.890   4.465
 6740SOL    HW221120   6.576   6.889   4.304
 6741SOL     OW21121   4.894   1.889   5.746
 6741SOL    HW121122   4.830   1.881   5.823
 6741SOL    HW221123   4.983   1.853   5.773
 6742SOL     OW21124   5.354   4.530   3.402
 6742SOL    HW121125   5.441   4.506   3.359
 6742SOL    HW221126   5.296   4.577   3.335
 6743SOL     OW21127   3.900   4.421   6.763
 6743SOL    HW121128   3.838   4.414   6.684
 6743SOL    HW221129   3.992   4.391   6.736
 6744SOL     OW21130   6.632   5.494   6.182
 6744SOL    HW121131   6.667   5.501   6.276
 6744SOL    HW221132   6.698   5.534   6.119
 6745SOL     OW21133   0.155   6.279   4.004
 6745SOL    HW121134   0.238   6.226   4.024
 6745SOL    HW221135   0.089   6.265   4.077
 6746SOL     OW21136   1.774   1.581   2.706
 6746SOL    HW121137   1.771   1.599   2.805
 6746SOL    HW221138   1.710   1.640   2.659
 6747SOL     OW21139   0.311   6.633   6.565
 6747SOL    HW121140   0.381   6.578   6.518
 6747SOL    HW221141   0.225   6.583   6.566
 6748SOL     OW21142   3.047   1.591   4.247
 6748SOL    HW121143   3.041   1.629   4.340
 6748SOL    HW221144   3.111   1.514   4.248
 6749SOL     OW21145   3.435   4.052   0.774
 6749SOL    HW121146   3.531   4.045   0.748
 6749SOL    HW221147   3.407   4.147   0.773
 6750SOL     OW21148   2.715   1.257   4.449
 6750SOL    HW121149   2.789   1.234   4.385
 6750SOL    HW221150   2.750   1.251   4.543
 6751SOL     OW21151   4.536   0.264   3.534
 6751SOL    HW121152   4.500   0.175   3.562
 6751SOL    HW221153   4.467   0.334   3.548
 6752SOL     OW21154   1.633   6.562   2.510
 6752SOL    HW121155   1.706   6.608   2.561
 6752SOL    HW221156   1.642   6.583   2.413
 6753SOL     OW21157   3.790   2.271   5.518
 6753SOL    HW121158   3.767   2.341   5.586
 6753SOL    HW221159   3.717   2.265   5.450
 6754SOL     OW21160   6.108   0.660   0.924
 6754SOL    HW121161   6.072   0.633   0.835
 6754SOL    HW221162   6.044   0.724   0.967
 6755SOL     OW21163   3.169   4.945   1.221
 6755SOL    HW121164   3.072   4.920   1.232
 6755SOL    HW221165   3.177   5.016   1.152
 6756SOL     OW21166   2.539   1.188   5.774
 6756SOL    HW121167   2.489   1.215   5.692
 6756SOL    HW221168   2.635   1.212   5.764
 6757SOL     OW21169   3.481   1.220   1.095
 6757SOL    HW121170   3.563   1.276   1.103
 6757SOL    HW221171   3.500   1.128   1.128
 6758SOL     OW21172   4.953   2.548   1.112
 6758SOL    HW121173   4.943   2.592   1.201
 6758SOL    HW221174   4.885   2.585   1.048
 6759SOL     OW21175   6.895   3.342   3.038
 6759SOL    HW121176   6.866   3.256   2.995
 6759SOL    HW221177   6.940   3.400   2.971
 6760SOL     OW21178   5.989   3.116   2.653
 6760SOL    HW121179   5.935   3.077   2.728
 6760SOL    HW221180   5.927   3.150   2.582
 6761SOL     OW21181   4.924   2.475   4.502
 6761SOL    HW121182   4.862   2.478   4.423
 6761SOL    HW221183   4.905   2.394   4.557
 6762SOL     OW21184   0.428   5.142   4.032
 6762SOL    HW121185   0.435   5.151   3.933
 6762SOL    HW221186   0.407   5.048   4.056
 6763SOL     OW21187   5.145   5.991   5.401
 6763SOL    HW121188   5.196   5.972   5.317
 6763SOL    HW221189   5.107   5.906   5.437
 6764SOL     OW21190   1.328   5.497   2.066
 6764SOL    HW121191   1.279   5.478   1.981
 6764SOL    HW221192   1.391   5.574   2.052
 6765SOL     OW21193   6.495   4.804   4.026
 6765SOL    HW121194   6.506   4.870   4.101
 6765SOL    HW221195   6.500   4.851   3.939
 6766SOL     OW21196   4.147   6.387   6.983
 6766SOL    HW121197   4.186   6.429   6.901
 6766SOL    HW221198   4.219   6.372   0.027
 6767SOL     OW21199   3.182   0.795   0.569
 6767SOL    HW121200   3.264   0.830   0.615
 6767SOL    HW221201   3.191   0.807   0.471
 6768SOL     OW21202   1.921   0.773   6.056
 6768SOL    HW121203   1.909   0.841   5.984
 6768SOL    HW221204   2.019   0.759   6.073
 6769SOL     OW21205   3.215   2.470   7.006
 6769SOL    HW121206   3.293   2.418   0.017
 6769SOL    HW221207   3.177   2.424   6.925
 6770SOL     OW21208   6.651   0.676   2.130
 6770SOL    HW121209   6.630   0.729   2.213
 6770SOL    HW221210   6.713   0.728   2.072
 6771SOL     OW21211   4.842   2.538   2.972
 6771SOL    HW121212   4.830   2.525   2.873
 6771SOL    HW221213   4.912   2.476   3.005
 6772SOL     OW21214   3.146   1.247   2.920
 6772SOL    HW121215   3.180   1.243   2.826
 6772SOL    HW221216   3.092   1.166   2.939
 6773SOL     OW21217   6.621   4.486   1.591
 6773SOL    HW121218   6.567   4.474   1.507
 6773SOL    HW221219   6.694   4.418   1.594
 6774SOL     OW21220   6.969   2.797   6.216
 6774SOL    HW121221   6.972   2.699   6.233
 6774SOL    HW221222   0.029   2.840   6.252
 6775SOL     OW21223   2.710   3.373   0.871
 6775SOL    HW121224   2.733   3.411   0.960
 6775SOL    HW221225   2.680   3.278   0.881
 6776SOL     OW21226   4.222   4.848   6.924
 6776SOL    HW121227   4.304   4.817   6.973
 6776SOL    HW221228   4.197   4.781   6.855
 6777SOL     OW21229   3.838   4.538   6.347
 6777SOL    HW121230   3.830   4.466   6.278
 6777SOL    HW221231   3.933   4.567   6.354
 6778SOL     OW21232   0.383   4.441   2.010
 6778SOL    HW121233   0.391   4.344   2.033
 6778SOL    HW221234   0.474   4.482   2.007
 6779SOL     OW21235   6.383   4.359   6.442
 6779SOL    HW121236   6.444   4.348   6.521
 6779SOL    HW221237   6.434   4.397   6.366
 6780SOL     OW21238   0.831   2.219   2.569
 6780SOL    HW121239   0.733   2.213   2.587
 6780SOL    HW221240   0.851   2.182   2.478
 6781SOL     OW21241   5.565   6.652   5.108
 6781SOL    HW121242   5.498   6.623   5.177
 6781SOL    HW221243   5.518   6.699   5.034
 6782SOL     OW21244   0.161   0.278   2.600
 6782SOL    HW121245   0.156   0.182   2.625
 6782SOL    HW221246   0.184   0.333   2.680
 6783SOL     OW21247   0.198   0.049   6.307
 6783SOL    HW121248   0.253   7.006   6.359
 6783SOL    HW221249   0.257   0.095   6.241
 6784SOL     OW21250   3.510   4.117   0.358
 6784SOL    HW121251   3.559   4.033   0.334
 6784SOL    HW221252   3.558   4.196   0.318
 6785SOL     OW21253   5.330   4.885   2.448
 6785SOL    HW121254   5.253   4.821   2.452
 6785SOL    HW221255   5.413   4.838   2.479
 6786SOL     OW21256   1.220   1.800   6.648
 6786SOL    HW121257   1.192   1.712   6.686
 6786SOL    HW221258   1.229   1.792   6.549
 6787SOL     OW21259   1.684   3.570   0.957
 6787SOL    HW121260   1.731   3.609   1.037
 6787SOL    HW221261   1.750   3.515   0.904
 6788SOL     OW21262   2.867   3.892   1.634
 6788SOL    HW121263   2.912   3.849   1.712
 6788SOL    HW221264   2.778   3.849   1.618
 6789SOL     OW21265   0.473   6.771   2.337
 6789SOL    HW121266   0.388   6.721   2.354
 6789SOL    HW221267   0.484   6.843   2.405
 6790SOL     OW21268   1.116   4.114   0.528
 6790SOL    HW121269   1.136   4.016   0.532
 6790SOL    HW221270   1.024   4.127   0.489
 6791SOL     OW21271   3.760   2.215   0.955
 6791SOL    HW121272   3.791   2.267   1.035
 6791SOL    HW221273   3.677   2.257   0.918
 6792SOL     OW21274   6.642   6.240   5.754
 6792SOL    HW121275   6.620   6.278   5.664
 6792SOL    HW221276   6.567   6.181   5.784
 6793SOL     OW21277   0.656   2.479   0.932
 6793SOL    HW121278   0.714   2.557   0.907
 6793SOL    HW221279   0.662   2.409   0.861
 6794SOL     OW21280   5.014   1.068   4.792
 6794SOL    HW121281   5.031   1.089   4.696
 6794SOL    HW221282   5.102   1.054   4.839
 6795SOL     OW21283   2.394   5.904   0.722
 6795SOL    HW121284   2.477   5.864   0.761
 6795SOL    HW221285   2.379   5.995   0.760
 6796SOL     OW21286   6.036   0.772   2.686
 6796SOL    HW121287   5.988   0.846   2.639
 6796SOL    HW221288   6.133   0.795   2.695
 6797SOL     OW21289   4.858   3.328   1.816
 6797SOL    HW121290   4.869   3.315   1.914
 6797SOL    HW221291   4.845   3.240   1.771
 6798SOL     OW21292   5.718   6.030   3.140
 6798SOL    HW121293   5.778   6.010   3.063
 6798SOL    HW221294   5.759   5.994   3.224
 6799SOL     OW21295   5.758   5.754   6.853
 6799SOL    HW121296   5.765   5.851   6.831
 6799SOL    HW221297   5.837   5.727   6.909
 6800SOL     OW21298   2.110   4.595   1.197
 6800SOL    HW121299   2.121   4.688   1.161
 6800SOL    HW221300   2.152   4.530   1.133
 6801SOL     OW21301   1.663   1.259   2.361
 6801SOL    HW121302   1.729   1.299   2.298
 6801SOL    HW221303   1.686   1.284   2.455
 6802SOL     OW21304   2.596   5.741   0.836
 6802SOL    HW121305   2.535   5.694   0.899
 6802SOL    HW221306   2.680   5.688   0.825
 6803SOL     OW21307   4.589   2.503   6.497
 6803SOL    HW121308   4.491   2.516   6.484
 6803SOL    HW221309   4.605   2.449   6.580
 6804SOL     OW21310   2.406   5.386   3.815
 6804SOL    HW121311   2.453   5.364   3.901
 6804SOL    HW221312   2.364   5.304   3.778
 6805SOL     OW21313   5.695   6.144   4.649
 6805SOL    HW121314   5.670   6.219   4.588
 6805SOL    HW221315   5.622   6.129   4.715
 6806SOL     OW21316   5.616   1.236   3.704
 6806SOL    HW121317   5.540   1.254   3.767
 6806SOL    HW221318   5.600   1.286   3.619
 6807SOL     OW21319   2.421   3.669   0.436
 6807SOL    HW121320   2.451   3.758   0.402
 6807SOL    HW221321   2.495   3.602   0.425
 6808SOL     OW21322   0.673   3.111   5.323
 6808SOL    HW121323   0.641   3.029   5.276
 6808SOL    HW221324   0.746   3.086   5.387
 6809SOL     OW21325   1.582   3.996   0.177
 6809SOL    HW121326   1.491   3.982   0.138
 6809SOL    HW221327   1.574   4.035   0.269
 6810SOL     OW21328   1.795   0.381   1.652
 6810SOL    HW121329   1.701   0.391   1.619
 6810SOL    HW221330   1.840   0.309   1.600
 6811SOL     OW21331   4.267   4.254   0.242
 6811SOL    HW121332   4.350   4.308   0.257
 6811SOL    HW221333   4.287   4.182   0.175
 6812SOL     OW21334   3.830   3.091   3.352
 6812SOL    HW121335   3.839   3.019   3.421
 6812SOL    HW221336   3.744   3.140   3.366
 6813SOL     OW21337   4.313   1.668   1.781
 6813SOL    HW121338   4.288   1.755   1.825
 6813SOL    HW221339   4.291   1.672   1.684
 6814SOL     OW21340   3.055   3.075   0.580
 6814SOL    HW121341   3.003   3.105   0.500
 6814SOL    HW221342   3.015   3.115   0.663
 6815SOL     OW21343   3.097   7.014   1.148
 6815SOL    HW121344   3.012   0.024   1.106
 6815SOL    HW221345   3.131   0.059   1.212
 6816SOL     OW21346   6.926   5.723   0.006
 6816SOL    HW121347   6.867   5.744   0.083
 6816SOL    HW221348   6.875   5.736   6.943
 6817SOL     OW21349   6.575   1.887   5.387
 6817SOL    HW121350   6.524   1.840   5.315
 6817SOL    HW221351   6.673   1.877   5.371
 6818SOL     OW21352   2.664   5.786   2.191
 6818SOL    HW121353   2.614   5.815   2.273
 6818SOL    HW221354   2.761   5.780   2.212
 6819SOL     OW21355   4.188   1.193   4.343
 6819SOL    HW121356   4.224   1.134   4.270
 6819SOL    HW221357   4.161   1.281   4.304
 6820SOL     OW21358   1.552   5.036   3.361
 6820SOL    HW121359   1.608   5.116   3.381
 6820SOL    HW221360   1.576   5.001   3.271
 6821SOL     OW21361   3.163   1.709   5.334
 6821SOL    HW121362   3.178   1.758   5.420
 6821SOL    HW221363   3.098   1.759   5.277
 6822SOL     OW21364   5.709   1.865   5.912
 6822SOL    HW121365   5.619   1.833   5.941
 6822SOL    HW221366   5.775   1.791   5.921
 6823SOL     OW21367   3.760   3.156   3.977
 6823SOL    HW121368   3.760   3.096   4.057
 6823SOL    HW221369   3.774   3.102   3.894
 6824SOL     OW21370   0.810   3.144   6.404
 6824SOL    HW121371   0.790   3.046   6.406
 6824SOL    HW221372   0.800   3.177   6.310
 6825SOL     OW21373   5.495   6.683   2.709
 6825SOL    HW121374   5.542   6.769   2.726
 6825SOL    HW221375   5.455   6.649   2.794
 6826SOL     OW21376   2.241   4.109   2.975
 6826SOL    HW121377   2.265   4.169   3.051
 6826SOL    HW221378   2.213   4.164   2.896
 6827SOL     OW21379   4.940   6.060   0.494
 6827SOL    HW121380   4.916   6.141   0.548
 6827SOL    HW221381   4.993   5.997   0.551
 6828SOL     OW21382   1.996   2.129   1.285
 6828SOL    HW121383   1.987   2.190   1.206
 6828SOL    HW221384   1.993   2.034   1.255
 6829SOL     OW21385   4.845   6.626   3.866
 6829SOL    HW121386   4.794   6.615   3.951
 6829SOL    HW221387   4.822   6.714   3.824
 6830SOL     OW21388   5.759   1.264   3.198
 6830SOL    HW121389   5.723   1.185   3.250
 6830SOL    HW221390   5.831   1.233   3.137
 6831SOL     OW21391   1.099   6.802   6.453
 6831SOL    HW121392   1.182   6.757   6.419
 6831SOL    HW221393   1.056   6.744   6.523
 6832SOL     OW21394   2.453   4.408   1.446
 6832SOL    HW121395   2.377   4.448   1.498
 6832SOL    HW221396   2.452   4.444   1.353
 6833SOL     OW21397   4.386   5.097   0.013
 6833SOL    HW121398   4.365   5.000   0.007
 6833SOL    HW221399   4.303   5.150   7.016
 6834SOL     OW21400   4.471   6.659   1.856
 6834SOL    HW121401   4.466   6.565   1.889
 6834SOL    HW221402   4.455   6.722   1.932
 6835SOL     OW21403   4.285   6.614   5.194
 6835SOL    HW121404   4.234   6.598   5.278
 6835SOL    HW221405   4.334   6.530   5.168
 6836SOL     OW21406   3.135   6.386   0.686
 6836SOL    HW121407   3.067   6.315   0.665
 6836SOL    HW221408   3.120   6.420   0.779
 6837SOL     OW21409   1.105   3.243   2.119
 6837SOL    HW121410   1.042   3.320   2.131
 6837SOL    HW221411   1.168   3.239   2.197
 6838SOL     OW21412   1.793   0.484   0.647
 6838SOL    HW121413   1.816   0.402   0.700
 6838SOL    HW221414   1.824   0.565   0.696
 6839SOL     OW21415   5.201   1.451   0.542
 6839SOL    HW121416   5.277   1.406   0.495
 6839SOL    HW221417   5.117   1.396   0.529
 6840SOL     OW21418   2.199   1.967   4.993
 6840SOL    HW121419   2.173   2.060   4.965
 6840SOL    HW221420   2.148   1.943   5.076
 6841SOL     OW21421   5.290   3.765   5.984
 6841SOL    HW121422   5.247   3.784   5.896
 6841SOL    HW221423   5.230   3.797   6.058
 6842SOL     OW21424   2.764   4.621   1.242
 6842SOL    HW121425   2.700   4.667   1.181
 6842SOL    HW221426   2.718   4.596   1.327
 6843SOL     OW21427   5.336   6.901   6.699
 6843SOL    HW121428   5.401   6.969   6.665
 6843SOL    HW221429   5.243   6.937   6.690
 6844SOL     OW21430   5.798   0.909   4.104
 6844SOL    HW121431   5.781   0.999   4.065
 6844SOL    HW221432   5.760   0.838   4.044
 6845SOL     OW21433   6.082   2.877   2.849
 6845SOL    HW121434   5.989   2.871   2.885
 6845SOL    HW221435   6.099   2.969   2.815
 6846SOL     OW21436   3.220   4.317   6.961
 6846SOL    HW121437   3.190   4.241   6.903
 6846SOL    HW221438   3.312   4.298   6.995
 6847SOL     OW21439   6.473   3.525   4.762
 6847SOL    HW121440   6.383   3.544   4.721
 6847SOL    HW221441   6.523   3.610   4.774
 6848SOL     OW21442   5.515   3.871   4.175
 6848SOL    HW121443   5.487   3.963   4.147
 6848SOL    HW221444   5.554   3.875   4.267
 6849SOL     OW21445   3.359   4.579   5.623
 6849SOL    HW121446   3.316   4.544   5.539
 6849SOL    HW221447   3.396   4.503   5.675
 6850SOL     OW21448   4.238   2.288   2.823
 6850SOL    HW121449   4.171   2.219   2.851
 6850SOL    HW221450   4.281   2.327   2.905
 6851SOL     OW21451   1.709   2.806   2.777
 6851SOL    HW121452   1.736   2.774   2.868
 6851SOL    HW221453   1.699   2.905   2.779
 6852SOL     OW21454   2.586   5.442   1.272
 6852SOL    HW121455   2.538   5.516   1.226
 6852SOL    HW221456   2.659   5.407   1.213
 6853SOL     OW21457   5.492   3.379   5.943
 6853SOL    HW121458   5.526   3.417   5.858
 6853SOL    HW221459   5.398   3.346   5.930
 6854SOL     OW21460   5.384   6.392   5.765
 6854SOL    HW121461   5.357   6.476   5.814
 6854SOL    HW221462   5.426   6.416   5.678
 6855SOL     OW21463   4.742   5.619   3.570
 6855SOL    HW121464   4.725   5.545   3.505
 6855SOL    HW221465   4.833   5.608   3.610
 6856SOL     OW21466   0.392   2.503   5.943
 6856SOL    HW121467   0.339   2.446   5.880
 6856SOL    HW221468   0.466   2.548   5.892
 6857SOL     OW21469   0.921   3.529   6.316
 6857SOL    HW121470   0.935   3.596   6.388
 6857SOL    HW221471   0.998   3.464   6.315
 6858SOL     OW21472   3.224   4.237   1.677
 6858SOL    HW121473   3.188   4.161   1.731
 6858SOL    HW221474   3.149   4.299   1.653
 6859SOL     OW21475   0.879   1.366   1.968
 6859SOL    HW121476   0.916   1.323   2.050
 6859SOL    HW221477   0.823   1.299   1.918
 6860SOL     OW21478   6.920   4.798   2.496
 6860SOL    HW121479   7.014   4.827   2.479
 6860SOL    HW221480   6.892   4.733   2.425
 6861SOL     OW21481   4.831   3.414   6.150
 6861SOL    HW121482   4.930   3.412   6.165
 6861SOL    HW221483   4.793   3.323   6.166
 6862SOL     OW21484   0.814   5.215   6.075
 6862SOL    HW121485   0.754   5.136   6.063
 6862SOL    HW221486   0.906   5.185   6.098
 6863SOL     OW21487   0.126   5.642   5.052
 6863SOL    HW121488   0.197   5.680   4.992
 6863SOL    HW221489   0.100   5.551   5.020
 6864SOL     OW21490   1.729   4.249   5.854
 6864SOL    HW121491   1.636   4.233   5.885
 6864SOL    HW221492   1.764   4.334   5.895
 6865SOL     OW21493   2.295   0.728   5.510
 6865SOL    HW121494   2.229   0.722   5.585
 6865SOL    HW221495   2.355   0.648   5.512
 6866SOL     OW21496   6.008   4.196   2.267
 6866SOL    HW121497   6.040   4.123   2.328
 6866SOL    HW221498   6.039   4.284   2.302
 6867SOL     OW21499   1.934   4.558   1.382
 6867SOL    HW121500   1.978   4.574   1.293
 6867SOL    HW221501   2.003   4.524   1.447
 6868SOL     OW21502   2.132   5.639   5.042
 6868SOL    HW121503   2.096   5.584   5.117
 6868SOL    HW221504   2.090   5.611   4.956
 6869SOL     OW21505   3.797   0.154   5.683
 6869SOL    HW121506   3.791   0.197   5.773
 6869SOL    HW221507   3.705   0.135   5.649
 6870SOL     OW21508   1.000   3.435   0.249
 6870SOL    HW121509   1.015   3.433   0.150
 6870SOL    HW221510   0.987   3.341   0.282
 6871SOL     OW21511   0.182   3.649   2.095
 6871SOL    HW121512   0.153   3.589   2.020
 6871SOL    HW221513   0.113   3.720   2.110
 6872SOL     OW21514   1.290   2.591   2.255
 6872SOL    HW121515   1.302   2.686   2.228
 6872SOL    HW221516   1.271   2.585   2.353
 6873SOL     OW21517   1.107   4.081   4.053
 6873SOL    HW121518   1.018   4.115   4.023
 6873SOL    HW221519   1.157   4.043   3.976
 6874SOL     OW21520   6.143   5.657   3.376
 6874SOL    HW121521   6.142   5.591   3.301
 6874SOL    HW221522   6.236   5.693   3.389
 6875SOL     OW21523   1.690   2.823   1.753
 6875SOL    HW121524   1.774   2.874   1.737
 6875SOL    HW221525   1.692   2.739   1.699
 6876SOL     OW21526   3.375   0.374   3.261
 6876SOL    HW121527   3.284   0.412   3.245
 6876SOL    HW221528   3.442   0.448   3.262
 6877SOL     OW21529   2.709   4.378   1.539
 6877SOL    HW121530   2.612   4.363   1.517
 6877SOL    HW221531   2.717   4.451   1.607
 6878SOL     OW21532   2.284   1.732   3.946
 6878SOL    HW121533   2.214   1.665   3.971
 6878SOL    HW221534   2.360   1.727   4.011
 6879SOL     OW21535   2.069   2.661   0.364
 6879SOL    HW121536   2.057   2.578   0.419
 6879SOL    HW221537   2.026   2.647   0.275
 6880SOL     OW21538   1.228   5.947   6.489
 6880SOL    HW121539   1.309   6.006   6.485
 6880SOL    HW221540   1.160   5.989   6.549
 6881SOL     OW21541   1.706   3.811   1.088
 6881SOL    HW121542   1.773   3.884   1.078
 6881SOL    HW221543   1.661   3.795   1.000
 6882SOL     OW21544   2.969   1.400   0.144
 6882SOL    HW121545   2.964   1.494   0.110
 6882SOL    HW221546   2.878   1.367   0.169
 6883SOL     OW21547   5.281   0.610   6.546
 6883SOL    HW121548   5.252   0.514   6.556
 6883SOL    HW221549   5.270   0.638   6.451
 6884SOL     OW21550   2.177   4.565   3.285
 6884SOL    HW121551   2.220   4.566   3.195
 6884SOL    HW221552   2.105   4.496   3.287
 6885SOL     OW21553   4.802   4.906   4.351
 6885SOL    HW121554   4.780   4.920   4.255
 6885SOL    HW221555   4.722   4.868   4.398
 6886SOL     OW21556   6.148   1.463   4.895
 6886SOL    HW121557   6.177   1.399   4.967
 6886SOL    HW221558   6.135   1.414   4.809
 6887SOL     OW21559   4.780   5.683   0.204
 6887SOL    HW121560   4.880   5.688   0.203
 6887SOL    HW221561   4.750   5.616   0.136
 6888SOL     OW21562   5.655   4.278   6.106
 6888SOL    HW121563   5.713   4.198   6.112
 6888SOL    HW221564   5.700   4.356   6.151
 6889SOL     OW21565   1.478   2.648   5.866
 6889SOL    HW121566   1.477   2.739   5.826
 6889SOL    HW221567   1.469   2.654   5.965
 6890SOL     OW21568   3.804   5.682   2.907
 6890SOL    HW121569   3.763   5.734   2.832
 6890SOL    HW221570   3.903   5.689   2.902
 6891SOL     OW21571   2.429   2.656   1.172
 6891SOL    HW121572   2.474   2.715   1.239
 6891SOL    HW221573   2.393   2.574   1.218
 6892SOL     OW21574   3.519   1.466   3.986
 6892SOL    HW121575   3.454   1.517   3.929
 6892SOL    HW221576   3.476   1.380   4.015
 6893SOL     OW21577   6.021   3.324   6.776
 6893SOL    HW121578   6.017   3.241   6.833
 6893SOL    HW221579   6.099   3.380   6.806
 6894SOL     OW21580   5.559   3.920   1.129
 6894SOL    HW121581   5.656   3.912   1.153
 6894SOL    HW221582   5.507   3.851   1.179
 6895SOL     OW21583   1.246   5.791   1.015
 6895SOL    HW121584   1.299   5.708   0.996
 6895SOL    HW221585   1.162   5.790   0.961
 6896SOL     OW21586   3.666   1.522   4.226
 6896SOL    HW121587   3.699   1.438   4.269
 6896SOL    HW221588   3.610   1.499   4.146
 6897SOL     OW21589   4.888   3.754   4.694
 6897SOL    HW121590   4.904   3.717   4.785
 6897SOL    HW221591   4.974   3.789   4.656
 6898SOL     OW21592   3.132   1.134   1.668
 6898SOL    HW121593   3.060   1.203   1.666
 6898SOL    HW221594   3.214   1.170   1.622
 6899SOL     OW21595   5.338   6.023   2.618
 6899SOL    HW121596   5.355   6.107   2.670
 6899SOL    HW221597   5.291   5.956   2.676
 6900SOL     OW21598   6.610   4.692   6.178
 6900SOL    HW121599   6.524   4.743   6.179
 6900SOL    HW221600   6.647   4.687   6.270
 6901SOL     OW21601   4.449   5.029   6.715
 6901SOL    HW121602   4.430   5.047   6.812
 6901SOL    HW221603   4.419   4.936   6.692
 6902SOL     OW21604   6.677   5.944   5.813
 6902SOL    HW121605   6.643   6.031   5.779
 6902SOL    HW221606   6.599   5.885   5.837
 6903SOL     OW21607   2.921   4.817   5.450
 6903SOL    HW121608   2.904   4.753   5.525
 6903SOL    HW221609   2.838   4.827   5.396
 6904SOL     OW21610   0.415   6.099   5.443
 6904SOL    HW121611   0.472   6.142   5.514
 6904SOL    HW221612   0.471   6.083   5.362
 6905SOL     OW21613   5.451   5.238   0.116
 6905SOL    HW121614   5.515   5.274   0.183
 6905SOL    HW221615   5.499   5.218   0.030
 6906SOL     OW21616   3.365   1.876   3.531
 6906SOL    HW121617   3.379   1.797   3.591
 6906SOL    HW221618   3.405   1.957   3.573
 6907SOL     OW21619   6.204   2.138   1.598
 6907SOL    HW121620   6.273   2.074   1.565
 6907SOL    HW221621   6.132   2.148   1.530
 6908SOL     OW21622   2.431   4.351   6.850
 6908SOL    HW121623   2.477   4.373   6.763
 6908SOL    HW221624   2.334   4.371   6.842
 6909SOL     OW21625   5.106   4.743   2.341
 6909SOL    HW121626   5.017   4.788   2.330
 6909SOL    HW221627   5.161   4.757   2.258
 6910SOL     OW21628   1.605   3.157   3.231
 6910SOL    HW121629   1.652   3.113   3.154
 6910SOL    HW221630   1.656   3.240   3.257
 6911SOL     OW21631   3.589   0.232   5.289
 6911SOL    HW121632   3.587   0.141   5.247
 6911SOL    HW221633   3.665   0.236   5.355
 6912SOL     OW21634   2.485   3.187   6.132
 6912SOL    HW121635   2.403   3.158   6.082
 6912SOL    HW221636   2.564   3.135   6.100
 6913SOL     OW21637   5.576   6.205   5.141
 6913SOL    HW121638   5.655   6.206   5.203
 6913SOL    HW221639   5.578   6.287   5.084
 6914SOL     OW21640   6.172   3.809   1.941
 6914SOL    HW121641   6.248   3.778   1.998
 6914SOL    HW221642   6.086   3.797   1.989
 6915SOL     OW21643   1.049   2.936   2.124
 6915SOL    HW121644   1.123   2.885   2.080
 6915SOL    HW221645   1.071   3.033   2.126
 6916SOL     OW21646   5.335   1.062   5.877
 6916SOL    HW121647   5.252   1.099   5.835
 6916SOL    HW221648   5.330   1.072   5.976
 6917SOL     OW21649   4.992   5.672   1.789
 6917SOL    HW121650   5.070   5.652   1.729
 6917SOL    HW221651   4.986   5.601   1.859
 6918SOL     OW21652   0.409   2.807   2.558
 6918SOL    HW121653   0.398   2.794   2.459
 6918SOL    HW221654   0.363   2.891   2.586
 6919SOL     OW21655   6.295   6.517   2.768
 6919SOL    HW121656   6.218   6.579   2.753
 6919SOL    HW221657   6.282   6.435   2.711
 6920SOL     OW21658   4.777   6.972   5.725
 6920SOL    HW121659   4.828   6.915   5.661
 6920SOL    HW221660   4.680   6.953   5.716
 6921SOL     OW21661   4.108   0.172   4.422
 6921SOL    HW121662   4.178   0.242   4.439
 6921SOL    HW221663   4.022   0.200   4.463
 6922SOL     OW21664   1.600   6.171   4.693
 6922SOL    HW121665   1.592   6.097   4.626
 6922SOL    HW221666   1.527   6.237   4.679
 6923SOL     OW21667   6.167   6.310   2.568
 6923SOL    HW121668   6.244   6.289   2.508
 6923SOL    HW221669   6.082   6.303   2.516
 6924SOL     OW21670   3.092   5.718   1.490
 6924SOL    HW121671   3.051   5.694   1.578
 6924SOL    HW221672   3.020   5.740   1.424
 6925SOL     OW21673   4.730   5.783   6.503
 6925SOL    HW121674   4.795   5.727   6.450
 6925SOL    HW221675   4.639   5.777   6.462
 6926SOL     OW21676   2.405   1.554   0.172
 6926SOL    HW121677   2.305   1.554   0.167
 6926SOL    HW221678   2.435   1.539   0.266
 6927SOL     OW21679   3.692   0.933   0.296
 6927SOL    HW121680   3.768   0.948   0.233
 6927SOL    HW221681   3.697   0.839   0.332
 6928SOL     OW21682   4.842   5.648   0.951
 6928SOL    HW121683   4.903   5.726   0.935
 6928SOL    HW221684   4.819   5.605   0.863
 6929SOL     OW21685   5.609   5.180   1.326
 6929SOL    HW121686   5.695   5.182   1.378
 6929SOL    HW221687   5.547   5.250   1.361
 6930SOL     OW21688   0.571   1.525   0.631
 6930SOL    HW121689   0.555   1.516   0.729
 6930SOL    HW221690   0.623   1.608   0.613
 6931SOL     OW21691   2.162   1.740   1.066
 6931SOL    HW121692   2.138   1.649   1.031
 6931SOL    HW221693   2.255   1.764   1.037
 6932SOL     OW21694   4.747   4.890   0.752
 6932SOL    HW121695   4.830   4.914   0.803
 6932SOL    HW221696   4.740   4.947   0.671
 6933SOL     OW21697   3.688   6.263   6.009
 6933SOL    HW121698   3.727   6.229   6.095
 6933SOL    HW221699   3.758   6.312   5.958
 6934SOL     OW21700   4.845   3.571   6.779
 6934SOL    HW121701   4.900   3.510   6.836
 6934SOL    HW221702   4.869   3.557   6.683
 6935SOL     OW21703   4.567   5.497   2.547
 6935SOL    HW121704   4.568   5.403   2.579
 6935SOL    HW221705   4.520   5.555   2.614
 6936SOL     OW21706   0.270   2.095   4.454
 6936SOL    HW121707   0.221   2.057   4.533
 6936SOL    HW221708   0.204   2.131   4.388
 6937SOL     OW21709   6.019   6.078   0.335
 6937SOL    HW121710   6.024   6.177   0.348
 6937SOL    HW221711   6.096   6.035   0.382
 6938SOL     OW21712   0.496   1.079   4.788
 6938SOL    HW121713   0.447   1.129   4.716
 6938SOL    HW221714   0.560   1.014   4.746
 6939SOL     OW21715   6.172   5.250   3.337
 6939SOL    HW121716   6.093   5.296   3.296
 6939SOL    HW221717   6.149   5.222   3.430
 6940SOL     OW21718   4.772   6.777   0.555
 6940SOL    HW121719   4.814   6.758   0.644
 6940SOL    HW221720   4.691   6.719   0.544
 6941SOL     OW21721   2.945   3.766   2.193
 6941SOL    HW121722   2.952   3.693   2.261
 6941SOL    HW221723   2.849   3.789   2.178
 6942SOL     OW21724   6.162   6.535   1.732
 6942SOL    HW121725   6.203   6.479   1.804
 6942SOL    HW221726   6.199   6.628   1.736
 6943SOL     OW21727   4.082   4.902   0.248
 6943SOL    HW121728   4.013   4.916   0.319
 6943SOL    HW221729   4.075   4.809   0.212
 6944SOL     OW21730   1.236   4.913   6.415
 6944SOL    HW121731   1.242   5.012   6.430
 6944SOL    HW221732   1.212   4.896   6.319
 6945SOL     OW21733   6.259   2.412   0.798
 6945SOL    HW121734   6.184   2.348   0.778
 6945SOL    HW221735   6.310   2.380   0.878
 6946SOL     OW21736   3.792   5.954   1.881
 6946SOL    HW121737   3.882   5.951   1.925
 6946SOL    HW221738   3.781   6.040   1.832
 6947SOL     OW21739   4.135   5.246   5.908
 6947SOL    HW121740   4.177   5.270   5.996
 6947SOL    HW221741   4.152   5.149   5.889
 6948SOL     OW21742   0.269   6.471   1.051
 6948SOL    HW121743   0.241   6.560   1.085
 6948SOL    HW221744   0.367   6.458   1.068
 6949SOL     OW21745   2.421   2.559   3.005
 6949SOL    HW121746   2.496   2.593   3.061
 6949SOL    HW221747   2.455   2.489   2.943
 6950SOL     OW21748   1.214   0.294   3.968
 6950SOL    HW121749   1.277   0.369   3.948
 6950SOL    HW221750   1.154   0.279   3.889
 6951SOL     OW21751   6.195   5.642   6.480
 6951SOL    HW121752   6.281   5.672   6.438
 6951SOL    HW221753   6.150   5.720   6.523
 6952SOL     OW21754   3.116   4.838   3.305
 6952SOL    HW121755   3.152   4.884   3.386
 6952SOL    HW221756   3.073   4.752   3.332
 6953SOL     OW21757   5.195   6.896   0.779
 6953SOL    HW121758   5.190   6.982   0.727
 6953SOL    HW221759   5.271   6.841   0.744
 6954SOL     OW21760   0.064   3.488   1.141
 6954SOL    HW121761   6.990   3.482   1.117
 6954SOL    HW221762   0.087   3.583   1.163
 6955SOL     OW21763   5.165   0.424   2.640
 6955SOL    HW121764   5.084   0.482   2.648
 6955SOL    HW221765   5.163   0.353   2.710
 6956SOL     OW21766   6.117   5.798   2.296
 6956SOL    HW121767   6.064   5.726   2.341
 6956SOL    HW221768   6.159   5.761   2.213
 6957SOL     OW21769   5.069   5.802   6.432
 6957SOL    HW121770   4.994   5.736   6.426
 6957SOL    HW221771   5.057   5.859   6.514
 6958SOL     OW21772   3.596   3.384   4.173
 6958SOL    HW121773   3.556   3.371   4.082
 6958SOL    HW221774   3.696   3.376   4.167
 6959SOL     OW21775   1.613   3.712   3.208
 6959SOL    HW121776   1.678   3.731   3.134
 6959SOL    HW221777   1.525   3.755   3.187
 6960SOL     OW21778   1.470   4.742   0.950
 6960SOL    HW121779   1.527   4.807   0.900
 6960SOL    HW221780   1.413   4.791   1.016
 6961SOL     OW21781   4.748   1.241   4.677
 6961SOL    HW121782   4.734   1.304   4.753
 6961SOL    HW221783   4.818   1.174   4.702
 6962SOL     OW21784   3.674   6.650   0.562
 6962SOL    HW121785   3.644   6.723   0.501
 6962SOL    HW221786   3.620   6.567   0.544
 6963SOL     OW21787   5.372   5.688   6.753
 6963SOL    HW121788   5.395   5.605   6.806
 6963SOL    HW221789   5.273   5.695   6.745
 6964SOL     OW21790   2.937   0.276   5.400
 6964SOL    HW121791   2.969   0.294   5.307
 6964SOL    HW221792   2.839   0.294   5.406
 6965SOL     OW21793   1.233   2.372   6.917
 6965SOL    HW121794   1.151   2.399   6.968
 6965SOL    HW221795   1.211   2.361   6.820
 6966SOL     OW21796   1.576   0.894   1.765
 6966SOL    HW121797   1.617   0.868   1.853
 6966SOL    HW221798   1.638   0.869   1.691
 6967SOL     OW21799   3.670   1.319   5.703
 6967SOL    HW121800   3.759   1.340   5.744
 6967SOL    HW221801   3.627   1.403   5.671
 6968SOL     OW21802   3.079   0.449   3.272
 6968SOL    HW121803   3.010   0.495   3.215
 6968SOL    HW221804   3.032   0.393   3.341
 6969SOL     OW21805   3.142   1.964   1.259
 6969SOL    HW121806   3.153   1.869   1.228
 6969SOL    HW221807   3.048   1.993   1.245
 6970SOL     OW21808   2.929   4.860   6.249
 6970SOL    HW121809   2.942   4.828   6.155
 6970SOL    HW221810   2.866   4.938   6.249
 6971SOL     OW21811   5.390   4.392   1.316
 6971SOL    HW121812   5.391   4.292   1.307
 6971SOL    HW221813   5.392   4.417   1.413
 6972SOL     OW21814   5.143   3.528   2.800
 6972SOL    HW121815   5.137   3.484   2.890
 6972SOL    HW221816   5.234   3.512   2.762
 6973SOL     OW21817   0.920   1.951   2.668
 6973SOL    HW121818   0.897   2.043   2.635
 6973SOL    HW221819   1.019   1.943   2.678
 6974SOL     OW21820   3.001   3.950   2.410
 6974SOL    HW121821   3.008   3.872   2.348
 6974SOL    HW221822   2.911   3.950   2.454
 6975SOL     OW21823   2.915   5.653   4.616
 6975SOL    HW121824   2.837   5.615   4.667
 6975SOL    HW221825   2.938   5.743   4.654
 6976SOL     OW21826   5.043   4.326   5.122
 6976SOL    HW121827   4.960   4.348   5.173
 6976SOL    HW221828   5.029   4.242   5.071
 6977SOL     OW21829   4.154   4.009   1.540
 6977SOL    HW121830   4.199   3.920   1.541
 6977SOL    HW221831   4.056   3.997   1.553
 6978SOL     OW21832   5.694   3.242   0.966
 6978SOL    HW121833   5.771   3.181   0.948
 6978SOL    HW221834   5.615   3.188   0.996
 6979SOL     OW21835   1.263   3.355   1.504
 6979SOL    HW121836   1.232   3.381   1.595
 6979SOL    HW221837   1.336   3.287   1.512
 6980SOL     OW21838   1.608   0.947   3.294
 6980SOL    HW121839   1.632   0.925   3.389
 6980SOL    HW221840   1.518   0.991   3.293
 6981SOL     OW21841   3.564   3.443   6.589
 6981SOL    HW121842   3.627   3.443   6.666
 6981SOL    HW221843   3.616   3.442   6.503
 6982SOL     OW21844   1.082   1.190   3.626
 6982SOL    HW121845   1.073   1.091   3.633
 6982SOL    HW221846   1.171   1.218   3.661
 6983SOL     OW21847   4.543   1.339   5.327
 6983SOL    HW121848   4.570   1.423   5.280
 6983SOL    HW221849   4.624   1.282   5.342
 6984SOL     OW21850   1.612   2.444   2.999
 6984SOL    HW121851   1.598   2.352   2.962
 6984SOL    HW221852   1.527   2.495   2.994
 6985SOL     OW21853   6.503   4.499   0.330
 6985SOL    HW121854   6.499   4.594   0.360
 6985SOL    HW221855   6.460   4.490   0.240
 6986SOL     OW21856   3.816   6.185   6.247
 6986SOL    HW121857   3.861   6.122   6.311
 6986SOL    HW221858   3.852   6.277   6.260
 6987SOL     OW21859   0.012   1.721   5.546
 6987SOL    HW121860   6.988   1.708   5.633
 6987SOL    HW221861   0.063   1.639   5.522
 6988SOL     OW21862   2.657   0.377   6.196
 6988SOL    HW121863   2.705   0.361   6.283
 6988SOL    HW221864   2.624   0.471   6.193
 6989SOL     OW21865   6.635   4.457   1.891
 6989SOL    HW121866   6.705   4.527   1.898
 6989SOL    HW221867   6.631   4.422   1.798
 6990SOL     OW21868   3.818   2.974   1.884
 6990SOL    HW121869   3.825   2.879   1.854
 6990SOL    HW221870   3.817   2.978   1.984
 6991SOL     OW21871   4.875   4.661   3.517
 6991SOL    HW121872   4.921   4.686   3.432
 6991SOL    HW221873   4.903   4.569   3.545
 6992SOL     OW21874   0.274   6.623   0.549
 6992SOL    HW121875   0.245   6.717   0.526
 6992SOL    HW221876   0.326   6.624   0.634
 6993SOL     OW21877   6.101   0.508   1.704
 6993SOL    HW121878   6.075   0.473   1.614
 6993SOL    HW221879   6.166   0.583   1.693
 6994SOL     OW21880   1.679   7.017   3.557
 6994SOL    HW121881   1.681   0.089   3.589
 6994SOL    HW221882   1.736   6.961   3.617
 6995SOL     OW21883   0.735   3.808   0.233
 6995SOL    HW121884   0.668   3.868   0.276
 6995SOL    HW221885   0.757   3.843   0.142
 6996SOL     OW21886   1.444   0.571   6.725
 6996SOL    HW121887   1.452   0.629   6.644
 6996SOL    HW221888   1.394   0.621   6.796
 6997SOL     OW21889   0.059   4.823   5.451
 6997SOL    HW121890   0.155   4.811   5.429
 6997SOL    HW221891   0.042   4.791   5.544
 6998SOL     OW21892   0.584   1.547   1.745
 6998SOL    HW121893   0.587   1.479   1.818
 6998SOL    HW221894   0.574   1.639   1.785
 6999SOL     OW21895   0.587   2.531   6.558
 6999SOL    HW121896   0.547   2.563   6.472
 6999SOL    HW221897   0.590   2.607   6.624
 7000SOL     OW21898   6.010   0.292   2.667
 7000SOL    HW121899   6.110   0.302   2.666
 7000SOL    HW221900   5.968   0.371   2.623
 7001SOL     OW21901   0.907   1.526   4.187
 7001SOL    HW121902   0.809   1.523   4.163
 7001SOL    HW221903   0.927   1.453   4.252
 7002SOL     OW21904   0.918   5.522   3.977
 7002SOL    HW121905   0.917   5.609   4.026
 7002SOL    HW221906   0.951   5.450   4.038
 7003SOL     OW21907   5.937   4.512   1.134
 7003SOL    HW121908   5.970   4.485   1.043
 7003SOL    HW221909   5.850   4.465   1.153
 7004SOL     OW21910   1.441   5.631   0.659
 7004SOL    HW121911   1.394   5.708   0.615
 7004SOL    HW221912   1.479   5.661   0.746
 7005SOL     OW21913   0.978   0.316   6.662
 7005SOL    HW121914   0.975   0.263   6.746
 7005SOL    HW221915   1.072   0.345   6.644
 7006SOL     OW21916   6.580   6.249   3.491
 7006SOL    HW121917   6.670   6.243   3.535
 7006SOL    HW221918   6.509   6.261   3.560
 7007SOL     OW21919   4.335   0.502   5.790
 7007SOL    HW121920   4.266   0.507   5.718
 7007SOL    HW221921   4.386   0.588   5.793
 7008SOL     OW21922   6.524   4.238   3.597
 7008SOL    HW121923   6.590   4.218   3.670
 7008SOL    HW221924   6.502   4.154   3.549
 7009SOL     OW21925   3.904   6.527   2.162
 7009SOL    HW121926   3.867   6.620   2.154
 7009SOL    HW221927   4.004   6.532   2.161
 7010SOL     OW21928   5.870   4.117   2.591
 7010SOL    HW121929   5.777   4.113   2.554
 7010SOL    HW221930   5.867   4.102   2.690
 7011SOL     OW21931   3.840   6.867   0.514
 7011SOL    HW121932   3.816   6.772   0.538
 7011SOL    HW221933   3.940   6.876   0.510
 7012SOL     OW21934   1.434   3.248   0.946
 7012SOL    HW121935   1.417   3.345   0.928
 7012SOL    HW221936   1.350   3.196   0.932
 7013SOL     OW21937   2.475   0.936   6.569
 7013SOL    HW121938   2.446   0.983   6.653
 7013SOL    HW221939   2.558   0.979   6.534
 7014SOL     OW21940   6.032   3.884   1.191
 7014SOL    HW121941   6.103   3.927   1.135
 7014SOL    HW221942   6.068   3.799   1.229
 7015SOL     OW21943   5.771   4.606   2.341
 7015SOL    HW121944   5.845   4.543   2.367
 7015SOL    HW221945   5.774   4.620   2.242
 7016SOL     OW21946   3.422   4.864   1.205
 7016SOL    HW121947   3.466   4.954   1.207
 7016SOL    HW221948   3.324   4.875   1.222
 7017SOL     OW21949   3.727   4.914   3.332
 7017SOL    HW121950   3.639   4.880   3.365
 7017SOL    HW221951   3.778   4.838   3.291
 7018SOL     OW21952   4.827   2.975   4.314
 7018SOL    HW121953   4.840   2.990   4.216
 7018SOL    HW221954   4.838   3.061   4.363
 7019SOL     OW21955   4.752   5.233   2.246
 7019SOL    HW121956   4.813   5.223   2.325
 7019SOL    HW221957   4.699   5.317   2.255
 7020SOL     OW21958   0.454   3.473   6.615
 7020SOL    HW121959   0.382   3.403   6.618
 7020SOL    HW221960   0.520   3.455   6.689
 7021SOL     OW21961   0.563   2.790   4.875
 7021SOL    HW121962   0.663   2.794   4.868
 7021SOL    HW221963   0.535   2.695   4.886
 7022SOL     OW21964   4.179   0.495   0.369
 7022SOL    HW121965   4.101   0.500   0.307
 7022SOL    HW221966   4.170   0.414   0.427
 7023SOL     OW21967   0.446   2.204   1.743
 7023SOL    HW121968   0.461   2.144   1.822
 7023SOL    HW221969   0.469   2.298   1.769
 7024SOL     OW21970   3.577   2.898   3.898
 7024SOL    HW121971   3.493   2.944   3.925
 7024SOL    HW221972   3.635   2.883   3.978
 7025SOL     OW21973   3.555   7.002   6.859
 7025SOL    HW121974   3.609   0.057   6.825
 7025SOL    HW221975   3.528   7.019   6.954
 7026SOL     OW21976   3.580   1.378   1.654
 7026SOL    HW121977   3.599   1.411   1.746
 7026SOL    HW221978   3.607   1.447   1.588
 7027SOL     OW21979   2.433   5.838   3.575
 7027SOL    HW121980   2.365   5.766   3.585
 7027SOL    HW221981   2.408   5.898   3.498
 7028SOL     OW21982   2.453   0.396   3.598
 7028SOL    HW121983   2.430   0.301   3.579
 7028SOL    HW221984   2.371   0.453   3.589
 7029SOL     OW21985   3.089   3.740   5.880
 7029SOL    HW121986   3.100   3.792   5.795
 7029SOL    HW221987   3.178   3.733   5.927
 7030SOL     OW21988   0.690   1.918   4.772
 7030SOL    HW121989   0.618   1.988   4.771
 7030SOL    HW221990   0.733   1.914   4.682
 7031SOL     OW21991   4.314   6.399   0.280
 7031SOL    HW121992   4.365   6.388   0.365
 7031SOL    HW221993   4.272   6.311   0.255
 7032SOL     OW21994   3.981   0.546   4.400
 7032SOL    HW121995   4.036   0.578   4.323
 7032SOL    HW221996   3.889   0.585   4.393
 7033SOL     OW21997   1.248   2.614   4.800
 7033SOL    HW121998   1.297   2.649   4.720
 7033SOL    HW221999   1.257   2.515   4.804
 7034SOL     OW22000   6.413   2.482   3.446
 7034SOL    HW122001   6.357   2.454   3.368
 7034SOL    HW222002   6.504   2.508   3.415
 7035SOL     OW22003   1.580   0.098   1.769
 7035SOL    HW122004   1.649   0.085   1.841
 7035SOL    HW222005   1.494   0.130   1.811
 7036SOL     OW22006   0.278   1.453   2.046
 7036SOL    HW122007   0.205   1.483   1.985
 7036SOL    HW222008   0.288   1.519   2.121
 7037SOL     OW22009   0.154   0.327   5.473
 7037SOL    HW122010   0.122   0.242   5.516
 7037SOL    HW222011   0.139   0.403   5.536
 7038SOL     OW22012   2.676   4.304   5.547
 7038SOL    HW122013   2.677   4.375   5.476
 7038SOL    HW222014   2.711   4.218   5.508
 7039SOL     OW22015   0.785   5.150   3.593
 7039SOL    HW122016   0.799   5.057   3.560
 7039SOL    HW222017   0.867   5.182   3.641
 7040SOL     OW22018   4.474   2.209   4.902
 7040SOL    HW122019   4.477   2.302   4.865
 7040SOL    HW222020   4.445   2.213   4.998
 7041SOL     OW22021   1.262   1.444   3.444
 7041SOL    HW122022   1.321   1.524   3.449
 7041SOL    HW222023   1.272   1.400   3.354
 7042SOL     OW22024   4.340   5.901   5.101
 7042SOL    HW122025   4.276   5.841   5.149
 7042SOL    HW222026   4.378   5.853   5.022
 7043SOL     OW22027   2.431   4.370   3.938
 7043SOL    HW122028   2.388   4.288   3.901
 7043SOL    HW222029   2.490   4.412   3.868
 7044SOL     OW22030   4.544   6.627   4.684
 7044SOL    HW122031   4.595   6.580   4.756
 7044SOL    HW222032   4.487   6.561   4.635
 7045SOL     OW22033   6.039   5.281   2.520
 7045SOL    HW122034   6.027   5.291   2.619
 7045SOL    HW222035   5.969   5.335   2.472
 7046SOL     OW22036   3.259   2.194   4.378
 7046SOL    HW122037   3.161   2.193   4.357
 7046SOL    HW222038   3.273   2.164   4.472
 7047SOL     OW22039   0.477   0.832   1.736
 7047SOL    HW122040   0.495   0.843   1.638
 7047SOL    HW222041   0.557   0.790   1.780
 7048SOL     OW22042   6.626   6.295   5.069
 7048SOL    HW122043   6.598   6.376   5.017
 7048SOL    HW222044   6.698   6.247   5.019
 7049SOL     OW22045   3.854   1.533   2.169
 7049SOL    HW122046   3.874   1.608   2.234
 7049SOL    HW222047   3.758   1.506   2.178
 7050SOL     OW22048   3.589   4.863   0.998
 7050SOL    HW122049   3.523   4.837   1.068
 7050SOL    HW222050   3.606   4.785   0.938
 7051SOL     OW22051   0.408   0.140   1.891
 7051SOL    HW122052   0.314   0.170   1.905
 7051SOL    HW222053   0.434   0.077   1.964
 7052SOL     OW22054   5.398   6.765   3.215
 7052SOL    HW122055   5.472   6.832   3.220
 7052SOL    HW222056   5.357   6.754   3.306
 7053SOL     OW22057   1.494   3.163   4.071
 7053SOL    HW122058   1.587   3.160   4.109
 7053SOL    HW222059   1.440   3.089   4.111
 7054SOL     OW22060   0.007   0.283   1.010
 7054SOL    HW122061   6.970   0.247   1.081
 7054SOL    HW222062   0.099   0.297   1.047
 7055SOL     OW22063   1.832   0.258   6.438
 7055SOL    HW122064   1.815   0.293   6.530
 7055SOL    HW222065   1.919   0.210   6.437
 7056SOL     OW22066   6.455   5.999   0.913
 7056SOL    HW122067   6.364   5.978   0.949
 7056SOL    HW222068   6.516   6.022   0.989
 7057SOL     OW22069   3.142   5.032   4.559
 7057SOL    HW122070   3.060   4.988   4.595
 7057SOL    HW222071   3.166   4.992   4.471
 7058SOL     OW22072   5.154   1.946   6.869
 7058SOL    HW122073   5.198   1.857   6.886
 7058SOL    HW222074   5.195   1.988   6.788
 7059SOL     OW22075   2.207   1.646   4.299
 7059SOL    HW122076   2.126   1.651   4.241
 7059SOL    HW222077   2.213   1.729   4.355
 7060SOL     OW22078   2.931   6.743   2.893
 7060SOL    HW122079   2.871   6.801   2.838
 7060SOL    HW222080   3.023   6.743   2.853
 7061SOL     OW22081   1.408   1.917   2.471
 7061SOL    HW122082   1.454   2.001   2.442
 7061SOL    HW222083   1.391   1.859   2.392
 7062SOL     OW22084   4.444   1.999   4.141
 7062SOL    HW122085   4.413   1.907   4.161
 7062SOL    HW222086   4.377   2.066   4.173
 7063SOL     OW22087   0.579   6.607   2.652
 7063SOL    HW122088   0.571   6.596   2.751
 7063SOL    HW222089   0.505   6.557   2.606
 7064SOL     OW22090   5.187   1.573   5.748
 7064SOL    HW122091   5.162   1.669   5.755
 7064SOL    HW222092   5.130   1.519   5.810
 7065SOL     OW22093   3.517   4.614   5.362
 7065SOL    HW122094   3.504   4.582   5.456
 7065SOL    HW222095   3.604   4.579   5.327
 7066SOL     OW22096   4.492   0.359   7.006
 7066SOL    HW122097   4.463   0.357   0.079
 7066SOL    HW222098   4.419   0.398   6.950
 7067SOL     OW22099   1.716   3.528   6.826
 7067SOL    HW122100   1.773   3.585   6.885
 7067SOL    HW222101   1.668   3.585   6.760
 7068SOL     OW22102   5.752   4.315   4.172
 7068SOL    HW122103   5.828   4.256   4.143
 7068SOL    HW222104   5.721   4.370   4.094
 7069SOL     OW22105   6.090   1.265   5.672
 7069SOL    HW122106   6.106   1.173   5.705
 7069SOL    HW222107   6.006   1.267   5.617
 7070SOL     OW22108   6.903   6.323   4.833
 7070SOL    HW122109   6.976   6.309   4.900
 7070SOL    HW222110   6.834   6.252   4.845
 7071SOL     OW22111   5.228   6.234   6.421
 7071SOL    HW122112   5.219   6.200   6.328
 7071SOL    HW222113   5.299   6.305   6.424
 7072SOL     OW22114   0.849   4.400   6.816
 7072SOL    HW122115   0.905   4.482   6.801
 7072SOL    HW222116   0.752   4.427   6.818
 7073SOL     OW22117   4.166   0.508   3.253
 7073SOL    HW122118   4.105   0.554   3.189
 7073SOL    HW222119   4.261   0.522   3.225
 7074SOL     OW22120   6.667   3.182   3.609
 7074SOL    HW122121   6.644   3.091   3.573
 7074SOL    HW222122   6.586   3.223   3.651
 7075SOL     OW22123   2.975   4.836   5.112
 7075SOL    HW122124   3.063   4.805   5.149
 7075SOL    HW222125   2.912   4.759   5.107
 7076SOL     OW22126   5.850   3.267   1.861
 7076SOL    HW122127   5.895   3.330   1.925
 7076SOL    HW222128   5.788   3.207   1.911
 7077SOL     OW22129   2.917   4.844   2.427
 7077SOL    HW122130   2.922   4.942   2.448
 7077SOL    HW222131   2.969   4.825   2.344
 7078SOL     OW22132   5.563   0.036   0.498
 7078SOL    HW122133   5.549   7.005   0.414
 7078SOL    HW222134   5.658   0.067   0.501
 7079SOL     OW22135   1.203   6.976   3.664
 7079SOL    HW122136   1.143   6.897   3.674
 7079SOL    HW222137   1.293   6.955   3.702
 7080SOL     OW22138   4.144   1.835   4.907
 7080SOL    HW122139   4.158   1.744   4.946
 7080SOL    HW222140   4.174   1.834   4.811
 7081SOL     OW22141   1.367   0.914   0.056
 7081SOL    HW122142   1.291   0.977   0.072
 7081SOL    HW222143   1.419   0.944   6.999
 7082SOL     OW22144   6.743   3.605   1.799
 7082SOL    HW122145   6.717   3.511   1.822
 7082SOL    HW222146   6.785   3.648   1.879
 7083SOL     OW22147   6.731   2.265   2.225
 7083SOL    HW122148   6.643   2.291   2.184
 7083SOL    HW222149   6.803   2.325   2.189
 7084SOL     OW22150   0.348   5.488   6.783
 7084SOL    HW122151   0.331   5.573   6.733
 7084SOL    HW222152   0.295   5.414   6.741
 7085SOL     OW22153   0.017   2.445   2.450
 7085SOL    HW122154   0.108   2.487   2.455
 7085SOL    HW222155   6.991   2.459   2.536
 7086SOL     OW22156   6.045   0.566   6.736
 7086SOL    HW122157   5.976   0.593   6.669
 7086SOL    HW222158   6.134   0.600   6.709
 7087SOL     OW22159   5.227   3.031   2.627
 7087SOL    HW122160   5.172   3.070   2.701
 7087SOL    HW222161   5.241   3.100   2.556
 7088SOL     OW22162   5.809   1.447   5.299
 7088SOL    HW122163   5.895   1.492   5.278
 7088SOL    HW222164   5.740   1.472   5.231
 7089SOL     OW22165   4.288   5.604   2.450
 7089SOL    HW122166   4.287   5.659   2.366
 7089SOL    HW222167   4.340   5.520   2.434
 7090SOL     OW22168   3.743   1.245   0.855
 7090SOL    HW122169   3.804   1.309   0.807
 7090SOL    HW222170   3.738   1.270   0.952
 7091SOL     OW22171   0.861   0.099   0.348
 7091SOL    HW122172   0.831   0.082   0.442
 7091SOL    HW222173   0.847   0.196   0.326
 7092SOL     OW22174   4.247   2.141   6.750
 7092SOL    HW122175   4.148   2.146   6.753
 7092SOL    HW222176   4.284   2.226   6.712
 7093SOL     OW22177   3.373   3.573   1.072
 7093SOL    HW122178   3.328   3.637   1.134
 7093SOL    HW222179   3.406   3.624   0.992
 7094SOL     OW22180   2.129   6.838   5.686
 7094SOL    HW122181   2.045   6.882   5.718
 7094SOL    HW222182   2.158   6.770   5.752
 7095SOL     OW22183   3.205   4.858   5.378
 7095SOL    HW122184   3.111   4.890   5.375
 7095SOL    HW222185   3.207   4.759   5.361
 7096SOL     OW22186   6.877   0.699   1.161
 7096SOL    HW122187   6.952   0.651   1.208
 7096SOL    HW222188   6.915   0.772   1.104
 7097SOL     OW22189   5.512   6.888   1.744
 7097SOL    HW122190   5.605   6.885   1.708
 7097SOL    HW222191   5.456   6.818   1.700
 7098SOL     OW22192   1.884   0.152   4.340
 7098SOL    HW122193   1.861   0.129   4.246
 7098SOL    HW222194   1.905   0.069   4.391
 7099SOL     OW22195   3.460   2.071   4.218
 7099SOL    HW122196   3.415   2.040   4.134
 7099SOL    HW222197   3.398   2.130   4.269
 7100SOL     OW22198   0.771   3.184   0.565
 7100SOL    HW122199   0.729   3.139   0.644
 7100SOL    HW222200   0.770   3.283   0.579
 7101SOL     OW22201   1.943   6.451   5.229
 7101SOL    HW122202   1.857   6.401   5.224
 7101SOL    HW222203   1.940   6.528   5.164
 7102SOL     OW22204   4.836   1.387   0.829
 7102SOL    HW122205   4.919   1.331   0.836
 7102SOL    HW222206   4.800   1.406   0.920
 7103SOL     OW22207   4.997   5.077   2.413
 7103SOL    HW122208   5.061   5.113   2.345
 7103SOL    HW222209   4.936   5.011   2.370
 7104SOL     OW22210   5.487   3.024   2.940
 7104SOL    HW122211   5.532   3.044   3.027
 7104SOL    HW222212   5.492   2.926   2.922
 7105SOL     OW22213   3.226   4.119   3.989
 7105SOL    HW122214   3.289   4.196   3.990
 7105SOL    HW222215   3.249   4.058   3.913
 7106SOL     OW22216   3.632   2.862   1.482
 7106SOL    HW122217   3.567   2.907   1.543
 7106SOL    HW222218   3.632   2.908   1.393
 7107SOL     OW22219   4.391   6.974   6.885
 7107SOL    HW122220   4.296   6.999   6.865
 7107SOL    HW222221   4.393   6.887   6.934
 7108SOL     OW22222   2.892   6.311   2.940
 7108SOL    HW122223   2.945   6.337   3.020
 7108SOL    HW222224   2.836   6.389   2.910
 7109SOL     OW22225   1.261   0.618   6.114
 7109SOL    HW122226   1.324   0.661   6.048
 7109SOL    HW222227   1.306   0.539   6.155
 7110SOL     OW22228   3.026   6.566   4.516
 7110SOL    HW122229   2.973   6.637   4.562
 7110SOL    HW222230   3.079   6.515   4.584
 7111SOL     OW22231   1.318   0.841   4.217
 7111SOL    HW122232   1.262   0.776   4.267
 7111SOL    HW222233   1.272   0.929   4.213
 7112SOL     OW22234   2.041   4.454   4.399
 7112SOL    HW122235   1.962   4.481   4.454
 7112SOL    HW222236   2.105   4.402   4.455
 7113SOL     OW22237   2.702   4.767   5.263
 7113SOL    HW122238   2.743   4.711   5.191
 7113SOL    HW222239   2.610   4.734   5.283
 7114SOL     OW22240   4.899   5.249   1.049
 7114SOL    HW122241   4.838   5.169   1.054
 7114SOL    HW222242   4.989   5.224   1.084
 7115SOL     OW22243   5.781   4.428   6.607
 7115SOL    HW122244   5.824   4.391   6.690
 7115SOL    HW222245   5.840   4.408   6.529
 7116SOL     OW22246   6.592   3.633   4.063
 7116SOL    HW122247   6.516   3.627   4.128
 7116SOL    HW222248   6.678   3.618   4.111
 7117SOL     OW22249   6.144   6.887   3.430
 7117SOL    HW122250   6.160   6.788   3.435
 7117SOL    HW222251   6.104   6.910   3.341
 7118SOL     OW22252   3.854   4.488   5.315
 7118SOL    HW122253   3.875   4.567   5.373
 7118SOL    HW222254   3.935   4.429   5.309
 7119SOL     OW22255   5.065   0.188   4.904
 7119SOL    HW122256   4.978   0.211   4.950
 7119SOL    HW222257   5.140   0.233   4.952
 7120SOL     OW22258   5.212   1.563   1.097
 7120SOL    HW122259   5.162   1.488   1.140
 7120SOL    HW222260   5.305   1.532   1.075
 7121SOL     OW22261   1.044   6.413   3.649
 7121SOL    HW122262   1.109   6.389   3.578
 7121SOL    HW222263   0.992   6.494   3.622
 7122SOL     OW22264   2.691   6.830   5.622
 7122SOL    HW122265   2.754   6.824   5.545
 7122SOL    HW222266   2.626   6.754   5.617
 7123SOL     OW22267   6.225   4.921   4.918
 7123SOL    HW122268   6.213   5.003   4.974
 7123SOL    HW222269   6.249   4.844   4.977
 7124SOL     OW22270   1.241   2.814   1.970
 7124SOL    HW122271   1.197   2.725   1.982
 7124SOL    HW222272   1.188   2.868   1.904
 7125SOL     OW22273   0.902   0.189   1.885
 7125SOL    HW122274   0.983   0.139   1.915
 7125SOL    HW222275   0.884   0.264   1.948
 7126SOL     OW22276   4.133   6.256   1.555
 7126SOL    HW122277   4.078   6.175   1.535
 7126SOL    HW222278   4.196   6.237   1.630
 7127SOL     OW22279   3.165   6.112   5.343
 7127SOL    HW122280   3.184   6.094   5.439
 7127SOL    HW222281   3.078   6.161   5.335
 7128SOL     OW22282   3.429   4.450   6.544
 7128SOL    HW122283   3.425   4.393   6.462
 7128SOL    HW222284   3.373   4.532   6.530
 7129SOL     OW22285   0.542   1.652   1.488
 7129SOL    HW122286   0.610   1.620   1.422
 7129SOL    HW222287   0.569   1.625   1.580
 7130SOL     OW22288   2.673   6.927   4.503
 7130SOL    HW122289   2.762   6.969   4.522
 7130SOL    HW222290   2.683   6.862   4.427
 7131SOL     OW22291   3.640   0.510   2.832
 7131SOL    HW122292   3.634   0.410   2.841
 7131SOL    HW222293   3.549   0.550   2.846
 7132SOL     OW22294   5.357   3.832   6.515
 7132SOL    HW122295   5.413   3.901   6.470
 7132SOL    HW222296   5.289   3.797   6.451
 7133SOL     OW22297   3.294   6.000   3.562
 7133SOL    HW122298   3.273   6.054   3.644
 7133SOL    HW222299   3.260   5.906   3.574
 7134SOL     OW22300   5.782   5.493   1.557
 7134SOL    HW122301   5.695   5.530   1.591
 7134SOL    HW222302   5.855   5.560   1.572
 7135SOL     OW22303   2.037   3.268   2.050
 7135SOL    HW122304   1.972   3.287   1.977
 7135SOL    HW222305   2.114   3.332   2.043
 7136SOL     OW22306   2.988   1.753   1.964
 7136SOL    HW122307   2.957   1.799   1.881
 7136SOL    HW222308   3.075   1.793   1.994
 7137SOL     OW22309   2.873   1.915   1.743
 7137SOL    HW122310   2.851   1.911   1.646
 7137SOL    HW222311   2.909   2.006   1.766
 7138SOL     OW22312   1.852   1.722   0.628
 7138SOL    HW122313   1.755   1.734   0.646
 7138SOL    HW222314   1.864   1.672   0.542
 7139SOL     OW22315   5.631   5.710   2.170
 7139SOL    HW122316   5.636   5.802   2.132
 7139SOL    HW222317   5.607   5.715   2.267
 7140SOL     OW22318   6.289   3.565   0.558
 7140SOL    HW122319   6.334   3.654   0.557
 7140SOL    HW222320   6.255   3.547   0.650
 7141SOL     OW22321   3.944   6.799   0.970
 7141SOL    HW122322   3.862   6.753   0.935
 7141SOL    HW222323   3.927   6.830   1.063
 7142SOL     OW22324   3.376   0.777   4.328
 7142SOL    HW122325   3.475   0.789   4.335
 7142SOL    HW222326   3.352   0.684   4.356
 7143SOL     OW22327   2.511   5.014   6.546
 7143SOL    HW122328   2.479   4.945   6.480
 7143SOL    HW222329   2.570   5.079   6.499
 7144SOL     OW22330   6.718   1.023   4.235
 7144SOL    HW122331   6.786   1.095   4.224
 7144SOL    HW222332   6.686   1.021   4.330
 7145SOL     OW22333   5.006   2.226   0.461
 7145SOL    HW122334   5.067   2.258   0.389
 7145SOL    HW222335   4.932   2.293   0.474
 7146SOL     OW22336   2.055   1.156   5.360
 7146SOL    HW122337   2.154   1.159   5.375
 7146SOL    HW222338   2.015   1.244   5.386
 7147SOL     OW22339   5.514   4.678   2.477
 7147SOL    HW122340   5.462   4.595   2.497
 7147SOL    HW222341   5.587   4.657   2.412
 7148SOL     OW22342   6.509   5.802   1.655
 7148SOL    HW122343   6.463   5.723   1.695
 7148SOL    HW222344   6.499   5.881   1.716
 7149SOL     OW22345   6.981   5.036   4.412
 7149SOL    HW122346   6.902   5.045   4.352
 7149SOL    HW222347   6.981   4.944   4.452
 7150SOL     OW22348   3.913   3.401   0.041
 7150SOL    HW122349   3.841   3.365   0.100
 7150SOL    HW222350   3.917   3.500   0.049
 7151SOL     OW22351   3.967   0.239   1.276
 7151SOL    HW122352   3.926   0.330   1.276
 7151SOL    HW222353   4.056   0.242   1.323
 7152SOL     OW22354   0.187   0.970   6.844
 7152SOL    HW122355   0.168   1.023   6.926
 7152SOL    HW222356   0.180   1.028   6.763
 7153SOL     OW22357   4.383   6.135   1.215
 7153SOL    HW122358   4.313   6.073   1.180
 7153SOL    HW222359   4.339   6.210   1.265
 7154SOL     OW22360   4.216   1.256   2.333
 7154SOL    HW122361   4.196   1.159   2.344
 7154SOL    HW222362   4.313   1.268   2.314
 7155SOL     OW22363   3.495   1.835   2.549
 7155SOL    HW122364   3.481   1.928   2.517
 7155SOL    HW222365   3.535   1.779   2.476
 7156SOL     OW22366   6.053   3.669   0.872
 7156SOL    HW122367   6.005   3.647   0.957
 7156SOL    HW222368   6.030   3.601   0.802
 7157SOL     OW22369   6.297   4.151   6.285
 7157SOL    HW122370   6.376   4.150   6.224
 7157SOL    HW222371   6.311   4.219   6.356
 7158SOL     OW22372   5.172   6.934   4.017
 7158SOL    HW122373   5.152   7.021   3.972
 7158SOL    HW222374   5.174   6.860   3.950
 7159SOL     OW22375   0.145   5.604   3.942
 7159SOL    HW122376   0.175   5.535   4.008
 7159SOL    HW222377   0.045   5.612   3.945
 7160SOL     OW22378   5.336   0.061   2.952
 7160SOL    HW122379   5.422   0.111   2.959
 7160SOL    HW222380   5.348   6.992   2.989
 7161SOL     OW22381   3.966   3.328   3.328
 7161SOL    HW122382   3.931   3.237   3.350
 7161SOL    HW222383   3.985   3.378   3.413
 7162SOL     OW22384   0.149   5.339   2.293
 7162SOL    HW122385   0.249   5.337   2.294
 7162SOL    HW222386   0.115   5.306   2.381
 7163SOL     OW22387   1.063   1.773   2.002
 7163SOL    HW122388   1.077   1.735   1.911
 7163SOL    HW222389   1.130   1.846   2.018
 7164SOL     OW22390   1.610   1.159   6.026
 7164SOL    HW122391   1.647   1.181   6.116
 7164SOL    HW222392   1.639   1.228   5.960
 7165SOL     OW22393   5.856   0.427   0.057
 7165SOL    HW122394   5.783   0.361   0.041
 7165SOL    HW222395   5.845   0.505   7.018
 7166SOL     OW22396   5.154   6.898   6.187
 7166SOL    HW122397   5.213   6.925   6.263
 7166SOL    HW222398   5.078   6.844   6.222
 7167SOL     OW22399   5.605   2.129   4.918
 7167SOL    HW122400   5.670   2.194   4.881
 7167SOL    HW222401   5.651   2.069   4.983
 7168SOL     OW22402   2.594   0.915   2.056
 7168SOL    HW122403   2.541   0.833   2.035
 7168SOL    HW222404   2.607   0.968   1.972
 7169SOL     OW22405   1.660   4.099   5.641
 7169SOL    HW122406   1.699   4.142   5.722
 7169SOL    HW222407   1.715   4.020   5.615
 7170SOL     OW22408   4.148   0.647   1.717
 7170SOL    HW122409   4.157   0.548   1.730
 7170SOL    HW222410   4.228   0.693   1.753
 7171SOL     OW22411   5.705   5.072   0.701
 7171SOL    HW122412   5.682   4.982   0.738
 7171SOL    HW222413   5.739   5.131   0.775
 7172SOL     OW22414   1.763   1.010   4.362
 7172SOL    HW122415   1.810   1.018   4.274
 7172SOL    HW222416   1.691   0.941   4.355
 7173SOL     OW22417   5.455   5.688   6.499
 7173SOL    HW122418   5.370   5.685   6.447
 7173SOL    HW222419   5.435   5.677   6.597
 7174SOL     OW22420   6.052   4.381   0.892
 7174SOL    HW122421   5.984   4.308   0.886
 7174SOL    HW222422   6.143   4.342   0.901
 7175SOL     OW22423   5.753   3.883   5.363
 7175SOL    HW122424   5.686   3.907   5.293
 7175SOL    HW222425   5.831   3.944   5.357
 7176SOL     OW22426   0.268   1.477   4.310
 7176SOL    HW122427   0.208   1.557   4.316
 7176SOL    HW222428   0.251   1.416   4.387
 7177SOL     OW22429   1.910   5.233   5.018
 7177SOL    HW122430   1.917   5.147   5.069
 7177SOL    HW222431   1.848   5.295   5.066
 7178SOL     OW22432   0.358   1.181   5.213
 7178SOL    HW122433   0.450   1.196   5.250
 7178SOL    HW222434   0.312   1.109   5.267
 7179SOL     OW22435   3.111   5.749   6.701
 7179SOL    HW122436   3.043   5.786   6.765
 7179SOL    HW222437   3.197   5.799   6.711
 7180SOL     OW22438   1.210   5.060   1.545
 7180SOL    HW122439   1.260   5.020   1.623
 7180SOL    HW222440   1.274   5.108   1.486
 7181SOL     OW22441   2.179   1.760   6.119
 7181SOL    HW122442   2.232   1.716   6.046
 7181SOL    HW222443   2.143   1.847   6.086
 7182SOL     OW22444   0.868   3.356   4.021
 7182SOL    HW122445   0.956   3.388   4.057
 7182SOL    HW222446   0.802   3.352   4.096
 7183SOL     OW22447   1.342   6.389   1.581
 7183SOL    HW122448   1.252   6.344   1.589
 7183SOL    HW222449   1.410   6.321   1.555
 7184SOL     OW22450   6.761   0.282   3.795
 7184SOL    HW122451   6.778   0.339   3.876
 7184SOL    HW222452   6.714   0.198   3.823
 7185SOL     OW22453   4.634   0.604   5.022
 7185SOL    HW122454   4.732   0.591   5.006
 7185SOL    HW222455   4.585   0.595   4.935
 7186SOL     OW22456   0.212   0.071   0.256
 7186SOL    HW122457   0.288   0.113   0.306
 7186SOL    HW222458   0.247   7.017   0.203
 7187SOL     OW22459   3.391   2.857   5.095
 7187SOL    HW122460   3.402   2.957   5.096
 7187SOL    HW222461   3.430   2.820   5.011
 7188SOL     OW22462   4.120   5.132   0.091
 7188SOL    HW122463   4.122   5.045   0.141
 7188SOL    HW222464   4.049   5.191   0.130
 7189SOL     OW22465   6.399   2.103   5.389
 7189SOL    HW122466   6.433   2.010   5.409
 7189SOL    HW222467   6.321   2.097   5.327
 7190SOL     OW22468   5.655   5.546   1.177
 7190SOL    HW122469   5.616   5.469   1.228
 7190SOL    HW222470   5.584   5.587   1.120
 7191SOL     OW22471   0.459   3.845   3.098
 7191SOL    HW122472   0.442   3.819   3.194
 7191SOL    HW222473   0.547   3.809   3.069
 7192SOL     OW22474   1.824   4.741   6.905
 7192SOL    HW122475   1.817   4.650   6.948
 7192SOL    HW222476   1.752   4.750   6.836
 7193SOL     OW22477   2.470   2.343   2.835
 7193SOL    HW122478   2.378   2.309   2.851
 7193SOL    HW222479   2.533   2.265   2.824
 7194SOL     OW22480   2.629   2.841   6.415
 7194SOL    HW122481   2.587   2.898   6.487
 7194SOL    HW222482   2.567   2.837   6.337
 7195SOL     OW22483   0.267   3.271   6.769
 7195SOL    HW122484   0.291   3.237   6.860
 7195SOL    HW222485   0.209   3.353   6.777
 7196SOL     OW22486   3.446   4.159   2.324
 7196SOL    HW122487   3.363   4.136   2.274
 7196SOL    HW222488   3.486   4.243   2.288
 7197SOL     OW22489   1.565   3.872   5.384
 7197SOL    HW122490   1.593   3.782   5.417
 7197SOL    HW222491   1.644   3.921   5.348
 7198SOL     OW22492   6.895   0.889   0.586
 7198SOL    HW122493   6.838   0.809   0.603
 7198SOL    HW222494   6.898   0.948   0.667
 7199SOL     OW22495   0.849   1.214   2.375
 7199SOL    HW122496   0.784   1.139   2.365
 7199SOL    HW222497   0.873   1.225   2.471
 7200SOL     OW22498   2.234   2.703   0.603
 7200SOL    HW122499   2.169   2.674   0.532
 7200SOL    HW222500   2.264   2.796   0.584
 7201SOL     OW22501   5.613   5.550   4.249
 7201SOL    HW122502   5.682   5.604   4.201
 7201SOL    HW222503   5.581   5.476   4.191
 7202SOL     OW22504   5.063   6.906   5.899
 7202SOL    HW122505   4.964   6.894   5.900
 7202SOL    HW222506   5.095   6.926   5.992
 7203SOL     OW22507   6.933   1.618   2.184
 7203SOL    HW122508   6.901   1.571   2.267
 7203SOL    HW222509   6.855   1.636   2.124
 7204SOL     OW22510   0.209   1.672   1.068
 7204SOL    HW122511   0.250   1.763   1.056
 7204SOL    HW222512   0.141   1.675   1.141
 7205SOL     OW22513   2.173   2.199   5.303
 7205SOL    HW122514   2.080   2.196   5.268
 7205SOL    HW222515   2.223   2.275   5.262
 7206SOL     OW22516   1.732   2.135   0.932
 7206SOL    HW122517   1.819   2.103   0.892
 7206SOL    HW222518   1.704   2.071   1.004
 7207SOL     OW22519   1.926   2.598   3.916
 7207SOL    HW122520   1.834   2.614   3.881
 7207SOL    HW222521   1.949   2.501   3.908
 7208SOL     OW22522   3.878   0.920   4.586
 7208SOL    HW122523   3.915   1.013   4.583
 7208SOL    HW222524   3.937   0.863   4.644
 7209SOL     OW22525   2.427   2.573   2.335
 7209SOL    HW122526   2.478   2.578   2.420
 7209SOL    HW222527   2.458   2.494   2.282
 7210SOL     OW22528   2.492   1.713   2.745
 7210SOL    HW122529   2.566   1.662   2.701
 7210SOL    HW222530   2.490   1.807   2.710
 7211SOL     OW22531   3.001   5.807   5.266
 7211SOL    HW122532   3.063   5.792   5.342
 7211SOL    HW222533   2.998   5.905   5.244
 7212SOL     OW22534   6.069   5.187   5.854
 7212SOL    HW122535   6.031   5.275   5.881
 7212SOL    HW222536   6.152   5.169   5.906
 7213SOL     OW22537   4.002   0.683   0.738
 7213SOL    HW122538   4.065   0.720   0.670
 7213SOL    HW222539   3.964   0.596   0.703
 7214SOL     OW22540   0.710   0.834   6.334
 7214SOL    HW122541   0.795   0.797   6.371
 7214SOL    HW222542   0.669   0.767   6.272
 7215SOL     OW22543   0.162   2.839   3.089
 7215SOL    HW122544   0.212   2.925   3.099
 7215SOL    HW222545   0.212   2.779   3.026
 7216SOL     OW22546   3.062   6.428   3.143
 7216SOL    HW122547   3.131   6.429   3.216
 7216SOL    HW222548   3.043   6.522   3.115
 7217SOL     OW22549   1.479   4.424   3.715
 7217SOL    HW122550   1.516   4.479   3.640
 7217SOL    HW222551   1.513   4.331   3.709
 7218SOL     OW22552   6.466   3.218   4.478
 7218SOL    HW122553   6.411   3.266   4.547
 7218SOL    HW222554   6.486   3.125   4.510
 7219SOL     OW22555   2.792   6.708   1.626
 7219SOL    HW122556   2.728   6.777   1.662
 7219SOL    HW222557   2.817   6.644   1.698
 7220SOL     OW22558   6.831   4.171   4.513
 7220SOL    HW122559   6.854   4.199   4.606
 7220SOL    HW222560   6.776   4.087   4.515
 7221SOL     OW22561   3.218   6.053   4.992
 7221SOL    HW122562   3.127   6.037   5.030
 7221SOL    HW222563   3.285   6.001   5.044
 7222SOL     OW22564   6.354   6.598   3.271
 7222SOL    HW122565   6.277   6.612   3.333
 7222SOL    HW222566   6.323   6.550   3.189
 7223SOL     OW22567   2.616   1.961   0.689
 7223SOL    HW122568   2.686   1.954   0.618
 7223SOL    HW222569   2.652   2.011   0.767
 7224SOL     OW22570   4.361   2.213   3.445
 7224SOL    HW122571   4.341   2.275   3.521
 7224SOL    HW222572   4.416   2.136   3.479
 7225SOL     OW22573   1.825   7.013   0.674
 7225SOL    HW122574   1.850   6.970   0.761
 7225SOL    HW222575   1.832   6.946   0.600
 7226SOL     OW22576   5.662   0.988   0.212
 7226SOL    HW122577   5.720   1.066   0.232
 7226SOL    HW222578   5.571   1.004   0.250
 7227SOL     OW22579   2.294   0.649   2.185
 7227SOL    HW122580   2.313   0.699   2.269
 7227SOL    HW222581   2.359   0.676   2.115
 7228SOL     OW22582   0.638   1.867   2.451
 7228SOL    HW122583   0.548   1.888   2.489
 7228SOL    HW222584   0.647   1.912   2.362
 7229SOL     OW22585   6.511   0.199   4.668
 7229SOL    HW122586   6.506   0.254   4.584
 7229SOL    HW222587   6.591   0.139   4.663
 7230SOL     OW22588   2.995   5.213   4.041
 7230SOL    HW122589   2.924   5.146   4.018
 7230SOL    HW222590   2.981   5.246   4.134
 7231SOL     OW22591   4.097   1.329   6.672
 7231SOL    HW122592   4.068   1.356   6.580
 7231SOL    HW222593   4.084   1.405   6.735
 7232SOL     OW22594   5.287   0.006   2.657
 7232SOL    HW122595   5.195   0.035   2.685
 7232SOL    HW222596   5.329   6.975   2.730
 7233SOL     OW22597   5.768   2.088   6.064
 7233SOL    HW122598   5.749   2.014   6.000
 7233SOL    HW222599   5.866   2.109   6.063
 7234SOL     OW22600   5.005   3.666   3.434
 7234SOL    HW122601   4.973   3.583   3.480
 7234SOL    HW222602   5.032   3.734   3.503
 7235SOL     OW22603   6.297   5.645   1.798
 7235SOL    HW122604   6.263   5.665   1.889
 7235SOL    HW222605   6.250   5.564   1.762
 7236SOL     OW22606   1.973   2.849   2.934
 7236SOL    HW122607   1.985   2.798   3.019
 7236SOL    HW222608   2.039   2.816   2.866
 7237SOL     OW22609   5.139   0.361   6.946
 7237SOL    HW122610   5.094   0.271   6.954
 7237SOL    HW222611   5.235   0.348   6.924
 7238SOL     OW22612   4.763   2.668   6.701
 7238SOL    HW122613   4.853   2.696   6.669
 7238SOL    HW222614   4.756   2.569   6.699
 7239SOL     OW22615   0.411   3.514   2.163
 7239SOL    HW122616   0.333   3.576   2.157
 7239SOL    HW222617   0.387   3.436   2.221
 7240SOL     OW22618   6.967   1.663   6.047
 7240SOL    HW122619   6.967   1.657   6.146
 7240SOL    HW222620   6.895   1.727   6.017
 7241SOL     OW22621   2.130   0.888   0.728
 7241SOL    HW122622   2.177   0.958   0.780
 7241SOL    HW222623   2.177   0.872   0.642
 7242SOL     OW22624   0.311   5.970   4.672
 7242SOL    HW122625   0.405   5.997   4.690
 7242SOL    HW222626   0.262   5.960   4.758
 7243SOL     OW22627   0.093   3.700   5.982
 7243SOL    HW122628   0.002   3.740   5.980
 7243SOL    HW222629   0.102   3.634   5.907
 7244SOL     OW22630   0.389   6.509   0.115
 7244SOL    HW122631   0.461   6.442   0.131
 7244SOL    HW222632   0.304   6.477   0.156
 7245SOL     OW22633   1.618   2.266   6.956
 7245SOL    HW122634   1.696   2.323   6.932
 7245SOL    HW222635   1.648   2.171   6.968
 7246SOL     OW22636   3.226   0.779   4.772
 7246SOL    HW122637   3.270   0.689   4.769
 7246SOL    HW222638   3.204   0.808   4.678
 7247SOL     OW22639   2.964   2.390   5.594
 7247SOL    HW122640   3.062   2.403   5.610
 7247SOL    HW222641   2.945   2.401   5.496
 7248SOL     OW22642   3.133   0.583   4.099
 7248SOL    HW122643   3.195   0.608   4.025
 7248SOL    HW222644   3.116   0.484   4.097
 7249SOL     OW22645   4.282   4.652   1.955
 7249SOL    HW122646   4.254   4.603   1.873
 7249SOL    HW222647   4.348   4.597   2.007
 7250SOL     OW22648   5.218   4.590   5.936
 7250SOL    HW122649   5.262   4.678   5.955
 7250SOL    HW222650   5.263   4.518   5.989
 7251SOL     OW22651   0.996   6.447   5.929
 7251SOL    HW122652   0.914   6.503   5.940
 7251SOL    HW222653   1.061   6.494   5.871
 7252SOL     OW22654   3.203   4.105   2.201
 7252SOL    HW122655   3.150   4.044   2.260
 7252SOL    HW222656   3.140   4.163   2.149
 7253SOL     OW22657   1.566   6.478   5.990
 7253SOL    HW122658   1.582   6.380   5.999
 7253SOL    HW222659   1.480   6.502   6.035
 7254SOL     OW22660   5.738   4.476   3.612
 7254SOL    HW122661   5.746   4.555   3.673
 7254SOL    HW222662   5.702   4.398   3.662
 7255SOL     OW22663   5.300   3.218   6.503
 7255SOL    HW122664   5.228   3.195   6.437
 7255SOL    HW222665   5.259   3.236   6.592
 7256SOL     OW22666   3.707   6.585   5.502
 7256SOL    HW122667   3.724   6.489   5.480
 7256SOL    HW222668   3.609   6.602   5.509
 7257SOL     OW22669   0.199   1.896   5.088
 7257SOL    HW122670   0.103   1.921   5.100
 7257SOL    HW222671   0.255   1.949   5.153
 7258SOL     OW22672   5.610   2.597   1.564
 7258SOL    HW122673   5.541   2.658   1.601
 7258SOL    HW222674   5.699   2.619   1.604
 7259SOL     OW22675   1.464   3.434   3.134
 7259SOL    HW122676   1.528   3.458   3.062
 7259SOL    HW222677   1.370   3.452   3.104
 7260SOL     OW22678   5.201   2.474   1.109
 7260SOL    HW122679   5.107   2.501   1.089
 7260SOL    HW222680   5.201   2.401   1.178
 7261SOL     OW22681   0.287   3.882   1.018
 7261SOL    HW122682   0.239   3.821   0.955
 7261SOL    HW222683   0.385   3.881   0.997
 7262SOL     OW22684   5.509   1.358   6.227
 7262SOL    HW122685   5.585   1.397   6.279
 7262SOL    HW222686   5.536   1.267   6.194
 7263SOL     OW22687   0.521   6.848   0.296
 7263SOL    HW122688   0.428   6.811   0.303
 7263SOL    HW222689   0.524   6.914   0.221
 7264SOL     OW22690   5.907   1.111   1.148
 7264SOL    HW122691   5.809   1.109   1.168
 7264SOL    HW222692   5.931   1.199   1.108
 7265SOL     OW22693   5.591   5.418   4.496
 7265SOL    HW122694   5.605   5.480   4.418
 7265SOL    HW222695   5.526   5.347   4.471
 7266SOL     OW22696   0.045   0.480   3.578
 7266SOL    HW122697   0.081   0.430   3.657
 7266SOL    HW222698   0.066   0.577   3.588
 7267SOL     OW22699   6.590   6.519   4.894
 7267SOL    HW122700   6.668   6.554   4.841
 7267SOL    HW222701   6.522   6.481   4.832
 7268SOL     OW22702   6.812   5.544   4.415
 7268SOL    HW122703   6.778   5.486   4.489
 7268SOL    HW222704   6.736   5.568   4.355
 7269SOL     OW22705   1.874   6.447   6.041
 7269SOL    HW122706   1.914   6.367   5.995
 7269SOL    HW222707   1.823   6.501   5.974
 7270SOL     OW22708   7.013   1.949   4.154
 7270SOL    HW122709   0.024   1.958   4.061
 7270SOL    HW222710   6.914   1.932   4.152
 7271SOL     OW22711   1.812   5.007   3.776
 7271SOL    HW122712   1.883   5.021   3.707
 7271SOL    HW222713   1.754   4.930   3.749
 7272SOL     OW22714   6.496   6.004   1.816
 7272SOL    HW122715   6.452   6.004   1.906
 7272SOL    HW222716   6.593   6.026   1.826
 7273SOL     OW22717   5.085   3.420   6.216
 7273SOL    HW122718   5.171   3.469   6.230
 7273SOL    HW222719   5.064   3.364   6.296
 7274SOL     OW22720   0.394   4.371   6.610
 7274SOL    HW122721   0.319   4.355   6.674
 7274SOL    HW222722   0.360   4.418   6.529
 7275SOL     OW22723   0.191   6.702   2.697
 7275SOL    HW122724   0.138   6.703   2.783
 7275SOL    HW222725   0.135   6.662   2.625
 7276SOL     OW22726   5.501   6.991   3.783
 7276SOL    HW122727   5.496   0.068   3.790
 7276SOL    HW222728   5.525   6.965   3.690
 7277SOL     OW22729   5.106   0.428   5.753
 7277SOL    HW122730   5.133   0.497   5.685
 7277SOL    HW222731   5.162   0.346   5.741
 7278SOL     OW22732   3.241   3.896   1.774
 7278SOL    HW122733   3.303   3.933   1.843
 7278SOL    HW222734   3.162   3.854   1.818
 7279SOL     OW22735   3.880   6.331   0.074
 7279SOL    HW122736   3.863   6.410   0.132
 7279SOL    HW222737   3.979   6.315   0.067
 7280SOL     OW22738   5.775   6.868   5.193
 7280SOL    HW122739   5.678   6.864   5.170
 7280SOL    HW222740   5.823   6.924   5.125
 7281SOL     OW22741   2.963   1.646   0.038
 7281SOL    HW122742   3.005   1.725   0.084
 7281SOL    HW222743   2.918   1.677   6.977
 7282SOL     OW22744   6.290   5.064   2.753
 7282SOL    HW122745   6.197   5.041   2.724
 7282SOL    HW222746   6.316   5.007   2.830
 7283SOL     OW22747   3.054   1.147   3.492
 7283SOL    HW122748   3.008   1.223   3.445
 7283SOL    HW222749   3.024   1.144   3.587
 7284SOL     OW22750   0.331   3.638   5.313
 7284SOL    HW122751   0.381   3.574   5.371
 7284SOL    HW222752   0.252   3.673   5.363
 7285SOL     OW22753   5.251   4.022   2.440
 7285SOL    HW122754   5.323   4.087   2.416
 7285SOL    HW222755   5.282   3.962   2.513
 7286SOL     OW22756   3.144   1.664   1.076
 7286SOL    HW122757   3.116   1.621   0.990
 7286SOL    HW222758   3.063   1.680   1.133
 7287SOL     OW22759   0.815   2.341   6.639
 7287SOL    HW122760   0.830   2.275   6.565
 7287SOL    HW222761   0.785   2.428   6.599
 7288SOL     OW22762   3.808   0.384   6.381
 7288SOL    HW122763   3.870   0.373   6.458
 7288SOL    HW222764   3.770   0.476   6.381
 7289SOL     OW22765   6.179   1.556   3.375
 7289SOL    HW122766   6.106   1.613   3.412
 7289SOL    HW222767   6.152   1.460   3.378
 7290SOL     OW22768   2.506   6.027   5.446
 7290SOL    HW122769   2.442   5.951   5.456
 7290SOL    HW222770   2.593   6.004   5.491
 7291SOL     OW22771   2.057   0.296   1.341
 7291SOL    HW122772   2.084   0.391   1.326
 7291SOL    HW222773   1.957   0.291   1.354
 7292SOL     OW22774   2.401   0.706   4.405
 7292SOL    HW122775   2.462   0.751   4.339
 7292SOL    HW222776   2.395   0.763   4.487
 7293SOL     OW22777   1.582   1.399   5.017
 7293SOL    HW122778   1.665   1.346   5.002
 7293SOL    HW222779   1.510   1.338   5.050
 7294SOL     OW22780   2.734   5.351   1.056
 7294SOL    HW122781   2.726   5.278   0.988
 7294SOL    HW222782   2.828   5.355   1.089
 7295SOL     OW22783   1.016   2.788   0.721
 7295SOL    HW122784   1.115   2.786   0.735
 7295SOL    HW222785   0.996   2.818   0.628
 7296SOL     OW22786   2.966   4.588   1.024
 7296SOL    HW122787   2.957   4.497   0.983
 7296SOL    HW222788   2.911   4.594   1.107
 7297SOL     OW22789   3.753   5.948   0.871
 7297SOL    HW122790   3.717   6.040   0.858
 7297SOL    HW222791   3.696   5.882   0.821
 7298SOL     OW22792   4.863   4.151   5.737
 7298SOL    HW122793   4.866   4.245   5.704
 7298SOL    HW222794   4.919   4.093   5.678
 7299SOL     OW22795   0.268   1.861   7.019
 7299SOL    HW122796   0.304   1.891   0.084
 7299SOL    HW222797   0.243   1.765   0.001
 7300SOL     OW22798   5.768   5.317   2.171
 7300SOL    HW122799   5.769   5.358   2.079
 7300SOL    HW222800   5.686   5.261   2.181
 7301SOL     OW22801   6.145   0.977   4.723
 7301SOL    HW122802   6.099   1.018   4.803
 7301SOL    HW222803   6.090   0.993   4.641
 7302SOL     OW22804   0.300   1.278   6.681
 7302SOL    HW122805   0.315   1.185   6.647
 7302SOL    HW222806   0.346   1.290   6.769
 7303SOL     OW22807   4.975   0.672   6.620
 7303SOL    HW122808   5.058   0.623   6.648
 7303SOL    HW222809   4.899   0.645   6.679
 7304SOL     OW22810   3.600   4.490   6.940
 7304SOL    HW122811   3.626   4.583   6.967
 7304SOL    HW222812   3.668   4.454   6.876
 7305SOL     OW22813   4.920   1.922   0.653
 7305SOL    HW122814   5.001   1.980   0.656
 7305SOL    HW222815   4.840   1.974   0.680
 7306SOL     OW22816   5.057   3.242   1.164
 7306SOL    HW122817   5.108   3.293   1.095
 7306SOL    HW222818   5.095   3.261   1.255
 7307SOL     OW22819   2.972   0.111   1.656
 7307SOL    HW122820   2.936   0.183   1.715
 7307SOL    HW222821   3.051   0.146   1.605
 7308SOL     OW22822   6.971   4.018   5.526
 7308SOL    HW122823   6.948   4.031   5.429
 7308SOL    HW222824   6.946   4.100   5.577
 7309SOL     OW22825   5.343   6.117   0.660
 7309SOL    HW122826   5.293   6.184   0.715
 7309SOL    HW222827   5.324   6.133   0.563
 7310SOL     OW22828   2.015   3.898   1.584
 7310SOL    HW122829   2.000   3.827   1.652
 7310SOL    HW222830   1.940   3.965   1.589
 7311SOL     OW22831   3.548   2.052   2.068
 7311SOL    HW122832   3.603   2.132   2.044
 7311SOL    HW222833   3.451   2.075   2.061
 7312SOL     OW22834   0.425   3.309   5.794
 7312SOL    HW122835   0.468   3.333   5.882
 7312SOL    HW222836   0.355   3.377   5.771
 7313SOL     OW22837   4.506   2.421   6.221
 7313SOL    HW122838   4.529   2.474   6.303
 7313SOL    HW222839   4.524   2.476   6.140
 7314SOL     OW22840   6.608   3.680   5.466
 7314SOL    HW122841   6.568   3.596   5.430
 7314SOL    HW222842   6.707   3.672   5.468
 7315SOL     OW22843   6.853   0.309   2.676
 7315SOL    HW122844   6.811   0.260   2.752
 7315SOL    HW222845   6.917   0.378   2.711
 7316SOL     OW22846   3.066   3.381   6.197
 7316SOL    HW122847   3.086   3.463   6.249
 7316SOL    HW222848   2.971   3.385   6.165
 7317SOL     OW22849   4.553   0.862   2.296
 7317SOL    HW122850   4.533   0.929   2.368
 7317SOL    HW222851   4.552   0.770   2.335
 7318SOL     OW22852   0.958   1.638   0.800
 7318SOL    HW122853   1.016   1.562   0.772
 7318SOL    HW222854   0.916   1.680   0.720
 7319SOL     OW22855   6.430   3.711   6.177
 7319SOL    HW122856   6.384   3.638   6.228
 7319SOL    HW222857   6.368   3.745   6.105
 7320SOL     OW22858   6.479   3.642   1.716
 7320SOL    HW122859   6.577   3.633   1.735
 7320SOL    HW222860   6.459   3.736   1.688
 7321SOL     OW22861   2.980   6.317   5.321
 7321SOL    HW122862   2.899   6.295   5.266
 7321SOL    HW222863   2.951   6.363   5.405
 7322SOL     OW22864   0.638   2.564   2.888
 7322SOL    HW122865   0.610   2.611   2.804
 7322SOL    HW222866   0.609   2.468   2.883
 7323SOL     OW22867   1.964   2.416   1.625
 7323SOL    HW122868   1.882   2.360   1.636
 7323SOL    HW222869   1.952   2.502   1.674
 7324SOL     OW22870   5.262   6.463   2.534
 7324SOL    HW122871   5.257   6.563   2.543
 7324SOL    HW222872   5.209   6.435   2.454
 7325SOL     OW22873   4.007   6.753   6.305
 7325SOL    HW122874   4.046   6.678   6.358
 7325SOL    HW222875   3.933   6.719   6.247
 7326SOL     OW22876   2.290   6.450   5.348
 7326SOL    HW122877   2.268   6.366   5.298
 7326SOL    HW222878   2.277   6.529   5.288
 7327SOL     OW22879   6.599   2.874   5.249
 7327SOL    HW122880   6.647   2.879   5.162
 7327SOL    HW222881   6.629   2.793   5.300
 7328SOL     OW22882   3.405   0.336   6.457
 7328SOL    HW122883   3.397   0.237   6.465
 7328SOL    HW222884   3.467   0.359   6.381
 7329SOL     OW22885   4.510   3.782   1.697
 7329SOL    HW122886   4.549   3.874   1.697
 7329SOL    HW222887   4.583   3.715   1.679
 7330SOL     OW22888   3.204   2.039   6.726
 7330SOL    HW122889   3.123   1.986   6.750
 7330SOL    HW222890   3.280   2.013   6.786
 7331SOL     OW22891   5.383   0.128   1.655
 7331SOL    HW122892   5.369   0.118   1.557
 7331SOL    HW222893   5.431   0.048   1.690
 7332SOL     OW22894   2.219   6.057   0.387
 7332SOL    HW122895   2.131   6.015   0.409
 7332SOL    HW222896   2.293   6.003   0.426
 7333SOL     OW22897   0.181   3.144   3.623
 7333SOL    HW122898   0.120   3.112   3.551
 7333SOL    HW222899   0.179   3.080   3.700
 7334SOL     OW22900   3.930   6.033   6.886
 7334SOL    HW122901   3.950   6.096   6.961
 7334SOL    HW222902   3.877   5.955   6.921
 7335SOL     OW22903   1.925   2.765   2.579
 7335SOL    HW122904   2.004   2.825   2.591
 7335SOL    HW222905   1.843   2.812   2.609
 7336SOL     OW22906   1.783   6.127   3.008
 7336SOL    HW122907   1.779   6.213   2.957
 7336SOL    HW222908   1.708   6.067   2.979
 7337SOL     OW22909   0.297   2.767   2.287
 7337SOL    HW122910   0.233   2.840   2.265
 7337SOL    HW222911   0.353   2.747   2.206
 7338SOL     OW22912   6.459   2.744   1.342
 7338SOL    HW122913   6.545   2.695   1.354
 7338SOL    HW222914   6.477   2.842   1.334
 7339SOL     OW22915   5.039   6.442   3.804
 7339SOL    HW122916   4.975   6.499   3.856
 7339SOL    HW222917   4.989   6.365   3.763
 7340SOL     OW22918   1.544   1.001   0.239
 7340SOL    HW122919   1.477   0.973   0.170
 7340SOL    HW222920   1.597   0.921   0.268
 7341SOL     OW22921   0.035   2.454   6.804
 7341SOL    HW122922   6.966   2.422   6.783
 7341SOL    HW222923   0.045   2.548   6.774
 7342SOL     OW22924   6.617   1.102   1.639
 7342SOL    HW122925   6.544   1.074   1.701
 7342SOL    HW222926   6.578   1.138   1.555
 7343SOL     OW22927   4.165   2.822   6.863
 7343SOL    HW122928   4.125   2.738   6.901
 7343SOL    HW222929   4.132   2.901   6.914
 7344SOL     OW22930   1.121   6.735   6.028
 7344SOL    HW122931   1.124   6.638   6.005
 7344SOL    HW222932   1.202   6.781   5.990
 7345SOL     OW22933   3.481   3.462   5.902
 7345SOL    HW122934   3.426   3.543   5.921
 7345SOL    HW222935   3.491   3.451   5.803
 7346SOL     OW22936   4.025   6.808   2.800
 7346SOL    HW122937   4.067   6.739   2.741
 7346SOL    HW222938   3.943   6.770   2.842
 7347SOL     OW22939   0.483   1.852   0.451
 7347SOL    HW122940   0.570   1.808   0.429
 7347SOL    HW222941   0.429   1.862   0.367
 7348SOL     OW22942   1.086   3.458   4.169
 7348SOL    HW122943   1.159   3.416   4.116
 7348SOL    HW222944   1.103   3.557   4.178
 7349SOL     OW22945   3.991   0.012   1.878
 7349SOL    HW122946   4.038   6.972   1.940
 7349SOL    HW222947   3.940   0.080   1.931
 7350SOL     OW22948   2.524   1.603   5.709
 7350SOL    HW122949   2.482   1.628   5.796
 7350SOL    HW222950   2.495   1.668   5.639
 7351SOL     OW22951   5.474   5.466   3.300
 7351SOL    HW122952   5.545   5.536   3.308
 7351SOL    HW222953   5.433   5.469   3.209
 7352SOL     OW22954   1.211   1.899   2.690
 7352SOL    HW122955   1.193   1.811   2.735
 7352SOL    HW222956   1.278   1.886   2.617
 7353SOL     OW22957   0.482   0.300   6.823
 7353SOL    HW122958   0.442   0.343   6.742
 7353SOL    HW222959   0.573   0.339   6.840
 7354SOL     OW22960   1.906   0.747   4.715
 7354SOL    HW122961   1.870   0.738   4.808
 7354SOL    HW222962   1.927   0.843   4.697
 7355SOL     OW22963   0.326   2.050   6.559
 7355SOL    HW122964   0.284   2.109   6.491
 7355SOL    HW222965   0.426   2.058   6.552
 7356SOL     OW22966   3.809   4.364   6.138
 7356SOL    HW122967   3.750   4.369   6.057
 7356SOL    HW222968   3.893   4.316   6.115
 7357SOL     OW22969   3.323   6.131   2.134
 7357SOL    HW122970   3.259   6.163   2.065
 7357SOL    HW222971   3.414   6.125   2.095
 7358SOL     OW22972   6.296   3.272   2.166
 7358SOL    HW122973   6.353   3.276   2.249
 7358SOL    HW222974   6.259   3.180   2.156
 7359SOL     OW22975   4.463   2.610   5.953
 7359SOL    HW122976   4.517   2.603   5.869
 7359SOL    HW222977   4.445   2.706   5.973
 7360SOL     OW22978   2.053   3.623   5.408
 7360SOL    HW122979   2.110   3.603   5.488
 7360SOL    HW222980   2.107   3.671   5.339
 7361SOL     OW22981   5.305   0.671   2.704
 7361SOL    HW122982   5.210   0.679   2.675
 7361SOL    HW222983   5.313   0.597   2.772
 7362SOL     OW22984   3.031   5.817   6.412
 7362SOL    HW122985   3.083   5.898   6.441
 7362SOL    HW222986   3.062   5.737   6.464
 7363SOL     OW22987   4.413   0.705   1.449
 7363SOL    HW122988   4.431   0.616   1.407
 7363SOL    HW222989   4.316   0.728   1.438
 7364SOL     OW22990   4.657   0.242   1.998
 7364SOL    HW122991   4.558   0.241   1.985
 7364SOL    HW222992   4.702   0.215   1.913
 7365SOL     OW22993   0.174   5.925   2.572
 7365SOL    HW122994   0.127   5.839   2.555
 7365SOL    HW222995   0.136   5.968   2.655
 7366SOL     OW22996   2.005   6.922   5.001
 7366SOL    HW122997   1.993   6.862   4.922
 7366SOL    HW222998   2.098   6.915   5.035
 7367SOL     OW22999   4.087   2.408   0.526
 7367SOL    HW123000   4.101   2.320   0.481
 7367SOL    HW223001   4.042   2.395   0.614
 7368SOL     OW23002   3.583   2.896   2.880
 7368SOL    HW123003   3.652   2.897   2.953
 7368SOL    HW223004   3.566   2.802   2.851
 7369SOL     OW23005   3.599   2.544   1.032
 7369SOL    HW123006   3.696   2.553   1.054
 7369SOL    HW223007   3.563   2.460   1.072
 7370SOL     OW23008   2.677   2.058   5.461
 7370SOL    HW123009   2.754   2.094   5.408
 7370SOL    HW223010   2.682   2.091   5.555
 7371SOL     OW23011   3.172   6.766   3.878
 7371SOL    HW123012   3.083   6.771   3.923
 7371SOL    HW223013   3.236   6.828   3.924
 7372SOL     OW23014   4.263   6.713   4.752
 7372SOL    HW123015   4.313   6.631   4.722
 7372SOL    HW223016   4.326   6.773   4.802
 7373SOL     OW23017   5.389   2.142   4.714
 7373SOL    HW123018   5.342   2.096   4.638
 7373SOL    HW223019   5.472   2.091   4.737
 7374SOL     OW23020   1.517   1.757   4.742
 7374SOL    HW123021   1.479   1.709   4.821
 7374SOL    HW223022   1.605   1.717   4.718
 7375SOL     OW23023   2.354   2.807   1.848
 7375SOL    HW123024   2.359   2.801   1.947
 7375SOL    HW223025   2.345   2.903   1.821
 7376SOL     OW23026   1.220   3.026   1.392
 7376SOL    HW123027   1.310   3.047   1.431
 7376SOL    HW223028   1.153   3.091   1.427
 7377SOL     OW23029   3.887   5.319   1.191
 7377SOL    HW123030   3.825   5.397   1.207
 7377SOL    HW223031   3.979   5.343   1.221
 7378SOL     OW23032   1.442   6.816   4.241
 7378SOL    HW123033   1.426   6.776   4.151
 7378SOL    HW223034   1.356   6.821   4.291
 7379SOL     OW23035   2.620   0.218   1.905
 7379SOL    HW123036   2.602   0.194   2.001
 7379SOL    HW223037   2.542   0.189   1.849
 7380SOL     OW23038   6.261   4.206   3.523
 7380SOL    HW123039   6.253   4.278   3.454
 7380SOL    HW223040   6.300   4.244   3.607
 7381SOL     OW23041   3.954   2.780   0.721
 7381SOL    HW123042   3.880   2.717   0.697
 7381SOL    HW223043   4.000   2.748   0.804
 7382SOL     OW23044   6.681   2.048   6.188
 7382SOL    HW123045   6.707   2.141   6.165
 7382SOL    HW223046   6.581   2.040   6.185
 7383SOL     OW23047   2.303   5.792   1.905
 7383SOL    HW123048   2.223   5.734   1.889
 7383SOL    HW223049   2.287   5.882   1.864
 7384SOL     OW23050   6.722   6.990   1.267
 7384SOL    HW123051   6.724   6.983   1.168
 7384SOL    HW223052   6.628   6.986   1.300
 7385SOL     OW23053   2.984   5.114   2.483
 7385SOL    HW123054   2.973   5.125   2.582
 7385SOL    HW223055   3.081   5.099   2.462
 7386SOL     OW23056   6.696   2.995   6.380
 7386SOL    HW123057   6.617   3.020   6.436
 7386SOL    HW223058   6.747   2.922   6.425
 7387SOL     OW23059   6.770   5.317   5.937
 7387SOL    HW123060   6.816   5.406   5.938
 7387SOL    HW223061   6.671   5.331   5.930
 7388SOL     OW23062   1.296   5.350   3.165
 7388SOL    HW123063   1.217   5.332   3.107
 7388SOL    HW223064   1.352   5.422   3.124
 7389SOL     OW23065   0.091   3.377   0.430
 7389SOL    HW123066   0.134   3.426   0.506
 7389SOL    HW223067   0.144   3.393   0.346
 7390SOL     OW23068   2.626   1.922   2.086
 7390SOL    HW123069   2.542   1.879   2.120
 7390SOL    HW223070   2.705   1.873   2.121
 7391SOL     OW23071   4.096   3.635   2.745
 7391SOL    HW123072   4.078   3.641   2.843
 7391SOL    HW223073   4.090   3.725   2.704
 7392SOL     OW23074   3.377   6.429   6.788
 7392SOL    HW123075   3.285   6.393   6.773
 7392SOL    HW223076   3.414   6.463   6.701
 7393SOL     OW23077   6.605   4.622   3.259
 7393SOL    HW123078   6.558   4.549   3.209
 7393SOL    HW223079   6.610   4.598   3.356
 7394SOL     OW23080   2.045   2.870   6.642
 7394SOL    HW123081   1.952   2.847   6.670
 7394SOL    HW223082   2.052   2.870   6.543
 7395SOL     OW23083   2.064   3.281   1.517
 7395SOL    HW123084   2.093   3.240   1.604
 7395SOL    HW223085   2.039   3.377   1.532
 7396SOL     OW23086   2.305   6.052   1.828
 7396SOL    HW123087   2.344   6.091   1.745
 7396SOL    HW223088   2.258   6.124   1.880
 7397SOL     OW23089   4.871   3.381   4.672
 7397SOL    HW123090   4.948   3.422   4.721
 7397SOL    HW223091   4.795   3.446   4.668
 7398SOL     OW23092   1.322   5.032   3.076
 7398SOL    HW123093   1.303   5.084   3.159
 7398SOL    HW223094   1.421   5.031   3.059
 7399SOL     OW23095   6.552   2.853   4.343
 7399SOL    HW123096   6.511   2.933   4.386
 7399SOL    HW223097   6.485   2.809   4.284
 7400SOL     OW23098   4.704   2.159   5.122
 7400SOL    HW123099   4.662   2.088   5.066
 7400SOL    HW223100   4.636   2.228   5.146
 7401SOL     OW23101   1.813   3.019   3.419
 7401SOL    HW123102   1.869   3.075   3.358
 7401SOL    HW223103   1.740   2.976   3.367
 7402SOL     OW23104   2.402   5.107   5.625
 7402SOL    HW123105   2.420   5.027   5.567
 7402SOL    HW223106   2.323   5.089   5.683
 7403SOL     OW23107   1.988   3.122   2.854
 7403SOL    HW123108   2.070   3.111   2.798
 7403SOL    HW223109   1.943   3.034   2.864
 7404SOL     OW23110   3.421   4.159   1.520
 7404SOL    HW123111   3.349   4.168   1.588
 7404SOL    HW223112   3.393   4.093   1.450
 7405SOL     OW23113   3.019   5.130   5.137
 7405SOL    HW123114   3.041   5.139   5.040
 7405SOL    HW223115   2.955   5.055   5.151
 7406SOL     OW23116   0.756   1.568   5.181
 7406SOL    HW123117   0.712   1.608   5.100
 7406SOL    HW223118   0.846   1.534   5.155
 7407SOL     OW23119   0.897   6.512   7.018
 7407SOL    HW123120   0.882   6.414   7.006
 7407SOL    HW223121   0.824   6.550   0.052
 7408SOL     OW23122   3.204   4.308   5.461
 7408SOL    HW123123   3.142   4.358   5.522
 7408SOL    HW223124   3.254   4.239   5.514
 7409SOL     OW23125   5.298   4.008   0.059
 7409SOL    HW123126   5.376   3.962   0.100
 7409SOL    HW223127   5.322   4.037   6.989
 7410SOL     OW23128   0.518   0.511   0.476
 7410SOL    HW123129   0.527   0.607   0.501
 7410SOL    HW223130   0.538   0.499   0.379
 7411SOL     OW23131   1.735   1.393   5.910
 7411SOL    HW123132   1.742   1.479   5.961
 7411SOL    HW223133   1.791   1.399   5.827
 7412SOL     OW23134   4.622   6.613   0.331
 7412SOL    HW123135   4.647   6.709   0.321
 7412SOL    HW223136   4.544   6.593   0.272
 7413SOL     OW23137   5.013   4.645   3.241
 7413SOL    HW123138   4.963   4.558   3.239
 7413SOL    HW223139   5.100   4.636   3.193
 7414SOL     OW23140   2.140   2.264   4.279
 7414SOL    HW123141   2.228   2.305   4.255
 7414SOL    HW223142   2.103   2.309   4.360
 7415SOL     OW23143   3.186   6.517   6.448
 7415SOL    HW123144   3.157   6.558   6.534
 7415SOL    HW223145   3.283   6.492   6.453
 7416SOL     OW23146   1.104   1.028   2.633
 7416SOL    HW123147   1.121   0.967   2.711
 7416SOL    HW223148   1.021   0.997   2.585
 7417SOL     OW23149   1.442   2.580   3.246
 7417SOL    HW123150   1.431   2.653   3.178
 7417SOL    HW223151   1.483   2.500   3.203
 7418SOL     OW23152   1.658   4.819   6.634
 7418SOL    HW123153   1.657   4.719   6.625
 7418SOL    HW223154   1.712   4.858   6.560
 7419SOL     OW23155   6.137   3.543   3.644
 7419SOL    HW123156   6.071   3.565   3.572
 7419SOL    HW223157   6.171   3.449   3.630
 7420SOL     OW23158   6.777   6.013   1.855
 7420SOL    HW123159   6.808   6.059   1.938
 7420SOL    HW223160   6.779   5.914   1.870
 7421SOL     OW23161   4.518   3.663   1.340
 7421SOL    HW123162   4.506   3.638   1.244
 7421SOL    HW223163   4.430   3.686   1.381
 7422SOL     OW23164   6.338   3.457   1.971
 7422SOL    HW123165   6.388   3.541   1.995
 7422SOL    HW223166   6.327   3.400   2.051
 7423SOL     OW23167   5.714   2.055   5.422
 7423SOL    HW123168   5.686   2.134   5.476
 7423SOL    HW223169   5.739   2.084   5.330
 7424SOL     OW23170   6.253   1.295   5.087
 7424SOL    HW123171   6.212   1.206   5.106
 7424SOL    HW223172   6.352   1.285   5.080
 7425SOL     OW23173   5.139   6.946   0.407
 7425SOL    HW123174   5.219   6.916   0.354
 7425SOL    HW223175   5.167   7.017   0.472
 7426SOL     OW23176   3.174   2.297   5.860
 7426SOL    HW123177   3.188   2.247   5.774
 7426SOL    HW223178   3.080   2.282   5.892
 7427SOL     OW23179   3.871   1.576   3.628
 7427SOL    HW123180   3.825   1.535   3.707
 7427SOL    HW223181   3.917   1.504   3.575
 7428SOL     OW23182   3.907   6.267   5.816
 7428SOL    HW123183   3.864   6.206   5.750
 7428SOL    HW223184   4.006   6.262   5.807
 7429SOL     OW23185   1.240   6.336   3.450
 7429SOL    HW123186   1.261   6.257   3.392
 7429SOL    HW223187   1.324   6.386   3.471
 7430SOL     OW23188   6.721   4.352   2.141
 7430SOL    HW123189   6.730   4.432   2.201
 7430SOL    HW223190   6.696   4.383   2.049
 7431SOL     OW23191   2.290   2.845   4.432
 7431SOL    HW123192   2.227   2.768   4.446
 7431SOL    HW223193   2.296   2.866   4.334
 7432SOL     OW23194   2.027   0.870   3.852
 7432SOL    HW123195   2.112   0.840   3.808
 7432SOL    HW223196   2.007   0.811   3.930
 7433SOL     OW23197   2.829   6.974   6.735
 7433SOL    HW123198   2.833   6.979   6.834
 7433SOL    HW223199   2.752   0.006   6.702
 7434SOL     OW23200   4.942   5.924   6.220
 7434SOL    HW123201   4.989   5.880   6.297
 7434SOL    HW223202   4.948   6.023   6.230
 7435SOL     OW23203   4.771   6.230   1.907
 7435SOL    HW123204   4.721   6.271   1.831
 7435SOL    HW223205   4.715   6.160   1.950
 7436SOL     OW23206   4.619   4.546   6.309
 7436SOL    HW123207   4.591   4.465   6.256
 7436SOL    HW223208   4.537   4.590   6.347
 7437SOL     OW23209   2.756   5.498   1.476
 7437SOL    HW123210   2.691   5.499   1.399
 7437SOL    HW223211   2.816   5.419   1.468
 7438SOL     OW23212   1.808   0.890   0.533
 7438SOL    HW123213   1.872   0.941   0.590
 7438SOL    HW223214   1.726   0.868   0.586
 7439SOL     OW23215   1.596   5.201   5.567
 7439SOL    HW123216   1.681   5.250   5.585
 7439SOL    HW223217   1.614   5.121   5.510
 7440SOL     OW23218   5.166   3.003   4.058
 7440SOL    HW123219   5.249   3.037   4.102
 7440SOL    HW223220   5.087   3.052   4.094
 7441SOL     OW23221   6.012   6.676   3.000
 7441SOL    HW123222   5.912   6.671   2.999
 7441SOL    HW223223   6.046   6.676   2.906
 7442SOL     OW23224   5.894   0.803   6.149
 7442SOL    HW123225   5.916   0.747   6.228
 7442SOL    HW223226   5.979   0.834   6.105
 7443SOL     OW23227   0.061   5.566   2.114
 7443SOL    HW123228   6.987   5.540   2.116
 7443SOL    HW223229   0.114   5.501   2.169
 7444SOL     OW23230   6.724   0.528   6.023
 7444SOL    HW123231   6.631   0.492   6.017
 7444SOL    HW223232   6.736   0.574   6.112
 7445SOL     OW23233   3.797   6.959   1.552
 7445SOL    HW123234   3.788   0.036   1.542
 7445SOL    HW223235   3.743   6.913   1.482
 7446SOL     OW23236   5.281   2.560   0.809
 7446SOL    HW123237   5.320   2.508   0.885
 7446SOL    HW223238   5.355   2.593   0.750
 7447SOL     OW23239   0.104   4.587   0.216
 7447SOL    HW123240   0.016   4.585   0.169
 7447SOL    HW223241   0.173   4.628   0.156
 7448SOL     OW23242   5.619   6.180   6.092
 7448SOL    HW123243   5.665   6.102   6.134
 7448SOL    HW223244   5.666   6.204   6.006
 7449SOL     OW23245   0.392   5.351   0.238
 7449SOL    HW123246   0.329   5.411   0.287
 7449SOL    HW223247   0.367   5.348   0.141
 7450SOL     OW23248   5.509   1.773   5.652
 7450SOL    HW123249   5.491   1.872   5.654
 7450SOL    HW223250   5.574   1.753   5.579
 7451SOL     OW23251   5.576   5.686   2.434
 7451SOL    HW123252   5.492   5.656   2.479
 7451SOL    HW223253   5.620   5.758   2.489
 7452SOL     OW23254   6.427   6.358   4.746
 7452SOL    HW123255   6.464   6.330   4.657
 7452SOL    HW223256   6.360   6.290   4.777
 7453SOL     OW23257   5.131   5.556   6.259
 7453SOL    HW123258   5.147   5.545   6.357
 7453SOL    HW223259   5.183   5.635   6.225
 7454SOL     OW23260   3.322   1.859   0.194
 7454SOL    HW123261   3.380   1.921   0.141
 7454SOL    HW223262   3.371   1.830   0.276
 7455SOL     OW23263   5.954   2.849   2.454
 7455SOL    HW123264   5.889   2.834   2.380
 7455SOL    HW223265   5.970   2.947   2.465
 7456SOL     OW23266   2.567   2.294   4.888
 7456SOL    HW123267   2.510   2.365   4.846
 7456SOL    HW223268   2.571   2.310   4.987
 7457SOL     OW23269   2.208   6.971   4.219
 7457SOL    HW123270   2.194   6.933   4.310
 7457SOL    HW223271   2.306   6.968   4.196
 7458SOL     OW23272   1.297   6.923   4.979
 7458SOL    HW123273   1.363   6.912   4.904
 7458SOL    HW223274   1.347   6.932   5.065
 7459SOL     OW23275   6.401   1.256   2.437
 7459SOL    HW123276   6.439   1.166   2.455
 7459SOL    HW223277   6.306   1.259   2.469
 7460SOL     OW23278   1.690   6.731   0.213
 7460SOL    HW123279   1.697   6.632   0.202
 7460SOL    HW223280   1.771   6.775   0.176
 7461SOL     OW23281   0.181   6.155   5.271
 7461SOL    HW123282   0.199   6.062   5.240
 7461SOL    HW223283   0.267   6.200   5.294
 7462SOL     OW23284   0.894   5.665   1.048
 7462SOL    HW123285   0.861   5.572   1.068
 7462SOL    HW223286   0.962   5.692   1.116
 7463SOL     OW23287   3.613   4.466   0.917
 7463SOL    HW123288   3.649   4.530   0.850
 7463SOL    HW223289   3.519   4.442   0.893
 7464SOL     OW23290   0.308   5.694   4.623
 7464SOL    HW123291   0.277   5.680   4.529
 7464SOL    HW223292   0.307   5.792   4.645
 7465SOL     OW23293   2.505   5.123   0.251
 7465SOL    HW123294   2.591   5.102   0.203
 7465SOL    HW223295   2.465   5.206   0.212
 7466SOL     OW23296   0.170   0.525   5.651
 7466SOL    HW123297   0.223   0.441   5.663
 7466SOL    HW223298   0.229   0.595   5.611
 7467SOL     OW23299   0.362   2.625   6.352
 7467SOL    HW123300   0.306   2.576   6.419
 7467SOL    HW223301   0.406   2.559   6.291
 7468SOL     OW23302   5.880   2.990   4.762
 7468SOL    HW123303   5.895   3.067   4.824
 7468SOL    HW223304   5.887   2.904   4.813
 7469SOL     OW23305   6.655   2.193   0.157
 7469SOL    HW123306   6.636   2.181   0.060
 7469SOL    HW223307   6.702   2.281   0.171
 7470SOL     OW23308   5.799   3.853   3.199
 7470SOL    HW123309   5.803   3.820   3.104
 7470SOL    HW223310   5.886   3.895   3.223
 7471SOL     OW23311   5.533   5.710   6.163
 7471SOL    HW123312   5.465   5.761   6.215
 7471SOL    HW223313   5.490   5.666   6.085
 7472SOL     OW23314   6.715   0.508   5.493
 7472SOL    HW123315   6.779   0.469   5.427
 7472SOL    HW223316   6.762   0.577   5.548
 7473SOL     OW23317   4.591   6.841   3.939
 7473SOL    HW123318   4.523   6.903   3.977
 7473SOL    HW223319   4.546   6.768   3.888
 7474SOL     OW23320   6.089   2.031   6.907
 7474SOL    HW123321   6.142   2.094   6.849
 7474SOL    HW223322   5.994   2.061   6.911
 7475SOL     OW23323   4.580   2.035   2.215
 7475SOL    HW123324   4.513   2.063   2.284
 7475SOL    HW223325   4.546   2.059   2.124
 7476SOL     OW23326   2.065   2.199   2.796
 7476SOL    HW123327   2.004   2.205   2.875
 7476SOL    HW223328   2.035   2.263   2.726
 7477SOL     OW23329   0.344   3.480   4.919
 7477SOL    HW123330   0.256   3.517   4.948
 7477SOL    HW223331   0.416   3.548   4.933
 7478SOL     OW23332   5.713   2.582   5.112
 7478SOL    HW123333   5.638   2.646   5.123
 7478SOL    HW223334   5.695   2.499   5.165
 7479SOL     OW23335   5.204   2.938   0.008
 7479SOL    HW123336   5.239   3.026   7.000
 7479SOL    HW223337   5.279   2.872   0.014
 7480SOL     OW23338   2.787   5.536   3.037
 7480SOL    HW123339   2.707   5.579   2.997
 7480SOL    HW223340   2.804   5.575   3.128
 7481SOL     OW23341   5.972   4.392   6.383
 7481SOL    HW123342   6.022   4.403   6.468
 7481SOL    HW223343   6.023   4.332   6.321
 7482SOL     OW23344   4.112   2.269   2.499
 7482SOL    HW123345   4.207   2.296   2.517
 7482SOL    HW223346   4.072   2.331   2.432
 7483SOL     OW23347   5.049   1.773   4.397
 7483SOL    HW123348   4.990   1.853   4.385
 7483SOL    HW223349   5.101   1.757   4.313
 7484SOL     OW23350   1.922   6.072   4.565
 7484SOL    HW123351   1.989   6.005   4.533
 7484SOL    HW223352   1.830   6.033   4.559
 7485SOL     OW23353   2.421   0.249   4.043
 7485SOL    HW123354   2.332   0.294   4.047
 7485SOL    HW223355   2.477   0.279   4.121
 7486SOL     OW23356   0.633   6.067   0.372
 7486SOL    HW123357   0.604   5.997   0.438
 7486SOL    HW223358   0.555   6.123   0.346
 7487SOL     OW23359   4.589   0.513   3.729
 7487SOL    HW123360   4.655   0.573   3.683
 7487SOL    HW223361   4.637   0.434   3.767
 7488SOL     OW23362   1.319   5.907   4.242
 7488SOL    HW123363   1.359   5.824   4.282
 7488SOL    HW223364   1.280   5.963   4.315
 7489SOL     OW23365   6.361   3.833   0.071
 7489SOL    HW123366   6.353   3.765   0.144
 7489SOL    HW223367   6.292   3.815   0.001
 7490SOL     OW23368   1.645   2.225   2.862
 7490SOL    HW123369   1.712   2.164   2.821
 7490SOL    HW223370   1.574   2.248   2.795
 7491SOL     OW23371   4.550   3.181   0.852
 7491SOL    HW123372   4.629   3.241   0.867
 7491SOL    HW223373   4.480   3.202   0.920
 7492SOL     OW23374   1.497   0.729   4.025
 7492SOL    HW123375   1.481   0.765   3.933
 7492SOL    HW223376   1.433   0.771   4.089
 7493SOL     OW23377   6.651   3.956   5.521
 7493SOL    HW123378   6.700   3.961   5.608
 7493SOL    HW223379   6.623   3.861   5.504
 7494SOL     OW23380   5.867   0.821   3.141
 7494SOL    HW123381   5.932   0.788   3.073
 7494SOL    HW223382   5.914   0.830   3.229
 7495SOL     OW23383   2.198   2.900   4.860
 7495SOL    HW123384   2.260   2.942   4.926
 7495SOL    HW223385   2.108   2.887   4.902
 7496SOL     OW23386   6.215   3.289   3.603
 7496SOL    HW123387   6.199   3.213   3.666
 7496SOL    HW223388   6.172   3.269   3.515
 7497SOL     OW23389   1.280   6.667   1.166
 7497SOL    HW123390   1.249   6.734   1.098
 7497SOL    HW223391   1.375   6.640   1.145
 7498SOL     OW23392   2.822   0.746   3.544
 7498SOL    HW123393   2.755   0.800   3.596
 7498SOL    HW223394   2.793   0.738   3.449
 7499SOL     OW23395   4.114   2.210   3.730
 7499SOL    HW123396   4.018   2.186   3.716
 7499SOL    HW223397   4.157   2.145   3.793
 7500SOL     OW23398   3.683   6.973   3.703
 7500SOL    HW123399   3.676   0.025   3.637
 7500SOL    HW223400   3.668   7.008   3.795
 7501SOL     OW23401   5.495   2.843   3.743
 7501SOL    HW123402   5.499   2.806   3.651
 7501SOL    HW223403   5.404   2.827   3.782
 7502SOL     OW23404   3.665   0.519   4.738
 7502SOL    HW123405   3.655   0.505   4.639
 7502SOL    HW223406   3.759   0.501   4.765
 7503SOL     OW23407   1.869   5.826   0.996
 7503SOL    HW123408   1.911   5.760   0.934
 7503SOL    HW223409   1.867   5.916   0.952
 7504SOL     OW23410   0.460   5.872   2.499
 7504SOL    HW123411   0.469   5.800   2.430
 7504SOL    HW223412   0.363   5.887   2.519
 7505SOL     OW23413   0.170   1.453   5.067
 7505SOL    HW123414   0.226   1.489   5.142
 7505SOL    HW223415   0.226   1.396   5.008
 7506SOL     OW23416   2.987   1.867   3.193
 7506SOL    HW123417   2.980   1.769   3.175
 7506SOL    HW223418   3.045   1.909   3.124
 7507SOL     OW23419   6.304   3.564   4.532
 7507SOL    HW123420   6.254   3.612   4.459
 7507SOL    HW223421   6.401   3.558   4.507
 7508SOL     OW23422   1.764   5.774   0.003
 7508SOL    HW123423   1.819   5.715   0.062
 7508SOL    HW223424   1.774   5.745   6.931
 7509SOL     OW23425   5.066   4.238   0.123
 7509SOL    HW123426   5.086   4.144   0.094
 7509SOL    HW223427   5.138   4.269   0.186
 7510SOL     OW23428   4.013   3.117   4.196
 7510SOL    HW123429   3.940   3.182   4.176
 7510SOL    HW223430   4.060   3.092   4.112
 7511SOL     OW23431   3.383   5.460   2.745
 7511SOL    HW123432   3.478   5.446   2.719
 7511SOL    HW223433   3.324   5.453   2.664
 7512SOL     OW23434   2.905   0.598   6.523
 7512SOL    HW123435   2.849   0.523   6.490
 7512SOL    HW223436   2.861   0.641   6.602
 7513SOL     OW23437   2.118   2.640   3.434
 7513SOL    HW123438   2.151   2.719   3.382
 7513SOL    HW223439   2.025   2.618   3.405
 7514SOL     OW23440   1.973   4.331   3.778
 7514SOL    HW123441   1.937   4.298   3.865
 7514SOL    HW223442   2.041   4.267   3.743
 7515SOL     OW23443   6.638   4.151   5.333
 7515SOL    HW123444   6.663   4.077   5.395
 7515SOL    HW223445   6.650   4.239   5.379
 7516SOL     OW23446   1.268   5.324   6.003
 7516SOL    HW123447   1.241   5.315   6.099
 7516SOL    HW223448   1.290   5.419   5.982
 7517SOL     OW23449   1.264   2.659   7.017
 7517SOL    HW123450   1.256   2.654   0.094
 7517SOL    HW223451   1.287   2.569   6.980
 7518SOL     OW23452   4.842   3.036   4.021
 7518SOL    HW123453   4.895   3.026   3.937
 7518SOL    HW223454   4.769   2.968   4.023
 7519SOL     OW23455   4.982   0.239   4.642
 7519SOL    HW123456   5.053   0.222   4.711
 7519SOL    HW223457   4.893   0.215   4.680
 7520SOL     OW23458   1.653   1.640   2.057
 7520SOL    HW123459   1.674   1.543   2.043
 7520SOL    HW223460   1.735   1.694   2.039
 7521SOL     OW23461   5.451   1.447   4.786
 7521SOL    HW123462   5.356   1.465   4.808
 7521SOL    HW223463   5.499   1.533   4.768
 7522SOL     OW23464   1.004   6.482   4.178
 7522SOL    HW123465   0.914   6.476   4.136
 7522SOL    HW223466   1.075   6.467   4.109
 7523SOL     OW23467   5.338   0.637   6.251
 7523SOL    HW123468   5.310   0.701   6.179
 7523SOL    HW223469   5.308   0.544   6.226
 7524SOL     OW23470   6.807   2.727   4.368
 7524SOL    HW123471   6.718   2.770   4.383
 7524SOL    HW223472   6.809   2.686   4.277
 7525SOL     OW23473   4.470   6.594   6.949
 7525SOL    HW123474   4.445   6.535   6.873
 7525SOL    HW223475   4.476   6.539   0.010
 7526SOL     OW23476   2.168   3.226   1.783
 7526SOL    HW123477   2.203   3.304   1.836
 7526SOL    HW223478   2.117   3.166   1.844
 7527SOL     OW23479   4.026   5.911   4.184
 7527SOL    HW123480   4.102   5.857   4.220
 7527SOL    HW223481   3.950   5.910   4.249
 7528SOL     OW23482   5.627   2.201   0.156
 7528SOL    HW123483   5.636   2.300   0.154
 7528SOL    HW223484   5.563   2.171   0.086
 7529SOL     OW23485   6.033   1.754   3.542
 7529SOL    HW123486   5.945   1.785   3.505
 7529SOL    HW223487   6.019   1.714   3.632
 7530SOL     OW23488   6.866   1.512   2.426
 7530SOL    HW123489   6.927   1.433   2.414
 7530SOL    HW223490   6.905   1.574   2.493
 7531SOL     OW23491   4.720   2.394   3.345
 7531SOL    HW123492   4.768   2.362   3.427
 7531SOL    HW223493   4.777   2.462   3.298
 7532SOL     OW23494   4.885   6.250   6.723
 7532SOL    HW123495   4.960   6.185   6.737
 7532SOL    HW223496   4.911   6.317   6.654
 7533SOL     OW23497   4.547   2.791   1.801
 7533SOL    HW123498   4.583   2.707   1.842
 7533SOL    HW223499   4.593   2.870   1.842
 7534SOL     OW23500   4.951   6.382   4.526
 7534SOL    HW123501   4.930   6.462   4.582
 7534SOL    HW223502   4.968   6.303   4.585
 7535SOL     OW23503   1.212   6.908   4.623
 7535SOL    HW123504   1.191   6.813   4.642
 7535SOL    HW223505   1.131   6.954   4.585
 7536SOL     OW23506   5.243   5.689   4.316
 7536SOL    HW123507   5.339   5.710   4.298
 7536SOL    HW223508   5.195   5.672   4.230
 7537SOL     OW23509   2.427   5.457   2.265
 7537SOL    HW123510   2.427   5.513   2.181
 7537SOL    HW223511   2.460   5.513   2.341
 7538SOL     OW23512   0.924   3.253   1.769
 7538SOL    HW123513   0.908   3.204   1.855
 7538SOL    HW223514   0.836   3.278   1.728
 7539SOL     OW23515   1.652   5.261   3.515
 7539SOL    HW123516   1.556   5.268   3.542
 7539SOL    HW223517   1.708   5.316   3.577
 7540SOL     OW23518   4.831   5.966   4.637
 7540SOL    HW123519   4.785   5.912   4.567
 7540SOL    HW223520   4.763   6.014   4.692
 7541SOL     OW23521   0.489   3.950   6.667
 7541SOL    HW123522   0.453   3.987   6.581
 7541SOL    HW223523   0.443   3.864   6.688
 7542SOL     OW23524   6.300   6.127   5.329
 7542SOL    HW123525   6.341   6.120   5.420
 7542SOL    HW223526   6.292   6.035   5.290
 7543SOL     OW23527   2.724   0.323   5.078
 7543SOL    HW123528   2.791   0.386   5.038
 7543SOL    HW223529   2.662   0.374   5.138
 7544SOL     OW23530   0.078   2.183   4.268
 7544SOL    HW123531   0.039   2.098   4.232
 7544SOL    HW223532   0.016   2.259   4.250
 7545SOL     OW23533   0.144   5.685   6.865
 7545SOL    HW123534   0.061   5.716   6.912
 7545SOL    HW223535   0.214   5.757   6.870
 7546SOL     OW23536   3.838   2.724   1.678
 7546SOL    HW123537   3.816   2.798   1.614
 7546SOL    HW223538   3.758   2.705   1.735
 7547SOL     OW23539   4.680   0.611   2.171
 7547SOL    HW123540   4.620   0.691   2.177
 7547SOL    HW223541   4.742   0.622   2.094
 7548SOL     OW23542   4.572   2.312   6.935
 7548SOL    HW123543   4.511   2.385   6.966
 7548SOL    HW223544   4.551   2.228   6.983
 7549SOL     OW23545   4.016   2.807   5.840
 7549SOL    HW123546   3.986   2.826   5.933
 7549SOL    HW223547   4.115   2.819   5.833
 7550SOL     OW23548   1.974   3.984   4.159
 7550SOL    HW123549   2.046   3.916   4.172
 7550SOL    HW223550   1.900   3.968   4.224
 7551SOL     OW23551   4.881   2.069   5.300
 7551SOL    HW123552   4.823   2.116   5.234
 7551SOL    HW223553   4.947   2.011   5.252
 7552SOL     OW23554   1.840   5.948   4.073
 7552SOL    HW123555   1.909   6.016   4.047
 7552SOL    HW223556   1.796   5.975   4.158
 7553SOL     OW23557   5.718   6.010   5.762
 7553SOL    HW123558   5.623   5.988   5.782
 7553SOL    HW223559   5.766   5.928   5.731
 7554SOL     OW23560   5.613   1.375   0.182
 7554SOL    HW123561   5.681   1.311   0.215
 7554SOL    HW223562   5.545   1.327   0.126
 7555SOL     OW23563   2.793   6.517   6.482
 7555SOL    HW123564   2.789   6.480   6.389
 7555SOL    HW223565   2.826   6.447   6.545
 7556SOL     OW23566   1.315   1.421   0.338
 7556SOL    HW123567   1.376   1.497   0.319
 7556SOL    HW223568   1.368   1.340   0.362
 7557SOL     OW23569   4.880   7.001   0.415
 7557SOL    HW123570   4.850   6.935   0.484
 7557SOL    HW223571   4.980   6.996   0.405
 7558SOL     OW23572   1.327   2.551   4.088
 7558SOL    HW123573   1.309   2.529   3.993
 7558SOL    HW223574   1.244   2.588   4.130
 7559SOL     OW23575   3.589   2.273   5.335
 7559SOL    HW123576   3.601   2.226   5.248
 7559SOL    HW223577   3.540   2.214   5.399
 7560SOL     OW23578   6.352   0.155   6.577
 7560SOL    HW123579   6.306   0.074   6.613
 7560SOL    HW223580   6.360   0.224   6.649
 7561SOL     OW23581   5.179   2.130   5.630
 7561SOL    HW123582   5.080   2.133   5.641
 7561SOL    HW223583   5.216   2.223   5.638
 7562SOL     OW23584   0.919   5.131   5.050
 7562SOL    HW123585   1.018   5.126   5.040
 7562SOL    HW223586   0.877   5.050   5.009
 7563SOL     OW23587   3.217   6.569   2.811
 7563SOL    HW123588   3.310   6.537   2.793
 7563SOL    HW223589   3.154   6.520   2.751
 7564SOL     OW23590   4.308   0.145   5.115
 7564SOL    HW123591   4.355   0.200   5.184
 7564SOL    HW223592   4.317   0.048   5.138
 7565SOL     OW23593   5.811   3.829   5.947
 7565SOL    HW123594   5.811   3.881   6.032
 7565SOL    HW223595   5.722   3.785   5.935
 7566SOL     OW23596   5.360   4.941   1.923
 7566SOL    HW123597   5.337   4.925   2.019
 7566SOL    HW223598   5.364   4.854   1.874
 7567SOL     OW23599   0.596   1.323   4.443
 7567SOL    HW123600   0.546   1.391   4.389
 7567SOL    HW223601   0.551   1.234   4.436
 7568SOL     OW23602   5.810   5.434   2.419
 7568SOL    HW123603   5.796   5.381   2.336
 7568SOL    HW223604   5.736   5.501   2.429
 7569SOL     OW23605   3.777   5.006   6.691
 7569SOL    HW123606   3.803   5.043   6.602
 7569SOL    HW223607   3.722   4.923   6.678
 7570SOL     OW23608   6.741   3.069   3.240
 7570SOL    HW123609   6.657   3.116   3.269
 7570SOL    HW223610   6.773   3.010   3.315
 7571SOL     OW23611   5.455   3.248   2.819
 7571SOL    HW123612   5.540   3.290   2.851
 7571SOL    HW223613   5.450   3.154   2.853
 7572SOL     OW23614   4.632   6.197   2.835
 7572SOL    HW123615   4.614   6.192   2.933
 7572SOL    HW223616   4.616   6.291   2.803
 7573SOL     OW23617   6.267   0.246   5.781
 7573SOL    HW123618   6.177   0.203   5.768
 7573SOL    HW223619   6.279   0.316   5.711
 7574SOL     OW23620   6.264   1.046   4.089
 7574SOL    HW123621   6.335   0.995   4.040
 7574SOL    HW223622   6.174   1.020   4.053
 7575SOL     OW23623   6.160   6.439   0.964
 7575SOL    HW123624   6.179   6.514   1.028
 7575SOL    HW223625   6.164   6.352   1.013
 7576SOL     OW23626   5.219   2.773   1.154
 7576SOL    HW123627   5.181   2.685   1.127
 7576SOL    HW223628   5.179   2.846   1.097
 7577SOL     OW23629   0.144   0.286   0.084
 7577SOL    HW123630   0.181   0.222   0.152
 7577SOL    HW223631   0.072   0.340   0.126
 7578SOL     OW23632   0.706   5.188   2.798
 7578SOL    HW123633   0.663   5.271   2.834
 7578SOL    HW223634   0.797   5.179   2.837
 7579SOL     OW23635   6.533   2.181   1.571
 7579SOL    HW123636   6.483   2.125   1.505
 7579SOL    HW223637   6.541   2.274   1.535
 7580SOL     OW23638   2.012   4.349   3.164
 7580SOL    HW123639   2.107   4.343   3.134
 7580SOL    HW223640   1.952   4.356   3.084
 7581SOL     OW23641   0.909   1.747   1.211
 7581SOL    HW123642   0.998   1.706   1.194
 7581SOL    HW223643   0.919   1.823   1.275
 7582SOL     OW23644   4.336   1.712   4.120
 7582SOL    HW123645   4.308   1.714   4.024
 7582SOL    HW223646   4.260   1.679   4.176
 7583SOL     OW23647   5.413   3.453   3.735
 7583SOL    HW123648   5.352   3.513   3.786
 7583SOL    HW223649   5.419   3.483   3.640
 7584SOL     OW23650   1.222   0.324   2.898
 7584SOL    HW123651   1.147   0.259   2.907
 7584SOL    HW223652   1.310   0.276   2.904
 7585SOL     OW23653   1.126   2.142   6.536
 7585SOL    HW123654   1.221   2.160   6.559
 7585SOL    HW223655   1.081   2.095   6.612
 7586SOL     OW23656   1.359   0.748   2.418
 7586SOL    HW123657   1.265   0.755   2.385
 7586SOL    HW223658   1.405   0.836   2.406
 7587SOL     OW23659   3.391   0.850   0.718
 7587SOL    HW123660   3.487   0.823   0.725
 7587SOL    HW223661   3.371   0.919   0.788
 7588SOL     OW23662   0.948   2.990   4.765
 7588SOL    HW123663   0.984   3.061   4.825
 7588SOL    HW223664   1.025   2.941   4.723
 7589SOL     OW23665   0.633   0.777   2.907
 7589SOL    HW123666   0.669   0.827   2.829
 7589SOL    HW223667   0.543   0.815   2.931
 7590SOL     OW23668   0.260   1.639   0.140
 7590SOL    HW123669   0.260   1.565   0.208
 7590SOL    HW223670   0.353   1.653   0.106
 7591SOL     OW23671   4.515   2.817   6.659
 7591SOL    HW123672   4.437   2.783   6.608
 7591SOL    HW223673   4.592   2.754   6.649
 7592SOL     OW23674   6.070   4.791   4.762
 7592SOL    HW123675   5.980   4.776   4.805
 7592SOL    HW223676   6.116   4.867   4.808
 7593SOL     OW23677   6.657   1.931   5.833
 7593SOL    HW123678   6.632   1.869   5.760
 7593SOL    HW223679   6.709   1.882   5.903
 7594SOL     OW23680   0.215   4.449   0.932
 7594SOL    HW123681   0.239   4.352   0.921
 7594SOL    HW223682   0.297   4.500   0.958
 7595SOL     OW23683   6.622   2.813   5.910
 7595SOL    HW123684   6.652   2.898   5.866
 7595SOL    HW223685   6.672   2.801   5.996
 7596SOL     OW23686   3.152   0.047   5.003
 7596SOL    HW123687   3.173   6.978   5.038
 7596SOL    HW223688   3.053   0.057   4.994
 7597SOL     OW23689   2.601   6.131   2.817
 7597SOL    HW123690   2.693   6.092   2.826
 7597SOL    HW223691   2.603   6.228   2.842
 7598SOL     OW23692   5.971   0.538   2.552
 7598SOL    HW123693   5.958   0.579   2.461
 7598SOL    HW223694   5.992   0.610   2.618
 7599SOL     OW23695   4.330   3.227   0.988
 7599SOL    HW123696   4.281   3.311   1.012
 7599SOL    HW223697   4.269   3.166   0.937
 7600SOL     OW23698   1.528   1.210   3.437
 7600SOL    HW123699   1.546   1.276   3.364
 7600SOL    HW223700   1.468   1.137   3.402
 7601SOL     OW23701   3.891   5.493   2.014
 7601SOL    HW123702   3.813   5.515   1.956
 7601SOL    HW223703   3.858   5.469   2.105
 7602SOL     OW23704   0.375   2.345   0.309
 7602SOL    HW123705   0.361   2.287   0.228
 7602SOL    HW223706   0.421   2.292   0.380
 7603SOL     OW23707   2.545   0.286   5.960
 7603SOL    HW123708   2.547   0.186   5.966
 7603SOL    HW223709   2.597   0.325   6.035
 7604SOL     OW23710   1.692   2.133   4.947
 7604SOL    HW123711   1.672   2.181   5.033
 7604SOL    HW223712   1.718   2.039   4.967
 7605SOL     OW23713   1.710   0.403   6.650
 7605SOL    HW123714   1.752   0.460   6.579
 7605SOL    HW223715   1.617   0.434   6.667
 7606SOL     OW23716   6.091   1.756   4.301
 7606SOL    HW123717   6.090   1.799   4.210
 7606SOL    HW223718   6.110   1.825   4.370
 7607SOL     OW23719   3.099   6.669   0.194
 7607SOL    HW123720   3.139   6.588   0.151
 7607SOL    HW223721   3.000   6.661   0.197
 7608SOL     OW23722   5.403   2.400   6.279
 7608SOL    HW123723   5.454   2.451   6.349
 7608SOL    HW223724   5.442   2.309   6.269
 7609SOL     OW23725   0.150   2.959   3.807
 7609SOL    HW123726   0.127   3.027   3.876
 7609SOL    HW223727   0.222   2.899   3.842
 7610SOL     OW23728   3.455   5.557   6.586
 7610SOL    HW123729   3.504   5.476   6.555
 7610SOL    HW223730   3.369   5.565   6.536
 7611SOL     OW23731   4.789   3.097   1.098
 7611SOL    HW123732   4.845   3.104   1.015
 7611SOL    HW223733   4.734   3.179   1.108
 7612SOL     OW23734   3.438   2.064   3.051
 7612SOL    HW123735   3.426   2.000   3.126
 7612SOL    HW223736   3.535   2.065   3.024
 7613SOL     OW23737   1.558   2.055   2.244
 7613SOL    HW123738   1.617   2.088   2.170
 7613SOL    HW223739   1.499   2.129   2.276
 7614SOL     OW23740   4.759   3.363   0.447
 7614SOL    HW123741   4.686   3.343   0.513
 7614SOL    HW223742   4.833   3.296   0.458
 7615SOL     OW23743   5.473   3.857   5.517
 7615SOL    HW123744   5.410   3.887   5.445
 7615SOL    HW223745   5.475   3.757   5.521
 7616SOL     OW23746   5.756   6.767   3.270
 7616SOL    HW123747   5.740   6.726   3.360
 7616SOL    HW223748   5.777   6.864   3.281
 7617SOL     OW23749   4.811   4.748   3.077
 7617SOL    HW123750   4.728   4.722   3.126
 7617SOL    HW223751   4.891   4.722   3.131
 7618SOL     OW23752   2.508   2.190   0.163
 7618SOL    HW123753   2.567   2.110   0.175
 7618SOL    HW223754   2.544   2.266   0.218
 7619SOL     OW23755   0.792   2.458   4.596
 7619SOL    HW123756   0.890   2.470   4.579
 7619SOL    HW223757   0.767   2.502   4.682
 7620SOL     OW23758   3.767   4.272   0.791
 7620SOL    HW123759   3.716   4.331   0.855
 7620SOL    HW223760   3.836   4.327   0.743
 7621SOL     OW23761   0.068   5.594   0.786
 7621SOL    HW123762   0.167   5.593   0.789
 7621SOL    HW223763   0.033   5.669   0.843
 7622SOL     OW23764   4.204   4.489   0.377
 7622SOL    HW123765   4.262   4.473   0.457
 7622SOL    HW223766   4.171   4.401   0.342
 7623SOL     OW23767   4.113   4.495   1.278
 7623SOL    HW123768   4.171   4.413   1.285
 7623SOL    HW223769   4.170   4.573   1.252
 7624SOL     OW23770   0.187   2.283   2.159
 7624SOL    HW123771   0.167   2.230   2.241
 7624SOL    HW223772   0.279   2.322   2.166
 7625SOL     OW23773   5.191   2.008   0.405
 7625SOL    HW123774   5.136   2.088   0.429
 7625SOL    HW223775   5.195   1.946   0.484
 7626SOL     OW23776   6.123   0.872   5.601
 7626SOL    HW123777   6.112   0.903   5.507
 7626SOL    HW223778   6.185   0.793   5.604
 7627SOL     OW23779   3.559   1.978   0.060
 7627SOL    HW123780   3.649   1.975   0.016
 7627SOL    HW223781   3.570   2.004   0.156
 7628SOL     OW23782   3.405   2.597   0.800
 7628SOL    HW123783   3.390   2.523   0.734
 7628SOL    HW223784   3.477   2.571   0.864
 7629SOL     OW23785   5.847   3.311   3.581
 7629SOL    HW123786   5.873   3.398   3.539
 7629SOL    HW223787   5.881   3.308   3.675
 7630SOL     OW23788   1.222   0.286   5.112
 7630SOL    HW123789   1.150   0.294   5.042
 7630SOL    HW223790   1.276   0.370   5.115
 7631SOL     OW23791   1.893   6.502   4.932
 7631SOL    HW123792   1.951   6.423   4.912
 7631SOL    HW223793   1.798   6.472   4.944
 7632SOL     OW23794   4.666   5.306   1.374
 7632SOL    HW123795   4.683   5.372   1.301
 7632SOL    HW223796   4.580   5.259   1.357
 7633SOL     OW23797   5.589   6.949   1.205
 7633SOL    HW123798   5.634   6.895   1.276
 7633SOL    HW223799   5.654   7.015   1.167
 7634SOL     OW23800   1.553   1.713   0.719
 7634SOL    HW123801   1.521   1.784   0.783
 7634SOL    HW223802   1.552   1.750   0.626
 7635SOL     OW23803   2.819   5.081   4.356
 7635SOL    HW123804   2.737   5.058   4.409
 7635SOL    HW223805   2.870   4.998   4.335
 7636SOL     OW23806   0.566   4.515   4.372
 7636SOL    HW123807   0.499   4.524   4.446
 7636SOL    HW223808   0.563   4.596   4.313
 7637SOL     OW23809   0.600   6.171   4.007
 7637SOL    HW123810   0.502   6.159   4.021
 7637SOL    HW223811   0.615   6.215   3.918
 7638SOL     OW23812   0.902   5.375   2.192
 7638SOL    HW123813   0.837   5.326   2.250
 7638SOL    HW223814   0.960   5.310   2.144
 7639SOL     OW23815   0.555   1.305   0.233
 7639SOL    HW123816   0.636   1.359   0.255
 7639SOL    HW223817   0.475   1.344   0.278
 7640SOL     OW23818   3.323   1.329   6.859
 7640SOL    HW123819   3.409   1.378   6.850
 7640SOL    HW223820   3.268   1.370   6.932
 7641SOL     OW23821   6.741   3.928   2.733
 7641SOL    HW123822   6.700   3.904   2.821
 7641SOL    HW223823   6.823   3.983   2.749
 7642SOL     OW23824   5.792   1.499   2.946
 7642SOL    HW123825   5.717   1.537   3.000
 7642SOL    HW223826   5.771   1.508   2.849
 7643SOL     OW23827   5.136   2.168   2.896
 7643SOL    HW123828   5.192   2.133   2.970
 7643SOL    HW223829   5.041   2.176   2.926
 7644SOL     OW23830   4.931   3.328   2.100
 7644SOL    HW123831   4.937   3.389   2.179
 7644SOL    HW223832   4.860   3.259   2.116
 7645SOL     OW23833   3.441   4.118   6.111
 7645SOL    HW123834   3.397   4.042   6.159
 7645SOL    HW223835   3.426   4.109   6.013
 7646SOL     OW23836   1.425   2.755   3.037
 7646SOL    HW123837   1.412   2.854   3.047
 7646SOL    HW223838   1.365   2.720   2.965
 7647SOL     OW23839   0.069   2.855   4.459
 7647SOL    HW123840   0.080   2.949   4.491
 7647SOL    HW223841   0.022   2.856   4.370
 7648SOL     OW23842   2.203   2.200   3.158
 7648SOL    HW123843   2.105   2.202   3.135
 7648SOL    HW223844   2.235   2.292   3.178
 7649SOL     OW23845   6.985   1.087   4.840
 7649SOL    HW123846   0.012   1.108   4.925
 7649SOL    HW223847   6.935   1.168   4.810
 7650SOL     OW23848   4.287   1.106   1.443
 7650SOL    HW123849   4.215   1.044   1.473
 7650SOL    HW223850   4.272   1.196   1.482
 7651SOL     OW23851   2.464   5.066   4.603
 7651SOL    HW123852   2.452   5.151   4.553
 7651SOL    HW223853   2.504   4.996   4.543
 7652SOL     OW23854   5.803   2.008   4.716
 7652SOL    HW123855   5.752   2.049   4.792
 7652SOL    HW223856   5.748   1.934   4.676
 7653SOL     OW23857   1.007   1.872   6.440
 7653SOL    HW123858   1.027   1.900   6.534
 7653SOL    HW223859   1.062   1.792   6.416
 7654SOL     OW23860   5.965   3.507   5.161
 7654SOL    HW123861   5.948   3.567   5.239
 7654SOL    HW223862   5.951   3.412   5.189
 7655SOL     OW23863   3.128   0.740   3.689
 7655SOL    HW123864   3.033   0.743   3.659
 7655SOL    HW223865   3.185   0.696   3.620
 7656SOL     OW23866   6.463   4.182   6.055
 7656SOL    HW123867   6.485   4.085   6.040
 7656SOL    HW223868   6.435   4.224   5.968
 7657SOL     OW23869   1.285   4.137   4.543
 7657SOL    HW123870   1.264   4.084   4.461
 7657SOL    HW223871   1.250   4.089   4.624
 7658SOL     OW23872   2.773   0.813   0.382
 7658SOL    HW123873   2.694   0.875   0.376
 7658SOL    HW223874   2.850   0.853   0.332
 7659SOL     OW23875   4.642   4.322   5.467
 7659SOL    HW123876   4.666   4.414   5.499
 7659SOL    HW223877   4.543   4.312   5.465
 7660SOL     OW23878   6.566   5.200   4.902
 7660SOL    HW123879   6.544   5.117   4.954
 7660SOL    HW223880   6.579   5.177   4.806
 7661SOL     OW23881   4.912   2.026   6.083
 7661SOL    HW123882   4.860   1.955   6.035
 7661SOL    HW223883   4.851   2.076   6.145
 7662SOL     OW23884   1.194   2.238   2.451
 7662SOL    HW123885   1.115   2.269   2.503
 7662SOL    HW223886   1.184   2.140   2.431
 7663SOL     OW23887   5.457   5.878   5.429
 7663SOL    HW123888   5.416   5.968   5.421
 7663SOL    HW223889   5.434   5.838   5.518
 7664SOL     OW23890   4.331   0.997   2.983
 7664SOL    HW123891   4.264   0.923   2.973
 7664SOL    HW223892   4.283   1.084   2.992
 7665SOL     OW23893   4.956   2.559   3.325
 7665SOL    HW123894   5.018   2.500   3.376
 7665SOL    HW223895   5.008   2.614   3.260
 7666SOL     OW23896   5.924   5.669   3.900
 7666SOL    HW123897   5.842   5.621   3.870
 7666SOL    HW223898   5.973   5.704   3.820
 7667SOL     OW23899   4.927   6.621   2.667
 7667SOL    HW123900   4.901   6.545   2.607
 7667SOL    HW223901   4.886   6.705   2.634
 7668SOL     OW23902   2.390   4.886   1.137
 7668SOL    HW123903   2.390   4.984   1.119
 7668SOL    HW223904   2.342   4.868   1.223
 7669SOL     OW23905   3.735   6.964   6.268
 7669SOL    HW123906   3.751   6.871   6.235
 7669SOL    HW223907   3.702   7.021   6.192
 7670SOL     OW23908   0.744   6.641   0.451
 7670SOL    HW123909   0.664   6.685   0.410
 7670SOL    HW223910   0.719   6.601   0.539
 7671SOL     OW23911   5.351   6.818   2.148
 7671SOL    HW123912   5.443   6.837   2.113
 7671SOL    HW223913   5.326   6.724   2.124
 7672SOL     OW23914   6.080   4.669   3.066
 7672SOL    HW123915   6.048   4.740   3.003
 7672SOL    HW223916   6.152   4.706   3.124
 7673SOL     OW23917   1.378   5.780   3.148
 7673SOL    HW123918   1.363   5.692   3.103
 7673SOL    HW223919   1.474   5.806   3.137
 7674SOL     OW23920   4.250   0.682   4.594
 7674SOL    HW123921   4.244   0.617   4.670
 7674SOL    HW223922   4.200   0.766   4.618
 7675SOL     OW23923   3.510   6.775   3.733
 7675SOL    HW123924   3.560   6.707   3.680
 7675SOL    HW223925   3.534   6.867   3.701
 7676SOL     OW23926   3.069   2.900   6.040
 7676SOL    HW123927   3.009   2.881   5.963
 7676SOL    HW223928   3.039   2.983   6.087
 7677SOL     OW23929   6.557   4.861   1.227
 7677SOL    HW123930   6.644   4.878   1.275
 7677SOL    HW223931   6.493   4.817   1.289
 7678SOL     OW23932   1.342   2.249   5.273
 7678SOL    HW123933   1.352   2.205   5.362
 7678SOL    HW223934   1.354   2.182   5.201
 7679SOL     OW23935   1.961   4.985   5.160
 7679SOL    HW123936   2.054   4.969   5.127
 7679SOL    HW223937   1.943   4.928   5.240
 7680SOL     OW23938   1.378   0.529   5.170
 7680SOL    HW123939   1.407   0.595   5.101
 7680SOL    HW223940   1.285   0.550   5.198
 7681SOL     OW23941   3.068   2.592   6.300
 7681SOL    HW123942   3.121   2.646   6.235
 7681SOL    HW223943   2.996   2.648   6.340
 7682SOL     OW23944   3.052   1.681   2.924
 7682SOL    HW123945   2.982   1.751   2.925
 7682SOL    HW223946   3.132   1.713   2.873
 7683SOL     OW23947   6.929   1.038   4.560
 7683SOL    HW123948   6.933   1.053   4.659
 7683SOL    HW223949   6.919   0.941   4.541
 7684SOL     OW23950   4.229   2.240   1.711
 7684SOL    HW123951   4.292   2.250   1.788
 7684SOL    HW223952   4.169   2.320   1.706
 7685SOL     OW23953   4.026   0.945   6.921
 7685SOL    HW123954   3.977   0.985   6.999
 7685SOL    HW223955   3.961   0.921   6.849
 7686SOL     OW23956   4.481   0.203   4.681
 7686SOL    HW123957   4.396   0.151   4.686
 7686SOL    HW223958   4.475   0.284   4.739
 7687SOL     OW23959   5.188   5.234   4.726
 7687SOL    HW123960   5.276   5.268   4.759
 7687SOL    HW223961   5.190   5.134   4.726
 7688SOL     OW23962   0.320   5.300   6.382
 7688SOL    HW123963   0.332   5.203   6.357
 7688SOL    HW223964   0.240   5.309   6.441
 7689SOL     OW23965   4.725   0.554   1.764
 7689SOL    HW123966   4.643   0.580   1.713
 7689SOL    HW223967   4.761   0.634   1.812
 7690SOL     OW23968   5.679   4.704   0.525
 7690SOL    HW123969   5.620   4.776   0.489
 7690SOL    HW223970   5.692   4.634   0.455
 7691SOL     OW23971   4.415   4.911   2.979
 7691SOL    HW123972   4.365   4.830   3.011
 7691SOL    HW223973   4.501   4.883   2.937
 7692SOL     OW23974   1.063   6.557   1.503
 7692SOL    HW123975   1.053   6.538   1.601
 7692SOL    HW223976   1.144   6.613   1.487
 7693SOL     OW23977   2.970   0.835   0.792
 7693SOL    HW123978   3.039   0.836   0.719
 7693SOL    HW223979   2.998   0.896   0.866
 7694SOL     OW23980   5.802   2.714   4.741
 7694SOL    HW123981   5.724   2.654   4.758
 7694SOL    HW223982   5.844   2.740   4.828
 7695SOL     OW23983   6.593   0.053   3.033
 7695SOL    HW123984   6.506   0.078   3.075
 7695SOL    HW223985   6.610   6.978   3.046
 7696SOL     OW23986   0.510   2.213   6.438
 7696SOL    HW123987   0.575   2.287   6.453
 7696SOL    HW223988   0.450   2.235   6.361
 7697SOL     OW23989   3.671   0.009   2.905
 7697SOL    HW123990   3.611   7.007   2.981
 7697SOL    HW223991   3.730   0.085   2.932
 7698SOL     OW23992   6.139   2.627   7.019
 7698SOL    HW123993   6.225   2.625   6.968
 7698SOL    HW223994   6.064   2.599   6.959
 7699SOL     OW23995   2.677   5.572   0.327
 7699SOL    HW123996   2.689   5.537   0.234
 7699SOL    HW223997   2.764   5.612   0.358
 7700SOL     OW23998   4.790   5.619   2.703
 7700SOL    HW123999   4.745   5.534   2.731
 7700SOL    HW224000   4.723   5.680   2.660
 7701SOL     OW24001   0.152   2.393   6.171
 7701SOL    HW124002   0.215   2.356   6.103
 7701SOL    HW224003   0.123   2.485   6.143
 7702SOL     OW24004   4.581   0.055   5.979
 7702SOL    HW124005   4.546   0.006   5.899
 7702SOL    HW224006   4.552   0.151   5.974
 7703SOL     OW24007   6.492   0.214   4.934
 7703SOL    HW124008   6.564   0.158   4.976
 7703SOL    HW224009   6.514   0.231   4.839
 7704SOL     OW24010   6.882   1.429   3.843
 7704SOL    HW124011   6.868   1.493   3.919
 7704SOL    HW224012   6.794   1.406   3.802
 7705SOL     OW24013   2.480   4.765   0.458
 7705SOL    HW124014   2.518   4.685   0.505
 7705SOL    HW224015   2.382   4.753   0.446
 7706SOL     OW24016   3.724   2.924   3.099
 7706SOL    HW124017   3.693   2.900   3.190
 7706SOL    HW224018   3.824   2.931   3.098
 7707SOL     OW24019   6.668   5.970   0.093
 7707SOL    HW124020   6.646   5.978   7.019
 7707SOL    HW224021   6.672   5.874   0.118
 7708SOL     OW24022   2.142   6.700   4.389
 7708SOL    HW124023   2.240   6.694   4.402
 7708SOL    HW224024   2.120   6.690   4.292
 7709SOL     OW24025   6.397   4.992   0.942
 7709SOL    HW124026   6.482   5.016   0.989
 7709SOL    HW224027   6.404   5.016   0.845
 7710SOL     OW24028   1.741   2.889   0.622
 7710SOL    HW124029   1.697   2.805   0.653
 7710SOL    HW224030   1.738   2.957   0.694
 7711SOL     OW24031   6.583   4.763   5.495
 7711SOL    HW124032   6.486   4.751   5.477
 7711SOL    HW224033   6.597   4.788   5.591
 7712SOL     OW24034   6.885   4.350   6.384
 7712SOL    HW124035   6.821   4.311   6.319
 7712SOL    HW224036   6.945   4.415   6.337
 7713SOL     OW24037   1.684   4.429   0.850
 7713SOL    HW124038   1.699   4.526   0.829
 7713SOL    HW224039   1.760   4.375   0.816
 7714SOL     OW24040   6.574   0.318   4.425
 7714SOL    HW124041   6.652   0.269   4.386
 7714SOL    HW224042   6.490   0.268   4.407
 7715SOL     OW24043   1.863   2.589   6.540
 7715SOL    HW124044   1.849   2.671   6.485
 7715SOL    HW224045   1.781   2.570   6.594
 7716SOL     OW24046   0.767   5.586   6.869
 7716SOL    HW124047   0.725   5.496   6.853
 7716SOL    HW224048   0.856   5.590   6.824
 7717SOL     OW24049   1.328   2.341   6.088
 7717SOL    HW124050   1.408   2.283   6.105
 7717SOL    HW224051   1.259   2.323   6.158
 7718SOL     OW24052   1.360   4.130   2.685
 7718SOL    HW124053   1.424   4.053   2.689
 7718SOL    HW224054   1.392   4.196   2.616
 7719SOL     OW24055   1.605   4.241   4.760
 7719SOL    HW124056   1.621   4.337   4.785
 7719SOL    HW224057   1.623   4.182   4.839
 7720SOL     OW24058   6.133   1.979   6.299
 7720SOL    HW124059   6.089   1.912   6.358
 7720SOL    HW224060   6.071   2.055   6.282
 7721SOL     OW24061   1.539   0.492   2.575
 7721SOL    HW124062   1.585   0.404   2.570
 7721SOL    HW224063   1.607   0.565   2.585
 7722SOL     OW24064   2.413   4.969   4.029
 7722SOL    HW124065   2.332   5.022   4.004
 7722SOL    HW224066   2.435   4.905   3.956
 7723SOL     OW24067   4.762   2.945   6.812
 7723SOL    HW124068   4.794   3.019   6.753
 7723SOL    HW224069   4.749   2.862   6.758
 7724SOL     OW24070   3.138   4.062   1.440
 7724SOL    HW124071   3.087   4.092   1.521
 7724SOL    HW224072   3.075   4.023   1.373
 7725SOL     OW24073   5.469   2.130   2.721
 7725SOL    HW124074   5.528   2.091   2.650
 7725SOL    HW224075   5.526   2.167   2.795
 7726SOL     OW24076   0.643   3.213   5.626
 7726SOL    HW124077   0.564   3.259   5.665
 7726SOL    HW224078   0.703   3.280   5.583
 7727SOL     OW24079   5.011   2.600   2.247
 7727SOL    HW124080   4.929   2.634   2.200
 7727SOL    HW224081   4.995   2.507   2.279
 7728SOL     OW24082   2.339   2.979   5.377
 7728SOL    HW124083   2.415   3.000   5.315
 7728SOL    HW224084   2.285   2.904   5.339
 7729SOL     OW24085   6.026   1.880   2.429
 7729SOL    HW124086   6.018   1.833   2.517
 7729SOL    HW224087   6.118   1.867   2.392
 7730SOL     OW24088   5.916   4.740   5.480
 7730SOL    HW124089   5.825   4.728   5.518
 7730SOL    HW224090   5.925   4.687   5.396
 7731SOL     OW24091   6.161   0.229   0.473
 7731SOL    HW124092   6.173   0.235   0.572
 7731SOL    HW224093   6.227   0.290   0.428
 7732SOL     OW24094   4.626   0.385   6.558
 7732SOL    HW124095   4.678   0.304   6.529
 7732SOL    HW224096   4.546   0.356   6.610
 7733SOL     OW24097   6.860   5.768   2.691
 7733SOL    HW124098   6.863   5.833   2.767
 7733SOL    HW224099   6.765   5.741   2.674
 7734SOL     OW24100   2.274   4.783   5.522
 7734SOL    HW124101   2.300   4.854   5.456
 7734SOL    HW224102   2.337   4.706   5.514
 7735SOL     OW24103   6.397   6.174   0.309
 7735SOL    HW124104   6.494   6.155   0.293
 7735SOL    HW224105   6.345   6.154   0.226
 7736SOL     OW24106   2.677   3.108   0.909
 7736SOL    HW124107   2.739   3.063   0.845
 7736SOL    HW224108   2.587   3.063   0.905
 7737SOL     OW24109   4.152   5.298   1.316
 7737SOL    HW124110   4.086   5.269   1.386
 7737SOL    HW224111   4.212   5.368   1.354
 7738SOL     OW24112   2.677   6.190   6.856
 7738SOL    HW124113   2.712   6.130   6.785
 7738SOL    HW224114   2.600   6.146   6.902
 7739SOL     OW24115   1.510   2.845   2.011
 7739SOL    HW124116   1.411   2.857   2.006
 7739SOL    HW224117   1.553   2.883   1.929
 7740SOL     OW24118   1.534   0.785   3.071
 7740SOL    HW124119   1.449   0.739   3.096
 7740SOL    HW224120   1.557   0.853   3.140
 7741SOL     OW24121   1.963   4.663   6.011
 7741SOL    HW124122   1.929   4.736   6.070
 7741SOL    HW224123   2.024   4.701   5.941
 7742SOL     OW24124   3.978   1.786   3.771
 7742SOL    HW124125   3.956   1.876   3.734
 7742SOL    HW224126   3.921   1.717   3.727
 7743SOL     OW24127   5.271   1.385   6.626
 7743SOL    HW124128   5.197   1.361   6.563
 7743SOL    HW224129   5.248   1.355   6.718
 7744SOL     OW24130   0.672   5.790   5.034
 7744SOL    HW124131   0.666   5.844   5.118
 7744SOL    HW224132   0.766   5.758   5.021
 7745SOL     OW24133   2.172   6.086   6.801
 7745SOL    HW124134   2.117   6.156   6.846
 7745SOL    HW224135   2.149   5.996   6.837
 7746SOL     OW24136   0.697   6.218   0.742
 7746SOL    HW124137   0.787   6.212   0.787
 7746SOL    HW224138   0.668   6.128   0.712
 7747SOL     OW24139   6.748   6.471   0.887
 7747SOL    HW124140   6.842   6.470   0.923
 7747SOL    HW224141   6.751   6.459   0.788
 7748SOL     OW24142   3.953   2.976   5.574
 7748SOL    HW124143   3.870   3.029   5.555
 7748SOL    HW224144   3.940   2.922   5.656
 7749SOL     OW24145   3.834   3.581   3.538
 7749SOL    HW124146   3.929   3.607   3.517
 7749SOL    HW224147   3.827   3.556   3.635
 7750SOL     OW24148   5.755   5.025   5.918
 7750SOL    HW124149   5.789   5.033   5.824
 7750SOL    HW224150   5.743   5.116   5.957
 7751SOL     OW24151   0.076   1.634   3.695
 7751SOL    HW124152   0.153   1.611   3.636
 7751SOL    HW224153   7.021   1.576   3.673
 7752SOL     OW24154   5.550   5.261   5.274
 7752SOL    HW124155   5.541   5.359   5.292
 7752SOL    HW224156   5.572   5.246   5.177
 7753SOL     OW24157   2.701   0.247   4.760
 7753SOL    HW124158   2.703   0.150   4.781
 7753SOL    HW224159   2.749   0.298   4.831
 7754SOL     OW24160   5.752   0.703   0.982
 7754SOL    HW124161   5.749   0.743   0.890
 7754SOL    HW224162   5.826   0.745   1.034
 7755SOL     OW24163   0.574   6.234   5.633
 7755SOL    HW124164   0.549   6.329   5.615
 7755SOL    HW224165   0.656   6.231   5.690
 7756SOL     OW24166   2.979   5.485   2.196
 7756SOL    HW124167   2.952   5.490   2.100
 7756SOL    HW224168   2.921   5.546   2.250
 7757SOL     OW24169   5.102   6.257   5.572
 7757SOL    HW124170   5.151   6.176   5.540
 7757SOL    HW224171   5.040   6.230   5.647
 7758SOL     OW24172   1.935   2.782   6.184
 7758SOL    HW124173   2.027   2.755   6.156
 7758SOL    HW224174   1.881   2.700   6.204
 7759SOL     OW24175   2.132   0.576   4.681
 7759SOL    HW124176   2.053   0.637   4.672
 7759SOL    HW224177   2.203   0.622   4.734
 7760SOL     OW24178   5.362   3.236   1.754
 7760SOL    HW124179   5.322   3.145   1.742
 7760SOL    HW224180   5.461   3.230   1.749
 7761SOL     OW24181   3.140   6.752   6.060
 7761SOL    HW124182   3.078   6.809   6.113
 7761SOL    HW224183   3.140   6.659   6.096
 7762SOL     OW24184   4.154   1.069   6.682
 7762SOL    HW124185   4.132   1.023   6.768
 7762SOL    HW224186   4.117   1.161   6.682
 7763SOL     OW24187   1.218   2.129   0.787
 7763SOL    HW124188   1.201   2.060   0.856
 7763SOL    HW224189   1.176   2.101   0.700
 7764SOL     OW24190   3.821   3.429   2.472
 7764SOL    HW124191   3.805   3.437   2.374
 7764SOL    HW224192   3.741   3.389   2.517
 7765SOL     OW24193   6.446   3.292   3.775
 7765SOL    HW124194   6.458   3.390   3.784
 7765SOL    HW224195   6.370   3.273   3.713
 7766SOL     OW24196   5.842   1.815   0.251
 7766SOL    HW124197   5.769   1.748   0.245
 7766SOL    HW224198   5.930   1.768   0.259
 7767SOL     OW24199   3.898   6.259   3.551
 7767SOL    HW124200   3.934   6.292   3.464
 7767SOL    HW224201   3.830   6.188   3.534
 7768SOL     OW24202   3.334   4.944   2.622
 7768SOL    HW124203   3.265   4.946   2.695
 7768SOL    HW224204   3.422   4.918   2.661
 7769SOL     OW24205   4.561   2.148   1.433
 7769SOL    HW124206   4.574   2.161   1.335
 7769SOL    HW224207   4.650   2.142   1.478
 7770SOL     OW24208   2.857   4.889   1.843
 7770SOL    HW124209   2.854   4.809   1.903
 7770SOL    HW224210   2.813   4.967   1.886
 7771SOL     OW24211   2.736   1.976   4.575
 7771SOL    HW124212   2.804   1.935   4.514
 7771SOL    HW224213   2.700   2.059   4.533
 7772SOL     OW24214   5.274   1.279   3.597
 7772SOL    HW124215   5.360   1.326   3.576
 7772SOL    HW224216   5.262   1.202   3.535
 7773SOL     OW24217   4.139   4.523   6.102
 7773SOL    HW124218   4.138   4.514   6.201
 7773SOL    HW224219   4.101   4.440   6.060
 7774SOL     OW24220   5.527   1.239   5.794
 7774SOL    HW124221   5.479   1.312   5.745
 7774SOL    HW224222   5.461   1.177   5.835
 7775SOL     OW24223   3.310   6.528   3.726
 7775SOL    HW124224   3.274   6.619   3.751
 7775SOL    HW224225   3.387   6.505   3.785
 7776SOL     OW24226   3.367   3.541   6.212
 7776SOL    HW124227   3.458   3.522   6.249
 7776SOL    HW224228   3.305   3.566   6.286
 7777SOL     OW24229   2.171   1.530   5.739
 7777SOL    HW124230   2.177   1.589   5.658
 7777SOL    HW224231   2.241   1.458   5.733
 7778SOL     OW24232   5.871   0.441   0.644
 7778SOL    HW124233   5.882   0.386   0.561
 7778SOL    HW224234   5.795   0.404   0.698
 7779SOL     OW24235   3.611   2.798   0.494
 7779SOL    HW124236   3.669   2.864   0.542
 7779SOL    HW224237   3.520   2.797   0.535
 7780SOL     OW24238   0.838   6.136   4.413
 7780SOL    HW124239   0.746   6.138   4.452
 7780SOL    HW224240   0.877   6.045   4.424
 7781SOL     OW24241   1.505   3.965   5.898
 7781SOL    HW124242   1.466   4.056   5.885
 7781SOL    HW224243   1.490   3.911   5.815
 7782SOL     OW24244   1.828   3.963   5.973
 7782SOL    HW124245   1.731   3.968   5.953
 7782SOL    HW224246   1.863   3.872   5.947
 7783SOL     OW24247   2.272   6.810   6.370
 7783SOL    HW124248   2.279   6.906   6.396
 7783SOL    HW224249   2.260   6.754   6.452
 7784SOL     OW24250   1.078   3.213   0.001
 7784SOL    HW124251   1.093   3.242   6.929
 7784SOL    HW224252   1.154   3.245   0.058
 7785SOL     OW24253   2.613   6.543   3.924
 7785SOL    HW124254   2.711   6.562   3.928
 7785SOL    HW224255   2.563   6.613   3.975
 7786SOL     OW24256   3.145   4.588   5.315
 7786SOL    HW124257   3.174   4.503   5.359
 7786SOL    HW224258   3.062   4.571   5.262
 7787SOL     OW24259   2.281   2.501   5.144
 7787SOL    HW124260   2.329   2.588   5.134
 7787SOL    HW224261   2.221   2.487   5.065
 7788SOL     OW24262   1.435   1.900   1.745
 7788SOL    HW124263   1.468   1.807   1.761
 7788SOL    HW224264   1.433   1.950   1.832
 7789SOL     OW24265   2.399   0.085   0.791
 7789SOL    HW124266   2.428   0.131   0.707
 7789SOL    HW224267   2.479   0.060   0.845
 7790SOL     OW24268   6.448   4.195   3.285
 7790SOL    HW124269   6.409   4.282   3.313
 7790SOL    HW224270   6.435   4.128   3.358
 7791SOL     OW24271   2.688   6.034   4.406
 7791SOL    HW124272   2.645   6.124   4.405
 7791SOL    HW224273   2.783   6.042   4.376
 7792SOL     OW24274   1.680   5.361   6.181
 7792SOL    HW124275   1.638   5.360   6.272
 7792SOL    HW224276   1.653   5.278   6.131
 7793SOL     OW24277   1.775   1.306   5.286
 7793SOL    HW124278   1.723   1.225   5.311
 7793SOL    HW224279   1.828   1.288   5.203
 7794SOL     OW24280   5.388   4.800   4.609
 7794SOL    HW124281   5.302   4.828   4.651
 7794SOL    HW224282   5.428   4.725   4.661
 7795SOL     OW24283   1.987   4.295   5.305
 7795SOL    HW124284   2.031   4.311   5.394
 7795SOL    HW224285   2.048   4.241   5.247
 7796SOL     OW24286   4.103   3.805   3.800
 7796SOL    HW124287   4.172   3.748   3.754
 7796SOL    HW224288   4.055   3.750   3.868
 7797SOL     OW24289   0.373   5.732   3.351
 7797SOL    HW124290   0.333   5.723   3.442
 7797SOL    HW224291   0.450   5.796   3.354
 7798SOL     OW24292   2.608   5.316   0.055
 7798SOL    HW124293   2.640   5.263   6.999
 7798SOL    HW224294   2.674   5.388   0.075
 7799SOL     OW24295   6.815   5.727   1.886
 7799SOL    HW124296   6.853   5.709   1.795
 7799SOL    HW224297   6.729   5.677   1.896
 7800SOL     OW24298   0.565   4.355   1.486
 7800SOL    HW124299   0.478   4.364   1.535
 7800SOL    HW224300   0.568   4.421   1.411
 7801SOL     OW24301   2.575   1.327   0.841
 7801SOL    HW124302   2.604   1.263   0.771
 7801SOL    HW224303   2.568   1.419   0.802
 7802SOL     OW24304   5.957   3.134   1.462
 7802SOL    HW124305   5.901   3.196   1.407
 7802SOL    HW224306   6.017   3.081   1.403
 7803SOL     OW24307   4.501   3.251   5.715
 7803SOL    HW124308   4.580   3.197   5.745
 7803SOL    HW224309   4.418   3.196   5.724
 7804SOL     OW24310   6.258   1.206   4.314
 7804SOL    HW124311   6.237   1.140   4.242
 7804SOL    HW224312   6.331   1.267   4.282
 7805SOL     OW24313   5.714   2.184   1.131
 7805SOL    HW124314   5.805   2.223   1.142
 7805SOL    HW224315   5.657   2.208   1.210
 7806SOL     OW24316   5.596   3.063   5.722
 7806SOL    HW124317   5.610   3.054   5.821
 7806SOL    HW224318   5.547   2.982   5.689
 7807SOL     OW24319   0.251   4.865   6.441
 7807SOL    HW124320   0.153   4.866   6.423
 7807SOL    HW224321   0.292   4.782   6.403
 7808SOL     OW24322   0.747   1.951   5.054
 7808SOL    HW124323   0.755   1.858   5.016
 7808SOL    HW224324   0.811   2.012   5.008
 7809SOL     OW24325   2.198   5.469   4.745
 7809SOL    HW124326   2.162   5.411   4.672
 7809SOL    HW224327   2.297   5.455   4.753
 7810SOL     OW24328   2.936   0.931   5.810
 7810SOL    HW124329   2.993   0.858   5.848
 7810SOL    HW224330   2.848   0.931   5.856
 7811SOL     OW24331   6.444   4.418   4.244
 7811SOL    HW124332   6.510   4.377   4.307
 7811SOL    HW224333   6.388   4.485   4.292
 7812SOL     OW24334   1.256   1.917   4.000
 7812SOL    HW124335   1.220   1.825   4.012
 7812SOL    HW224336   1.352   1.920   4.028
 7813SOL     OW24337   4.943   2.742   6.489
 7813SOL    HW124338   5.016   2.712   6.427
 7813SOL    HW224339   4.856   2.744   6.440
 7814SOL     OW24340   0.121   2.650   3.283
 7814SOL    HW124341   0.165   2.724   3.232
 7814SOL    HW224342   0.151   2.562   3.246
 7815SOL     OW24343   5.330   1.481   0.023
 7815SOL    HW124344   5.379   1.559   7.006
 7815SOL    HW224345   5.291   1.508   0.111
 7816SOL     OW24346   0.899   3.318   5.911
 7816SOL    HW124347   0.892   3.401   5.855
 7816SOL    HW224348   0.875   3.238   5.856
 7817SOL     OW24349   5.924   3.662   4.377
 7817SOL    HW124350   5.851   3.727   4.354
 7817SOL    HW224351   5.996   3.666   4.308
 7818SOL     OW24352   5.876   0.165   1.777
 7818SOL    HW124353   5.779   0.143   1.769
 7818SOL    HW224354   5.907   0.206   1.691
 7819SOL     OW24355   0.105   3.055   1.472
 7819SOL    HW124356   0.134   3.037   1.378
 7819SOL    HW224357   0.043   2.982   1.502
 7820SOL     OW24358   1.756   2.436   4.841
 7820SOL    HW124359   1.704   2.353   4.862
 7820SOL    HW224360   1.693   2.512   4.827
 7821SOL     OW24361   4.377   5.882   1.419
 7821SOL    HW124362   4.384   5.840   1.328
 7821SOL    HW224363   4.440   5.960   1.425
 7822SOL     OW24364   0.415   6.993   5.346
 7822SOL    HW124365   0.445   0.065   5.357
 7822SOL    HW224366   0.425   6.945   5.434
 7823SOL     OW24367   2.239   4.332   4.543
 7823SOL    HW124368   2.261   4.297   4.634
 7823SOL    HW224369   2.310   4.396   4.514
 7824SOL     OW24370   0.015   2.492   5.156
 7824SOL    HW124371   6.990   2.578   5.171
 7824SOL    HW224372   0.114   2.508   5.157
 7825SOL     OW24373   2.560   3.377   6.929
 7825SOL    HW124374   2.473   3.333   6.908
 7825SOL    HW224375   2.634   3.310   6.919
 7826SOL     OW24376   7.004   1.714   0.129
 7826SOL    HW124377   0.080   1.714   0.113
 7826SOL    HW224378   6.985   1.746   0.222
 7827SOL     OW24379   0.318   5.774   2.887
 7827SOL    HW124380   0.338   5.725   2.802
 7827SOL    HW224381   0.398   5.773   2.946
 7828SOL     OW24382   6.745   4.127   6.687
 7828SOL    HW124383   6.837   4.090   6.678
 7828SOL    HW224384   6.734   4.205   6.625
 7829SOL     OW24385   3.278   2.993   1.351
 7829SOL    HW124386   3.269   2.909   1.298
 7829SOL    HW224387   3.316   2.972   1.441
 7830SOL     OW24388   3.432   5.409   5.313
 7830SOL    HW124389   3.456   5.356   5.395
 7830SOL    HW224390   3.339   5.387   5.285
 7831SOL     OW24391   1.800   1.494   1.145
 7831SOL    HW124392   1.805   1.527   1.051
 7831SOL    HW224393   1.737   1.417   1.150
 7832SOL     OW24394   5.063   0.460   4.377
 7832SOL    HW124395   4.987   0.494   4.433
 7832SOL    HW224396   5.105   0.537   4.329
 7833SOL     OW24397   1.452   0.459   3.925
 7833SOL    HW124398   1.455   0.463   4.025
 7833SOL    HW224399   1.392   0.531   3.890
 7834SOL     OW24400   6.406   1.844   4.151
 7834SOL    HW124401   6.400   1.774   4.080
 7834SOL    HW224402   6.423   1.800   4.239
 7835SOL     OW24403   4.178   1.454   5.339
 7835SOL    HW124404   4.261   1.510   5.333
 7835SOL    HW224405   4.117   1.491   5.409
 7836SOL     OW24406   3.846   4.163   5.115
 7836SOL    HW124407   3.931   4.212   5.135
 7836SOL    HW224408   3.841   4.082   5.174
 7837SOL     OW24409   5.605   6.315   0.363
 7837SOL    HW124410   5.687   6.370   0.371
 7837SOL    HW224411   5.524   6.374   0.369
 7838SOL     OW24412   4.972   4.930   1.174
 7838SOL    HW124413   4.922   4.964   1.254
 7838SOL    HW224414   5.020   4.846   1.199
 7839SOL     OW24415   6.158   4.300   4.897
 7839SOL    HW124416   6.175   4.251   4.812
 7839SOL    HW224417   6.060   4.303   4.915
 7840SOL     OW24418   0.941   3.986   3.775
 7840SOL    HW124419   0.853   3.940   3.790
 7840SOL    HW224420   1.014   3.919   3.777
 7841SOL     OW24421   5.015   1.812   6.573
 7841SOL    HW124422   4.944   1.784   6.507
 7841SOL    HW224423   5.040   1.907   6.556
 7842SOL     OW24424   2.386   2.207   2.564
 7842SOL    HW124425   2.399   2.279   2.497
 7842SOL    HW224426   2.306   2.227   2.621
 7843SOL     OW24427   6.627   6.821   4.121
 7843SOL    HW124428   6.715   6.811   4.074
 7843SOL    HW224429   6.562   6.755   4.084
 7844SOL     OW24430   3.223   0.790   2.541
 7844SOL    HW124431   3.170   0.829   2.617
 7844SOL    HW224432   3.305   0.845   2.526
 7845SOL     OW24433   5.592   1.861   1.801
 7845SOL    HW124434   5.654   1.936   1.780
 7845SOL    HW224435   5.571   1.861   1.899
 7846SOL     OW24436   1.559   2.879   0.380
 7846SOL    HW124437   1.606   2.827   0.308
 7846SOL    HW224438   1.619   2.890   0.459
 7847SOL     OW24439   5.874   1.934   3.775
 7847SOL    HW124440   5.859   2.030   3.753
 7847SOL    HW224441   5.814   1.877   3.719
 7848SOL     OW24442   3.292   4.616   0.987
 7848SOL    HW124443   3.198   4.643   1.006
 7848SOL    HW224444   3.297   4.578   0.894
 7849SOL     OW24445   5.811   3.458   5.561
 7849SOL    HW124446   5.757   3.392   5.613
 7849SOL    HW224447   5.881   3.498   5.620
 7850SOL     OW24448   0.037   1.496   3.252
 7850SOL    HW124449   6.970   1.522   3.217
 7850SOL    HW224450   0.106   1.559   3.217
 7851SOL     OW24451   0.965   3.795   1.972
 7851SOL    HW124452   1.046   3.845   2.002
 7851SOL    HW224453   0.989   3.700   1.954
 7852SOL     OW24454   3.195   1.508   0.375
 7852SOL    HW124455   3.256   1.486   0.452
 7852SOL    HW224456   3.167   1.423   0.331
 7853SOL     OW24457   4.352   3.103   1.743
 7853SOL    HW124458   4.432   3.139   1.694
 7853SOL    HW224459   4.340   3.007   1.718
 7854SOL     OW24460   4.625   2.348   5.935
 7854SOL    HW124461   4.643   2.302   6.022
 7854SOL    HW224462   4.648   2.286   5.860
 7855SOL     OW24463   5.032   6.250   4.297
 7855SOL    HW124464   4.969   6.310   4.348
 7855SOL    HW224465   5.006   6.154   4.313
 7856SOL     OW24466   1.613   4.541   4.815
 7856SOL    HW124467   1.702   4.548   4.770
 7856SOL    HW224468   1.578   4.633   4.833
 7857SOL     OW24469   5.119   3.879   0.200
 7857SOL    HW124470   5.021   3.898   0.201
 7857SOL    HW224471   5.163   3.932   0.128
 7858SOL     OW24472   0.161   5.636   5.351
 7858SOL    HW124473   0.113   5.549   5.336
 7858SOL    HW224474   0.159   5.658   5.449
 7859SOL     OW24475   5.017   3.310   6.453
 7859SOL    HW124476   4.972   3.221   6.460
 7859SOL    HW224477   5.067   3.330   6.537
 7860SOL     OW24478   3.545   1.128   4.452
 7860SOL    HW124479   3.582   1.036   4.448
 7860SOL    HW224480   3.457   1.131   4.405
 7861SOL     OW24481   2.872   5.781   1.925
 7861SOL    HW124482   2.941   5.820   1.986
 7861SOL    HW224483   2.801   5.849   1.908
 7862SOL     OW24484   3.124   5.487   1.774
 7862SOL    HW124485   3.134   5.570   1.719
 7862SOL    HW224486   3.033   5.485   1.815
 7863SOL     OW24487   0.117   4.079   3.472
 7863SOL    HW124488   0.126   3.998   3.413
 7863SOL    HW224489   0.194   4.084   3.535
 7864SOL     OW24490   1.994   6.186   6.610
 7864SOL    HW124491   1.908   6.191   6.660
 7864SOL    HW224492   2.058   6.127   6.660
 7865SOL     OW24493   5.856   6.090   3.779
 7865SOL    HW124494   5.794   6.050   3.712
 7865SOL    HW224495   5.827   6.184   3.799
 7866SOL     OW24496   1.771   0.569   5.699
 7866SOL    HW124497   1.742   0.664   5.707
 7866SOL    HW224498   1.862   0.565   5.658
 7867SOL     OW24499   5.422   7.016   4.149
 7867SOL    HW124500   5.350   6.966   4.101
 7867SOL    HW224501   5.456   6.961   4.225
 7868SOL     OW24502   4.228   6.064   0.498
 7868SOL    HW124503   4.159   6.013   0.550
 7868SOL    HW224504   4.260   6.141   0.553
 7869SOL     OW24505   5.244   5.046   5.692
 7869SOL    HW124506   5.169   5.101   5.656
 7869SOL    HW224507   5.276   4.984   5.620
 7870SOL     OW24508   4.989   6.753   5.295
 7870SOL    HW124509   5.051   6.678   5.272
 7870SOL    HW224510   4.960   6.744   5.390
 7871SOL     OW24511   5.182   1.197   2.235
 7871SOL    HW124512   5.237   1.115   2.251
 7871SOL    HW224513   5.242   1.274   2.212
 7872SOL     OW24514   2.039   5.162   2.766
 7872SOL    HW124515   2.078   5.096   2.831
 7872SOL    HW224516   1.940   5.160   2.772
 7873SOL     OW24517   6.978   1.189   0.802
 7873SOL    HW124518   6.998   1.270   0.858
 7873SOL    HW224519   0.041   1.152   0.766
 7874SOL     OW24520   5.480   2.698   1.025
 7874SOL    HW124521   5.550   2.706   1.096
 7874SOL    HW224522   5.392   2.729   1.061
 7875SOL     OW24523   3.772   3.697   6.916
 7875SOL    HW124524   3.872   3.692   6.927
 7875SOL    HW224525   3.749   3.768   6.850
 7876SOL     OW24526   1.260   0.472   2.656
 7876SOL    HW124527   1.358   0.469   2.637
 7876SOL    HW224528   1.242   0.428   2.744
 7877SOL     OW24529   5.840   1.432   2.463
 7877SOL    HW124530   5.930   1.463   2.492
 7877SOL    HW224531   5.813   1.351   2.516
 7878SOL     OW24532   4.880   3.654   3.765
 7878SOL    HW124533   4.871   3.746   3.727
 7878SOL    HW224534   4.898   3.590   3.691
 7879SOL     OW24535   3.364   5.341   3.539
 7879SOL    HW124536   3.428   5.341   3.463
 7879SOL    HW224537   3.272   5.360   3.505
 7880SOL     OW24538   2.294   3.968   1.587
 7880SOL    HW124539   2.201   3.934   1.600
 7880SOL    HW224540   2.358   3.910   1.638
 7881SOL     OW24541   5.026   4.241   4.386
 7881SOL    HW124542   5.083   4.181   4.443
 7881SOL    HW224543   5.080   4.319   4.355
 7882SOL     OW24544   2.730   3.746   1.345
 7882SOL    HW124545   2.673   3.817   1.305
 7882SOL    HW224546   2.695   3.721   1.435
 7883SOL     OW24547   0.450   0.888   5.032
 7883SOL    HW124548   0.548   0.904   5.018
 7883SOL    HW224549   0.400   0.918   4.951
 7884SOL     OW24550   0.252   2.901   4.134
 7884SOL    HW124551   0.291   2.848   4.058
 7884SOL    HW224552   0.325   2.922   4.200
 7885SOL     OW24553   6.082   5.667   0.839
 7885SOL    HW124554   6.164   5.714   0.870
 7885SOL    HW224555   6.041   5.717   0.763
 7886SOL     OW24556   4.539   5.548   0.692
 7886SOL    HW124557   4.464   5.488   0.722
 7886SOL    HW224558   4.626   5.510   0.724
 7887SOL     OW24559   4.010   1.784   6.739
 7887SOL    HW124560   4.099   1.778   6.695
 7887SOL    HW224561   3.945   1.724   6.691
 7888SOL     OW24562   5.084   0.393   3.947
 7888SOL    HW124563   5.014   0.372   4.015
 7888SOL    HW224564   5.052   0.469   3.890
 7889SOL     OW24565   0.400   5.979   2.011
 7889SOL    HW124566   0.452   6.058   2.044
 7889SOL    HW224567   0.457   5.897   2.015
 7890SOL     OW24568   2.230   3.903   2.161
 7890SOL    HW124569   2.264   3.813   2.186
 7890SOL    HW224570   2.178   3.941   2.238
 7891SOL     OW24571   2.839   4.727   2.098
 7891SOL    HW124572   2.884   4.664   2.035
 7891SOL    HW224573   2.908   4.778   2.150
 7892SOL     OW24574   1.819   2.598   5.506
 7892SOL    HW124575   1.873   2.533   5.452
 7892SOL    HW224576   1.832   2.580   5.603
 7893SOL     OW24577   5.812   6.868   0.897
 7893SOL    HW124578   5.803   6.927   0.817
 7893SOL    HW224579   5.788   6.920   0.979
 7894SOL     OW24580   2.135   6.403   2.499
 7894SOL    HW124581   2.084   6.318   2.483
 7894SOL    HW224582   2.223   6.381   2.542
 7895SOL     OW24583   6.144   1.300   4.686
 7895SOL    HW124584   6.079   1.323   4.614
 7895SOL    HW224585   6.101   1.238   4.752
 7896SOL     OW24586   4.999   3.767   5.656
 7896SOL    HW124587   4.988   3.793   5.751
 7896SOL    HW224588   4.934   3.694   5.633
 7897SOL     OW24589   2.276   4.022   6.712
 7897SOL    HW124590   2.191   4.074   6.714
 7897SOL    HW224591   2.330   4.042   6.793
 7898SOL     OW24592   4.648   2.205   3.780
 7898SOL    HW124593   4.593   2.278   3.820
 7898SOL    HW224594   4.640   2.122   3.835
 7899SOL     OW24595   5.924   2.351   2.041
 7899SOL    HW124596   6.010   2.390   2.010
 7899SOL    HW224597   5.865   2.424   2.076
 7900SOL     OW24598   1.432   5.315   1.404
 7900SOL    HW124599   1.397   5.390   1.460
 7900SOL    HW224600   1.530   5.304   1.421
 7901SOL     OW24601   6.023   6.877   6.215
 7901SOL    HW124602   5.956   6.932   6.265
 7901SOL    HW224603   5.981   6.842   6.131
 7902SOL     OW24604   4.312   4.649   1.189
 7902SOL    HW124605   4.392   4.636   1.248
 7902SOL    HW224606   4.292   4.746   1.181
 7903SOL     OW24607   6.515   1.726   0.313
 7903SOL    HW124608   6.486   1.667   0.237
 7903SOL    HW224609   6.448   1.720   0.387
 7904SOL     OW24610   0.206   0.727   2.750
 7904SOL    HW124611   0.113   0.709   2.721
 7904SOL    HW224612   0.235   0.817   2.718
 7905SOL     OW24613   3.924   1.422   1.311
 7905SOL    HW124614   3.977   1.464   1.238
 7905SOL    HW224615   3.935   1.322   1.307
 7906SOL     OW24616   6.102   5.838   6.658
 7906SOL    HW124617   6.031   5.899   6.622
 7906SOL    HW224618   6.075   5.807   6.750
 7907SOL     OW24619   6.495   2.199   4.244
 7907SOL    HW124620   6.426   2.138   4.283
 7907SOL    HW224621   6.504   2.181   4.146
 7908SOL     OW24622   0.694   1.208   3.130
 7908SOL    HW124623   0.731   1.290   3.175
 7908SOL    HW224624   0.756   1.131   3.144
 7909SOL     OW24625   4.864   3.944   4.417
 7909SOL    HW124626   4.868   4.036   4.455
 7909SOL    HW224627   4.833   3.880   4.487
 7910SOL     OW24628   4.268   3.237   6.258
 7910SOL    HW124629   4.225   3.240   6.168
 7910SOL    HW224630   4.264   3.328   6.299
 7911SOL     OW24631   6.703   4.778   0.638
 7911SOL    HW124632   6.771   4.751   0.705
 7911SOL    HW224633   6.746   4.788   0.548
 7912SOL     OW24634   6.027   4.882   6.289
 7912SOL    HW124635   6.034   4.847   6.196
 7912SOL    HW224636   5.931   4.896   6.313
 7913SOL     OW24637   6.982   5.002   6.733
 7913SOL    HW124638   6.972   5.099   6.711
 7913SOL    HW224639   6.971   4.947   6.651
 7914SOL     OW24640   6.244   4.924   1.164
 7914SOL    HW124641   6.300   4.901   1.084
 7914SOL    HW224642   6.155   4.959   1.134
 7915SOL     OW24643   4.974   2.041   3.130
 7915SOL    HW124644   4.930   2.076   3.047
 7915SOL    HW224645   4.996   1.944   3.118
 7916SOL     OW24646   5.499   3.178   5.499
 7916SOL    HW124647   5.407   3.143   5.517
 7916SOL    HW224648   5.556   3.165   5.580
 7917SOL     OW24649   4.010   3.945   4.692
 7917SOL    HW124650   4.018   3.856   4.647
 7917SOL    HW224651   3.955   4.007   4.636
 7918SOL     OW24652   6.276   1.208   1.613
 7918SOL    HW124653   6.289   1.268   1.692
 7918SOL    HW224654   6.210   1.136   1.636
 7919SOL     OW24655   5.550   4.417   2.350
 7919SOL    HW124656   5.484   4.419   2.276
 7919SOL    HW224657   5.629   4.474   2.326
 7920SOL     OW24658   0.540   4.903   1.580
 7920SOL    HW124659   0.474   4.952   1.637
 7920SOL    HW224660   0.535   4.805   1.600
 7921SOL     OW24661   2.370   6.371   1.411
 7921SOL    HW124662   2.373   6.394   1.508
 7921SOL    HW224663   2.415   6.282   1.396
 7922SOL     OW24664   0.024   5.258   6.942
 7922SOL    HW124665   0.025   5.207   0.006
 7922SOL    HW224666   6.963   5.238   6.892
 7923SOL     OW24667   1.508   1.468   3.052
 7923SOL    HW124668   1.503   1.406   2.973
 7923SOL    HW224669   1.501   1.563   3.020
 7924SOL     OW24670   3.103   6.835   3.549
 7924SOL    HW124671   3.110   6.928   3.512
 7924SOL    HW224672   3.018   6.827   3.601
 7925SOL     OW24673   6.245   1.481   5.955
 7925SOL    HW124674   6.344   1.465   5.945
 7925SOL    HW224675   6.217   1.459   6.048
 7926SOL     OW24676   3.266   1.339   3.477
 7926SOL    HW124677   3.220   1.259   3.516
 7926SOL    HW224678   3.287   1.321   3.380
 7927SOL     OW24679   4.077   5.338   5.369
 7927SOL    HW124680   4.077   5.260   5.307
 7927SOL    HW224681   3.991   5.341   5.420
 7928SOL     OW24682   2.060   4.991   3.062
 7928SOL    HW124683   2.148   5.015   3.020
 7928SOL    HW224684   2.042   4.894   3.046
 7929SOL     OW24685   3.650   3.828   4.691
 7929SOL    HW124686   3.596   3.750   4.659
 7929SOL    HW224687   3.681   3.881   4.612
 7930SOL     OW24688   4.433   5.171   3.429
 7930SOL    HW124689   4.406   5.217   3.344
 7930SOL    HW224690   4.518   5.120   3.414
 7931SOL     OW24691   2.205   2.692   6.962
 7931SOL    HW124692   2.251   2.727   6.881
 7931SOL    HW224693   2.245   2.605   6.988
 7932SOL     OW24694   2.479   0.231   0.015
 7932SOL    HW124695   2.500   0.142   6.999
 7932SOL    HW224696   2.558   0.292   0.005
 7933SOL     OW24697   0.221   6.778   6.812
 7933SOL    HW124698   0.297   6.746   6.868
 7933SOL    HW224699   0.209   6.716   6.734
 7934SOL     OW24700   2.497   3.907   0.309
 7934SOL    HW124701   2.537   3.854   0.235
 7934SOL    HW224702   2.571   3.952   0.361
 7935SOL     OW24703   4.835   6.024   0.926
 7935SOL    HW124704   4.850   5.937   0.878
 7935SOL    HW224705   4.850   6.100   0.863
 7936SOL     OW24706   3.830   6.368   3.222
 7936SOL    HW124707   3.734   6.393   3.215
 7936SOL    HW224708   3.886   6.451   3.224
 7937SOL     OW24709   6.005   6.473   5.490
 7937SOL    HW124710   5.952   6.494   5.572
 7937SOL    HW224711   6.067   6.549   5.470
 7938SOL     OW24712   3.913   5.339   4.704
 7938SOL    HW124713   3.968   5.378   4.630
 7938SOL    HW224714   3.964   5.266   4.749
 7939SOL     OW24715   1.112   1.359   5.366
 7939SOL    HW124716   1.096   1.449   5.406
 7939SOL    HW224717   1.027   1.307   5.364
 7940SOL     OW24718   2.135   5.395   1.442
 7940SOL    HW124719   2.065   5.336   1.483
 7940SOL    HW224720   2.168   5.460   1.510
 7941SOL     OW24721   0.205   1.155   0.712
 7941SOL    HW124722   0.288   1.154   0.767
 7941SOL    HW224723   0.215   1.094   0.634
 7942SOL     OW24724   0.327   6.555   2.010
 7942SOL    HW124725   0.339   6.649   1.976
 7942SOL    HW224726   0.244   6.550   2.066
 7943SOL     OW24727   5.066   2.049   1.356
 7943SOL    HW124728   4.973   2.028   1.386
 7943SOL    HW224729   5.122   2.072   1.435
 7944SOL     OW24730   6.872   3.253   1.374
 7944SOL    HW124731   6.921   3.339   1.389
 7944SOL    HW224732   6.925   3.177   1.412
 7945SOL     OW24733   5.283   6.810   2.931
 7945SOL    HW124734   5.233   6.739   2.883
 7945SOL    HW224735   5.322   6.773   3.015
 7946SOL     OW24736   1.448   2.587   6.157
 7946SOL    HW124737   1.533   2.539   6.180
 7946SOL    HW224738   1.381   2.521   6.123
 7947SOL     OW24739   3.696   2.860   6.273
 7947SOL    HW124740   3.781   2.912   6.270
 7947SOL    HW224741   3.619   2.922   6.256
 7948SOL     OW24742   0.100   0.322   0.558
 7948SOL    HW124743   0.200   0.324   0.562
 7948SOL    HW224744   0.062   0.382   0.628
 7949SOL     OW24745   5.291   4.847   3.722
 7949SOL    HW124746   5.328   4.919   3.781
 7949SOL    HW224747   5.362   4.814   3.660
 7950SOL     OW24748   4.020   4.863   3.280
 7950SOL    HW124749   3.982   4.887   3.370
 7950SOL    HW224750   4.100   4.804   3.293
 7951SOL     OW24751   2.983   3.584   1.043
 7951SOL    HW124752   3.014   3.567   1.136
 7951SOL    HW224753   2.884   3.594   1.041
 7952SOL     OW24754   6.845   2.808   6.502
 7952SOL    HW124755   6.941   2.837   6.494
 7952SOL    HW224756   6.840   2.708   6.498
 7953SOL     OW24757   2.246   2.970   2.848
 7953SOL    HW124758   2.286   2.884   2.817
 7953SOL    HW224759   2.282   2.992   2.939
 7954SOL     OW24760   4.338   5.156   4.908
 7954SOL    HW124761   4.300   5.213   4.981
 7954SOL    HW224762   4.437   5.148   4.920
 7955SOL     OW24763   6.893   6.658   6.821
 7955SOL    HW124764   6.943   6.611   6.748
 7955SOL    HW224765   6.910   6.756   6.816
 7956SOL     OW24766   0.020   6.171   3.489
 7956SOL    HW124767   0.070   6.146   3.571
 7956SOL    HW224768   0.078   6.227   3.429
 7957SOL     OW24769   1.106   2.064   0.354
 7957SOL    HW124770   1.077   2.111   0.271
 7957SOL    HW224771   1.174   2.119   0.402
 7958SOL     OW24772   3.528   5.740   4.247
 7958SOL    HW124773   3.505   5.791   4.164
 7958SOL    HW224774   3.526   5.642   4.227
 7959SOL     OW24775   5.688   4.533   0.311
 7959SOL    HW124776   5.784   4.509   0.299
 7959SOL    HW224777   5.632   4.451   0.304
 7960SOL     OW24778   3.397   1.370   1.322
 7960SOL    HW124779   3.409   1.308   1.244
 7960SOL    HW224780   3.406   1.465   1.290
 7961SOL     OW24781   1.292   6.178   6.176
 7961SOL    HW124782   1.292   6.195   6.274
 7961SOL    HW224783   1.199   6.188   6.140
 7962SOL     OW24784   2.065   1.253   1.088
 7962SOL    HW124785   2.156   1.287   1.062
 7962SOL    HW224786   2.016   1.326   1.137
 7963SOL     OW24787   0.378   0.943   5.632
 7963SOL    HW124788   0.411   1.037   5.616
 7963SOL    HW224789   0.315   0.942   5.710
 7964SOL     OW24790   5.231   4.624   3.104
 7964SOL    HW124791   5.209   4.567   3.025
 7964SOL    HW224792   5.230   4.720   3.077
 7965SOL     OW24793   4.471   2.241   0.354
 7965SOL    HW124794   4.556   2.246   0.301
 7965SOL    HW224795   4.459   2.326   0.405
 7966SOL     OW24796   1.162   4.605   4.420
 7966SOL    HW124797   1.064   4.624   4.409
 7966SOL    HW224798   1.191   4.630   4.512
 7967SOL     OW24799   3.140   5.612   2.832
 7967SOL    HW124800   3.127   5.638   2.928
 7967SOL    HW224801   3.234   5.579   2.819
 7968SOL     OW24802   2.480   2.231   3.893
 7968SOL    HW124803   2.380   2.224   3.894
 7968SOL    HW224804   2.517   2.190   3.977
 7969SOL     OW24805   4.198   0.347   3.016
 7969SOL    HW124806   4.167   0.358   3.111
 7969SOL    HW224807   4.122   0.363   2.954
 7970SOL     OW24808   6.663   3.728   2.983
 7970SOL    HW124809   6.733   3.800   2.985
 7970SOL    HW224810   6.668   3.674   3.066
 7971SOL     OW24811   2.517   0.670   1.986
 7971SOL    HW124812   2.539   0.634   1.895
 7971SOL    HW224813   2.549   0.607   2.056
 7972SOL     OW24814   0.129   4.509   1.443
 7972SOL    HW124815   0.145   4.413   1.423
 7972SOL    HW224816   0.065   4.547   1.376
 7973SOL     OW24817   5.317   3.180   3.781
 7973SOL    HW124818   5.360   3.262   3.743
 7973SOL    HW224819   5.378   3.139   3.849
 7974SOL     OW24820   5.464   0.527   4.212
 7974SOL    HW124821   5.514   0.607   4.243
 7974SOL    HW224822   5.398   0.498   4.281
 7975SOL     OW24823   3.936   0.322   4.556
 7975SOL    HW124824   3.902   0.375   4.633
 7975SOL    HW224825   3.953   0.384   4.479
 7976SOL     OW24826   0.831   6.911   4.878
 7976SOL    HW124827   0.903   6.942   4.940
 7976SOL    HW224828   0.761   6.982   4.871
 7977SOL     OW24829   5.061   5.754   2.471
 7977SOL    HW124830   5.086   5.850   2.462
 7977SOL    HW224831   5.122   5.709   2.537
 7978SOL     OW24832   4.510   3.499   6.339
 7978SOL    HW124833   4.591   3.463   6.385
 7978SOL    HW224834   4.512   3.473   6.242
 7979SOL     OW24835   3.105   0.409   4.765
 7979SOL    HW124836   3.194   0.419   4.809
 7979SOL    HW224837   3.089   0.487   4.703
 7980SOL     OW24838   3.530   6.415   0.491
 7980SOL    HW124839   3.570   6.354   0.422
 7980SOL    HW224840   3.435   6.435   0.467
 7981SOL     OW24841   0.859   4.951   2.394
 7981SOL    HW124842   0.873   4.854   2.372
 7981SOL    HW224843   0.806   4.994   2.320
 7982SOL     OW24844   6.486   2.752   0.669
 7982SOL    HW124845   6.481   2.844   0.707
 7982SOL    HW224846   6.394   2.714   0.660
 7983SOL     OW24847   5.213   1.608   2.556
 7983SOL    HW124848   5.181   1.544   2.626
 7983SOL    HW224849   5.298   1.651   2.587
 7984SOL     OW24850   1.061   2.361   2.213
 7984SOL    HW124851   1.139   2.315   2.169
 7984SOL    HW224852   1.093   2.408   2.295
 7985SOL     OW24853   0.991   0.665   2.596
 7985SOL    HW124854   0.938   0.729   2.651
 7985SOL    HW224855   1.081   0.651   2.638
 7986SOL     OW24856   4.014   1.435   6.419
 7986SOL    HW124857   3.980   1.449   6.326
 7986SOL    HW224858   4.070   1.513   6.446
 7987SOL     OW24859   0.590   2.949   5.586
 7987SOL    HW124860   0.551   2.915   5.672
 7987SOL    HW224861   0.600   3.048   5.590
 7988SOL     OW24862   2.984   2.226   4.402
 7988SOL    HW124863   2.937   2.263   4.482
 7988SOL    HW224864   2.977   2.127   4.402
 7989SOL     OW24865   3.665   2.550   5.364
 7989SOL    HW124866   3.613   2.608   5.426
 7989SOL    HW224867   3.615   2.464   5.348
 7990SOL     OW24868   0.798   3.022   4.305
 7990SOL    HW124869   0.866   3.095   4.309
 7990SOL    HW224870   0.829   2.945   4.361
 7991SOL     OW24871   0.291   2.740   5.974
 7991SOL    HW124872   0.199   2.742   5.934
 7991SOL    HW224873   0.330   2.649   5.965
 7992SOL     OW24874   1.793   0.248   0.846
 7992SOL    HW124875   1.788   0.176   0.776
 7992SOL    HW224876   1.857   0.220   0.917
 7993SOL     OW24877   1.786   5.659   6.777
 7993SOL    HW124878   1.786   5.574   6.830
 7993SOL    HW224879   1.734   5.645   6.692
 7994SOL     OW24880   4.701   0.814   3.944
 7994SOL    HW124881   4.624   0.755   3.921
 7994SOL    HW224882   4.716   0.814   4.043
 7995SOL     OW24883   3.709   5.227   3.513
 7995SOL    HW124884   3.696   5.220   3.414
 7995SOL    HW224885   3.764   5.308   3.533
 7996SOL     OW24886   3.276   6.816   4.638
 7996SOL    HW124887   3.211   6.755   4.682
 7996SOL    HW224888   3.237   6.853   4.553
 7997SOL     OW24889   6.171   1.953   1.263
 7997SOL    HW124890   6.076   1.925   1.271
 7997SOL    HW224891   6.214   1.906   1.186
 7998SOL     OW24892   5.346   4.638   0.260
 7998SOL    HW124893   5.421   4.578   0.232
 7998SOL    HW224894   5.365   4.732   0.229
 7999SOL     OW24895   1.228   0.005   5.463
 7999SOL    HW124896   1.287   0.008   5.382
 7999SOL    HW224897   1.241   0.088   5.517
 8000SOL     OW24898   6.130   0.196   6.317
 8000SOL    HW124899   6.048   0.218   6.371
 8000SOL    HW224900   6.196   0.270   6.326
 8001SOL     OW24901   1.650   6.463   1.797
 8001SOL    HW124902   1.579   6.429   1.858
 8001SOL    HW224903   1.698   6.385   1.756
 8002SOL     OW24904   0.049   3.541   5.027
 8002SOL    HW124905   7.006   3.594   5.080
 8002SOL    HW224906   0.078   3.594   4.948
 8003SOL     OW24907   3.130   4.978   2.851
 8003SOL    HW124908   3.106   5.067   2.812
 8003SOL    HW224909   3.178   4.992   2.938
 8004SOL     OW24910   2.287   4.292   3.202
 8004SOL    HW124911   2.272   4.222   3.271
 8004SOL    HW224912   2.340   4.367   3.242
 8005SOL     OW24913   2.882   0.865   1.982
 8005SOL    HW124914   2.789   0.872   2.019
 8005SOL    HW224915   2.940   0.934   2.025
 8006SOL     OW24916   2.552   5.846   0.285
 8006SOL    HW124917   2.568   5.748   0.277
 8006SOL    HW224918   2.544   5.886   0.193
 8007SOL     OW24919   0.827   0.034   3.750
 8007SOL    HW124920   0.753   0.096   3.722
 8007SOL    HW224921   0.867   0.067   3.836
 8008SOL     OW24922   5.818   6.225   6.533
 8008SOL    HW124923   5.722   6.201   6.519
 8008SOL    HW224924   5.845   6.295   6.466
 8009SOL     OW24925   6.976   0.488   2.829
 8009SOL    HW124926   6.888   0.486   2.876
 8009SOL    HW224927   6.980   0.568   2.769
 8010SOL     OW24928   2.505   2.009   6.890
 8010SOL    HW124929   2.456   1.932   6.850
 8010SOL    HW224930   2.503   2.001   6.990
 8011SOL     OW24931   2.914   1.816   1.165
 8011SOL    HW124932   2.881   1.857   1.080
 8011SOL    HW224933   2.856   1.845   1.241
 8012SOL     OW24934   1.579   6.900   1.242
 8012SOL    HW124935   1.646   6.940   1.179
 8012SOL    HW224936   1.596   6.934   1.335
 8013SOL     OW24937   6.230   4.708   4.054
 8013SOL    HW124938   6.326   4.717   4.028
 8013SOL    HW224939   6.224   4.689   4.152
 8014SOL     OW24940   1.794   5.827   6.537
 8014SOL    HW124941   1.700   5.800   6.516
 8014SOL    HW224942   1.823   5.900   6.474
 8015SOL     OW24943   2.909   2.742   0.837
 8015SOL    HW124944   2.974   2.809   0.873
 8015SOL    HW224945   2.851   2.785   0.768
 8016SOL     OW24946   4.687   0.313   0.921
 8016SOL    HW124947   4.670   0.247   0.849
 8016SOL    HW224948   4.604   0.366   0.938
 8017SOL     OW24949   0.214   4.448   5.592
 8017SOL    HW124950   0.207   4.383   5.668
 8017SOL    HW224951   0.166   4.411   5.512
 8018SOL     OW24952   4.781   1.751   5.539
 8018SOL    HW124953   4.834   1.788   5.615
 8018SOL    HW224954   4.710   1.690   5.574
 8019SOL     OW24955   1.593   4.931   0.798
 8019SOL    HW124956   1.666   4.999   0.802
 8019SOL    HW224957   1.525   4.959   0.730
 8020SOL     OW24958   6.180   5.984   6.363
 8020SOL    HW124959   6.179   6.077   6.327
 8020SOL    HW224960   6.092   5.964   6.407
 8021SOL     OW24961   0.851   1.865   1.802
 8021SOL    HW124962   0.885   1.826   1.716
 8021SOL    HW224963   0.903   1.826   1.878
 8022SOL     OW24964   4.481   0.163   3.090
 8022SOL    HW124965   4.547   0.185   3.162
 8022SOL    HW224966   4.388   0.168   3.126
 8023SOL     OW24967   6.505   5.894   2.675
 8023SOL    HW124968   6.442   5.859   2.744
 8023SOL    HW224969   6.581   5.942   2.720
 8024SOL     OW24970   4.497   5.689   6.168
 8024SOL    HW124971   4.484   5.605   6.115
 8024SOL    HW224972   4.573   5.741   6.128
 8025SOL     OW24973   3.535   6.227   6.340
 8025SOL    HW124974   3.454   6.216   6.282
 8025SOL    HW224975   3.617   6.223   6.283
 8026SOL     OW24976   0.694   3.596   6.782
 8026SOL    HW124977   0.767   3.640   6.730
 8026SOL    HW224978   0.734   3.531   6.847
 8027SOL     OW24979   4.615   1.919   5.034
 8027SOL    HW124980   4.565   1.880   4.957
 8027SOL    HW224981   4.624   1.850   5.106
 8028SOL     OW24982   4.584   5.163   5.911
 8028SOL    HW124983   4.679   5.160   5.882
 8028SOL    HW224984   4.537   5.237   5.863
 8029SOL     OW24985   4.562   4.220   6.666
 8029SOL    HW124986   4.587   4.307   6.623
 8029SOL    HW224987   4.554   4.233   6.765
 8030SOL     OW24988   5.419   4.765   5.519
 8030SOL    HW124989   5.492   4.696   5.524
 8030SOL    HW224990   5.458   4.853   5.494
 8031SOL     OW24991   4.982   5.390   2.088
 8031SOL    HW124992   4.988   5.317   2.156
 8031SOL    HW224993   5.043   5.369   2.011
 8032SOL     OW24994   6.270   3.825   4.924
 8032SOL    HW124995   6.264   3.902   4.987
 8032SOL    HW224996   6.194   3.762   4.941
 8033SOL     OW24997   5.499   2.450   6.983
 8033SOL    HW124998   5.419   2.395   6.962
 8033SOL    HW224999   5.495   2.481   0.055
 8034SOL     OW25000   5.708   6.852   5.594
 8034SOL    HW125001   5.790   6.854   5.537
 8034SOL    HW225002   5.632   6.815   5.541
 8035SOL     OW25003   5.990   5.949   5.629
 8035SOL    HW125004   5.929   5.950   5.550
 8035SOL    HW225005   6.068   5.889   5.610
 8036SOL     OW25006   2.405   3.772   1.753
 8036SOL    HW125007   2.399   3.673   1.761
 8036SOL    HW225008   2.343   3.815   1.819
 8037SOL     OW25009   2.220   2.826   1.010
 8037SOL    HW125010   2.251   2.746   1.061
 8037SOL    HW225011   2.133   2.858   1.047
 8038SOL     OW25012   6.477   1.942   3.294
 8038SOL    HW125013   6.537   1.991   3.231
 8038SOL    HW225014   6.486   1.980   3.386
 8039SOL     OW25015   2.411   0.337   2.712
 8039SOL    HW125016   2.374   0.338   2.805
 8039SOL    HW225017   2.384   0.253   2.666
 8040SOL     OW25018   0.421   5.505   1.198
 8040SOL    HW125019   0.456   5.477   1.109
 8040SOL    HW225020   0.389   5.424   1.248
 8041SOL     OW25021   3.568   0.835   1.487
 8041SOL    HW125022   3.559   0.923   1.533
 8041SOL    HW225023   3.531   0.843   1.394
 8042SOL     OW25024   3.792   2.928   2.193
 8042SOL    HW125025   3.890   2.906   2.204
 8042SOL    HW225026   3.748   2.928   2.283
 8043SOL     OW25027   2.501   0.656   0.493
 8043SOL    HW125028   2.493   0.570   0.443
 8043SOL    HW225029   2.520   0.731   0.429
 8044SOL     OW25030   2.981   2.658   1.435
 8044SOL    HW125031   2.916   2.727   1.468
 8044SOL    HW225032   3.049   2.639   1.505
 8045SOL     OW25033   6.090   1.544   2.562
 8045SOL    HW125034   6.060   1.631   2.602
 8045SOL    HW225035   6.190   1.540   2.564
 8046SOL     OW25036   5.388   4.328   5.201
 8046SOL    HW125037   5.417   4.422   5.218
 8046SOL    HW225038   5.339   4.293   5.281
 8047SOL     OW25039   3.363   6.010   4.606
 8047SOL    HW125040   3.454   5.988   4.642
 8047SOL    HW225041   3.363   5.999   4.507
 8048SOL     OW25042   6.229   0.609   5.649
 8048SOL    HW125043   6.139   0.568   5.664
 8048SOL    HW225044   6.269   0.573   5.565
 8049SOL     OW25045   0.739   0.077   1.180
 8049SOL    HW125046   0.777   0.145   1.117
 8049SOL    HW225047   0.750   0.109   1.274
 8050SOL     OW25048   1.598   3.475   1.257
 8050SOL    HW125049   1.565   3.465   1.163
 8050SOL    HW225050   1.697   3.483   1.257
 8051SOL     OW25051   4.557   0.611   3.138
 8051SOL    HW125052   4.530   0.542   3.071
 8051SOL    HW225053   4.540   0.575   3.230
 8052SOL     OW25054   3.312   1.678   2.239
 8052SOL    HW125055   3.234   1.738   2.253
 8052SOL    HW225056   3.315   1.647   2.144
 8053SOL     OW25057   3.830   4.024   3.013
 8053SOL    HW125058   3.784   3.968   2.944
 8053SOL    HW225059   3.857   4.112   2.972
 8054SOL     OW25060   4.334   6.448   4.602
 8054SOL    HW125061   4.400   6.374   4.588
 8054SOL    HW225062   4.246   6.422   4.562
 8055SOL     OW25063   0.723   0.027   5.926
 8055SOL    HW125064   0.752   0.122   5.942
 8055SOL    HW225065   0.803   6.990   5.926
 8056SOL     OW25066   4.848   1.637   3.234
 8056SOL    HW125067   4.893   1.549   3.245
 8056SOL    HW225068   4.904   1.696   3.175
 8057SOL     OW25069   2.838   0.544   2.931
 8057SOL    HW125070   2.795   0.608   2.867
 8057SOL    HW225071   2.844   0.454   2.890
 8058SOL     OW25072   2.608   0.489   2.172
 8058SOL    HW125073   2.594   0.529   2.262
 8058SOL    HW225074   2.550   0.408   2.162
 8059SOL     OW25075   3.555   2.091   4.780
 8059SOL    HW125076   3.482   2.127   4.722
 8059SOL    HW225077   3.575   1.997   4.753
 8060SOL     OW25078   0.012   1.201   4.141
 8060SOL    HW125079   0.025   1.234   4.234
 8060SOL    HW225080   0.061   1.261   4.077
 8061SOL     OW25081   6.477   5.614   2.959
 8061SOL    HW125082   6.486   5.706   3.000
 8061SOL    HW225083   6.474   5.622   2.860
 8062SOL     OW25084   1.460   4.338   4.500
 8062SOL    HW125085   1.472   4.331   4.401
 8062SOL    HW225086   1.403   4.262   4.532
 8063SOL     OW25087   2.820   3.548   6.856
 8063SOL    HW125088   2.761   3.505   6.788
 8063SOL    HW225089   2.912   3.508   6.850
 8064SOL     OW25090   0.305   4.145   0.070
 8064SOL    HW125091   0.220   4.093   0.063
 8064SOL    HW225092   0.364   4.122   7.015
 8065SOL     OW25093   4.745   6.653   4.462
 8065SOL    HW125094   4.666   6.662   4.522
 8065SOL    HW225095   4.749   6.731   4.400
 8066SOL     OW25096   1.825   1.243   0.451
 8066SOL    HW125097   1.854   1.335   0.426
 8066SOL    HW225098   1.829   1.183   0.371
 8067SOL     OW25099   4.309   2.807   1.714
 8067SOL    HW125100   4.405   2.809   1.744
 8067SOL    HW225101   4.306   2.815   1.614
 8068SOL     OW25102   0.301   4.842   4.779
 8068SOL    HW125103   0.277   4.936   4.755
 8068SOL    HW225104   0.376   4.843   4.845
 8069SOL     OW25105   1.810   6.121   1.335
 8069SOL    HW125106   1.848   6.213   1.326
 8069SOL    HW225107   1.740   6.107   1.266
 8070SOL     OW25108   3.420   5.915   1.684
 8070SOL    HW125109   3.375   5.874   1.763
 8070SOL    HW225110   3.419   6.015   1.693
 8071SOL     OW25111   3.982   6.429   5.309
 8071SOL    HW125112   3.910   6.390   5.367
 8071SOL    HW225113   4.007   6.519   5.343
 8072SOL     OW25114   4.545   1.346   0.619
 8072SOL    HW125115   4.567   1.332   0.523
 8072SOL    HW225116   4.457   1.393   0.628
 8073SOL     OW25117   4.724   6.779   5.953
 8073SOL    HW125118   4.650   6.745   5.894
 8073SOL    HW225119   4.699   6.870   5.988
 8074SOL     OW25120   3.380   3.667   0.420
 8074SOL    HW125121   3.379   3.766   0.411
 8074SOL    HW225122   3.293   3.635   0.457
 8075SOL     OW25123   6.630   1.042   2.142
 8075SOL    HW125124   6.587   0.978   2.206
 8075SOL    HW225125   6.701   0.994   2.090
 8076SOL     OW25126   5.432   2.547   5.411
 8076SOL    HW125127   5.341   2.583   5.434
 8076SOL    HW225128   5.462   2.585   5.324
 8077SOL     OW25129   1.351   7.023   1.482
 8077SOL    HW125130   1.340   0.039   1.391
 8077SOL    HW225131   1.447   7.005   1.499
 8078SOL     OW25132   6.613   2.354   0.755
 8078SOL    HW125133   6.688   2.308   0.801
 8078SOL    HW225134   6.527   2.311   0.780
 8079SOL     OW25135   6.510   2.380   3.105
 8079SOL    HW125136   6.442   2.452   3.117
 8079SOL    HW225137   6.529   2.367   3.007
 8080SOL     OW25138   2.133   3.964   0.564
 8080SOL    HW125139   2.128   3.951   0.465
 8080SOL    HW225140   2.163   3.879   0.608
 8081SOL     OW25141   5.611   0.798   5.170
 8081SOL    HW125142   5.650   0.864   5.234
 8081SOL    HW225143   5.624   0.706   5.205
 8082SOL     OW25144   6.266   2.490   3.215
 8082SOL    HW125145   6.188   2.551   3.228
 8082SOL    HW225146   6.239   2.412   3.158
 8083SOL     OW25147   4.829   3.112   2.726
 8083SOL    HW125148   4.742   3.161   2.732
 8083SOL    HW225149   4.815   3.022   2.684
 8084SOL     OW25150   6.428   6.141   1.512
 8084SOL    HW125151   6.378   6.094   1.585
 8084SOL    HW225152   6.519   6.167   1.545
 8085SOL     OW25153   5.299   0.498   0.973
 8085SOL    HW125154   5.246   0.535   1.049
 8085SOL    HW225155   5.319   0.571   0.908
 8086SOL     OW25156   4.327   0.344   4.480
 8086SOL    HW125157   4.387   0.301   4.547
 8086SOL    HW225158   4.365   0.432   4.452
 8087SOL     OW25159   2.865   2.223   0.811
 8087SOL    HW125160   2.925   2.280   0.754
 8087SOL    HW225161   2.773   2.263   0.813
 8088SOL     OW25162   5.796   0.803   2.381
 8088SOL    HW125163   5.870   0.773   2.321
 8088SOL    HW225164   5.708   0.773   2.344
 8089SOL     OW25165   5.111   2.788   0.764
 8089SOL    HW125166   5.155   2.702   0.791
 8089SOL    HW225167   5.012   2.780   0.774
 8090SOL     OW25168   5.336   1.727   6.778
 8090SOL    HW125169   5.367   1.815   6.742
 8090SOL    HW225170   5.371   1.714   6.870
 8091SOL     OW25171   3.047   4.421   6.663
 8091SOL    HW125172   3.103   4.490   6.616
 8091SOL    HW225173   2.998   4.463   6.739
 8092SOL     OW25174   1.039   1.701   5.026
 8092SOL    HW125175   1.042   1.603   5.045
 8092SOL    HW225176   1.047   1.753   5.111
 8093SOL     OW25177   5.498   5.614   1.614
 8093SOL    HW125178   5.516   5.711   1.630
 8093SOL    HW225179   5.495   5.566   1.702
 8094SOL     OW25180   1.222   4.450   6.526
 8094SOL    HW125181   1.220   4.550   6.534
 8094SOL    HW225182   1.266   4.411   6.607
 8095SOL     OW25183   5.320   3.131   4.289
 8095SOL    HW125184   5.254   3.062   4.321
 8095SOL    HW225185   5.413   3.096   4.302
 8096SOL     OW25186   3.366   5.403   1.923
 8096SOL    HW125187   3.286   5.392   1.864
 8096SOL    HW225188   3.338   5.449   2.008
 8097SOL     OW25189   5.455   0.414   3.149
 8097SOL    HW125190   5.508   0.483   3.101
 8097SOL    HW225191   5.357   0.435   3.140
 8098SOL     OW25192   2.731   6.191   4.129
 8098SOL    HW125193   2.671   6.164   4.204
 8098SOL    HW225194   2.762   6.285   4.144
 8099SOL     OW25195   5.378   6.719   4.919
 8099SOL    HW125196   5.421   6.641   4.872
 8099SOL    HW225197   5.354   6.789   4.852
 8100SOL     OW25198   0.101   6.841   0.519
 8100SOL    HW125199   0.040   6.766   0.544
 8100SOL    HW225200   0.063   6.890   0.441
 8101SOL     OW25201   1.720   0.421   4.420
 8101SOL    HW125202   1.816   0.425   4.392
 8101SOL    HW225203   1.709   0.357   4.495
 8102SOL     OW25204   0.250   5.041   6.024
 8102SOL    HW125205   0.250   4.990   6.109
 8102SOL    HW225206   0.278   5.136   6.042
 8103SOL     OW25207   3.950   1.287   2.189
 8103SOL    HW125208   4.021   1.278   2.259
 8103SOL    HW225209   3.924   1.383   2.180
 8104SOL     OW25210   2.972   6.581   5.530
 8104SOL    HW125211   3.070   6.604   5.531
 8104SOL    HW225212   2.920   6.660   5.496
 8105SOL     OW25213   2.665   2.434   3.814
 8105SOL    HW125214   2.601   2.359   3.832
 8105SOL    HW225215   2.742   2.399   3.761
 8106SOL     OW25216   1.262   4.125   3.593
 8106SOL    HW125217   1.168   4.129   3.557
 8106SOL    HW225218   1.264   4.069   3.675
 8107SOL     OW25219   1.880   6.509   5.710
 8107SOL    HW125220   1.916   6.484   5.620
 8107SOL    HW225221   1.824   6.591   5.702
 8108SOL     OW25222   6.959   3.754   4.441
 8108SOL    HW125223   6.991   3.670   4.486
 8108SOL    HW225224   6.916   3.814   4.508
 8109SOL     OW25225   1.940   4.585   5.241
 8109SOL    HW125226   1.956   4.499   5.290
 8109SOL    HW225227   1.843   4.592   5.217
 8110SOL     OW25228   2.242   6.893   0.740
 8110SOL    HW125229   2.231   6.882   0.641
 8110SOL    HW225230   2.281   6.983   0.760
 8111SOL     OW25231   2.628   6.110   4.854
 8111SOL    HW125232   2.675   6.180   4.800
 8111SOL    HW225233   2.693   6.040   4.883
 8112SOL     OW25234   2.942   0.480   5.629
 8112SOL    HW125235   2.957   0.409   5.561
 8112SOL    HW225236   3.015   0.478   5.697
 8113SOL     OW25237   3.429   2.353   0.092
 8113SOL    HW125238   3.485   2.270   0.092
 8113SOL    HW225239   3.382   2.361   0.180
 8114SOL     OW25240   2.102   3.010   2.398
 8114SOL    HW125241   2.162   2.946   2.446
 8114SOL    HW225242   2.109   2.996   2.299
 8115SOL     OW25243   3.365   1.208   1.559
 8115SOL    HW125244   3.390   1.269   1.483
 8115SOL    HW225245   3.448   1.175   1.604
 8116SOL     OW25246   5.957   6.903   5.514
 8116SOL    HW125247   5.967   6.985   5.458
 8116SOL    HW225248   6.044   6.855   5.519
 8117SOL     OW25249   1.281   1.802   4.408
 8117SOL    HW125250   1.281   1.722   4.348
 8117SOL    HW225251   1.196   1.804   4.461
 8118SOL     OW25252   0.985   4.343   5.558
 8118SOL    HW125253   0.939   4.268   5.605
 8118SOL    HW225254   1.075   4.358   5.598
 8119SOL     OW25255   0.618   5.589   3.629
 8119SOL    HW125256   0.620   5.529   3.549
 8119SOL    HW225257   0.651   5.539   3.709
 8120SOL     OW25258   4.309   4.805   0.583
 8120SOL    HW125259   4.229   4.747   0.569
 8120SOL    HW225260   4.295   4.863   0.663
 8121SOL     OW25261   0.155   0.037   2.742
 8121SOL    HW125262   0.082   0.063   2.805
 8121SOL    HW225263   0.237   0.014   2.795
 8122SOL     OW25264   0.346   6.149   1.761
 8122SOL    HW125265   0.266   6.100   1.795
 8122SOL    HW225266   0.423   6.136   1.824
 8123SOL     OW25267   0.855   6.649   6.348
 8123SOL    HW125268   0.786   6.622   6.416
 8123SOL    HW225269   0.924   6.577   6.340
 8124SOL     OW25270   1.583   5.538   1.631
 8124SOL    HW125271   1.492   5.497   1.638
 8124SOL    HW225272   1.640   5.481   1.572
 8125SOL     OW25273   6.281   4.522   2.959
 8125SOL    HW125274   6.256   4.425   2.950
 8125SOL    HW225275   6.198   4.576   2.976
 8126SOL     OW25276   6.059   4.305   2.839
 8126SOL    HW125277   5.990   4.377   2.845
 8126SOL    HW225278   6.035   4.230   2.899
 8127SOL     OW25279   2.288   5.004   0.513
 8127SOL    HW125280   2.205   4.951   0.531
 8127SOL    HW225281   2.265   5.083   0.457
 8128SOL     OW25282   3.262   2.746   6.164
 8128SOL    HW125283   3.209   2.810   6.109
 8128SOL    HW225284   3.292   2.791   6.248
 8129SOL     OW25285   5.441   0.935   6.561
 8129SOL    HW125286   5.368   0.936   6.492
 8129SOL    HW225287   5.481   1.027   6.568
 8130SOL     OW25288   0.956   5.279   6.732
 8130SOL    HW125289   0.886   5.235   6.676
 8130SOL    HW225290   0.942   5.378   6.732
 8131SOL     OW25291   3.486   0.137   0.099
 8131SOL    HW125292   3.433   0.220   0.082
 8131SOL    HW225293   3.457   0.096   0.185
 8132SOL     OW25294   6.165   5.057   4.352
 8132SOL    HW125295   6.156   5.152   4.322
 8132SOL    HW225296   6.147   4.995   4.276
 8133SOL     OW25297   3.102   5.290   3.149
 8133SOL    HW125298   3.137   5.257   3.237
 8133SOL    HW225299   3.179   5.311   3.089
 8134SOL     OW25300   2.120   2.537   4.148
 8134SOL    HW125301   2.171   2.494   4.073
 8134SOL    HW225302   2.029   2.563   4.116
 8135SOL     OW25303   3.791   5.402   2.252
 8135SOL    HW125304   3.838   5.386   2.339
 8135SOL    HW225305   3.762   5.315   2.213
 8136SOL     OW25306   3.845   5.816   2.493
 8136SOL    HW125307   3.826   5.731   2.542
 8136SOL    HW225308   3.892   5.880   2.553
 8137SOL     OW25309   1.908   3.603   5.080
 8137SOL    HW125310   1.879   3.526   5.137
 8137SOL    HW225311   1.847   3.611   5.001
 8138SOL     OW25312   5.238   1.930   2.096
 8138SOL    HW125313   5.236   1.919   2.196
 8138SOL    HW225314   5.232   1.841   2.052
 8139SOL     OW25315   1.188   3.064   3.393
 8139SOL    HW125316   1.152   3.108   3.476
 8139SOL    HW225317   1.288   3.059   3.399
 8140SOL     OW25318   4.815   0.255   0.259
 8140SOL    HW125319   4.877   0.179   0.282
 8140SOL    HW225320   4.722   0.231   0.287
 8141SOL     OW25321   5.087   1.234   6.212
 8141SOL    HW125322   5.011   1.217   6.275
 8141SOL    HW225323   5.138   1.314   6.242
 8142SOL     OW25324   1.753   6.030   0.121
 8142SOL    HW125325   1.842   6.034   0.166
 8142SOL    HW225326   1.756   5.962   0.047
 8143SOL     OW25327   4.964   4.080   0.694
 8143SOL    HW125328   4.885   4.062   0.635
 8143SOL    HW225329   4.966   4.012   0.768
 8144SOL     OW25330   0.598   5.367   5.979
 8144SOL    HW125331   0.679   5.318   6.013
 8144SOL    HW225332   0.518   5.338   6.032
 8145SOL     OW25333   5.854   5.611   0.098
 8145SOL    HW125334   5.939   5.640   0.142
 8145SOL    HW225335   5.866   5.520   0.059
 8146SOL     OW25336   6.062   7.004   4.394
 8146SOL    HW125337   6.100   7.009   4.487
 8146SOL    HW225338   5.973   0.028   4.392
 8147SOL     OW25339   0.919   0.846   6.001
 8147SOL    HW125340   0.931   0.751   5.970
 8147SOL    HW225341   0.975   0.861   6.083
 8148SOL     OW25342   4.130   4.562   6.371
 8148SOL    HW125343   4.153   4.474   6.413
 8148SOL    HW225344   4.084   4.619   6.439
 8149SOL     OW25345   1.617   7.003   4.269
 8149SOL    HW125346   1.565   6.929   4.227
 8149SOL    HW225347   1.633   6.981   4.366
 8150SOL     OW25348   1.092   3.318   0.618
 8150SOL    HW125349   1.142   3.231   0.606
 8150SOL    HW225350   1.023   3.326   0.547
 8151SOL     OW25351   6.112   4.437   3.679
 8151SOL    HW125352   6.190   4.411   3.736
 8151SOL    HW225353   6.141   4.500   3.608
 8152SOL     OW25354   4.316   1.755   3.445
 8152SOL    HW125355   4.223   1.782   3.419
 8152SOL    HW225356   4.382   1.800   3.384
 8153SOL     OW25357   0.456   1.454   3.749
 8153SOL    HW125358   0.544   1.501   3.734
 8153SOL    HW225359   0.471   1.355   3.748
 8154SOL     OW25360   2.254   2.019   3.555
 8154SOL    HW125361   2.211   1.943   3.604
 8154SOL    HW225362   2.192   2.097   3.553
 8155SOL     OW25363   1.606   4.358   2.148
 8155SOL    HW125364   1.563   4.448   2.141
 8155SOL    HW225365   1.536   4.288   2.157
 8156SOL     OW25366   6.473   4.987   1.536
 8156SOL    HW125367   6.435   4.954   1.622
 8156SOL    HW225368   6.409   4.966   1.461
 8157SOL     OW25369   6.412   2.875   6.292
 8157SOL    HW125370   6.481   2.904   6.225
 8157SOL    HW225371   6.427   2.924   6.378
 8158SOL     OW25372   6.008   4.905   5.892
 8158SOL    HW125373   5.988   5.002   5.909
 8158SOL    HW225374   6.092   4.897   5.838
 8159SOL     OW25375   3.476   5.852   5.842
 8159SOL    HW125376   3.453   5.776   5.903
 8159SOL    HW225377   3.574   5.850   5.822
 8160SOL     OW25378   5.240   1.561   3.130
 8160SOL    HW125379   5.176   1.491   3.099
 8160SOL    HW225380   5.327   1.518   3.153
 8161SOL     OW25381   5.787   3.371   0.130
 8161SOL    HW125382   5.746   3.413   0.211
 8161SOL    HW225383   5.715   3.329   0.075
 8162SOL     OW25384   0.357   5.064   6.869
 8162SOL    HW125385   0.351   5.143   6.808
 8162SOL    HW225386   0.345   5.094   6.964
 8163SOL     OW25387   4.195   4.675   5.447
 8163SOL    HW125388   4.266   4.674   5.517
 8163SOL    HW225389   4.142   4.760   5.455
 8164SOL     OW25390   5.693   0.981   6.937
 8164SOL    HW125391   5.695   0.950   0.009
 8164SOL    HW225392   5.603   0.964   6.898
 8165SOL     OW25393   6.777   2.294   6.120
 8165SOL    HW125394   6.821   2.342   6.196
 8165SOL    HW225395   6.684   2.329   6.109
 8166SOL     OW25396   1.908   2.042   4.564
 8166SOL    HW125397   1.837   2.101   4.527
 8166SOL    HW225398   1.898   1.950   4.528
 8167SOL     OW25399   6.516   1.581   4.012
 8167SOL    HW125400   6.449   1.557   3.942
 8167SOL    HW225401   6.590   1.636   3.971
 8168SOL     OW25402   2.550   0.570   1.220
 8168SOL    HW125403   2.551   0.669   1.231
 8168SOL    HW225404   2.535   0.546   1.124
 8169SOL     OW25405   5.468   2.316   0.725
 8169SOL    HW125406   5.453   2.329   0.822
 8169SOL    HW225407   5.443   2.222   0.700
 8170SOL     OW25408   6.485   4.208   2.167
 8170SOL    HW125409   6.577   4.244   2.156
 8170SOL    HW225410   6.471   4.130   2.106
 8171SOL     OW25411   1.594   1.448   6.936
 8171SOL    HW125412   1.596   1.363   6.989
 8171SOL    HW225413   1.508   1.453   6.885
 8172SOL     OW25414   0.869   2.558   2.254
 8172SOL    HW125415   0.930   2.485   2.284
 8172SOL    HW225416   0.825   2.532   2.168
 8173SOL     OW25417   5.436   2.150   2.157
 8173SOL    HW125418   5.376   2.075   2.132
 8173SOL    HW225419   5.523   2.114   2.189
 8174SOL     OW25420   1.646   5.874   2.841
 8174SOL    HW125421   1.721   5.868   2.775
 8174SOL    HW225422   1.562   5.900   2.794
 8175SOL     OW25423   0.885   2.773   4.447
 8175SOL    HW125424   0.961   2.754   4.509
 8175SOL    HW225425   0.799   2.753   4.493
 8176SOL     OW25426   1.734   4.577   1.132
 8176SOL    HW125427   1.762   4.569   1.227
 8176SOL    HW225428   1.728   4.486   1.090
 8177SOL     OW25429   3.829   1.367   2.518
 8177SOL    HW125430   3.881   1.287   2.548
 8177SOL    HW225431   3.741   1.369   2.565
 8178SOL     OW25432   2.481   6.753   0.745
 8178SOL    HW125433   2.396   6.805   0.749
 8178SOL    HW225434   2.492   6.699   0.829
 8179SOL     OW25435   5.181   0.958   3.634
 8179SOL    HW125436   5.136   0.889   3.577
 8179SOL    HW225437   5.118   0.988   3.705
 8180SOL     OW25438   5.801   6.512   6.890
 8180SOL    HW125439   5.863   6.586   6.915
 8180SOL    HW225440   5.816   6.434   6.950
 8181SOL     OW25441   0.986   1.126   1.264
 8181SOL    HW125442   1.078   1.127   1.304
 8181SOL    HW225443   0.977   1.045   1.205
 8182SOL     OW25444   3.135   3.661   5.152
 8182SOL    HW125445   3.224   3.642   5.193
 8182SOL    HW225446   3.144   3.732   5.082
 8183SOL     OW25447   6.338   0.625   5.022
 8183SOL    HW125448   6.329   0.589   4.929
 8183SOL    HW225449   6.396   0.563   5.075
 8184SOL     OW25450   0.832   6.790   6.791
 8184SOL    HW125451   0.923   6.753   6.809
 8184SOL    HW225452   0.840   6.879   6.747
 8185SOL     OW25453   1.064   0.196   0.522
 8185SOL    HW125454   0.991   0.135   0.554
 8185SOL    HW225455   1.040   0.291   0.542
 8186SOL     OW25456   1.558   5.304   6.707
 8186SOL    HW125457   1.525   5.250   6.629
 8186SOL    HW225458   1.612   5.245   6.768
 8187SOL     OW25459   1.829   1.258   5.010
 8187SOL    HW125460   1.802   1.198   4.934
 8187SOL    HW225461   1.915   1.302   4.988
 8188SOL     OW25462   3.843   2.097   3.668
 8188SOL    HW125463   3.798   2.091   3.579
 8188SOL    HW225464   3.783   2.142   3.733
 8189SOL     OW25465   4.490   4.563   3.850
 8189SOL    HW125466   4.533   4.652   3.857
 8189SOL    HW225467   4.453   4.551   3.758
 8190SOL     OW25468   5.258   3.381   3.028
 8190SOL    HW125469   5.310   3.367   2.944
 8190SOL    HW225470   5.206   3.298   3.049
 8191SOL     OW25471   4.403   4.876   1.726
 8191SOL    HW125472   4.455   4.835   1.800
 8191SOL    HW225473   4.349   4.805   1.680
 8192SOL     OW25474   1.927   5.000   3.364
 8192SOL    HW125475   1.881   5.075   3.316
 8192SOL    HW225476   1.900   4.913   3.323
 8193SOL     OW25477   6.944   5.210   5.154
 8193SOL    HW125478   6.890   5.274   5.100
 8193SOL    HW225479   7.022   5.177   5.100
 8194SOL     OW25480   4.493   6.789   1.625
 8194SOL    HW125481   4.482   6.886   1.646
 8194SOL    HW225482   4.488   6.736   1.710
 8195SOL     OW25483   6.121   6.593   3.439
 8195SOL    HW125484   6.134   6.494   3.442
 8195SOL    HW225485   6.028   6.616   3.467
 8196SOL     OW25486   4.996   1.123   0.331
 8196SOL    HW125487   5.066   1.174   0.280
 8196SOL    HW225488   4.972   1.173   0.414
 8197SOL     OW25489   4.745   1.537   1.347
 8197SOL    HW125490   4.784   1.610   1.403
 8197SOL    HW225491   4.656   1.510   1.384
 8198SOL     OW25492   2.277   0.222   1.912
 8198SOL    HW125493   2.262   0.321   1.920
 8198SOL    HW225494   2.225   0.175   1.982
 8199SOL     OW25495   5.201   2.664   6.010
 8199SOL    HW125496   5.186   2.755   5.971
 8199SOL    HW225497   5.148   2.597   5.960
 8200SOL     OW25498   5.815   3.850   1.078
 8200SOL    HW125499   5.824   3.867   0.979
 8200SOL    HW225500   5.902   3.867   1.123
 8201SOL     OW25501   0.094   0.679   5.269
 8201SOL    HW125502   0.184   0.720   5.252
 8201SOL    HW225503   0.031   0.749   5.301
 8202SOL     OW25504   0.089   6.266   1.985
 8202SOL    HW125505   0.081   6.316   1.899
 8202SOL    HW225506   0.078   6.168   1.967
 8203SOL     OW25507   2.002   2.920   0.425
 8203SOL    HW125508   1.940   2.916   0.504
 8203SOL    HW225509   2.035   2.829   0.404
 8204SOL     OW25510   4.539   3.562   1.082
 8204SOL    HW125511   4.602   3.556   1.005
 8204SOL    HW225512   4.541   3.476   1.133
 8205SOL     OW25513   0.632   2.799   0.572
 8205SOL    HW125514   0.696   2.805   0.495
 8205SOL    HW225515   0.538   2.797   0.537
 8206SOL     OW25516   4.272   1.372   0.088
 8206SOL    HW125517   4.173   1.371   0.068
 8206SOL    HW225518   4.286   1.394   0.185
 8207SOL     OW25519   3.640   2.975   4.430
 8207SOL    HW125520   3.602   3.067   4.437
 8207SOL    HW225521   3.734   2.974   4.464
 8208SOL     OW25522   0.970   1.076   0.292
 8208SOL    HW125523   0.956   0.998   0.352
 8208SOL    HW225524   0.978   1.160   0.347
 8209SOL     OW25525   6.934   0.853   5.347
 8209SOL    HW125526   6.921   0.936   5.293
 8209SOL    HW225527   6.864   0.847   5.418
 8210SOL     OW25528   1.984   2.973   0.073
 8210SOL    HW125529   1.894   2.980   0.114
 8210SOL    HW225530   1.997   2.880   0.037
 8211SOL     OW25531   3.271   3.773   1.229
 8211SOL    HW125532   3.333   3.835   1.181
 8211SOL    HW225533   3.205   3.826   1.282
 8212SOL     OW25534   1.764   2.653   3.051
 8212SOL    HW125535   1.860   2.627   3.057
 8212SOL    HW225536   1.711   2.577   3.013
 8213SOL     OW25537   0.340   5.215   1.936
 8213SOL    HW125538   0.338   5.314   1.921
 8213SOL    HW225539   0.248   5.184   1.963
 8214SOL     OW25540   5.634   4.808   3.336
 8214SOL    HW125541   5.603   4.893   3.293
 8214SOL    HW225542   5.733   4.813   3.351
 8215SOL     OW25543   3.291   5.273   4.592
 8215SOL    HW125544   3.384   5.239   4.603
 8215SOL    HW225545   3.227   5.196   4.595
 8216SOL     OW25546   4.808   4.939   4.076
 8216SOL    HW125547   4.827   5.037   4.070
 8216SOL    HW225548   4.823   4.897   3.986
 8217SOL     OW25549   1.926   4.980   0.928
 8217SOL    HW125550   1.963   5.061   0.973
 8217SOL    HW225551   1.889   5.006   0.838
 8218SOL     OW25552   0.653   2.111   0.062
 8218SOL    HW125553   0.695   2.177   7.022
 8218SOL    HW225554   0.671   2.138   0.156
 8219SOL     OW25555   4.697   2.533   0.790
 8219SOL    HW125556   4.603   2.505   0.770
 8219SOL    HW225557   4.761   2.466   0.752
 8220SOL     OW25558   3.857   3.298   2.954
 8220SOL    HW125559   3.907   3.316   2.869
 8220SOL    HW225560   3.905   3.229   3.007
 8221SOL     OW25561   4.414   6.098   4.182
 8221SOL    HW125562   4.392   6.003   4.159
 8221SOL    HW225563   4.513   6.112   4.173
 8222SOL     OW25564   5.233   1.685   1.957
 8222SOL    HW125565   5.299   1.697   1.883
 8222SOL    HW225566   5.140   1.688   1.919
 8223SOL     OW25567   0.527   4.716   5.804
 8223SOL    HW125568   0.626   4.716   5.797
 8223SOL    HW225569   0.488   4.661   5.730
 8224SOL     OW25570   1.260   2.640   3.624
 8224SOL    HW125571   1.270   2.560   3.566
 8224SOL    HW225572   1.222   2.716   3.571
 8225SOL     OW25573   4.931   0.873   0.213
 8225SOL    HW125574   4.974   0.939   0.274
 8225SOL    HW225575   4.980   0.871   0.126
 8226SOL     OW25576   5.444   0.436   1.586
 8226SOL    HW125577   5.462   0.338   1.590
 8226SOL    HW225578   5.507   0.479   1.521
 8227SOL     OW25579   0.126   2.440   3.884
 8227SOL    HW125580   0.210   2.478   3.844
 8227SOL    HW225581   0.099   2.495   3.963
 8228SOL     OW25582   0.431   2.716   5.397
 8228SOL    HW125583   0.456   2.657   5.474
 8228SOL    HW225584   0.502   2.785   5.385
 8229SOL     OW25585   3.197   5.568   0.301
 8229SOL    HW125586   3.253   5.628   0.358
 8229SOL    HW225587   3.132   5.518   0.359
 8230SOL     OW25588   5.315   0.241   5.845
 8230SOL    HW125589   5.382   0.298   5.797
 8230SOL    HW225590   5.272   0.178   5.780
 8231SOL     OW25591   4.716   5.906   1.663
 8231SOL    HW125592   4.797   5.939   1.711
 8231SOL    HW225593   4.675   5.831   1.714
 8232SOL     OW25594   4.366   1.452   0.321
 8232SOL    HW125595   4.449   1.478   0.271
 8232SOL    HW225596   4.353   1.515   0.398
 8233SOL     OW25597   0.604   5.579   6.259
 8233SOL    HW125598   0.546   5.594   6.179
 8233SOL    HW225599   0.699   5.568   6.231
 8234SOL     OW25600   2.722   2.825   6.937
 8234SOL    HW125601   2.734   2.765   7.016
 8234SOL    HW225602   2.637   2.877   6.947
 8235SOL     OW25603   2.604   3.246   0.613
 8235SOL    HW125604   2.510   3.257   0.582
 8235SOL    HW225605   2.628   3.321   0.675
 8236SOL     OW25606   6.996   3.716   6.754
 8236SOL    HW125607   6.912   3.691   6.707
 8236SOL    HW225608   0.021   3.786   6.702
 8237SOL     OW25609   4.835   5.826   5.115
 8237SOL    HW125610   4.918   5.781   5.149
 8237SOL    HW225611   4.860   5.897   5.049
 8238SOL     OW25612   1.355   4.131   0.363
 8238SOL    HW125613   1.432   4.069   0.379
 8238SOL    HW225614   1.269   4.081   0.371
 8239SOL     OW25615   6.217   1.992   5.932
 8239SOL    HW125616   6.160   2.059   5.979
 8239SOL    HW225617   6.161   1.939   5.868
 8240SOL     OW25618   3.594   3.696   2.565
 8240SOL    HW125619   3.501   3.709   2.596
 8240SOL    HW225620   3.645   3.642   2.633
 8241SOL     OW25621   2.847   6.743   0.527
 8241SOL    HW125622   2.898   6.811   0.475
 8241SOL    HW225623   2.749   6.758   0.514
 8242SOL     OW25624   0.734   4.254   5.430
 8242SOL    HW125625   0.822   4.299   5.444
 8242SOL    HW225626   0.661   4.313   5.465
 8243SOL     OW25627   0.771   3.239   6.137
 8243SOL    HW125628   0.835   3.265   6.064
 8243SOL    HW225629   0.693   3.190   6.097
 8244SOL     OW25630   0.747   6.798   3.761
 8244SOL    HW125631   0.744   6.898   3.763
 8244SOL    HW225632   0.842   6.768   3.748
 8245SOL     OW25633   4.393   1.613   2.223
 8245SOL    HW125634   4.456   1.602   2.300
 8245SOL    HW225635   4.417   1.696   2.172
 8246SOL     OW25636   6.750   4.382   5.770
 8246SOL    HW125637   6.790   4.453   5.829
 8246SOL    HW225638   6.655   4.368   5.795
 8247SOL     OW25639   1.159   1.625   1.131
 8247SOL    HW125640   1.258   1.639   1.130
 8247SOL    HW225641   1.130   1.583   1.045
 8248SOL     OW25642   6.235   4.839   3.653
 8248SOL    HW125643   6.170   4.893   3.707
 8248SOL    HW225644   6.327   4.850   3.690
 8249SOL     OW25645   1.985   4.128   4.801
 8249SOL    HW125646   1.917   4.105   4.731
 8249SOL    HW225647   2.004   4.047   4.856
 8250SOL     OW25648   3.414   3.982   2.966
 8250SOL    HW125649   3.454   4.026   2.886
 8250SOL    HW225650   3.314   3.990   2.963
 8251SOL     OW25651   5.430   2.393   5.020
 8251SOL    HW125652   5.441   2.408   4.922
 8251SOL    HW225653   5.497   2.326   5.051
 8252SOL     OW25654   3.174   3.568   6.422
 8252SOL    HW125655   3.223   3.645   6.465
 8252SOL    HW225656   3.094   3.545   6.477
 8253SOL     OW25657   3.759   3.147   5.401
 8253SOL    HW125658   3.753   3.071   5.336
 8253SOL    HW225659   3.827   3.213   5.369
 8254SOL     OW25660   4.076   4.765   4.599
 8254SOL    HW125661   4.121   4.804   4.680
 8254SOL    HW225662   4.083   4.666   4.602
 8255SOL     OW25663   3.530   6.283   4.510
 8255SOL    HW125664   3.587   6.354   4.550
 8255SOL    HW225665   3.556   6.194   4.548
 8256SOL     OW25666   6.312   0.133   3.397
 8256SOL    HW125667   6.282   0.040   3.413
 8256SOL    HW225668   6.322   0.148   3.298
 8257SOL     OW25669   6.315   4.764   3.153
 8257SOL    HW125670   6.377   4.813   3.092
 8257SOL    HW225671   6.367   4.699   3.209
 8258SOL     OW25672   4.632   1.735   0.686
 8258SOL    HW125673   4.628   1.734   0.586
 8258SOL    HW225674   4.715   1.782   0.715
 8259SOL     OW25675   4.429   1.520   3.816
 8259SOL    HW125676   4.351   1.581   3.827
 8259SOL    HW225677   4.449   1.509   3.718
 8260SOL     OW25678   2.526   0.177   1.594
 8260SOL    HW125679   2.571   0.098   1.553
 8260SOL    HW225680   2.594   0.235   1.639
 8261SOL     OW25681   5.713   1.032   1.634
 8261SOL    HW125682   5.716   0.969   1.712
 8261SOL    HW225683   5.805   1.067   1.614
 8262SOL     OW25684   0.677   2.310   1.184
 8262SOL    HW125685   0.672   2.400   1.227
 8262SOL    HW225686   0.647   2.317   1.088
 8263SOL     OW25687   0.434   2.384   0.651
 8263SOL    HW125688   0.400   2.339   0.734
 8263SOL    HW225689   0.356   2.422   0.600
 8264SOL     OW25690   1.222   5.700   2.205
 8264SOL    HW125691   1.254   5.698   2.300
 8264SOL    HW225692   1.260   5.623   2.155
 8265SOL     OW25693   1.619   6.991   1.526
 8265SOL    HW125694   1.650   6.904   1.564
 8265SOL    HW225695   1.627   0.040   1.595
 8266SOL     OW25696   2.134   0.060   2.927
 8266SOL    HW125697   2.218   0.054   2.874
 8266SOL    HW225698   2.116   0.156   2.949
 8267SOL     OW25699   2.217   3.467   1.195
 8267SOL    HW125700   2.260   3.465   1.105
 8267SOL    HW225701   2.240   3.383   1.244
 8268SOL     OW25702   2.070   6.404   6.479
 8268SOL    HW125703   2.032   6.327   6.531
 8268SOL    HW225704   2.059   6.386   6.381
 8269SOL     OW25705   5.804   1.499   1.223
 8269SOL    HW125706   5.898   1.534   1.228
 8269SOL    HW225707   5.776   1.493   1.127
 8270SOL     OW25708   2.599   6.931   4.772
 8270SOL    HW125709   2.535   6.859   4.798
 8270SOL    HW225710   2.600   6.942   4.673
 8271SOL     OW25711   6.799   0.532   2.331
 8271SOL    HW125712   6.894   0.524   2.299
 8271SOL    HW225713   6.739   0.542   2.252
 8272SOL     OW25714   5.180   0.686   1.497
 8272SOL    HW125715   5.155   0.669   1.593
 8272SOL    HW225716   5.277   0.708   1.491
 8273SOL     OW25717   1.581   6.056   0.933
 8273SOL    HW125718   1.679   6.062   0.914
 8273SOL    HW225719   1.560   6.104   1.018
 8274SOL     OW25720   4.740   4.886   3.579
 8274SOL    HW125721   4.645   4.891   3.550
 8274SOL    HW225722   4.776   4.794   3.563
 8275SOL     OW25723   4.394   1.668   6.279
 8275SOL    HW125724   4.367   1.595   6.342
 8275SOL    HW225725   4.486   1.649   6.244
 8276SOL     OW25726   1.175   2.162   4.048
 8276SOL    HW125727   1.212   2.076   4.012
 8276SOL    HW225728   1.237   2.198   4.117
 8277SOL     OW25729   0.473   0.531   6.630
 8277SOL    HW125730   0.484   0.460   6.561
 8277SOL    HW225731   0.536   0.606   6.611
 8278SOL     OW25732   2.396   2.256   6.828
 8278SOL    HW125733   2.433   2.165   6.848
 8278SOL    HW225734   2.402   2.273   6.730
 8279SOL     OW25735   1.055   0.078   4.422
 8279SOL    HW125736   0.960   0.058   4.399
 8279SOL    HW225737   1.086   0.159   4.373
 8280SOL     OW25738   2.730   3.500   0.119
 8280SOL    HW125739   2.681   3.418   0.149
 8280SOL    HW225740   2.758   3.488   0.023
 8281SOL     OW25741   1.212   5.790   1.474
 8281SOL    HW125742   1.192   5.834   1.562
 8281SOL    HW225743   1.297   5.828   1.437
 8282SOL     OW25744   5.795   3.418   6.277
 8282SOL    HW125745   5.825   3.426   6.372
 8282SOL    HW225746   5.792   3.509   6.235
 8283SOL     OW25747   1.128   4.706   6.567
 8283SOL    HW125748   1.197   4.761   6.522
 8283SOL    HW225749   1.041   4.714   6.518
 8284SOL     OW25750   0.777   3.735   1.666
 8284SOL    HW125751   0.766   3.812   1.603
 8284SOL    HW225752   0.855   3.752   1.727
 8285SOL     OW25753   3.908   3.371   5.311
 8285SOL    HW125754   3.987   3.342   5.365
 8285SOL    HW225755   3.929   3.363   5.214
 8286SOL     OW25756   5.635   3.105   6.387
 8286SOL    HW125757   5.727   3.080   6.416
 8286SOL    HW225758   5.638   3.142   6.294
 8287SOL     OW25759   1.463   5.391   4.580
 8287SOL    HW125760   1.515   5.320   4.628
 8287SOL    HW225761   1.526   5.455   4.537
 8288SOL     OW25762   2.924   2.248   2.685
 8288SOL    HW125763   2.886   2.320   2.627
 8288SOL    HW225764   2.972   2.182   2.628
 8289SOL     OW25765   0.467   0.245   1.474
 8289SOL    HW125766   0.468   0.241   1.574
 8289SOL    HW225767   0.421   0.329   1.445
 8290SOL     OW25768   6.322   1.271   6.748
 8290SOL    HW125769   6.344   1.306   6.839
 8290SOL    HW225770   6.380   1.317   6.681
 8291SOL     OW25771   5.072   6.838   0.007
 8291SOL    HW125772   5.095   6.887   0.090
 8291SOL    HW225773   5.067   6.740   0.026
 8292SOL     OW25774   2.539   6.626   6.988
 8292SOL    HW125775   2.598   6.640   6.908
 8292SOL    HW225776   2.590   6.644   0.049
 8293SOL     OW25777   3.749   6.900   0.250
 8293SOL    HW125778   3.791   6.889   0.340
 8293SOL    HW225779   3.654   6.867   0.253
 8294SOL     OW25780   5.558   3.940   5.160
 8294SOL    HW125781   5.458   3.946   5.162
 8294SOL    HW225782   5.596   4.026   5.125
 8295SOL     OW25783   5.099   5.317   1.806
 8295SOL    HW125784   5.012   5.269   1.814
 8295SOL    HW225785   5.174   5.250   1.801
 8296SOL     OW25786   1.741   6.794   5.995
 8296SOL    HW125787   1.781   6.827   6.080
 8296SOL    HW225788   1.664   6.733   6.016
 8297SOL     OW25789   6.226   2.532   2.843
 8297SOL    HW125790   6.195   2.508   2.751
 8297SOL    HW225791   6.325   2.520   2.849
 8298SOL     OW25792   5.713   1.491   1.477
 8298SOL    HW125793   5.618   1.461   1.490
 8298SOL    HW225794   5.732   1.497   1.379
 8299SOL     OW25795   6.796   2.709   2.143
 8299SOL    HW125796   6.791   2.647   2.222
 8299SOL    HW225797   6.714   2.766   2.140
 8300SOL     OW25798   0.997   5.583   5.938
 8300SOL    HW125799   0.962   5.503   5.889
 8300SOL    HW225800   1.097   5.580   5.939
 8301SOL     OW25801   3.889   1.190   1.175
 8301SOL    HW125802   3.908   1.093   1.191
 8301SOL    HW225803   3.965   1.232   1.127
 8302SOL     OW25804   6.306   5.829   5.646
 8302SOL    HW125805   6.235   5.767   5.679
 8302SOL    HW225806   6.338   5.798   5.556
 8303SOL     OW25807   6.768   0.405   4.033
 8303SOL    HW125808   6.682   0.456   4.034
 8303SOL    HW225809   6.789   0.372   4.124
 8304SOL     OW25810   1.560   3.724   6.670
 8304SOL    HW125811   1.527   3.781   6.595
 8304SOL    HW225812   1.551   3.774   6.756
 8305SOL     OW25813   3.200   4.909   4.321
 8305SOL    HW125814   3.288   4.953   4.339
 8305SOL    HW225815   3.173   4.926   4.226
 8306SOL     OW25816   0.147   3.124   5.030
 8306SOL    HW125817   0.131   3.035   4.987
 8306SOL    HW225818   0.245   3.144   5.027
 8307SOL     OW25819   4.319   5.268   1.789
 8307SOL    HW125820   4.371   5.301   1.868
 8307SOL    HW225821   4.380   5.221   1.726
 8308SOL     OW25822   4.634   6.275   1.304
 8308SOL    HW125823   4.602   6.369   1.318
 8308SOL    HW225824   4.557   6.218   1.274
 8309SOL     OW25825   5.766   5.446   3.486
 8309SOL    HW125826   5.828   5.437   3.564
 8309SOL    HW225827   5.682   5.393   3.504
 8310SOL     OW25828   1.241   4.497   1.104
 8310SOL    HW125829   1.213   4.408   1.069
 8310SOL    HW225830   1.224   4.568   1.035
 8311SOL     OW25831   0.475   1.176   5.588
 8311SOL    HW125832   0.526   1.200   5.505
 8311SOL    HW225833   0.463   1.258   5.644
 8312SOL     OW25834   4.457   6.031   1.713
 8312SOL    HW125835   4.448   5.960   1.783
 8312SOL    HW225836   4.551   6.031   1.679
 8313SOL     OW25837   3.988   1.165   2.542
 8313SOL    HW125838   4.074   1.216   2.539
 8313SOL    HW225839   4.006   1.067   2.536
 8314SOL     OW25840   5.049   6.449   0.621
 8314SOL    HW125841   5.094   6.537   0.640
 8314SOL    HW225842   5.039   6.397   0.706
 8315SOL     OW25843   3.919   3.219   0.656
 8315SOL    HW125844   3.963   3.136   0.623
 8315SOL    HW225845   3.913   3.217   0.756
 8316SOL     OW25846   0.469   2.918   1.514
 8316SOL    HW125847   0.531   2.907   1.436
 8316SOL    HW225848   0.445   2.828   1.550
 8317SOL     OW25849   2.105   2.987   2.132
 8317SOL    HW125850   2.118   2.955   2.038
 8317SOL    HW225851   2.101   3.087   2.133
 8318SOL     OW25852   4.646   1.535   4.467
 8318SOL    HW125853   4.699   1.482   4.401
 8318SOL    HW225854   4.646   1.631   4.439
 8319SOL     OW25855   2.613   1.832   6.012
 8319SOL    HW125856   2.635   1.893   6.087
 8319SOL    HW225857   2.683   1.839   5.940
 8320SOL     OW25858   3.515   4.816   1.455
 8320SOL    HW125859   3.453   4.802   1.532
 8320SOL    HW225860   3.463   4.817   1.369
 8321SOL     OW25861   0.560   1.041   6.473
 8321SOL    HW125862   0.532   1.104   6.401
 8321SOL    HW225863   0.644   0.995   6.446
 8322SOL     OW25864   0.476   0.159   0.345
 8322SOL    HW125865   0.518   0.183   0.433
 8322SOL    HW225866   0.524   0.207   0.272
 8323SOL     OW25867   0.133   6.955   2.507
 8323SOL    HW125868   0.140   6.968   2.606
 8323SOL    HW225869   0.186   0.003   2.460
 8324SOL     OW25870   6.516   0.355   2.336
 8324SOL    HW125871   6.474   0.406   2.261
 8324SOL    HW225872   6.530   0.416   2.414
 8325SOL     OW25873   3.577   3.226   4.544
 8325SOL    HW125874   3.658   3.273   4.580
 8325SOL    HW225875   3.524   3.290   4.488
 8326SOL     OW25876   4.588   3.192   5.411
 8326SOL    HW125877   4.582   3.287   5.379
 8326SOL    HW225878   4.495   3.156   5.423
 8327SOL     OW25879   5.346   2.033   6.018
 8327SOL    HW125880   5.358   1.951   5.964
 8327SOL    HW225881   5.366   2.013   6.114
 8328SOL     OW25882   2.458   4.102   5.848
 8328SOL    HW125883   2.391   4.144   5.909
 8328SOL    HW225884   2.415   4.083   5.759
 8329SOL     OW25885   0.515   3.497   5.984
 8329SOL    HW125886   0.589   3.502   6.051
 8329SOL    HW225887   0.428   3.486   6.032
 8330SOL     OW25888   1.866   0.196   0.105
 8330SOL    HW125889   1.859   0.242   0.017
 8330SOL    HW225890   1.936   0.240   0.161
 8331SOL     OW25891   3.093   7.019   0.642
 8331SOL    HW125892   3.113   0.082   0.689
 8331SOL    HW225893   3.177   6.982   0.602
 8332SOL     OW25894   4.671   4.851   2.875
 8332SOL    HW125895   4.725   4.859   2.791
 8332SOL    HW225896   4.705   4.774   2.929
 8333SOL     OW25897   0.375   6.184   0.311
 8333SOL    HW125898   0.305   6.122   0.345
 8333SOL    HW225899   0.359   6.276   0.349
 8334SOL     OW25900   5.939   1.529   3.721
 8334SOL    HW125901   5.916   1.497   3.813
 8334SOL    HW225902   6.010   1.471   3.681
 8335SOL     OW25903   6.715   5.275   5.579
 8335SOL    HW125904   6.755   5.364   5.601
 8335SOL    HW225905   6.686   5.274   5.483
 8336SOL     OW25906   0.195   0.889   1.725
 8336SOL    HW125907   0.160   0.959   1.664
 8336SOL    HW225908   0.293   0.877   1.711
 8337SOL     OW25909   1.167   6.676   3.466
 8337SOL    HW125910   1.246   6.625   3.502
 8337SOL    HW225911   1.183   6.699   3.370
 8338SOL     OW25912   2.067   4.403   2.060
 8338SOL    HW125913   2.152   4.350   2.058
 8338SOL    HW225914   2.060   4.457   1.976
 8339SOL     OW25915   5.856   1.258   1.578
 8339SOL    HW125916   5.920   1.274   1.653
 8339SOL    HW225917   5.826   1.346   1.541
 8340SOL     OW25918   5.205   3.951   0.984
 8340SOL    HW125919   5.138   3.923   0.915
 8340SOL    HW225920   5.295   3.960   0.941
 8341SOL     OW25921   2.394   6.253   0.318
 8341SOL    HW125922   2.333   6.174   0.314
 8341SOL    HW225923   2.441   6.254   0.406
 8342SOL     OW25924   3.358   6.862   1.375
 8342SOL    HW125925   3.456   6.874   1.357
 8342SOL    HW225926   3.324   6.942   1.425
 8343SOL     OW25927   1.550   4.929   6.300
 8343SOL    HW125928   1.644   4.907   6.327
 8343SOL    HW225929   1.543   4.927   6.201
 8344SOL     OW25930   4.896   6.743   5.560
 8344SOL    HW125931   4.816   6.742   5.501
 8344SOL    HW225932   4.921   6.650   5.585
 8345SOL     OW25933   5.306   1.957   3.384
 8345SOL    HW125934   5.370   2.012   3.438
 8345SOL    HW225935   5.283   2.006   3.300
 8346SOL     OW25936   2.583   4.654   0.110
 8346SOL    HW125937   2.502   4.602   0.137
 8346SOL    HW225938   2.665   4.609   0.146
 8347SOL     OW25939   2.812   6.635   5.127
 8347SOL    HW125940   2.911   6.646   5.138
 8347SOL    HW225941   2.774   6.593   5.209
 8348SOL     OW25942   1.781   0.225   1.376
 8348SOL    HW125943   1.702   0.285   1.365
 8348SOL    HW225944   1.753   0.130   1.365
 8349SOL     OW25945   5.880   4.804   1.135
 8349SOL    HW125946   5.906   4.712   1.164
 8349SOL    HW225947   5.817   4.844   1.202
 8350SOL     OW25948   4.977   0.844   4.634
 8350SOL    HW125949   4.985   0.901   4.716
 8350SOL    HW225950   4.952   0.751   4.660
 8351SOL     OW25951   3.824   5.099   5.017
 8351SOL    HW125952   3.738   5.054   4.995
 8351SOL    HW225953   3.836   5.179   4.958
 8352SOL     OW25954   6.749   0.163   2.034
 8352SOL    HW125955   6.820   0.226   2.004
 8352SOL    HW225956   6.661   0.210   2.036
 8353SOL     OW25957   5.674   3.907   2.129
 8353SOL    HW125958   5.586   3.906   2.081
 8353SOL    HW225959   5.676   3.834   2.197
 8354SOL     OW25960   3.644   0.930   6.884
 8354SOL    HW125961   3.591   0.987   6.946
 8354SOL    HW225962   3.700   0.988   6.825
 8355SOL     OW25963   3.170   0.664   6.590
 8355SOL    HW125964   3.072   0.659   6.570
 8355SOL    HW225965   3.206   0.572   6.605
 8356SOL     OW25966   1.272   6.544   0.681
 8356SOL    HW125967   1.223   6.461   0.708
 8356SOL    HW225968   1.211   6.623   0.686
 8357SOL     OW25969   3.759   5.847   5.873
 8357SOL    HW125970   3.778   5.874   5.967
 8357SOL    HW225971   3.821   5.773   5.846
 8358SOL     OW25972   2.158   2.777   5.294
 8358SOL    HW125973   2.061   2.769   5.274
 8358SOL    HW225974   2.198   2.685   5.304
 8359SOL     OW25975   3.652   6.339   4.257
 8359SOL    HW125976   3.658   6.240   4.268
 8359SOL    HW225977   3.590   6.377   4.327
 8360SOL     OW25978   3.507   6.877   2.383
 8360SOL    HW125979   3.477   6.902   2.291
 8360SOL    HW225980   3.444   6.916   2.450
 8361SOL     OW25981   1.373   1.159   1.960
 8361SOL    HW125982   1.369   1.218   1.879
 8361SOL    HW225983   1.466   1.123   1.970
 8362SOL     OW25984   2.855   2.228   0.371
 8362SOL    HW125985   2.826   2.295   0.302
 8362SOL    HW225986   2.776   2.200   0.426
 8363SOL     OW25987   0.861   2.579   0.244
 8363SOL    HW125988   0.927   2.531   0.302
 8363SOL    HW225989   0.808   2.644   0.300
 8364SOL     OW25990   0.237   3.349   3.311
 8364SOL    HW125991   0.232   3.406   3.229
 8364SOL    HW225992   0.292   3.395   3.381
 8365SOL     OW25993   1.411   4.031   1.651
 8365SOL    HW125994   1.509   4.016   1.643
 8365SOL    HW225995   1.377   4.075   1.568
 8366SOL     OW25996   4.170   6.214   2.468
 8366SOL    HW125997   4.105   6.248   2.401
 8366SOL    HW225998   4.147   6.120   2.493
 8367SOL     OW25999   4.109   5.909   4.476
 8367SOL    HW126000   4.135   5.826   4.527
 8367SOL    HW226001   4.012   5.906   4.455
 8368SOL     OW26002   3.259   6.307   5.905
 8368SOL    HW126003   3.165   6.273   5.898
 8368SOL    HW226004   3.320   6.243   5.858
 8369SOL     OW26005   1.743   1.471   6.557
 8369SOL    HW126006   1.705   1.380   6.572
 8369SOL    HW226007   1.692   1.517   6.484
 8370SOL     OW26008   2.943   2.192   5.990
 8370SOL    HW126009   2.914   2.192   6.086
 8370SOL    HW226010   2.882   2.250   5.937
 8371SOL     OW26011   1.610   4.116   0.961
 8371SOL    HW126012   1.623   4.023   0.927
 8371SOL    HW226013   1.551   4.167   0.899
 8372SOL     OW26014   1.330   6.228   2.648
 8372SOL    HW126015   1.270   6.258   2.722
 8372SOL    HW226016   1.277   6.223   2.563
 8373SOL     OW26017   0.782   0.244   5.036
 8373SOL    HW126018   0.778   0.186   5.118
 8373SOL    HW226019   0.728   0.202   4.963
 8374SOL     OW26020   7.003   0.838   6.647
 8374SOL    HW126021   0.009   0.861   6.554
 8374SOL    HW226022   0.058   0.846   6.709
 8375SOL     OW26023   3.446   5.590   5.957
 8375SOL    HW126024   3.508   5.606   6.034
 8375SOL    HW226025   3.370   5.533   5.987
 8376SOL     OW26026   2.487   0.512   4.593
 8376SOL    HW126027   2.548   0.449   4.545
 8376SOL    HW226028   2.428   0.559   4.528
 8377SOL     OW26029   5.720   5.511   1.992
 8377SOL    HW126030   5.690   5.571   2.067
 8377SOL    HW226031   5.791   5.558   1.939
 8378SOL     OW26032   4.670   4.420   3.417
 8378SOL    HW126033   4.623   4.336   3.390
 8378SOL    HW226034   4.693   4.416   3.514
 8379SOL     OW26035   6.694   3.059   1.254
 8379SOL    HW126036   6.744   3.139   1.287
 8379SOL    HW226037   6.609   3.050   1.306
 8380SOL     OW26038   6.250   0.830   2.146
 8380SOL    HW126039   6.286   0.782   2.225
 8380SOL    HW226040   6.281   0.786   2.062
 8381SOL     OW26041   0.706   4.683   4.675
 8381SOL    HW126042   0.765   4.628   4.734
 8381SOL    HW226043   0.713   4.651   4.581
 8382SOL     OW26044   1.305   1.576   1.959
 8382SOL    HW126045   1.230   1.551   1.898
 8382SOL    HW226046   1.391   1.574   1.908
 8383SOL     OW26047   2.574   2.035   6.467
 8383SOL    HW126048   2.556   2.015   6.371
 8383SOL    HW226049   2.512   2.108   6.498
 8384SOL     OW26050   0.368   6.972   0.947
 8384SOL    HW126051   0.448   6.931   0.905
 8384SOL    HW226052   0.376   0.049   0.944
 8385SOL     OW26053   6.009   2.775   1.831
 8385SOL    HW126054   6.027   2.702   1.765
 8385SOL    HW226055   6.040   2.747   1.922
 8386SOL     OW26056   0.824   4.065   2.416
 8386SOL    HW126057   0.767   4.073   2.334
 8386SOL    HW226058   0.882   3.984   2.408
 8387SOL     OW26059   1.217   1.484   1.380
 8387SOL    HW126060   1.186   1.528   1.295
 8387SOL    HW226061   1.138   1.451   1.432
 8388SOL     OW26062   2.186   6.267   1.950
 8388SOL    HW126063   2.228   6.287   2.038
 8388SOL    HW226064   2.191   6.348   1.891
 8389SOL     OW26065   5.222   3.668   2.233
 8389SOL    HW126066   5.139   3.693   2.282
 8389SOL    HW226067   5.203   3.591   2.171
 8390SOL     OW26068   3.584   1.635   6.230
 8390SOL    HW126069   3.627   1.694   6.162
 8390SOL    HW226070   3.545   1.555   6.184
 8391SOL     OW26071   5.759   6.479   0.643
 8391SOL    HW126072   5.763   6.536   0.726
 8391SOL    HW226073   5.837   6.417   0.642
 8392SOL     OW26074   6.282   3.756   3.683
 8392SOL    HW126075   6.227   3.672   3.677
 8392SOL    HW226076   6.231   3.832   3.643
 8393SOL     OW26077   5.471   0.564   2.497
 8393SOL    HW126078   5.381   0.576   2.539
 8393SOL    HW226079   5.517   0.653   2.491
 8394SOL     OW26080   5.961   3.613   1.621
 8394SOL    HW126081   5.976   3.670   1.540
 8394SOL    HW226082   6.048   3.601   1.669
 8395SOL     OW26083   2.661   0.079   5.679
 8395SOL    HW126084   2.655   7.003   5.665
 8395SOL    HW226085   2.654   0.100   5.777
 8396SOL     OW26086   4.195   4.770   3.590
 8396SOL    HW126087   4.227   4.761   3.684
 8396SOL    HW226088   4.099   4.797   3.590
 8397SOL     OW26089   0.742   1.496   3.681
 8397SOL    HW126090   0.820   1.463   3.628
 8397SOL    HW226091   0.757   1.591   3.707
 8398SOL     OW26092   5.076   1.636   6.794
 8398SOL    HW126093   5.171   1.642   6.765
 8398SOL    HW226094   5.018   1.687   6.732
 8399SOL     OW26095   6.722   6.393   6.780
 8399SOL    HW126096   6.699   6.360   6.872
 8399SOL    HW226097   6.780   6.474   6.787
 8400SOL     OW26098   1.578   2.457   4.349
 8400SOL    HW126099   1.515   2.414   4.414
 8400SOL    HW226100   1.537   2.541   4.314
 8401SOL     OW26101   1.902   0.932   5.401
 8401SOL    HW126102   1.918   0.842   5.361
 8401SOL    HW226103   1.975   0.995   5.373
 8402SOL     OW26104   5.023   1.289   6.524
 8402SOL    HW126105   4.940   1.317   6.477
 8402SOL    HW226106   5.015   1.194   6.553
 8403SOL     OW26107   0.006   4.056   4.004
 8403SOL    HW126108   0.026   4.036   4.099
 8403SOL    HW226109   6.951   4.119   3.998
 8404SOL     OW26110   3.381   1.028   5.951
 8404SOL    HW126111   3.302   1.057   5.897
 8404SOL    HW226112   3.375   0.929   5.966
 8405SOL     OW26113   4.214   1.787   6.097
 8405SOL    HW126114   4.266   1.736   6.166
 8405SOL    HW226115   4.211   1.735   6.012
 8406SOL     OW26116   4.954   0.367   0.649
 8406SOL    HW126117   4.929   0.461   0.674
 8406SOL    HW226118   5.036   0.340   0.700
 8407SOL     OW26119   4.605   5.979   3.765
 8407SOL    HW126120   4.630   6.056   3.824
 8407SOL    HW226121   4.595   6.010   3.671
 8408SOL     OW26122   5.295   6.137   0.385
 8408SOL    HW126123   5.370   6.123   0.320
 8408SOL    HW226124   5.211   6.100   0.347
 8409SOL     OW26125   4.591   2.527   1.896
 8409SOL    HW126126   4.616   2.501   1.989
 8409SOL    HW226127   4.666   2.504   1.833
 8410SOL     OW26128   6.207   1.524   1.638
 8410SOL    HW126129   6.251   1.572   1.714
 8410SOL    HW226130   6.111   1.550   1.634
 8411SOL     OW26131   0.081   6.530   1.344
 8411SOL    HW126132   0.097   6.614   1.293
 8411SOL    HW226133   7.010   6.529   1.378
 8412SOL     OW26134   3.812   2.747   1.059
 8412SOL    HW126135   3.809   2.719   1.155
 8412SOL    HW226136   3.766   2.835   1.048
 8413SOL     OW26137   4.160   5.982   6.408
 8413SOL    HW126138   4.199   5.896   6.441
 8413SOL    HW226139   4.174   5.989   6.309
 8414SOL     OW26140   2.324   1.648   2.477
 8414SOL    HW126141   2.328   1.553   2.445
 8414SOL    HW226142   2.371   1.655   2.566
 8415SOL     OW26143   2.996   0.028   3.984
 8415SOL    HW126144   3.051   7.004   3.915
 8415SOL    HW226145   2.936   0.095   3.939
 8416SOL     OW26146   5.873   1.745   4.849
 8416SOL    HW126147   5.959   1.725   4.802
 8416SOL    HW226148   5.876   1.838   4.886
 8417SOL     OW26149   2.024   3.148   5.591
 8417SOL    HW126150   2.103   3.157   5.531
 8417SOL    HW226151   1.978   3.060   5.573
 8418SOL     OW26152   0.843   5.685   2.663
 8418SOL    HW126153   0.828   5.603   2.719
 8418SOL    HW226154   0.941   5.695   2.645
 8419SOL     OW26155   6.127   1.280   3.316
 8419SOL    HW126156   6.216   1.261   3.357
 8419SOL    HW226157   6.080   1.194   3.296
 8420SOL     OW26158   3.219   6.837   2.055
 8420SOL    HW126159   3.187   6.843   2.150
 8420SOL    HW226160   3.319   6.838   2.053
 8421SOL     OW26161   2.865   6.361   6.687
 8421SOL    HW126162   2.800   6.304   6.736
 8421SOL    HW226163   2.927   6.405   6.752
 8422SOL     OW26164   4.716   2.242   2.381
 8422SOL    HW126165   4.616   2.237   2.393
 8422SOL    HW226166   4.756   2.152   2.394
 8423SOL     OW26167   4.590   4.420   5.849
 8423SOL    HW126168   4.532   4.474   5.910
 8423SOL    HW226169   4.584   4.323   5.874
 8424SOL     OW26170   2.230   1.144   3.845
 8424SOL    HW126171   2.216   1.236   3.809
 8424SOL    HW226172   2.150   1.088   3.825
 8425SOL     OW26173   3.215   3.719   4.041
 8425SOL    HW126174   3.203   3.708   4.140
 8425SOL    HW226175   3.155   3.792   4.008
 8426SOL     OW26176   3.612   3.315   2.613
 8426SOL    HW126177   3.539   3.348   2.673
 8426SOL    HW226178   3.631   3.219   2.632
 8427SOL     OW26179   3.006   3.505   3.291
 8427SOL    HW126180   3.077   3.575   3.301
 8427SOL    HW226181   3.021   3.455   3.206
 8428SOL     OW26182   0.489   0.673   1.271
 8428SOL    HW126183   0.443   0.621   1.343
 8428SOL    HW226184   0.580   0.635   1.256
 8429SOL     OW26185   1.923   5.983   5.956
 8429SOL    HW126186   2.021   5.977   5.936
 8429SOL    HW226187   1.901   5.920   6.030
 8430SOL     OW26188   3.603   4.967   4.635
 8430SOL    HW126189   3.703   4.970   4.632
 8430SOL    HW226190   3.574   4.930   4.723
 8431SOL     OW26191   3.027   3.894   6.357
 8431SOL    HW126192   2.963   3.917   6.430
 8431SOL    HW226193   2.976   3.867   6.275
 8432SOL     OW26194   0.062   5.301   6.458
 8432SOL    HW126195   0.021   5.294   6.368
 8432SOL    HW226196   7.013   5.298   6.528
 8433SOL     OW26197   4.299   2.680   0.832
 8433SOL    HW126198   4.241   2.669   0.913
 8433SOL    HW226199   4.251   2.735   0.765
 8434SOL     OW26200   2.127   5.515   5.289
 8434SOL    HW126201   2.087   5.435   5.335
 8434SOL    HW226202   2.210   5.543   5.338
 8435SOL     OW26203   5.187   0.849   3.006
 8435SOL    HW126204   5.235   0.935   3.021
 8435SOL    HW226205   5.092   0.858   3.037
 8436SOL     OW26206   2.562   6.374   3.704
 8436SOL    HW126207   2.584   6.291   3.756
 8436SOL    HW226208   2.564   6.453   3.766
 8437SOL     OW26209   1.835   3.030   2.420
 8437SOL    HW126210   1.799   2.983   2.339
 8437SOL    HW226211   1.933   3.042   2.411
 8438SOL     OW26212   2.180   3.879   2.790
 8438SOL    HW126213   2.222   3.937   2.859
 8438SOL    HW226214   2.197   3.918   2.699
 8439SOL     OW26215   6.326   5.656   4.051
 8439SOL    HW126216   6.413   5.609   4.035
 8439SOL    HW226217   6.251   5.591   4.043
 8440SOL     OW26218   2.451   1.866   3.774
 8440SOL    HW126219   2.538   1.875   3.823
 8440SOL    HW226220   2.377   1.848   3.839
 8441SOL     OW26221   5.302   5.519   5.086
 8441SOL    HW126222   5.306   5.524   4.987
 8441SOL    HW226223   5.377   5.573   5.126
 8442SOL     OW26224   3.356   0.680   5.370
 8442SOL    HW126225   3.335   0.728   5.455
 8442SOL    HW226226   3.326   0.736   5.293
 8443SOL     OW26227   1.953   5.071   4.053
 8443SOL    HW126228   2.044   5.107   4.034
 8443SOL    HW226229   1.916   5.029   3.970
 8444SOL     OW26230   3.930   6.590   3.621
 8444SOL    HW126231   3.902   6.529   3.695
 8444SOL    HW226232   3.935   6.684   3.656
 8445SOL     OW26233   2.259   0.520   0.061
 8445SOL    HW126234   2.209   0.604   0.078
 8445SOL    HW226235   2.196   0.449   0.031
 8446SOL     OW26236   0.377   6.279   4.941
 8446SOL    HW126237   0.383   6.180   4.950
 8446SOL    HW226238   0.456   6.322   4.986
 8447SOL     OW26239   3.961   1.593   2.514
 8447SOL    HW126240   3.899   1.515   2.503
 8447SOL    HW226241   3.928   1.669   2.458
 8448SOL     OW26242   4.812   5.807   3.939
 8448SOL    HW126243   4.737   5.839   3.881
 8448SOL    HW226244   4.846   5.720   3.905
 8449SOL     OW26245   1.226   3.537   3.781
 8449SOL    HW126246   1.230   3.509   3.877
 8449SOL    HW226247   1.311   3.510   3.734
 8450SOL     OW26248   0.495   0.792   0.338
 8450SOL    HW126249   0.415   0.776   0.396
 8450SOL    HW226250   0.473   0.864   0.272
 8451SOL     OW26251   3.460   0.784   0.961
 8451SOL    HW126252   3.400   0.707   0.939
 8451SOL    HW226253   3.542   0.780   0.904
 8452SOL     OW26254   5.224   2.181   4.311
 8452SOL    HW126255   5.133   2.168   4.269
 8452SOL    HW226256   5.269   2.260   4.269
 8453SOL     OW26257   0.578   5.348   6.867
 8453SOL    HW126258   0.492   5.397   6.852
 8453SOL    HW226259   0.617   5.320   6.779
 8454SOL     OW26260   0.610   4.495   0.447
 8454SOL    HW126261   0.570   4.586   0.456
 8454SOL    HW226262   0.633   4.460   0.538
 8455SOL     OW26263   0.568   0.618   2.636
 8455SOL    HW126264   0.649   0.658   2.592
 8455SOL    HW226265   0.595   0.535   2.685
 8456SOL     OW26266   5.213   0.737   3.272
 8456SOL    HW126267   5.264   0.773   3.194
 8456SOL    HW226268   5.144   0.803   3.301
 8457SOL     OW26269   6.499   6.832   4.629
 8457SOL    HW126270   6.579   6.773   4.626
 8457SOL    HW226271   6.454   6.823   4.718
 8458SOL     OW26272   0.841   0.367   0.285
 8458SOL    HW126273   0.873   0.417   0.365
 8458SOL    HW226274   0.751   0.401   0.258
 8459SOL     OW26275   1.719   5.739   3.134
 8459SOL    HW126276   1.702   5.836   3.115
 8459SOL    HW226277   1.676   5.714   3.220
 8460SOL     OW26278   4.317   3.954   5.292
 8460SOL    HW126279   4.378   3.876   5.295
 8460SOL    HW226280   4.360   4.029   5.241
 8461SOL     OW26281   0.242   2.683   4.826
 8461SOL    HW126282   0.302   2.758   4.799
 8461SOL    HW226283   0.239   2.676   4.925
 8462SOL     OW26284   3.357   1.662   1.479
 8462SOL    HW126285   3.260   1.672   1.500
 8462SOL    HW226286   3.407   1.636   1.561
 8463SOL     OW26287   6.237   7.010   1.894
 8463SOL    HW126288   6.304   6.988   1.965
 8463SOL    HW226289   6.240   0.085   1.875
 8464SOL     OW26290   5.989   3.401   4.494
 8464SOL    HW126291   5.923   3.454   4.440
 8464SOL    HW226292   5.964   3.304   4.491
 8465SOL     OW26293   1.488   1.996   0.324
 8465SOL    HW126294   1.416   2.042   0.375
 8465SOL    HW226295   1.453   1.966   0.235
 8466SOL     OW26296   1.224   5.522   3.756
 8466SOL    HW126297   1.145   5.495   3.700
 8466SOL    HW226298   1.214   5.617   3.785
 8467SOL     OW26299   2.626   6.021   1.069
 8467SOL    HW126300   2.675   6.107   1.084
 8467SOL    HW226301   2.574   5.997   1.151
 8468SOL     OW26302   3.698   2.263   0.381
 8468SOL    HW126303   3.673   2.298   0.291
 8468SOL    HW226304   3.773   2.318   0.419
 8469SOL     OW26305   3.124   3.025   6.768
 8469SOL    HW126306   3.097   3.005   6.862
 8469SOL    HW226307   3.168   2.945   6.728
 8470SOL     OW26308   1.974   2.615   1.105
 8470SOL    HW126309   1.883   2.627   1.066
 8470SOL    HW226310   1.966   2.603   1.204
 8471SOL     OW26311   2.789   0.638   3.916
 8471SOL    HW126312   2.878   0.607   3.949
 8471SOL    HW226313   2.731   0.559   3.897
 8472SOL     OW26314   0.547   6.798   4.309
 8472SOL    HW126315   0.593   6.741   4.376
 8472SOL    HW226316   0.610   6.818   4.234
 8473SOL     OW26317   0.200   6.030   0.438
 8473SOL    HW126318   0.167   6.036   0.532
 8473SOL    HW226319   0.123   6.032   0.375
 8474SOL     OW26320   3.053   2.923   1.806
 8474SOL    HW126321   3.121   2.886   1.870
 8474SOL    HW226322   3.012   2.848   1.754
 8475SOL     OW26323   5.733   1.706   2.458
 8475SOL    HW126324   5.661   1.671   2.397
 8475SOL    HW226325   5.819   1.659   2.438
 8476SOL     OW26326   6.113   6.912   2.190
 8476SOL    HW126327   6.151   7.004   2.201
 8476SOL    HW226328   6.014   6.919   2.174
 8477SOL     OW26329   2.790   6.783   1.023
 8477SOL    HW126330   2.851   6.763   0.946
 8477SOL    HW226331   2.699   6.746   1.005
 8478SOL     OW26332   1.756   0.841   5.639
 8478SOL    HW126333   1.799   0.870   5.725
 8478SOL    HW226334   1.806   0.881   5.562
 8479SOL     OW26335   6.097   1.119   6.958
 8479SOL    HW126336   6.073   1.056   0.009
 8479SOL    HW226337   6.175   1.175   6.985
 8480SOL     OW26338   3.654   0.477   0.855
 8480SOL    HW126339   3.569   0.449   0.809
 8480SOL    HW226340   3.730   0.466   0.791
 8481SOL     OW26341   4.295   1.534   4.705
 8481SOL    HW126342   4.391   1.565   4.712
 8481SOL    HW226343   4.291   1.452   4.649
 8482SOL     OW26344   1.796   0.596   2.160
 8482SOL    HW126345   1.719   0.584   2.223
 8482SOL    HW226346   1.784   0.534   2.082
 8483SOL     OW26347   3.398   5.774   2.468
 8483SOL    HW126348   3.361   5.842   2.404
 8483SOL    HW226349   3.377   5.801   2.562
 8484SOL     OW26350   0.406   4.657   3.363
 8484SOL    HW126351   0.318   4.705   3.365
 8484SOL    HW226352   0.465   4.698   3.294
 8485SOL     OW26353   1.575   3.962   0.456
 8485SOL    HW126354   1.494   3.965   0.514
 8485SOL    HW226355   1.643   4.027   0.490
 8486SOL     OW26356   5.325   0.969   2.278
 8486SOL    HW126357   5.387   0.974   2.200
 8486SOL    HW226358   5.264   0.891   2.267
 8487SOL     OW26359   5.306   6.765   1.621
 8487SOL    HW126360   5.229   6.704   1.600
 8487SOL    HW226361   5.271   6.855   1.646
 8488SOL     OW26362   5.446   4.604   4.247
 8488SOL    HW126363   5.545   4.619   4.251
 8488SOL    HW226364   5.412   4.634   4.158
 8489SOL     OW26365   5.710   4.918   1.317
 8489SOL    HW126366   5.641   4.877   1.377
 8489SOL    HW226367   5.699   5.018   1.318
 8490SOL     OW26368   4.678   5.328   2.923
 8490SOL    HW126369   4.603   5.262   2.932
 8490SOL    HW226370   4.643   5.420   2.940
 8491SOL     OW26371   2.101   0.467   2.247
 8491SOL    HW126372   2.154   0.383   2.236
 8491SOL    HW226373   2.150   0.543   2.204
 8492SOL     OW26374   5.195   3.561   5.561
 8492SOL    HW126375   5.206   3.463   5.543
 8492SOL    HW226376   5.103   3.590   5.534
 8493SOL     OW26377   3.917   1.772   6.991
 8493SOL    HW126378   3.946   1.766   6.895
 8493SOL    HW226379   3.986   1.729   0.026
 8494SOL     OW26380   2.647   5.738   6.761
 8494SOL    HW126381   2.605   5.754   6.671
 8494SOL    HW226382   2.575   5.732   6.830
 8495SOL     OW26383   6.592   3.252   0.514
 8495SOL    HW126384   6.494   3.265   0.531
 8495SOL    HW226385   6.637   3.340   0.507
 8496SOL     OW26386   0.338   1.812   3.624
 8496SOL    HW126387   0.362   1.909   3.614
 8496SOL    HW226388   0.375   1.778   3.711
 8497SOL     OW26389   5.390   5.512   4.706
 8497SOL    HW126390   5.399   5.428   4.759
 8497SOL    HW226391   5.441   5.503   4.620
 8498SOL     OW26392   0.336   0.489   1.431
 8498SOL    HW126393   0.257   0.456   1.481
 8498SOL    HW226394   0.410   0.510   1.495
 8499SOL     OW26395   3.179   5.061   6.639
 8499SOL    HW126396   3.104   5.049   6.704
 8499SOL    HW226397   3.147   5.034   6.547
 8500SOL     OW26398   2.377   6.945   5.578
 8500SOL    HW126399   2.438   6.892   5.638
 8500SOL    HW226400   2.282   6.920   5.597
 8501SOL     OW26401   1.830   3.302   6.739
 8501SOL    HW126402   1.859   3.335   6.649
 8501SOL    HW226403   1.798   3.379   6.795
 8502SOL     OW26404   0.450   5.964   1.546
 8502SOL    HW126405   0.404   6.009   1.623
 8502SOL    HW226406   0.511   6.030   1.501
 8503SOL     OW26407   1.432   4.858   3.541
 8503SOL    HW126408   1.459   4.917   3.617
 8503SOL    HW226409   1.449   4.904   3.454
 8504SOL     OW26410   2.184   6.353   3.832
 8504SOL    HW126411   2.229   6.382   3.748
 8504SOL    HW226412   2.173   6.432   3.893
 8505SOL     OW26413   5.520   4.116   3.282
 8505SOL    HW126414   5.425   4.139   3.301
 8505SOL    HW226415   5.543   4.029   3.325
 8506SOL     OW26416   1.018   6.248   0.252
 8506SOL    HW126417   0.946   6.279   0.313
 8506SOL    HW226418   1.066   6.327   0.213
 8507SOL     OW26419   2.321   1.082   5.937
 8507SOL    HW126420   2.241   1.097   5.878
 8507SOL    HW226421   2.404   1.097   5.884
 8508SOL     OW26422   6.565   2.529   5.122
 8508SOL    HW126423   6.469   2.556   5.112
 8508SOL    HW226424   6.570   2.430   5.137
 8509SOL     OW26425   6.038   0.981   4.486
 8509SOL    HW126426   6.120   0.932   4.456
 8509SOL    HW226427   6.045   1.077   4.460
 8510SOL     OW26428   6.221   5.840   3.119
 8510SOL    HW126429   6.140   5.895   3.142
 8510SOL    HW226430   6.304   5.890   3.143
 8511SOL     OW26431   6.332   4.351   0.837
 8511SOL    HW126432   6.360   4.268   0.789
 8511SOL    HW226433   6.395   4.426   0.815
 8512SOL     OW26434   4.302   2.232   0.128
 8512SOL    HW126435   4.265   2.324   0.116
 8512SOL    HW226436   4.361   2.230   0.209
 8513SOL     OW26437   4.951   4.221   0.371
 8513SOL    HW126438   4.995   4.207   0.282
 8513SOL    HW226439   4.869   4.164   0.376
 8514SOL     OW26440   2.734   1.758   3.849
 8514SOL    HW126441   2.704   1.828   3.914
 8514SOL    HW226442   2.698   1.669   3.878
 8515SOL     OW26443   0.429   1.357   6.950
 8515SOL    HW126444   0.445   1.389   0.020
 8515SOL    HW226445   0.490   1.281   6.930
 8516SOL     OW26446   5.856   2.422   2.752
 8516SOL    HW126447   5.864   2.484   2.673
 8516SOL    HW226448   5.916   2.455   2.825
 8517SOL     OW26449   2.171   2.967   5.826
 8517SOL    HW126450   2.197   2.903   5.753
 8517SOL    HW226451   2.082   2.941   5.862
 8518SOL     OW26452   4.946   4.093   6.089
 8518SOL    HW126453   4.861   4.136   6.119
 8518SOL    HW226454   5.010   4.163   6.057
 8519SOL     OW26455   1.298   4.682   0.713
 8519SOL    HW126456   1.201   4.703   0.725
 8519SOL    HW226457   1.342   4.674   0.803
 8520SOL     OW26458   3.647   3.839   5.124
 8520SOL    HW126459   3.678   3.754   5.166
 8520SOL    HW226460   3.644   3.912   5.193
 8521SOL     OW26461   2.042   6.503   5.484
 8521SOL    HW126462   2.140   6.518   5.473
 8521SOL    HW226463   2.005   6.464   5.400
 8522SOL     OW26464   1.356   0.660   1.074
 8522SOL    HW126465   1.399   0.631   1.159
 8522SOL    HW226466   1.426   0.676   1.005
 8523SOL     OW26467   2.565   6.930   6.281
 8523SOL    HW126468   2.594   6.850   6.229
 8523SOL    HW226469   2.502   6.902   6.353
 8524SOL     OW26470   1.008   4.804   4.856
 8524SOL    HW126471   0.951   4.808   4.938
 8524SOL    HW226472   1.044   4.711   4.845
 8525SOL     OW26473   6.023   4.826   0.869
 8525SOL    HW126474   6.007   4.906   0.927
 8525SOL    HW226475   5.935   4.790   0.837
 8526SOL     OW26476   3.012   6.766   1.220
 8526SOL    HW126477   2.946   6.759   1.145
 8526SOL    HW226478   3.047   6.859   1.225
 8527SOL     OW26479   3.288   0.407   6.876
 8527SOL    HW126480   3.347   0.407   6.796
 8527SOL    HW226481   3.341   0.433   6.957
 8528SOL     OW26482   4.828   1.691   0.985
 8528SOL    HW126483   4.816   1.600   1.025
 8528SOL    HW226484   4.739   1.726   0.954
 8529SOL     OW26485   1.247   6.335   6.944
 8529SOL    HW126486   1.218   6.365   0.012
 8529SOL    HW226487   1.312   6.402   6.906
 8530SOL     OW26488   2.923   3.442   4.031
 8530SOL    HW126489   2.829   3.456   4.063
 8530SOL    HW226490   2.947   3.512   3.964
 8531SOL     OW26491   6.815   5.323   3.562
 8531SOL    HW126492   6.817   5.227   3.589
 8531SOL    HW226493   6.906   5.363   3.570
 8532SOL     OW26494   3.565   6.899   4.148
 8532SOL    HW126495   3.529   6.863   4.235
 8532SOL    HW226496   3.538   6.838   4.073
 8533SOL     OW26497   0.749   5.978   0.136
 8533SOL    HW126498   0.683   5.936   0.074
 8533SOL    HW226499   0.708   5.989   0.226
 8534SOL     OW26500   4.701   2.623   3.774
 8534SOL    HW126501   4.762   2.647   3.849
 8534SOL    HW226502   4.726   2.675   3.692
 8535SOL     OW26503   5.800   0.851   4.382
 8535SOL    HW126504   5.811   0.862   4.284
 8535SOL    HW226505   5.882   0.882   4.429
 8536SOL     OW26506   1.358   2.069   5.057
 8536SOL    HW126507   1.266   2.040   5.030
 8536SOL    HW226508   1.406   2.107   4.979
 8537SOL     OW26509   6.427   1.498   3.419
 8537SOL    HW126510   6.337   1.536   3.397
 8537SOL    HW226511   6.485   1.570   3.459
 8538SOL     OW26512   1.790   1.691   0.260
 8538SOL    HW126513   1.809   1.686   0.162
 8538SOL    HW226514   1.745   1.777   0.281
 8539SOL     OW26515   6.242   2.153   2.405
 8539SOL    HW126516   6.201   2.209   2.332
 8539SOL    HW226517   6.323   2.107   2.369
 8540SOL     OW26518   5.055   6.994   6.799
 8540SOL    HW126519   4.996   0.040   6.840
 8540SOL    HW226520   5.084   6.928   6.869
 8541SOL     OW26521   2.750   1.943   4.029
 8541SOL    HW126522   2.836   1.942   4.078
 8541SOL    HW226523   2.692   2.017   4.064
 8542SOL     OW26524   3.231   5.115   6.257
 8542SOL    HW126525   3.322   5.116   6.216
 8542SOL    HW226526   3.224   5.036   6.319
 8543SOL     OW26527   1.883   2.106   0.531
 8543SOL    HW126528   1.855   2.065   0.618
 8543SOL    HW226529   1.983   2.099   0.522
 8544SOL     OW26530   5.163   2.959   4.707
 8544SOL    HW126531   5.142   2.950   4.610
 8544SOL    HW226532   5.257   2.992   4.719
 8545SOL     OW26533   4.979   6.424   6.547
 8545SOL    HW126534   5.042   6.353   6.515
 8545SOL    HW226535   5.028   6.485   6.610
 8546SOL     OW26536   6.174   1.981   3.357
 8546SOL    HW126537   6.117   1.903   3.384
 8546SOL    HW226538   6.264   1.949   3.330
 8547SOL     OW26539   1.287   5.576   5.920
 8547SOL    HW126540   1.302   5.668   5.956
 8547SOL    HW226541   1.357   5.555   5.852
 8548SOL     OW26542   5.900   2.075   5.634
 8548SOL    HW126543   5.874   2.021   5.554
 8548SOL    HW226544   5.819   2.121   5.671
 8549SOL     OW26545   6.833   4.245   4.027
 8549SOL    HW126546   6.909   4.288   4.076
 8549SOL    HW226547   6.749   4.299   4.042
 8550SOL     OW26548   1.496   4.585   6.968
 8550SOL    HW126549   1.436   4.662   6.947
 8550SOL    HW226550   1.441   4.501   6.975
 8551SOL     OW26551   3.380   4.063   6.559
 8551SOL    HW126552   3.441   4.142   6.565
 8551SOL    HW226553   3.332   4.065   6.471
 8552SOL     OW26554   3.248   5.540   3.353
 8552SOL    HW126555   3.164   5.517   3.404
 8552SOL    HW226556   3.276   5.461   3.298
 8553SOL     OW26557   5.199   6.244   7.004
 8553SOL    HW126558   5.179   6.198   0.067
 8553SOL    HW226559   5.197   6.343   7.017
 8554SOL     OW26560   0.376   4.144   0.355
 8554SOL    HW126561   0.350   4.146   0.258
 8554SOL    HW226562   0.358   4.233   0.396
 8555SOL     OW26563   1.387   0.428   3.203
 8555SOL    HW126564   1.350   0.335   3.204
 8555SOL    HW226565   1.312   0.494   3.192
 8556SOL     OW26566   0.774   0.378   3.244
 8556SOL    HW126567   0.809   0.371   3.150
 8556SOL    HW226568   0.678   0.405   3.241
 8557SOL     OW26569   6.428   6.991   2.121
 8557SOL    HW126570   6.508   6.983   2.180
 8557SOL    HW226571   6.346   7.001   2.177
 8558SOL     OW26572   2.166   5.768   2.638
 8558SOL    HW126573   2.157   5.737   2.543
 8558SOL    HW226574   2.125   5.858   2.647
 8559SOL     OW26575   1.256   1.051   2.168
 8559SOL    HW126576   1.316   1.087   2.097
 8559SOL    HW226577   1.184   1.119   2.188
 8560SOL     OW26578   0.234   0.888   0.610
 8560SOL    HW126579   0.191   0.800   0.629
 8560SOL    HW226580   0.332   0.882   0.630
 8561SOL     OW26581   4.336   6.356   2.664
 8561SOL    HW126582   4.317   6.337   2.568
 8561SOL    HW226583   4.420   6.411   2.672
 8562SOL     OW26584   4.554   6.227   4.566
 8562SOL    HW126585   4.581   6.217   4.662
 8562SOL    HW226586   4.483   6.160   4.544
 8563SOL     OW26587   3.068   3.257   6.512
 8563SOL    HW126588   2.996   3.291   6.572
 8563SOL    HW226589   3.068   3.309   6.427
 8564SOL     OW26590   1.422   0.513   3.470
 8564SOL    HW126591   1.409   0.439   3.536
 8564SOL    HW226592   1.403   0.480   3.378
 8565SOL     OW26593   4.049   7.022   1.375
 8565SOL    HW126594   3.982   0.062   1.335
 8565SOL    HW226595   4.043   0.004   1.475
 8566SOL     OW26596   1.276   2.055   2.954
 8566SOL    HW126597   1.319   1.978   2.908
 8566SOL    HW226598   1.179   2.059   2.928
 8567SOL     OW26599   6.029   1.124   1.414
 8567SOL    HW126600   5.972   1.144   1.334
 8567SOL    HW226601   6.014   1.193   1.485
 8568SOL     OW26602   4.915   1.609   0.275
 8568SOL    HW126603   4.889   1.555   0.355
 8568SOL    HW226604   4.899   1.706   0.294
 8569SOL     OW26605   4.792   0.878   5.194
 8569SOL    HW126606   4.700   0.883   5.231
 8569SOL    HW226607   4.789   0.894   5.095
 8570SOL     OW26608   1.612   4.681   6.122
 8570SOL    HW126609   1.660   4.672   6.209
 8570SOL    HW226610   1.517   4.651   6.133
 8571SOL     OW26611   6.920   4.798   5.237
 8571SOL    HW126612   6.979   4.803   5.317
 8571SOL    HW226613   6.824   4.798   5.267
 8572SOL     OW26614   1.828   5.329   5.529
 8572SOL    HW126615   1.914   5.334   5.578
 8572SOL    HW226616   1.817   5.411   5.472
 8573SOL     OW26617   4.126   5.861   6.747
 8573SOL    HW126618   4.102   5.958   6.744
 8573SOL    HW226619   4.139   5.832   6.841
 8574SOL     OW26620   1.354   4.588   6.184
 8574SOL    HW126621   1.403   4.534   6.253
 8574SOL    HW226622   1.274   4.536   6.152
 8575SOL     OW26623   3.307   2.660   6.500
 8575SOL    HW126624   3.245   2.597   6.453
 8575SOL    HW226625   3.343   2.615   6.582
 8576SOL     OW26626   0.794   6.752   1.953
 8576SOL    HW126627   0.884   6.756   1.995
 8576SOL    HW226628   0.725   6.787   2.018
 8577SOL     OW26629   6.166   5.486   3.834
 8577SOL    HW126630   6.111   5.569   3.837
 8577SOL    HW226631   6.246   5.500   3.775
 8578SOL     OW26632   4.756   6.866   4.254
 8578SOL    HW126633   4.847   6.907   4.253
 8578SOL    HW226634   4.693   6.924   4.201
 8579SOL     OW26635   1.083   4.903   3.425
 8579SOL    HW126636   1.137   4.830   3.467
 8579SOL    HW226637   1.140   4.984   3.415
 8580SOL     OW26638   1.890   6.583   1.903
 8580SOL    HW126639   1.825   6.559   1.831
 8580SOL    HW226640   1.891   6.510   1.972
 8581SOL     OW26641   3.714   1.710   0.628
 8581SOL    HW126642   3.772   1.689   0.707
 8581SOL    HW226643   3.654   1.787   0.650
 8582SOL     OW26644   4.840   4.749   2.083
 8582SOL    HW126645   4.824   4.676   2.150
 8582SOL    HW226646   4.881   4.710   2.001
 8583SOL     OW26647   6.417   0.426   6.325
 8583SOL    HW126648   6.445   0.516   6.292
 8583SOL    HW226649   6.498   0.377   6.359
 8584SOL     OW26650   6.973   4.364   0.641
 8584SOL    HW126651   0.010   4.343   0.564
 8584SOL    HW226652   6.963   4.283   0.699
 8585SOL     OW26653   0.857   0.611   0.746
 8585SOL    HW126654   0.802   0.561   0.813
 8585SOL    HW226655   0.803   0.685   0.707
 8586SOL     OW26656   3.348   5.843   2.728
 8586SOL    HW126657   3.328   5.931   2.771
 8586SOL    HW226658   3.267   5.784   2.733
 8587SOL     OW26659   0.543   1.828   3.030
 8587SOL    HW126660   0.540   1.728   3.033
 8587SOL    HW226661   0.634   1.857   2.997
 8588SOL     OW26662   3.225   1.884   0.880
 8588SOL    HW126663   3.251   1.832   0.799
 8588SOL    HW226664   3.194   1.822   0.952
 8589SOL     OW26665   3.935   1.082   5.077
 8589SOL    HW126666   3.932   0.992   5.121
 8589SOL    HW226667   3.884   1.078   4.991
 8590SOL     OW26668   6.574   5.486   4.821
 8590SOL    HW126669   6.491   5.532   4.789
 8590SOL    HW226670   6.549   5.400   4.865
 8591SOL     OW26671   0.665   4.340   6.234
 8591SOL    HW126672   0.675   4.247   6.270
 8591SOL    HW226673   0.669   4.406   6.309
 8592SOL     OW26674   0.074   4.324   0.243
 8592SOL    HW126675   0.141   4.284   0.180
 8592SOL    HW226676   0.095   4.421   0.256
 8593SOL     OW26677   1.470   6.923   2.349
 8593SOL    HW126678   1.482   7.020   2.372
 8593SOL    HW226679   1.389   6.913   2.292
 8594SOL     OW26680   3.022   3.651   4.268
 8594SOL    HW126681   3.012   3.745   4.235
 8594SOL    HW226682   2.968   3.639   4.352
 8595SOL     OW26683   1.845   2.057   2.712
 8595SOL    HW126684   1.818   2.006   2.630
 8595SOL    HW226685   1.921   2.117   2.689
 8596SOL     OW26686   5.725   5.215   1.774
 8596SOL    HW126687   5.650   5.280   1.783
 8596SOL    HW226688   5.698   5.127   1.814
 8597SOL     OW26689   3.408   1.619   1.216
 8597SOL    HW126690   3.399   1.636   1.314
 8597SOL    HW226691   3.319   1.633   1.171
 8598SOL     OW26692   6.624   5.096   1.103
 8598SOL    HW126693   6.597   5.018   1.160
 8598SOL    HW226694   6.644   5.175   1.161
 8599SOL     OW26695   0.885   2.563   3.974
 8599SOL    HW126696   0.947   2.498   3.931
 8599SOL    HW226697   0.840   2.619   3.904
 8600SOL     OW26698   6.436   4.789   6.537
 8600SOL    HW126699   6.503   4.741   6.480
 8600SOL    HW226700   6.345   4.748   6.524
 8601SOL     OW26701   0.164   1.737   4.388
 8601SOL    HW126702   0.150   1.716   4.484
 8601SOL    HW226703   0.235   1.806   4.378
 8602SOL     OW26704   2.814   6.238   2.560
 8602SOL    HW126705   2.769   6.193   2.483
 8602SOL    HW226706   2.744   6.275   2.622
 8603SOL     OW26707   3.618   3.882   0.326
 8603SOL    HW126708   3.705   3.901   0.371
 8603SOL    HW226709   3.623   3.795   0.278
 8604SOL     OW26710   5.915   3.172   3.852
 8604SOL    HW126711   5.868   3.185   3.939
 8604SOL    HW226712   6.006   3.135   3.869
 8605SOL     OW26713   3.621   5.535   3.879
 8605SOL    HW126714   3.671   5.604   3.931
 8605SOL    HW226715   3.538   5.576   3.839
 8606SOL     OW26716   2.773   4.072   6.040
 8606SOL    HW126717   2.835   3.995   6.029
 8606SOL    HW226718   2.759   4.117   5.951
 8607SOL     OW26719   3.327   5.541   1.374
 8607SOL    HW126720   3.263   5.611   1.405
 8607SOL    HW226721   3.364   5.492   1.452
 8608SOL     OW26722   4.317   4.712   2.534
 8608SOL    HW126723   4.233   4.703   2.588
 8608SOL    HW226724   4.300   4.679   2.441
 8609SOL     OW26725   3.909   0.434   4.811
 8609SOL    HW126726   4.006   0.448   4.793
 8609SOL    HW226727   3.898   0.370   4.886
 8610SOL     OW26728   1.413   6.984   3.467
 8610SOL    HW126729   1.495   0.007   3.501
 8610SOL    HW226730   1.333   7.017   3.517
 8611SOL     OW26731   1.087   2.037   4.628
 8611SOL    HW126732   1.038   2.112   4.582
 8611SOL    HW226733   1.185   2.047   4.612
 8612SOL     OW26734   2.924   3.533   6.532
 8612SOL    HW126735   2.847   3.470   6.539
 8612SOL    HW226736   2.892   3.620   6.494
 8613SOL     OW26737   1.833   1.721   0.941
 8613SOL    HW126738   1.774   1.771   0.878
 8613SOL    HW226739   1.881   1.785   1.000
 8614SOL     OW26740   0.868   3.865   2.814
 8614SOL    HW126741   0.956   3.838   2.774
 8614SOL    HW226742   0.799   3.864   2.742
 8615SOL     OW26743   4.525   1.891   5.675
 8615SOL    HW126744   4.541   1.793   5.677
 8615SOL    HW226745   4.566   1.930   5.592
 8616SOL     OW26746   0.821   4.898   0.526
 8616SOL    HW126747   0.756   4.916   0.452
 8616SOL    HW226748   0.782   4.830   0.588
 8617SOL     OW26749   6.601   1.989   0.660
 8617SOL    HW126750   6.652   2.072   0.683
 8617SOL    HW226751   6.598   1.929   0.740
 8618SOL     OW26752   4.657   6.597   2.503
 8618SOL    HW126753   4.685   6.601   2.407
 8618SOL    HW226754   4.557   6.593   2.508
 8619SOL     OW26755   4.136   5.299   6.910
 8619SOL    HW126756   4.138   5.230   6.982
 8619SOL    HW226757   4.043   5.337   6.904
 8620SOL     OW26758   6.093   6.715   2.745
 8620SOL    HW126759   6.138   6.804   2.748
 8620SOL    HW226760   6.030   6.712   2.667
 8621SOL     OW26761   6.692   1.327   4.079
 8621SOL    HW126762   6.693   1.245   4.022
 8621SOL    HW226763   6.639   1.399   4.033
 8622SOL     OW26764   4.410   4.603   0.234
 8622SOL    HW126765   4.447   4.645   0.317
 8622SOL    HW226766   4.311   4.590   0.244
 8623SOL     OW26767   0.526   4.207   2.906
 8623SOL    HW126768   0.528   4.234   2.810
 8623SOL    HW226769   0.610   4.237   2.951
 8624SOL     OW26770   1.544   4.129   3.617
 8624SOL    HW126771   1.581   4.099   3.529
 8624SOL    HW226772   1.445   4.142   3.608
 8625SOL     OW26773   4.533   0.905   4.563
 8625SOL    HW126774   4.473   0.870   4.634
 8625SOL    HW226775   4.563   0.997   4.587
 8626SOL     OW26776   3.207   3.452   3.923
 8626SOL    HW126777   3.231   3.404   3.839
 8626SOL    HW226778   3.217   3.551   3.910
 8627SOL     OW26779   1.228   1.198   1.361
 8627SOL    HW126780   1.229   1.296   1.380
 8627SOL    HW226781   1.292   1.152   1.424
 8628SOL     OW26782   6.829   0.489   0.431
 8628SOL    HW126783   6.767   0.535   0.367
 8628SOL    HW226784   6.818   0.528   0.522
 8629SOL     OW26785   0.879   5.307   4.155
 8629SOL    HW126786   0.950   5.261   4.208
 8629SOL    HW226787   0.858   5.252   4.074
 8630SOL     OW26788   5.708   3.629   3.830
 8630SOL    HW126789   5.668   3.548   3.874
 8630SOL    HW226790   5.646   3.707   3.841
 8631SOL     OW26791   3.945   5.648   5.895
 8631SOL    HW126792   3.930   5.626   5.992
 8631SOL    HW226793   4.020   5.592   5.860
 8632SOL     OW26794   3.693   0.311   3.782
 8632SOL    HW126795   3.598   0.330   3.754
 8632SOL    HW226796   3.703   0.332   3.879
 8633SOL     OW26797   5.775   1.175   3.979
 8633SOL    HW126798   5.702   1.163   3.912
 8633SOL    HW226799   5.749   1.243   4.046
 8634SOL     OW26800   6.289   4.013   1.777
 8634SOL    HW126801   6.294   3.986   1.680
 8634SOL    HW226802   6.243   3.941   1.829
 8635SOL     OW26803   6.297   3.854   5.960
 8635SOL    HW126804   6.221   3.913   5.933
 8635SOL    HW226805   6.384   3.900   5.940
 8636SOL     OW26806   5.999   5.345   0.045
 8636SOL    HW126807   5.956   5.328   0.134
 8636SOL    HW226808   5.989   5.264   7.011
 8637SOL     OW26809   1.860   1.147   0.221
 8637SOL    HW126810   1.955   1.171   0.202
 8637SOL    HW226811   1.844   1.052   0.198
 8638SOL     OW26812   2.043   3.889   0.221
 8638SOL    HW126813   2.101   3.810   0.236
 8638SOL    HW226814   1.951   3.859   0.195
 8639SOL     OW26815   5.170   2.823   2.299
 8639SOL    HW126816   5.113   2.900   2.326
 8639SOL    HW226817   5.113   2.744   2.278
 8640SOL     OW26818   4.142   3.967   0.691
 8640SOL    HW126819   4.101   3.957   0.782
 8640SOL    HW226820   4.239   3.945   0.696
 8641SOL     OW26821   6.893   3.956   3.264
 8641SOL    HW126822   6.843   3.931   3.347
 8641SOL    HW226823   6.984   3.914   3.266
 8642SOL     OW26824   5.017   0.431   2.138
 8642SOL    HW126825   4.926   0.418   2.176
 8642SOL    HW226826   5.080   0.461   2.209
 8643SOL     OW26827   4.623   0.110   6.985
 8643SOL    HW126828   4.603   0.207   7.002
 8643SOL    HW226829   4.541   0.064   6.953
 8644SOL     OW26830   5.795   2.191   5.189
 8644SOL    HW126831   5.732   2.262   5.222
 8644SOL    HW226832   5.889   2.214   5.214
 8645SOL     OW26833   6.273   4.636   1.128
 8645SOL    HW126834   6.340   4.665   1.196
 8645SOL    HW226835   6.237   4.717   1.081
 8646SOL     OW26836   4.432   1.083   0.662
 8646SOL    HW126837   4.464   1.162   0.609
 8646SOL    HW226838   4.491   1.005   0.644
 8647SOL     OW26839   3.503   4.967   0.087
 8647SOL    HW126840   3.519   4.981   7.012
 8647SOL    HW226841   3.547   5.040   0.139
 8648SOL     OW26842   6.084   0.763   4.116
 8648SOL    HW126843   6.119   0.712   4.039
 8648SOL    HW226844   6.014   0.828   4.085
 8649SOL     OW26845   6.370   4.358   5.393
 8649SOL    HW126846   6.326   4.275   5.428
 8649SOL    HW226847   6.395   4.344   5.297
 8650SOL     OW26848   1.706   5.088   4.177
 8650SOL    HW126849   1.693   4.997   4.216
 8650SOL    HW226850   1.795   5.092   4.131
 8651SOL     OW26851   3.897   1.027   0.135
 8651SOL    HW126852   3.960   1.091   0.179
 8651SOL    HW226853   3.810   1.072   0.118
 8652SOL     OW26854   1.745   4.004   3.791
 8652SOL    HW126855   1.680   4.058   3.738
 8652SOL    HW226856   1.780   4.059   3.867
 8653SOL     OW26857   0.164   2.012   6.220
 8653SOL    HW126858   0.163   2.103   6.262
 8653SOL    HW226859   0.111   1.950   6.277
 8654SOL     OW26860   0.249   6.267   2.723
 8654SOL    HW126861   0.161   6.278   2.675
 8654SOL    HW226862   0.242   6.191   2.787
 8655SOL     OW26863   5.938   6.959   4.080
 8655SOL    HW126864   5.897   7.010   4.156
 8655SOL    HW226865   5.877   6.963   4.001
 8656SOL     OW26866   6.295   1.047   1.212
 8656SOL    HW126867   6.244   0.983   1.269
 8656SOL    HW226868   6.255   1.050   1.121
 8657SOL     OW26869   4.602   4.822   5.895
 8657SOL    HW126870   4.644   4.778   5.974
 8657SOL    HW226871   4.602   4.921   5.908
 8658SOL     OW26872   5.097   4.873   0.106
 8658SOL    HW126873   5.103   4.779   0.137
 8658SOL    HW226874   5.091   4.934   0.185
 8659SOL     OW26875   4.449   0.569   3.406
 8659SOL    HW126876   4.410   0.657   3.432
 8659SOL    HW226877   4.397   0.495   3.448
 8660SOL     OW26878   5.986   3.995   7.005
 8660SOL    HW126879   5.983   4.043   6.917
 8660SOL    HW226880   6.049   3.917   6.997
 8661SOL     OW26881   5.498   3.885   1.729
 8661SOL    HW126882   5.421   3.830   1.696
 8661SOL    HW226883   5.583   3.834   1.716
 8662SOL     OW26884   5.772   6.404   1.426
 8662SOL    HW126885   5.809   6.343   1.356
 8662SOL    HW226886   5.672   6.396   1.429
 8663SOL     OW26887   2.798   5.429   0.701
 8663SOL    HW126888   2.822   5.507   0.758
 8663SOL    HW226889   2.855   5.351   0.727
 8664SOL     OW26890   4.514   5.337   6.800
 8664SOL    HW126891   4.454   5.399   6.850
 8664SOL    HW226892   4.555   5.271   6.864
 8665SOL     OW26893   4.836   5.710   5.589
 8665SOL    HW126894   4.838   5.784   5.656
 8665SOL    HW226895   4.809   5.747   5.500
 8666SOL     OW26896   4.843   1.657   4.832
 8666SOL    HW126897   4.903   1.634   4.755
 8666SOL    HW226898   4.752   1.620   4.816
 8667SOL     OW26899   5.103   1.781   3.172
 8667SOL    HW126900   5.149   1.694   3.155
 8667SOL    HW226901   5.110   1.805   3.269
 8668SOL     OW26902   5.280   2.424   4.139
 8668SOL    HW126903   5.289   2.486   4.062
 8668SOL    HW226904   5.257   2.475   4.222
 8669SOL     OW26905   3.561   0.359   6.246
 8669SOL    HW126906   3.647   0.359   6.296
 8669SOL    HW226907   3.570   0.418   6.165
 8670SOL     OW26908   3.661   5.516   4.582
 8670SOL    HW126909   3.606   5.539   4.663
 8670SOL    HW226910   3.647   5.420   4.558
 8671SOL     OW26911   5.543   0.236   3.911
 8671SOL    HW126912   5.544   0.199   4.004
 8671SOL    HW226913   5.636   0.261   3.884
 8672SOL     OW26914   2.460   5.559   4.495
 8672SOL    HW126915   2.434   5.550   4.591
 8672SOL    HW226916   2.501   5.649   4.480
 8673SOL     OW26917   0.544   1.640   0.110
 8673SOL    HW126918   0.598   1.661   0.028
 8673SOL    HW226919   0.601   1.589   0.175
 8674SOL     OW26920   6.938   6.453   2.333
 8674SOL    HW126921   7.018   6.399   2.309
 8674SOL    HW226922   6.855   6.405   2.305
 8675SOL     OW26923   3.261   2.053   4.628
 8675SOL    HW126924   3.187   2.086   4.687
 8675SOL    HW226925   3.307   1.976   4.673
 8676SOL     OW26926   3.012   1.020   2.976
 8676SOL    HW126927   2.990   0.965   3.056
 8676SOL    HW226928   2.935   1.018   2.912
 8677SOL     OW26929   2.293   5.792   6.160
 8677SOL    HW126930   2.296   5.791   6.260
 8677SOL    HW226931   2.283   5.699   6.125
 8678SOL     OW26932   0.475   0.200   0.051
 8678SOL    HW126933   0.489   0.251   6.990
 8678SOL    HW226934   0.425   0.115   0.031
 8679SOL     OW26935   5.606   1.843   4.573
 8679SOL    HW126936   5.594   1.761   4.629
 8679SOL    HW226937   5.516   1.882   4.553
 8680SOL     OW26938   1.450   3.878   1.350
 8680SOL    HW126939   1.433   3.780   1.356
 8680SOL    HW226940   1.515   3.906   1.421
 8681SOL     OW26941   4.921   4.603   6.930
 8681SOL    HW126942   4.992   4.593   6.999
 8681SOL    HW226943   4.928   4.528   6.864
 8682SOL     OW26944   3.463   6.583   3.096
 8682SOL    HW126945   3.527   6.644   3.144
 8682SOL    HW226946   3.510   6.541   3.019
 8683SOL     OW26947   1.359   2.852   2.260
 8683SOL    HW126948   1.306   2.936   2.276
 8683SOL    HW226949   1.439   2.874   2.204
 8684SOL     OW26950   0.011   2.764   4.729
 8684SOL    HW126951   0.098   2.751   4.777
 8684SOL    HW226952   0.029   2.799   4.637
 8685SOL     OW26953   1.516   2.347   5.609
 8685SOL    HW126954   1.531   2.362   5.511
 8685SOL    HW226955   1.431   2.295   5.621
 8686SOL     OW26956   6.450   2.068   2.262
 8686SOL    HW126957   6.469   2.160   2.227
 8686SOL    HW226958   6.427   2.008   2.186
 8687SOL     OW26959   3.573   6.415   2.904
 8687SOL    HW126960   3.631   6.334   2.909
 8687SOL    HW226961   3.550   6.433   2.808
 8688SOL     OW26962   2.802   6.450   0.761
 8688SOL    HW126963   2.733   6.411   0.699
 8688SOL    HW226964   2.889   6.458   0.713
 8689SOL     OW26965   3.917   5.995   0.167
 8689SOL    HW126966   3.821   5.976   0.150
 8689SOL    HW226967   3.935   5.990   0.265
 8690SOL     OW26968   1.360   2.297   4.191
 8690SOL    HW126969   1.448   2.292   4.238
 8690SOL    HW226970   1.360   2.375   4.128
 8691SOL     OW26971   4.313   2.581   6.480
 8691SOL    HW126972   4.255   2.630   6.545
 8691SOL    HW226973   4.304   2.623   6.389
 8692SOL     OW26974   3.177   1.952   3.017
 8692SOL    HW126975   3.270   1.982   3.035
 8692SOL    HW226976   3.130   2.022   2.963
 8693SOL     OW26977   5.344   2.140   1.157
 8693SOL    HW126978   5.265   2.083   1.177
 8693SOL    HW226979   5.318   2.214   1.095
 8694SOL     OW26980   4.738   0.504   6.320
 8694SOL    HW126981   4.716   0.463   6.408
 8694SOL    HW226982   4.778   0.435   6.260
 8695SOL     OW26983   4.473   2.901   5.935
 8695SOL    HW126984   4.446   2.954   6.016
 8695SOL    HW226985   4.569   2.919   5.914
 8696SOL     OW26986   3.094   5.709   0.967
 8696SOL    HW126987   3.047   5.764   1.037
 8696SOL    HW226988   3.176   5.668   1.006
 8697SOL     OW26989   6.670   3.599   6.923
 8697SOL    HW126990   6.713   3.510   6.939
 8697SOL    HW226991   6.694   3.632   6.831
 8698SOL     OW26992   5.109   5.648   4.077
 8698SOL    HW126993   5.110   5.548   4.071
 8698SOL    HW226994   5.017   5.679   4.101
 8699SOL     OW26995   1.038   2.327   5.553
 8699SOL    HW126996   1.032   2.374   5.641
 8699SOL    HW226997   0.992   2.382   5.483
 8700SOL     OW26998   2.226   0.621   5.072
 8700SOL    HW126999   2.143   0.623   5.018
 8700SOL    HW227000   2.299   0.669   5.023
 8701SOL     OW27001   0.648   0.957   5.948
 8701SOL    HW127002   0.618   0.991   6.037
 8701SOL    HW227003   0.741   0.921   5.956
 8702SOL     OW27004   5.426   4.578   6.904
 8702SOL    HW127005   5.373   4.516   6.963
 8702SOL    HW227006   5.511   4.604   6.951
 8703SOL     OW27007   3.090   5.968   1.737
 8703SOL    HW127008   3.050   5.963   1.829
 8703SOL    HW227009   3.184   5.935   1.740
 8704SOL     OW27010   6.555   3.997   2.468
 8704SOL    HW127011   6.616   3.923   2.497
 8704SOL    HW227012   6.610   4.074   2.436
 8705SOL     OW27013   4.987   0.739   6.349
 8705SOL    HW127014   4.897   0.772   6.322
 8705SOL    HW227015   4.988   0.720   6.447
 8706SOL     OW27016   5.127   2.194   6.020
 8706SOL    HW127017   5.209   2.141   5.997
 8706SOL    HW227018   5.050   2.132   6.035
 8707SOL     OW27019   4.323   3.018   0.574
 8707SOL    HW127020   4.392   3.065   0.518
 8707SOL    HW227021   4.353   2.924   0.592
 8708SOL     OW27022   3.569   0.803   2.369
 8708SOL    HW127023   3.573   0.709   2.402
 8708SOL    HW227024   3.484   0.817   2.319
 8709SOL     OW27025   6.701   4.830   6.914
 8709SOL    HW127026   6.665   4.749   6.961
 8709SOL    HW227027   6.778   4.803   6.857
 8710SOL     OW27028   1.709   2.951   3.043
 8710SOL    HW127029   1.679   2.857   3.055
 8710SOL    HW227030   1.805   2.959   3.072
 8711SOL     OW27031   0.223   6.686   2.366
 8711SOL    HW127032   0.161   6.748   2.414
 8711SOL    HW227033   0.221   6.706   2.268
 8712SOL     OW27034   3.698   2.007   3.425
 8712SOL    HW127035   3.681   1.916   3.388
 8712SOL    HW227036   3.622   2.034   3.484
 8713SOL     OW27037   6.901   4.111   3.597
 8713SOL    HW127038   6.839   4.033   3.608
 8713SOL    HW227039   6.982   4.083   3.547
 8714SOL     OW27040   0.595   0.798   5.723
 8714SOL    HW127041   0.608   0.859   5.801
 8714SOL    HW227042   0.512   0.824   5.674
 8715SOL     OW27043   5.991   0.843   1.095
 8715SOL    HW127044   5.982   0.942   1.090
 8715SOL    HW227045   6.035   0.817   1.181
 8716SOL     OW27046   1.059   1.896   0.874
 8716SOL    HW127047   1.049   1.952   0.792
 8716SOL    HW227048   1.038   1.801   0.853
 8717SOL     OW27049   4.037   3.603   2.448
 8717SOL    HW127050   3.960   3.555   2.490
 8717SOL    HW227051   4.093   3.644   2.520
 8718SOL     OW27052   7.020   2.190   5.113
 8718SOL    HW127053   7.016   2.288   5.132
 8718SOL    HW227054   0.003   2.175   5.014
 8719SOL     OW27055   1.628   0.820   5.211
 8719SOL    HW127056   1.606   0.906   5.258
 8719SOL    HW227057   1.552   0.794   5.152
 8720SOL     OW27058   6.666   4.980   5.312
 8720SOL    HW127059   6.594   4.983   5.381
 8720SOL    HW227060   6.755   4.971   5.357
 8721SOL     OW27061   6.003   2.482   4.257
 8721SOL    HW127062   6.001   2.506   4.159
 8721SOL    HW227063   6.083   2.524   4.299
 8722SOL     OW27064   3.660   0.789   0.753
 8722SOL    HW127065   3.714   0.868   0.725
 8722SOL    HW227066   3.718   0.725   0.804
 8723SOL     OW27067   5.964   5.874   1.059
 8723SOL    HW127068   5.928   5.804   1.121
 8723SOL    HW227069   6.000   5.830   0.977
 8724SOL     OW27070   6.165   6.723   5.123
 8724SOL    HW127071   6.247   6.693   5.074
 8724SOL    HW227072   6.190   6.752   5.216
 8725SOL     OW27073   1.577   0.937   6.893
 8725SOL    HW127074   1.642   0.871   6.930
 8725SOL    HW227075   1.590   0.945   6.794
 8726SOL     OW27076   5.938   6.954   1.405
 8726SOL    HW127077   5.882   6.917   1.480
 8726SOL    HW227078   5.935   6.891   1.328
 8727SOL     OW27079   6.315   6.352   1.911
 8727SOL    HW127080   6.310   6.252   1.912
 8727SOL    HW227081   6.401   6.382   1.950
 8728SOL     OW27082   3.651   0.002   5.126
 8728SOL    HW127083   3.637   0.045   5.037
 8728SOL    HW227084   3.654   6.925   5.115
 8729SOL     OW27085   4.895   5.493   3.002
 8729SOL    HW127086   4.875   5.550   3.082
 8729SOL    HW227087   4.828   5.419   2.996
 8730SOL     OW27088   0.009   5.193   2.755
 8730SOL    HW127089   7.015   5.286   2.722
 8730SOL    HW227090   6.952   5.160   2.804
 8731SOL     OW27091   1.738   1.969   3.410
 8731SOL    HW127092   1.806   1.900   3.435
 8731SOL    HW227093   1.680   1.988   3.489
 8732SOL     OW27094   5.142   4.677   1.838
 8732SOL    HW127095   5.198   4.643   1.763
 8732SOL    HW227096   5.050   4.636   1.832
 8733SOL     OW27097   0.943   5.843   2.921
 8733SOL    HW127098   0.881   5.911   2.883
 8733SOL    HW227099   0.932   5.757   2.872
 8734SOL     OW27100   1.032   4.835   2.078
 8734SOL    HW127101   0.983   4.752   2.103
 8734SOL    HW227102   0.967   4.910   2.066
 8735SOL     OW27103   0.582   1.917   6.907
 8735SOL    HW127104   0.563   1.966   6.822
 8735SOL    HW227105   0.603   1.984   6.979
 8736SOL     OW27106   0.625   6.405   0.237
 8736SOL    HW127107   0.543   6.410   0.295
 8736SOL    HW227108   0.623   6.321   0.184
 8737SOL     OW27109   4.487   6.589   6.140
 8737SOL    HW127110   4.443   6.508   6.179
 8737SOL    HW227111   4.530   6.641   6.214
 8738SOL     OW27112   1.184   4.022   4.801
 8738SOL    HW127113   1.238   4.018   4.884
 8738SOL    HW227114   1.148   3.931   4.780
 8739SOL     OW27115   6.761   4.471   6.616
 8739SOL    HW127116   6.813   4.442   6.536
 8739SOL    HW227117   6.824   4.506   6.686
 8740SOL     OW27118   4.143   0.771   5.699
 8740SOL    HW127119   4.239   0.797   5.694
 8740SOL    HW227120   4.094   0.809   5.621
 8741SOL     OW27121   1.960   1.925   1.686
 8741SOL    HW127122   1.962   1.964   1.778
 8741SOL    HW227123   1.939   1.998   1.620
 8742SOL     OW27124   4.933   6.113   1.716
 8742SOL    HW127125   4.885   6.177   1.777
 8742SOL    HW227126   5.019   6.155   1.686
 8743SOL     OW27127   2.288   6.024   2.267
 8743SOL    HW127128   2.274   6.121   2.286
 8743SOL    HW227129   2.202   5.981   2.242
 8744SOL     OW27130   4.221   2.516   6.015
 8744SOL    HW127131   4.309   2.546   5.977
 8744SOL    HW227132   4.185   2.440   5.961
 8745SOL     OW27133   6.058   1.872   5.736
 8745SOL    HW127134   6.000   1.952   5.718
 8745SOL    HW227135   6.009   1.789   5.711
 8746SOL     OW27136   4.254   4.344   5.562
 8746SOL    HW127137   4.321   4.367   5.491
 8746SOL    HW227138   4.196   4.424   5.580
 8747SOL     OW27139   0.762   2.546   3.509
 8747SOL    HW127140   0.808   2.631   3.482
 8747SOL    HW227141   0.825   2.469   3.498
 8748SOL     OW27142   0.747   0.590   0.010
 8748SOL    HW127143   0.842   0.592   0.043
 8748SOL    HW227144   0.746   0.571   6.935
 8749SOL     OW27145   2.999   0.589   4.559
 8749SOL    HW127146   2.948   0.518   4.510
 8749SOL    HW227147   2.937   0.663   4.584
 8750SOL     OW27148   2.585   2.766   5.334
 8750SOL    HW127149   2.559   2.788   5.428
 8750SOL    HW227150   2.564   2.843   5.274
 8751SOL     OW27151   6.889   0.393   1.927
 8751SOL    HW127152   6.914   0.490   1.932
 8751SOL    HW227153   6.921   0.355   1.841
 8752SOL     OW27154   2.839   4.493   0.075
 8752SOL    HW127155   2.913   4.539   0.026
 8752SOL    HW227156   2.789   4.433   0.013
 8753SOL     OW27157   5.006   1.414   4.445
 8753SOL    HW127158   5.094   1.462   4.448
 8753SOL    HW227159   4.958   1.436   4.360
 8754SOL     OW27160   0.531   2.042   5.660
 8754SOL    HW127161   0.606   2.044   5.727
 8754SOL    HW227162   0.451   1.998   5.702
 8755SOL     OW27163   2.773   1.594   6.564
 8755SOL    HW127164   2.716   1.641   6.496
 8755SOL    HW227165   2.865   1.633   6.562
 8756SOL     OW27166   2.319   2.829   3.380
 8756SOL    HW127167   2.289   2.848   3.473
 8756SOL    HW227168   2.378   2.749   3.379
 8757SOL     OW27169   5.868   6.606   5.690
 8757SOL    HW127170   5.775   6.594   5.725
 8757SOL    HW227171   5.881   6.700   5.661
 8758SOL     OW27172   5.363   6.175   1.917
 8758SOL    HW127173   5.393   6.172   1.821
 8758SOL    HW227174   5.295   6.103   1.932
 8759SOL     OW27175   4.599   1.326   6.305
 8759SOL    HW127176   4.564   1.232   6.301
 8759SOL    HW227177   4.566   1.370   6.388
 8760SOL     OW27178   2.009   1.781   4.172
 8760SOL    HW127179   2.042   1.731   4.093
 8760SOL    HW227180   2.004   1.879   4.150
 8761SOL     OW27181   5.184   0.644   0.750
 8761SOL    HW127182   5.177   0.732   0.796
 8761SOL    HW227183   5.102   0.629   0.695
 8762SOL     OW27184   1.347   3.336   2.782
 8762SOL    HW127185   1.397   3.419   2.755
 8762SOL    HW227186   1.328   3.340   2.880
 8763SOL     OW27187   6.740   6.117   4.855
 8763SOL    HW127188   6.794   6.042   4.894
 8763SOL    HW227189   6.730   6.102   4.756
 8764SOL     OW27190   5.464   2.141   3.782
 8764SOL    HW127191   5.424   2.051   3.799
 8764SOL    HW227192   5.557   2.144   3.818
 8765SOL     OW27193   5.245   6.623   4.571
 8765SOL    HW127194   5.175   6.653   4.506
 8765SOL    HW227195   5.334   6.619   4.525
 8766SOL     OW27196   3.133   4.895   3.612
 8766SOL    HW127197   3.101   4.989   3.622
 8766SOL    HW227198   3.070   4.833   3.659
 8767SOL     OW27199   4.414   0.630   2.745
 8767SOL    HW127200   4.390   0.547   2.795
 8767SOL    HW227201   4.485   0.609   2.678
 8768SOL     OW27202   1.802   2.987   0.256
 8768SOL    HW127203   1.775   3.084   0.257
 8768SOL    HW227204   1.872   2.972   0.325
 8769SOL     OW27205   0.276   0.191   5.086
 8769SOL    HW127206   0.235   0.228   5.003
 8769SOL    HW227207   0.266   0.256   5.160
 8770SOL     OW27208   4.747   4.298   2.150
 8770SOL    HW127209   4.660   4.300   2.101
 8770SOL    HW227210   4.742   4.232   2.225
 8771SOL     OW27211   1.612   1.857   6.428
 8771SOL    HW127212   1.636   1.926   6.497
 8771SOL    HW227213   1.695   1.812   6.395
 8772SOL     OW27214   6.480   1.007   6.622
 8772SOL    HW127215   6.573   1.031   6.594
 8772SOL    HW227216   6.417   1.018   6.545
 8773SOL     OW27217   3.894   2.138   3.220
 8773SOL    HW127218   3.837   2.115   3.299
 8773SOL    HW227219   3.954   2.215   3.244
 8774SOL     OW27220   1.117   1.665   0.506
 8774SOL    HW127221   1.172   1.649   0.588
 8774SOL    HW227222   1.174   1.704   0.434
 8775SOL     OW27223   5.829   0.041   3.657
 8775SOL    HW127224   5.780   6.977   3.654
 8775SOL    HW227225   5.927   0.024   3.671
 8776SOL     OW27226   3.626   3.402   4.859
 8776SOL    HW127227   3.711   3.426   4.906
 8776SOL    HW227228   3.552   3.463   4.888
 8777SOL     OW27229   6.797   4.923   1.350
 8777SOL    HW127230   6.895   4.935   1.361
 8777SOL    HW227231   6.749   5.003   1.387
 8778SOL     OW27232   6.887   1.869   3.379
 8778SOL    HW127233   6.901   1.846   3.283
 8778SOL    HW227234   6.973   1.860   3.429
 8779SOL     OW27235   1.715   4.608   2.294
 8779SOL    HW127236   1.683   4.534   2.237
 8779SOL    HW227237   1.638   4.664   2.325
 8780SOL     OW27238   1.470   5.847   3.841
 8780SOL    HW127239   1.386   5.809   3.803
 8780SOL    HW227240   1.450   5.935   3.885
 8781SOL     OW27241   0.141   0.935   3.086
 8781SOL    HW127242   0.199   0.857   3.060
 8781SOL    HW227243   0.074   0.905   3.154
 8782SOL     OW27244   5.752   0.881   1.900
 8782SOL    HW127245   5.666   0.838   1.926
 8782SOL    HW227246   5.770   0.959   1.960
 8783SOL     OW27247   6.144   3.959   3.599
 8783SOL    HW127248   6.045   3.956   3.584
 8783SOL    HW227249   6.181   4.044   3.561
 8784SOL     OW27250   5.443   4.883   5.235
 8784SOL    HW127251   5.429   4.946   5.159
 8784SOL    HW227252   5.506   4.924   5.302
 8785SOL     OW27253   5.361   4.119   6.779
 8785SOL    HW127254   5.423   4.182   6.733
 8785SOL    HW227255   5.274   4.165   6.797
 8786SOL     OW27256   1.575   6.373   6.971
 8786SOL    HW127257   1.638   6.445   7.002
 8786SOL    HW227258   1.538   6.325   0.028
 8787SOL     OW27259   1.189   3.360   2.522
 8787SOL    HW127260   1.267   3.320   2.474
 8787SOL    HW227261   1.214   3.378   2.617
 8788SOL     OW27262   6.714   1.565   4.904
 8788SOL    HW127263   6.679   1.656   4.884
 8788SOL    HW227264   6.812   1.561   4.885
 8789SOL     OW27265   6.485   0.728   6.504
 8789SOL    HW127266   6.520   0.809   6.551
 8789SOL    HW227267   6.540   0.649   6.531
 8790SOL     OW27268   6.593   1.544   6.880
 8790SOL    HW127269   6.681   1.592   6.884
 8790SOL    HW227270   6.599   1.469   6.815
 8791SOL     OW27271   5.366   6.824   6.015
 8791SOL    HW127272   5.325   6.844   6.104
 8791SOL    HW227273   5.464   6.810   6.026
 8792SOL     OW27274   3.866   6.820   3.372
 8792SOL    HW127275   3.907   6.822   3.463
 8792SOL    HW227276   3.786   6.880   3.370
 8793SOL     OW27277   2.599   5.782   4.244
 8793SOL    HW127278   2.529   5.726   4.200
 8793SOL    HW227279   2.558   5.840   4.313
 8794SOL     OW27280   3.260   6.765   3.011
 8794SOL    HW127281   3.214   6.755   2.923
 8794SOL    HW227282   3.323   6.688   3.024
 8795SOL     OW27283   1.517   6.670   5.411
 8795SOL    HW127284   1.578   6.629   5.343
 8795SOL    HW227285   1.423   6.642   5.393
 8796SOL     OW27286   4.598   1.623   5.658
 8796SOL    HW127287   4.636   1.565   5.729
 8796SOL    HW227288   4.552   1.566   5.589
 8797SOL     OW27289   1.775   6.627   6.274
 8797SOL    HW127290   1.875   6.628   6.272
 8797SOL    HW227291   1.741   6.565   6.203
 8798SOL     OW27292   5.284   3.968   5.351
 8798SOL    HW127293   5.277   4.067   5.360
 8798SOL    HW227294   5.285   3.943   5.254
 8799SOL     OW27295   2.235   4.206   3.642
 8799SOL    HW127296   2.268   4.287   3.593
 8799SOL    HW227297   2.227   4.130   3.578
 8800SOL     OW27298   4.277   3.803   5.633
 8800SOL    HW127299   4.258   3.901   5.640
 8800SOL    HW227300   4.345   3.787   5.561
 8801SOL     OW27301   2.377   1.139   4.089
 8801SOL    HW127302   2.338   1.217   4.137
 8801SOL    HW227303   2.323   1.120   4.007
 8802SOL     OW27304   1.141   6.814   1.949
 8802SOL    HW127305   1.145   6.840   2.045
 8802SOL    HW227306   1.232   6.788   1.916
 8803SOL     OW27307   2.054   5.290   7.000
 8803SOL    HW127308   2.001   5.252   6.924
 8803SOL    HW227309   2.118   5.221   0.012
 8804SOL     OW27310   3.913   0.729   1.854
 8804SOL    HW127311   3.849   0.789   1.805
 8804SOL    HW227312   3.990   0.706   1.795
 8805SOL     OW27313   1.602   0.809   3.566
 8805SOL    HW127314   1.603   0.733   3.631
 8805SOL    HW227315   1.517   0.808   3.515
 8806SOL     OW27316   1.655   5.355   0.745
 8806SOL    HW127317   1.694   5.412   0.817
 8806SOL    HW227318   1.613   5.413   0.675
 8807SOL     OW27319   6.097   5.647   5.733
 8807SOL    HW127320   6.105   5.551   5.757
 8807SOL    HW227321   6.034   5.692   5.796
 8808SOL     OW27322   5.876   1.348   0.704
 8808SOL    HW127323   5.786   1.313   0.677
 8808SOL    HW227324   5.910   1.410   0.633
 8809SOL     OW27325   5.507   3.529   1.457
 8809SOL    HW127326   5.488   3.431   1.461
 8809SOL    HW227327   5.601   3.546   1.487
 8810SOL     OW27328   5.638   1.681   4.273
 8810SOL    HW127329   5.568   1.649   4.209
 8810SOL    HW227330   5.658   1.777   4.253
 8811SOL     OW27331   2.466   1.712   4.151
 8811SOL    HW127332   2.555   1.668   4.162
 8811SOL    HW227333   2.397   1.659   4.200
 8812SOL     OW27334   0.940   0.846   0.441
 8812SOL    HW127335   0.879   0.792   0.383
 8812SOL    HW227336   1.018   0.790   0.470
 8813SOL     OW27337   0.733   5.636   1.537
 8813SOL    HW127338   0.642   5.614   1.572
 8813SOL    HW227339   0.771   5.555   1.492
 8814SOL     OW27340   0.120   0.497   6.803
 8814SOL    HW127341   0.127   0.407   6.761
 8814SOL    HW227342   0.211   0.539   6.807
 8815SOL     OW27343   6.874   5.645   1.654
 8815SOL    HW127344   6.819   5.646   1.571
 8815SOL    HW227345   6.966   5.680   1.634
 8816SOL     OW27346   0.966   6.105   0.853
 8816SOL    HW127347   0.879   6.057   0.867
 8816SOL    HW227348   1.012   6.115   0.941
 8817SOL     OW27349   0.944   6.302   5.168
 8817SOL    HW127350   0.909   6.392   5.195
 8817SOL    HW227351   0.895   6.231   5.218
 8818SOL     OW27352   0.264   3.754   3.614
 8818SOL    HW127353   0.313   3.745   3.701
 8818SOL    HW227354   0.168   3.730   3.627
 8819SOL     OW27355   4.092   6.300   4.535
 8819SOL    HW127356   4.146   6.308   4.451
 8819SOL    HW227357   4.029   6.223   4.527
 8820SOL     OW27358   1.425   2.745   4.604
 8820SOL    HW127359   1.437   2.844   4.614
 8820SOL    HW227360   1.444   2.718   4.510
 8821SOL     OW27361   1.841   0.002   6.191
 8821SOL    HW127362   1.861   0.037   6.283
 8821SOL    HW227363   1.903   0.044   6.125
 8822SOL     OW27364   0.719   0.400   2.761
 8822SOL    HW127365   0.741   0.309   2.795
 8822SOL    HW227366   0.795   0.435   2.706
 8823SOL     OW27367   2.176   0.359   0.876
 8823SOL    HW127368   2.084   0.383   0.908
 8823SOL    HW227369   2.203   0.272   0.919
 8824SOL     OW27370   2.390   4.060   0.949
 8824SOL    HW127371   2.351   4.122   0.880
 8824SOL    HW227372   2.377   3.965   0.919
 8825SOL     OW27373   1.766   1.402   2.000
 8825SOL    HW127374   1.847   1.365   2.044
 8825SOL    HW227375   1.713   1.327   1.960
 8826SOL     OW27376   6.336   1.963   0.206
 8826SOL    HW127377   6.325   2.058   0.234
 8826SOL    HW227378   6.402   1.918   0.266
 8827SOL     OW27379   2.561   1.248   3.460
 8827SOL    HW127380   2.530   1.329   3.509
 8827SOL    HW227381   2.553   1.263   3.362
 8828SOL     OW27382   3.458   5.869   4.012
 8828SOL    HW127383   3.473   5.900   3.918
 8828SOL    HW227384   3.380   5.807   4.015
 8829SOL     OW27385   0.382   3.204   0.000
 8829SOL    HW127386   0.362   3.123   0.056
 8829SOL    HW227387   0.473   3.193   6.981
 8830SOL     OW27388   0.178   1.134   0.064
 8830SOL    HW127389   0.184   1.224   0.022
 8830SOL    HW227390   0.132   1.141   0.153
 8831SOL     OW27391   5.783   1.021   3.684
 8831SOL    HW127392   5.738   0.946   3.635
 8831SOL    HW227393   5.718   1.097   3.694
 8832SOL     OW27394   0.576   6.867   2.082
 8832SOL    HW127395   0.516   6.864   2.002
 8832SOL    HW227396   0.527   6.830   2.162
 8833SOL     OW27397   1.719   5.915   4.677
 8833SOL    HW127398   1.765   5.917   4.766
 8833SOL    HW227399   1.726   5.823   4.638
 8834SOL     OW27400   5.935   3.130   4.471
 8834SOL    HW127401   5.961   3.037   4.446
 8834SOL    HW227402   5.861   3.127   4.538
 8835SOL     OW27403   6.512   0.383   5.596
 8835SOL    HW127404   6.591   0.425   5.551
 8835SOL    HW227405   6.544   0.319   5.666
 8836SOL     OW27406   4.291   0.668   0.860
 8836SOL    HW127407   4.281   0.578   0.817
 8836SOL    HW227408   4.318   0.736   0.792
 8837SOL     OW27409   0.948   0.679   1.902
 8837SOL    HW127410   1.022   0.613   1.893
 8837SOL    HW227411   0.976   0.753   1.964
 8838SOL     OW27412   2.807   5.200   3.648
 8838SOL    HW127413   2.790   5.140   3.570
 8838SOL    HW227414   2.745   5.279   3.644
 8839SOL     OW27415   6.131   6.148   3.057
 8839SOL    HW127416   6.205   6.195   3.009
 8839SOL    HW227417   6.156   6.134   3.153
 8840SOL     OW27418   5.725   2.046   2.167
 8840SOL    HW127419   5.734   2.112   2.093
 8840SOL    HW227420   5.816   2.020   2.200
 8841SOL     OW27421   1.389   1.281   5.196
 8841SOL    HW127422   1.354   1.364   5.239
 8841SOL    HW227423   1.419   1.217   5.267
 8842SOL     OW27424   2.989   3.199   1.166
 8842SOL    HW127425   3.075   3.251   1.171
 8842SOL    HW227426   3.009   3.102   1.159
 8843SOL     OW27427   1.192   3.204   5.226
 8843SOL    HW127428   1.269   3.261   5.198
 8843SOL    HW227429   1.135   3.182   5.147
 8844SOL     OW27430   5.821   1.243   6.097
 8844SOL    HW127431   5.869   1.270   6.180
 8844SOL    HW227432   5.735   1.198   6.121
 8845SOL     OW27433   4.008   4.365   0.019
 8845SOL    HW127434   4.054   4.277   0.015
 8845SOL    HW227435   3.977   4.391   6.950
 8846SOL     OW27436   2.203   5.206   3.667
 8846SOL    HW127437   2.254   5.247   3.591
 8846SOL    HW227438   2.119   5.258   3.682
 8847SOL     OW27439   2.678   0.735   2.775
 8847SOL    HW127440   2.689   0.821   2.725
 8847SOL    HW227441   2.588   0.696   2.757
 8848SOL     OW27442   2.194   1.140   1.374
 8848SOL    HW127443   2.222   1.095   1.289
 8848SOL    HW227444   2.260   1.211   1.398
 8849SOL     OW27445   1.629   5.933   2.435
 8849SOL    HW127446   1.660   6.009   2.377
 8849SOL    HW227447   1.540   5.901   2.403
 8850SOL     OW27448   2.710   2.046   6.713
 8850SOL    HW127449   2.666   2.035   6.624
 8850SOL    HW227450   2.641   2.045   6.786
 8851SOL     OW27451   1.784   4.952   2.544
 8851SOL    HW127452   1.858   4.918   2.602
 8851SOL    HW227453   1.726   5.014   2.596
 8852SOL     OW27454   1.396   1.840   5.306
 8852SOL    HW127455   1.457   1.891   5.367
 8852SOL    HW227456   1.399   1.881   5.214
 8853SOL     OW27457   2.975   0.689   1.309
 8853SOL    HW127458   2.951   0.602   1.353
 8853SOL    HW227459   2.896   0.725   1.260
 8854SOL     OW27460   1.799   2.522   5.120
 8854SOL    HW127461   1.848   2.458   5.180
 8854SOL    HW227462   1.828   2.509   5.026
 8855SOL     OW27463   6.360   5.288   1.547
 8855SOL    HW127464   6.272   5.299   1.503
 8855SOL    HW227465   6.381   5.191   1.557
 8856SOL     OW27466   6.793   5.591   5.971
 8856SOL    HW127467   6.712   5.619   5.919
 8856SOL    HW227468   6.868   5.653   5.950
 8857SOL     OW27469   6.587   1.451   5.648
 8857SOL    HW127470   6.531   1.420   5.571
 8857SOL    HW227471   6.536   1.438   5.733
 8858SOL     OW27472   6.949   5.075   5.386
 8858SOL    HW127473   6.922   5.083   5.290
 8858SOL    HW227474   7.006   4.994   5.398
 8859SOL     OW27475   1.050   0.880   3.435
 8859SOL    HW127476   1.078   0.919   3.523
 8859SOL    HW227477   1.036   0.781   3.446
 8860SOL     OW27478   6.781   2.377   1.744
 8860SOL    HW127479   6.792   2.435   1.824
 8860SOL    HW227480   6.812   2.425   1.662
 8861SOL     OW27481   4.484   1.463   1.395
 8861SOL    HW127482   4.430   1.410   1.460
 8861SOL    HW227483   4.423   1.505   1.327
 8862SOL     OW27484   4.401   5.710   4.899
 8862SOL    HW127485   4.427   5.624   4.856
 8862SOL    HW227486   4.420   5.786   4.837
 8863SOL     OW27487   2.517   4.536   3.725
 8863SOL    HW127488   2.442   4.496   3.672
 8863SOL    HW227489   2.586   4.573   3.663
 8864SOL     OW27490   5.511   2.388   6.546
 8864SOL    HW127491   5.448   2.334   6.601
 8864SOL    HW227492   5.504   2.484   6.571
 8865SOL     OW27493   2.988   1.871   6.282
 8865SOL    HW127494   3.079   1.830   6.295
 8865SOL    HW227495   2.927   1.802   6.243
 8866SOL     OW27496   5.840   6.345   2.394
 8866SOL    HW127497   5.865   6.255   2.431
 8866SOL    HW227498   5.780   6.392   2.460
 8867SOL     OW27499   6.255   3.629   2.400
 8867SOL    HW127500   6.187   3.604   2.331
 8867SOL    HW227501   6.293   3.719   2.377
 8868SOL     OW27502   6.925   3.565   2.848
 8868SOL    HW127503   6.838   3.612   2.834
 8868SOL    HW227504   7.000   3.624   2.820
 8869SOL     OW27505   3.571   5.790   4.499
 8869SOL    HW127506   3.586   5.709   4.556
 8869SOL    HW227507   3.582   5.766   4.403
 8870SOL     OW27508   1.738   6.821   1.967
 8870SOL    HW127509   1.765   6.726   1.956
 8870SOL    HW227510   1.778   6.876   1.894
 8871SOL     OW27511   1.816   0.441   2.932
 8871SOL    HW127512   1.762   0.411   3.010
 8871SOL    HW227513   1.911   0.455   2.961
 8872SOL     OW27514   0.714   4.444   5.993
 8872SOL    HW127515   0.792   4.393   5.958
 8872SOL    HW227516   0.710   4.435   6.093
 8873SOL     OW27517   1.754   0.444   1.932
 8873SOL    HW127518   1.760   0.404   1.841
 8873SOL    HW227519   1.664   0.485   1.945
 8874SOL     OW27520   1.794   5.117   0.712
 8874SOL    HW127521   1.734   5.197   0.721
 8874SOL    HW227522   1.854   5.129   0.633
 8875SOL     OW27523   0.163   2.613   3.545
 8875SOL    HW127524   0.137   2.628   3.449
 8875SOL    HW227525   0.247   2.663   3.565
 8876SOL     OW27526   3.103   0.451   5.852
 8876SOL    HW127527   3.192   0.410   5.829
 8876SOL    HW227528   3.052   0.389   5.911
 8877SOL     OW27529   1.032   3.819   1.473
 8877SOL    HW127530   1.119   3.865   1.454
 8877SOL    HW227531   1.020   3.744   1.408
 8878SOL     OW27532   3.942   4.517   0.748
 8878SOL    HW127533   3.989   4.554   0.668
 8878SOL    HW227534   3.844   4.536   0.741
 8879SOL     OW27535   6.579   4.984   2.956
 8879SOL    HW127536   6.594   4.983   3.055
 8879SOL    HW227537   6.543   4.895   2.927
 8880SOL     OW27538   4.710   6.497   3.588
 8880SOL    HW127539   4.735   6.592   3.608
 8880SOL    HW227540   4.613   6.493   3.562
 8881SOL     OW27541   4.184   5.562   3.632
 8881SOL    HW127542   4.137   5.541   3.718
 8881SOL    HW227543   4.187   5.661   3.620
 8882SOL     OW27544   4.231   0.837   0.590
 8882SOL    HW127545   4.269   0.817   0.500
 8882SOL    HW227546   4.236   0.936   0.607
 8883SOL     OW27547   0.101   6.598   5.836
 8883SOL    HW127548   0.104   6.501   5.809
 8883SOL    HW227549   0.038   6.609   5.913
 8884SOL     OW27550   5.803   3.930   4.338
 8884SOL    HW127551   5.722   3.979   4.308
 8884SOL    HW227552   5.834   3.967   4.426
 8885SOL     OW27553   5.549   5.532   0.133
 8885SOL    HW127554   5.592   5.484   0.210
 8885SOL    HW227555   5.611   5.531   0.055
 8886SOL     OW27556   3.102   5.371   6.854
 8886SOL    HW127557   3.082   5.374   6.952
 8886SOL    HW227558   3.075   5.283   6.817
 8887SOL     OW27559   4.486   0.680   0.597
 8887SOL    HW127560   4.449   0.689   0.504
 8887SOL    HW227561   4.543   0.759   0.618
 8888SOL     OW27562   2.175   1.747   3.680
 8888SOL    HW127563   2.268   1.748   3.644
 8888SOL    HW227564   2.178   1.728   3.779
 8889SOL     OW27565   6.702   6.554   6.197
 8889SOL    HW127566   6.682   6.525   6.290
 8889SOL    HW227567   6.742   6.478   6.146
 8890SOL     OW27568   7.001   6.931   0.287
 8890SOL    HW127569   0.055   6.993   0.269
 8890SOL    HW227570   6.916   6.983   0.290
 8891SOL     OW27571   5.798   4.478   6.195
 8891SOL    HW127572   5.845   4.446   6.277
 8891SOL    HW227573   5.860   4.534   6.140
 8892SOL     OW27574   3.336   4.931   3.795
 8892SOL    HW127575   3.379   5.022   3.794
 8892SOL    HW227576   3.256   4.931   3.737
 8893SOL     OW27577   1.246   5.362   4.416
 8893SOL    HW127578   1.335   5.351   4.458
 8893SOL    HW227579   1.257   5.392   4.321
 8894SOL     OW27580   4.404   2.784   0.520
 8894SOL    HW127581   4.452   2.706   0.560
 8894SOL    HW227582   4.457   2.821   0.444
 8895SOL     OW27583   0.900   3.373   0.892
 8895SOL    HW127584   0.984   3.399   0.844
 8895SOL    HW227585   0.874   3.280   0.865
 8896SOL     OW27586   0.512   2.315   4.218
 8896SOL    HW127587   0.583   2.342   4.153
 8896SOL    HW227588   0.465   2.397   4.251
 8897SOL     OW27589   1.510   3.847   3.775
 8897SOL    HW127590   1.537   3.779   3.707
 8897SOL    HW227591   1.592   3.894   3.809
 8898SOL     OW27592   4.885   3.505   2.692
 8898SOL    HW127593   4.975   3.500   2.735
 8898SOL    HW227594   4.893   3.482   2.595
 8899SOL     OW27595   0.335   4.219   6.186
 8899SOL    HW127596   0.305   4.134   6.144
 8899SOL    HW227597   0.388   4.272   6.120
 8900SOL     OW27598   5.761   2.184   3.476
 8900SOL    HW127599   5.841   2.157   3.423
 8900SOL    HW227600   5.786   2.197   3.571
 8901SOL     OW27601   0.576   2.384   3.589
 8901SOL    HW127602   0.631   2.464   3.565
 8901SOL    HW227603   0.596   2.357   3.684
 8902SOL     OW27604   1.167   4.346   0.016
 8902SOL    HW127605   1.254   4.327   0.063
 8902SOL    HW227606   1.102   4.383   0.082
 8903SOL     OW27607   1.691   1.234   4.483
 8903SOL    HW127608   1.709   1.146   4.440
 8903SOL    HW227609   1.772   1.293   4.474
 8904SOL     OW27610   0.432   1.260   2.416
 8904SOL    HW127611   0.349   1.227   2.462
 8904SOL    HW227612   0.496   1.297   2.483
 8905SOL     OW27613   1.660   3.572   2.453
 8905SOL    HW127614   1.721   3.510   2.403
 8905SOL    HW227615   1.643   3.654   2.398
 8906SOL     OW27616   0.436   0.229   0.892
 8906SOL    HW127617   0.497   0.263   0.820
 8906SOL    HW227618   0.392   0.306   0.937
 8907SOL     OW27619   3.181   2.589   5.354
 8907SOL    HW127620   3.200   2.525   5.280
 8907SOL    HW227621   3.084   2.585   5.377
 8908SOL     OW27622   1.376   5.349   0.287
 8908SOL    HW127623   1.293   5.294   0.294
 8908SOL    HW227624   1.354   5.445   0.308
 8909SOL     OW27625   2.488   1.480   6.636
 8909SOL    HW127626   2.572   1.478   6.690
 8909SOL    HW227627   2.504   1.531   6.552
 8910SOL     OW27628   0.862   2.790   4.911
 8910SOL    HW127629   0.890   2.824   5.001
 8910SOL    HW227630   0.888   2.856   4.840
 8911SOL     OW27631   5.303   1.858   3.986
 8911SOL    HW127632   5.353   1.870   4.072
 8911SOL    HW227633   5.207   1.882   4.000
 8912SOL     OW27634   4.043   3.925   5.244
 8912SOL    HW127635   4.035   3.904   5.147
 8912SOL    HW227636   4.140   3.921   5.271
 8913SOL     OW27637   5.230   5.274   0.393
 8913SOL    HW127638   5.157   5.340   0.376
 8913SOL    HW227639   5.315   5.305   0.350
 8914SOL     OW27640   4.978   6.387   4.909
 8914SOL    HW127641   5.054   6.328   4.878
 8914SOL    HW227642   5.004   6.483   4.898
 8915SOL     OW27643   0.805   1.048   3.792
 8915SOL    HW127644   0.843   1.138   3.772
 8915SOL    HW227645   0.706   1.055   3.803
 8916SOL     OW27646   5.730   1.454   6.338
 8916SOL    HW127647   5.788   1.532   6.314
 8916SOL    HW227648   5.738   1.435   6.435
 8917SOL     OW27649   6.213   1.721   0.437
 8917SOL    HW127650   6.141   1.676   0.384
 8917SOL    HW227651   6.173   1.794   0.493
 8918SOL     OW27652   1.697   5.309   1.492
 8918SOL    HW127653   1.792   5.319   1.463
 8918SOL    HW227654   1.686   5.221   1.537
 8919SOL     OW27655   5.477   4.398   6.688
 8919SOL    HW127656   5.577   4.398   6.677
 8919SOL    HW227657   5.452   4.453   6.767
 8920SOL     OW27658   0.314   1.066   6.527
 8920SOL    HW127659   0.407   1.036   6.503
 8920SOL    HW227660   0.247   1.004   6.487
 8921SOL     OW27661   1.100   3.210   1.076
 8921SOL    HW127662   1.108   3.292   1.019
 8921SOL    HW227663   1.080   3.131   1.018
 8922SOL     OW27664   3.658   6.726   3.217
 8922SOL    HW127665   3.743   6.718   3.268
 8922SOL    HW227666   3.635   6.823   3.206
 8923SOL     OW27667   1.560   1.958   5.492
 8923SOL    HW127668   1.610   2.015   5.557
 8923SOL    HW227669   1.590   1.863   5.500
 8924SOL     OW27670   5.378   5.223   4.434
 8924SOL    HW127671   5.301   5.256   4.378
 8924SOL    HW227672   5.433   5.160   4.380
 8925SOL     OW27673   1.356   0.763   2.686
 8925SOL    HW127674   1.338   0.772   2.588
 8925SOL    HW227675   1.356   0.666   2.711
 8926SOL     OW27676   6.300   3.455   5.602
 8926SOL    HW127677   6.212   3.493   5.574
 8926SOL    HW227678   6.285   3.368   5.649
 8927SOL     OW27679   6.535   2.248   5.603
 8927SOL    HW127680   6.475   2.213   5.531
 8927SOL    HW227681   6.502   2.216   5.692
 8928SOL     OW27682   2.653   0.248   5.457
 8928SOL    HW127683   2.591   0.327   5.456
 8928SOL    HW227684   2.655   0.208   5.548
 8929SOL     OW27685   6.310   2.617   5.063
 8929SOL    HW127686   6.282   2.682   4.992
 8929SOL    HW227687   6.228   2.582   5.110
 8930SOL     OW27688   1.278   4.074   3.246
 8930SOL    HW127689   1.203   4.028   3.199
 8930SOL    HW227690   1.269   4.060   3.345
 8931SOL     OW27691   3.464   3.084   1.857
 8931SOL    HW127692   3.457   3.026   1.938
 8931SOL    HW227693   3.374   3.097   1.817
 8932SOL     OW27694   0.505   2.269   3.074
 8932SOL    HW127695   0.460   2.188   3.112
 8932SOL    HW227696   0.494   2.346   3.137
 8933SOL     OW27697   3.647   2.625   6.415
 8933SOL    HW127698   3.680   2.708   6.370
 8933SOL    HW227699   3.574   2.584   6.361
 8934SOL     OW27700   3.766   5.784   3.922
 8934SOL    HW127701   3.720   5.873   3.921
 8934SOL    HW227702   3.862   5.797   3.949
 8935SOL     OW27703   6.711   5.400   0.828
 8935SOL    HW127704   6.774   5.341   0.878
 8935SOL    HW227705   6.742   5.495   0.834
 8936SOL     OW27706   1.799   3.659   0.531
 8936SOL    HW127707   1.829   3.595   0.459
 8936SOL    HW227708   1.756   3.738   0.489
 8937SOL     OW27709   0.446   6.688   5.117
 8937SOL    HW127710   0.494   6.661   5.034
 8937SOL    HW227711   0.471   6.626   5.192
 8938SOL     OW27712   6.679   5.138   1.462
 8938SOL    HW127713   6.592   5.096   1.489
 8938SOL    HW227714   6.723   5.178   1.542
 8939SOL     OW27715   4.934   2.119   4.825
 8939SOL    HW127716   4.918   2.036   4.878
 8939SOL    HW227717   4.984   2.185   4.881
 8940SOL     OW27718   6.828   0.704   3.986
 8940SOL    HW127719   6.867   0.614   3.965
 8940SOL    HW227720   6.733   0.693   4.015
 8941SOL     OW27721   5.645   2.231   5.716
 8941SOL    HW127722   5.630   2.207   5.812
 8941SOL    HW227723   5.602   2.319   5.697
 8942SOL     OW27724   0.277   2.935   5.332
 8942SOL    HW127725   0.358   2.995   5.330
 8942SOL    HW227726   0.305   2.842   5.357
 8943SOL     OW27727   5.297   3.925   0.387
 8943SOL    HW127728   5.276   3.968   0.475
 8943SOL    HW227729   5.213   3.899   0.340
 8944SOL     OW27730   5.439   5.236   6.395
 8944SOL    HW127731   5.460   5.139   6.377
 8944SOL    HW227732   5.369   5.267   6.331
 8945SOL     OW27733   2.461   0.341   4.906
 8945SOL    HW127734   2.449   0.439   4.893
 8945SOL    HW227735   2.520   0.304   4.834
 8946SOL     OW27736   3.376   2.042   4.982
 8946SOL    HW127737   3.301   2.103   4.956
 8946SOL    HW227738   3.463   2.081   4.950
 8947SOL     OW27739   2.147   3.765   5.902
 8947SOL    HW127740   2.128   3.846   5.847
 8947SOL    HW227741   2.206   3.703   5.851
 8948SOL     OW27742   5.458   4.742   3.525
 8948SOL    HW127743   5.531   4.766   3.461
 8948SOL    HW227744   5.425   4.650   3.504
 8949SOL     OW27745   1.897   6.860   6.854
 8949SOL    HW127746   1.884   6.878   6.951
 8949SOL    HW227747   1.816   6.815   6.817
 8950SOL     OW27748   4.730   3.113   5.628
 8950SOL    HW127749   4.806   3.053   5.605
 8950SOL    HW227750   4.691   3.152   5.544
 8951SOL     OW27751   1.333   2.516   5.464
 8951SOL    HW127752   1.390   2.501   5.383
 8951SOL    HW227753   1.382   2.484   5.546
 8952SOL     OW27754   0.925   1.286   2.632
 8952SOL    HW127755   0.878   1.373   2.647
 8952SOL    HW227756   1.023   1.300   2.642
 8953SOL     OW27757   1.335   3.669   6.968
 8953SOL    HW127758   1.319   3.735   6.894
 8953SOL    HW227759   1.309   3.710   0.033
 8954SOL     OW27760   0.219   5.968   6.126
 8954SOL    HW127761   0.306   5.919   6.129
 8954SOL    HW227762   0.146   5.910   6.161
 8955SOL     OW27763   6.851   4.220   3.333
 8955SOL    HW127764   6.868   4.132   3.288
 8955SOL    HW227765   6.864   4.211   3.431
 8956SOL     OW27766   0.495   0.621   6.261
 8956SOL    HW127767   0.422   0.679   6.296
 8956SOL    HW227768   0.525   0.557   6.332
 8957SOL     OW27769   2.779   4.637   1.654
 8957SOL    HW127770   2.845   4.606   1.723
 8957SOL    HW227771   2.821   4.632   1.563
 8958SOL     OW27772   0.440   0.089   4.041
 8958SOL    HW127773   0.419   0.146   3.962
 8958SOL    HW227774   0.503   0.016   4.014
 8959SOL     OW27775   1.115   4.668   0.935
 8959SOL    HW127776   1.119   4.764   0.962
 8959SOL    HW227777   1.020   4.640   0.922
 8960SOL     OW27778   4.301   5.389   2.778
 8960SOL    HW127779   4.332   5.440   2.859
 8960SOL    HW227780   4.378   5.339   2.739
 8961SOL     OW27781   1.434   1.523   4.595
 8961SOL    HW127782   1.390   1.455   4.654
 8961SOL    HW227783   1.452   1.606   4.647
 8962SOL     OW27784   5.853   6.950   2.629
 8962SOL    HW127785   5.767   6.922   2.672
 8962SOL    HW227786   5.834   7.005   2.547
 8963SOL     OW27787   5.048   6.534   4.170
 8963SOL    HW127788   4.954   6.515   4.141
 8963SOL    HW227789   5.092   6.449   4.198
 8964SOL     OW27790   5.343   5.185   1.830
 8964SOL    HW127791   5.345   5.088   1.855
 8964SOL    HW227792   5.399   5.237   1.895
 8965SOL     OW27793   1.717   5.531   0.946
 8965SOL    HW127794   1.807   5.575   0.941
 8965SOL    HW227795   1.647   5.602   0.952
 8966SOL     OW27796   1.658   2.821   6.145
 8966SOL    HW127797   1.680   2.724   6.152
 8966SOL    HW227798   1.561   2.834   6.160
 8967SOL     OW27799   3.617   6.722   1.654
 8967SOL    HW127800   3.540   6.758   1.707
 8967SOL    HW227801   3.648   6.791   1.588
 8968SOL     OW27802   5.116   5.630   2.107
 8968SOL    HW127803   5.070   5.698   2.165
 8968SOL    HW227804   5.071   5.541   2.118
 8969SOL     OW27805   6.134   0.756   3.572
 8969SOL    HW127806   6.077   0.799   3.642
 8969SOL    HW227807   6.208   0.705   3.616
 8970SOL     OW27808   3.281   2.503   1.387
 8970SOL    HW127809   3.276   2.404   1.398
 8970SOL    HW227810   3.346   2.541   1.453
 8971SOL     OW27811   3.453   6.295   2.420
 8971SOL    HW127812   3.534   6.243   2.446
 8971SOL    HW227813   3.379   6.276   2.484
 8972SOL     OW27814   4.890   6.083   7.011
 8972SOL    HW127815   4.820   6.018   0.017
 8972SOL    HW227816   4.854   6.141   6.938
 8973SOL     OW27817   1.108   4.047   1.666
 8973SOL    HW127818   1.148   4.003   1.746
 8973SOL    HW227819   1.178   4.057   1.595
 8974SOL     OW27820   0.968   4.361   6.510
 8974SOL    HW127821   1.055   4.409   6.523
 8974SOL    HW227822   0.978   4.266   6.537
 8975SOL     OW27823   2.909   0.859   0.012
 8975SOL    HW127824   2.902   0.934   6.969
 8975SOL    HW227825   2.946   0.892   0.098
 8976SOL     OW27826   1.336   5.571   5.064
 8976SOL    HW127827   1.283   5.520   5.132
 8976SOL    HW227828   1.306   5.545   4.973
 8977SOL     OW27829   6.480   1.250   6.282
 8977SOL    HW127830   6.576   1.242   6.255
 8977SOL    HW227831   6.427   1.176   6.241
 8978SOL     OW27832   5.915   6.214   7.016
 8978SOL    HW127833   5.826   6.259   0.006
 8978SOL    HW227834   5.915   6.127   0.042
 8979SOL     OW27835   1.518   3.768   4.937
 8979SOL    HW127836   1.440   3.720   4.896
 8979SOL    HW227837   1.588   3.783   4.867
 8980SOL     OW27838   2.948   3.675   5.483
 8980SOL    HW127839   2.925   3.633   5.394
 8980SOL    HW227840   2.958   3.773   5.471
 8981SOL     OW27841   4.162   1.566   5.096
 8981SOL    HW127842   4.084   1.528   5.046
 8981SOL    HW227843   4.160   1.532   5.190
 8982SOL     OW27844   1.882   3.460   0.371
 8982SOL    HW127845   1.896   3.459   0.272
 8982SOL    HW227846   1.970   3.465   0.417
 8983SOL     OW27847   3.128   6.306   6.808
 8983SOL    HW127848   3.068   6.241   6.761
 8983SOL    HW227849   3.142   6.276   6.902
 8984SOL     OW27850   2.235   6.459   2.875
 8984SOL    HW127851   2.319   6.503   2.907
 8984SOL    HW227852   2.164   6.528   2.860
 8985SOL     OW27853   3.363   2.419   0.353
 8985SOL    HW127854   3.458   2.451   0.353
 8985SOL    HW227855   3.337   2.395   0.447
 8986SOL     OW27856   3.489   4.928   2.876
 8986SOL    HW127857   3.420   4.911   2.946
 8986SOL    HW227858   3.580   4.933   2.918
 8987SOL     OW27859   4.549   6.665   3.308
 8987SOL    HW127860   4.465   6.717   3.324
 8987SOL    HW227861   4.532   6.567   3.322
 8988SOL     OW27862   0.390   5.977   3.705
 8988SOL    HW127863   0.482   6.018   3.704
 8988SOL    HW227864   0.321   6.049   3.699
 8989SOL     OW27865   4.195   3.399   6.795
 8989SOL    HW127866   4.289   3.407   6.762
 8989SOL    HW227867   4.161   3.489   6.821
 8990SOL     OW27868   0.401   4.572   3.756
 8990SOL    HW127869   0.432   4.658   3.715
 8990SOL    HW227870   0.358   4.515   3.686
 8991SOL     OW27871   1.578   3.265   4.653
 8991SOL    HW127872   1.620   3.297   4.568
 8991SOL    HW227873   1.646   3.265   4.726
 8992SOL     OW27874   4.812   1.522   0.530
 8992SOL    HW127875   4.791   1.525   0.628
 8992SOL    HW227876   4.776   1.604   0.486
 8993SOL     OW27877   3.825   3.169   6.830
 8993SOL    HW127878   3.875   3.094   6.873
 8993SOL    HW227879   3.764   3.133   6.759
 8994SOL     OW27880   1.509   4.835   4.502
 8994SOL    HW127881   1.575   4.863   4.573
 8994SOL    HW227882   1.529   4.741   4.474
 8995SOL     OW27883   6.414   1.512   0.843
 8995SOL    HW127884   6.479   1.535   0.771
 8995SOL    HW227885   6.321   1.520   0.808
 8996SOL     OW27886   5.401   4.268   5.714
 8996SOL    HW127887   5.410   4.188   5.774
 8996SOL    HW227888   5.336   4.332   5.753
 8997SOL     OW27889   4.769   0.877   6.265
 8997SOL    HW127890   4.729   0.879   6.173
 8997SOL    HW227891   4.700   0.846   6.330
 8998SOL     OW27892   5.940   3.443   4.166
 8998SOL    HW127893   5.998   3.480   4.239
 8998SOL    HW227894   5.912   3.517   4.105
 8999SOL     OW27895   4.960   6.766   6.330
 8999SOL    HW127896   4.952   6.667   6.316
 8999SOL    HW227897   4.972   6.785   6.427
 9000SOL     OW27898   1.491   3.308   2.207
 9000SOL    HW127899   1.526   3.384   2.152
 9000SOL    HW227900   1.497   3.333   2.304
 9001SOL     OW27901   0.146   5.598   1.848
 9001SOL    HW127902   0.105   5.679   1.805
 9001SOL    HW227903   0.109   5.587   1.940
 9002SOL     OW27904   1.358   4.580   5.288
 9002SOL    HW127905   1.438   4.614   5.239
 9002SOL    HW227906   1.307   4.517   5.230
 9003SOL     OW27907   4.838   3.406   1.095
 9003SOL    HW127908   4.819   3.453   1.182
 9003SOL    HW227909   4.907   3.336   1.110
 9004SOL     OW27910   4.440   5.078   0.841
 9004SOL    HW127911   4.501   5.074   0.920
 9004SOL    HW227912   4.493   5.064   0.757
 9005SOL     OW27913   5.913   1.661   5.565
 9005SOL    HW127914   5.822   1.623   5.583
 9005SOL    HW227915   5.982   1.607   5.614
 9006SOL     OW27916   2.474   6.411   0.731
 9006SOL    HW127917   2.482   6.462   0.646
 9006SOL    HW227918   2.386   6.364   0.734
 9007SOL     OW27919   2.667   1.589   2.338
 9007SOL    HW127920   2.735   1.653   2.301
 9007SOL    HW227921   2.656   1.512   2.276
 9008SOL     OW27922   0.100   4.754   3.082
 9008SOL    HW127923   0.011   4.710   3.098
 9008SOL    HW227924   0.098   4.803   2.995
 9009SOL     OW27925   3.199   5.337   1.253
 9009SOL    HW127926   3.247   5.415   1.294
 9009SOL    HW227927   3.182   5.268   1.323
 9010SOL     OW27928   2.532   6.241   4.303
 9010SOL    HW127929   2.505   6.275   4.213
 9010SOL    HW227930   2.463   6.267   4.370
 9011SOL     OW27931   4.042   0.825   1.521
 9011SOL    HW127932   4.083   0.763   1.588
 9011SOL    HW227933   4.051   0.787   1.429
 9012SOL     OW27934   2.470   5.508   0.476
 9012SOL    HW127935   2.477   5.545   0.569
 9012SOL    HW227936   2.559   5.517   0.430
 9013SOL     OW27937   0.521   0.469   5.045
 9013SOL    HW127938   0.605   0.522   5.031
 9013SOL    HW227939   0.544   0.376   5.074
 9014SOL     OW27940   6.288   2.618   1.131
 9014SOL    HW127941   6.350   2.613   1.054
 9014SOL    HW227942   6.336   2.655   1.211
 9015SOL     OW27943   4.877   2.152   1.877
 9015SOL    HW127944   4.850   2.158   1.781
 9015SOL    HW227945   4.884   2.244   1.916
 9016SOL     OW27946   5.500   5.183   6.664
 9016SOL    HW127947   5.464   5.231   6.585
 9016SOL    HW227948   5.446   5.100   6.680
 9017SOL     OW27949   4.228   0.945   4.184
 9017SOL    HW127950   4.195   0.902   4.100
 9017SOL    HW227951   4.313   0.902   4.213
 9018SOL     OW27952   3.535   3.859   6.388
 9018SOL    HW127953   3.625   3.902   6.397
 9018SOL    HW227954   3.547   3.761   6.372
 9019SOL     OW27955   0.864   4.240   2.967
 9019SOL    HW127956   0.866   4.173   2.893
 9019SOL    HW227957   0.956   4.278   2.979
 9020SOL     OW27958   6.954   4.607   1.293
 9020SOL    HW127959   6.877   4.635   1.350
 9020SOL    HW227960   6.921   4.552   1.216
 9021SOL     OW27961   6.952   0.860   3.277
 9021SOL    HW127962   6.915   0.784   3.331
 9021SOL    HW227963   6.927   0.946   3.320
 9022SOL     OW27964   3.773   1.335   6.746
 9022SOL    HW127965   3.762   1.391   6.664
 9022SOL    HW227966   3.698   1.353   6.810
 9023SOL     OW27967   4.418   3.444   1.689
 9023SOL    HW127968   4.344   3.421   1.752
 9023SOL    HW227969   4.485   3.502   1.735
 9024SOL     OW27970   1.193   4.478   5.070
 9024SOL    HW127971   1.257   4.413   5.029
 9024SOL    HW227972   1.106   4.475   5.021
 9025SOL     OW27973   6.691   5.705   0.760
 9025SOL    HW127974   6.731   5.797   0.762
 9025SOL    HW227975   6.629   5.694   0.837
 9026SOL     OW27976   3.290   2.075   0.494
 9026SOL    HW127977   3.285   2.109   0.588
 9026SOL    HW227978   3.250   2.143   0.432
 9027SOL     OW27979   1.104   3.688   3.259
 9027SOL    HW127980   1.032   3.619   3.255
 9027SOL    HW227981   1.142   3.702   3.168
 9028SOL     OW27982   4.107   2.951   5.353
 9028SOL    HW127983   4.045   2.924   5.279
 9028SOL    HW227984   4.056   2.956   5.439
 9029SOL     OW27985   4.150   6.878   5.089
 9029SOL    HW127986   4.239   6.885   5.133
 9029SOL    HW227987   4.113   6.786   5.102
 9030SOL     OW27988   1.851   2.556   4.300
 9030SOL    HW127989   1.761   2.551   4.343
 9030SOL    HW227990   1.869   2.472   4.249
 9031SOL     OW27991   4.331   0.030   4.429
 9031SOL    HW127992   4.325   0.025   4.529
 9031SOL    HW227993   4.251   0.078   4.393
 9032SOL     OW27994   4.705   3.786   1.081
 9032SOL    HW127995   4.631   3.718   1.080
 9032SOL    HW227996   4.666   3.878   1.085
 9033SOL     OW27997   0.411   4.473   2.744
 9033SOL    HW127998   0.379   4.513   2.829
 9033SOL    HW227999   0.376   4.527   2.667
 9034SOL     OW28000   3.202   6.185   4.741
 9034SOL    HW128001   3.222   6.143   4.829
 9034SOL    HW228002   3.245   6.133   4.668
 9035SOL     OW28003   2.032   5.791   6.857
 9035SOL    HW128004   1.946   5.760   6.817
 9035SOL    HW228005   2.037   5.765   6.953
 9036SOL     OW28006   1.567   4.248   5.450
 9036SOL    HW128007   1.610   4.193   5.521
 9036SOL    HW228008   1.540   4.337   5.488
 9037SOL     OW28009   1.138   3.014   4.081
 9037SOL    HW128010   1.134   3.080   4.157
 9037SOL    HW228011   1.230   2.976   4.075
 9038SOL     OW28012   4.369   3.317   0.131
 9038SOL    HW128013   4.323   3.272   0.055
 9038SOL    HW228014   4.303   3.373   0.182
 9039SOL     OW28015   3.112   4.622   6.868
 9039SOL    HW128016   3.203   4.610   6.828
 9039SOL    HW228017   3.068   4.702   6.827
 9040SOL     OW28018   2.671   2.206   2.100
 9040SOL    HW128019   2.746   2.246   2.048
 9040SOL    HW228020   2.662   2.109   2.075
 9041SOL     OW28021   1.062   2.423   1.080
 9041SOL    HW128022   1.070   2.334   1.036
 9041SOL    HW228023   1.002   2.482   1.025
 9042SOL     OW28024   3.841   6.727   5.041
 9042SOL    HW128025   3.841   6.743   5.140
 9042SOL    HW228026   3.899   6.648   5.020
 9043SOL     OW28027   2.037   1.577   6.233
 9043SOL    HW128028   2.107   1.506   6.241
 9043SOL    HW228029   2.076   1.657   6.187
 9044SOL     OW28030   0.581   1.108   6.907
 9044SOL    HW128031   0.641   1.132   6.983
 9044SOL    HW228032   0.556   1.012   6.913
 9045SOL     OW28033   3.954   0.276   3.178
 9045SOL    HW128034   3.990   0.183   3.181
 9045SOL    HW228035   3.908   0.298   3.264
 9046SOL     OW28036   4.043   3.890   2.649
 9046SOL    HW128037   3.996   3.943   2.719
 9046SOL    HW228038   4.078   3.951   2.578
 9047SOL     OW28039   0.910   4.122   4.761
 9047SOL    HW128040   0.982   4.111   4.829
 9047SOL    HW228041   0.889   4.219   4.750
 9048SOL     OW28042   6.322   2.621   6.376
 9048SOL    HW128043   6.354   2.704   6.332
 9048SOL    HW228044   6.376   2.604   6.459
 9049SOL     OW28045   3.558   6.250   5.615
 9049SOL    HW128046   3.521   6.202   5.694
 9049SOL    HW228047   3.488   6.308   5.574
 9050SOL     OW28048   0.544   3.446   1.387
 9050SOL    HW128049   0.501   3.364   1.348
 9050SOL    HW228050   0.474   3.504   1.429
 9051SOL     OW28051   2.098   0.436   1.667
 9051SOL    HW128052   2.120   0.355   1.613
 9051SOL    HW228053   2.022   0.416   1.728
 9052SOL     OW28054   2.145   3.199   4.023
 9052SOL    HW128055   2.140   3.126   4.092
 9052SOL    HW228056   2.122   3.287   4.065
 9053SOL     OW28057   2.065   1.318   0.750
 9053SOL    HW128058   2.126   1.296   0.674
 9053SOL    HW228059   1.984   1.259   0.746
 9054SOL     OW28060   2.122   5.922   4.435
 9054SOL    HW128061   2.207   5.969   4.412
 9054SOL    HW228062   2.127   5.827   4.405
 9055SOL     OW28063   6.196   3.878   4.473
 9055SOL    HW128064   6.210   3.888   4.572
 9055SOL    HW228065   6.284   3.872   4.427
 9056SOL     OW28066   6.407   1.732   2.096
 9056SOL    HW128067   6.435   1.817   2.051
 9056SOL    HW228068   6.329   1.693   2.046
 9057SOL     OW28069   4.740   2.313   4.788
 9057SOL    HW128070   4.823   2.258   4.798
 9057SOL    HW228071   4.659   2.253   4.793
 9058SOL     OW28072   1.128   0.640   0.418
 9058SOL    HW128073   1.184   0.612   0.496
 9058SOL    HW228074   1.187   0.674   0.345
 9059SOL     OW28075   1.029   2.262   2.993
 9059SOL    HW128076   0.945   2.224   2.956
 9059SOL    HW228077   1.027   2.362   2.985
 9060SOL     OW28078   5.689   3.085   4.584
 9060SOL    HW128079   5.622   3.135   4.638
 9060SOL    HW228080   5.756   3.043   4.646
 9061SOL     OW28081   3.762   5.576   2.554
 9061SOL    HW128082   3.834   5.510   2.531
 9061SOL    HW228083   3.674   5.542   2.522
 9062SOL     OW28084   1.243   5.510   1.517
 9062SOL    HW128085   1.162   5.467   1.477
 9062SOL    HW228086   1.240   5.608   1.502
 9063SOL     OW28087   2.661   1.193   4.091
 9063SOL    HW128088   2.566   1.164   4.106
 9063SOL    HW228089   2.723   1.128   4.135
 9064SOL     OW28090   6.677   3.642   6.407
 9064SOL    HW128091   6.655   3.545   6.404
 9064SOL    HW228092   6.639   3.687   6.326
 9065SOL     OW28093   4.094   6.932   0.430
 9065SOL    HW128094   4.111   6.968   0.522
 9065SOL    HW228095   4.180   6.932   0.378
 9066SOL     OW28096   5.503   0.323   0.539
 9066SOL    HW128097   5.481   0.360   0.449
 9066SOL    HW228098   5.534   0.228   0.530
 9067SOL     OW28099   1.832   0.255   3.764
 9067SOL    HW128100   1.817   0.343   3.808
 9067SOL    HW228101   1.864   0.269   3.671
 9068SOL     OW28102   1.154   6.623   4.687
 9068SOL    HW128103   1.125   6.618   4.591
 9068SOL    HW228104   1.222   6.551   4.704
 9069SOL     OW28105   1.244   3.541   6.523
 9069SOL    HW128106   1.287   3.519   6.610
 9069SOL    HW228107   1.312   3.576   6.460
 9070SOL     OW28108   2.121   3.882   4.860
 9070SOL    HW128109   2.130   3.783   4.865
 9070SOL    HW228110   2.190   3.925   4.919
 9071SOL     OW28111   6.494   6.294   0.745
 9071SOL    HW128112   6.511   6.212   0.801
 9071SOL    HW228113   6.463   6.369   0.805
 9072SOL     OW28114   0.062   3.478   0.688
 9072SOL    HW128115   0.003   3.558   0.695
 9072SOL    HW228116   0.006   3.395   0.696
 9073SOL     OW28117   1.950   0.576   1.432
 9073SOL    HW128118   2.025   0.572   1.366
 9073SOL    HW228119   1.984   0.558   1.524
 9074SOL     OW28120   1.706   0.265   2.538
 9074SOL    HW128121   1.781   0.263   2.605
 9074SOL    HW228122   1.654   0.180   2.543
 9075SOL     OW28123   6.121   0.507   2.015
 9075SOL    HW128124   6.141   0.470   1.924
 9075SOL    HW228125   6.032   0.552   2.014
 9076SOL     OW28126   0.753   1.138   6.194
 9076SOL    HW128127   0.796   1.080   6.263
 9076SOL    HW228128   0.674   1.184   6.233
 9077SOL     OW28129   4.058   6.726   2.436
 9077SOL    HW128130   4.118   6.789   2.388
 9077SOL    HW228131   3.968   6.769   2.448
 9078SOL     OW28132   4.017   3.536   4.865
 9078SOL    HW128133   3.947   3.607   4.872
 9078SOL    HW228134   4.052   3.532   4.771
 9079SOL     OW28135   3.435   0.024   4.638
 9079SOL    HW128136   3.375   6.967   4.624
 9079SOL    HW228137   3.400   0.079   4.713
 9080SOL     OW28138   5.253   2.330   6.960
 9080SOL    HW128139   5.165   2.376   6.969
 9080SOL    HW228140   5.276   2.320   6.863
 9081SOL     OW28141   5.295   6.237   3.106
 9081SOL    HW128142   5.380   6.229   3.054
 9081SOL    HW228143   5.279   6.333   3.130
 9082SOL     OW28144   2.243   0.548   3.636
 9082SOL    HW128145   2.229   0.635   3.589
 9082SOL    HW228146   2.212   0.556   3.731
 9083SOL     OW28147   5.017   4.741   5.246
 9083SOL    HW128148   5.077   4.700   5.177
 9083SOL    HW228149   5.015   4.682   5.327
 9084SOL     OW28150   2.979   3.700   3.034
 9084SOL    HW128151   3.068   3.685   2.992
 9084SOL    HW228152   2.928   3.614   3.037
 9085SOL     OW28153   2.050   1.551   0.907
 9085SOL    HW128154   1.964   1.600   0.894
 9085SOL    HW228155   2.051   1.470   0.849
 9086SOL     OW28156   0.792   3.457   0.612
 9086SOL    HW128157   0.802   3.506   0.525
 9086SOL    HW228158   0.850   3.499   0.681
 9087SOL     OW28159   4.879   3.199   2.437
 9087SOL    HW128160   4.872   3.104   2.406
 9087SOL    HW228161   4.884   3.201   2.537
 9088SOL     OW28162   6.492   0.503   0.069
 9088SOL    HW128163   6.410   0.447   0.057
 9088SOL    HW228164   6.566   0.467   0.012
 9089SOL     OW28165   5.130   6.624   6.001
 9089SOL    HW128166   5.191   6.703   6.003
 9089SOL    HW228167   5.052   6.640   6.061
 9090SOL     OW28168   5.629   0.318   4.591
 9090SOL    HW128169   5.602   0.273   4.506
 9090SOL    HW228170   5.551   0.322   4.654
 9091SOL     OW28171   3.065   4.138   6.697
 9091SOL    HW128172   3.077   4.237   6.692
 9091SOL    HW228173   2.983   4.112   6.645
 9092SOL     OW28174   6.931   1.903   6.765
 9092SOL    HW128175   0.004   1.933   6.763
 9092SOL    HW228176   6.914   1.850   6.848
 9093SOL     OW28177   1.284   6.806   5.644
 9093SOL    HW128178   1.306   6.724   5.592
 9093SOL    HW228179   1.255   6.878   5.581
 9094SOL     OW28180   0.175   3.320   2.207
 9094SOL    HW128181   0.264   3.278   2.189
 9094SOL    HW228182   0.142   3.365   2.124
 9095SOL     OW28183   4.915   4.984   5.332
 9095SOL    HW128184   4.948   4.903   5.283
 9095SOL    HW228185   4.893   5.056   5.265
 9096SOL     OW28186   6.277   5.434   3.033
 9096SOL    HW128187   6.314   5.362   3.091
 9096SOL    HW228188   6.351   5.482   2.986
 9097SOL     OW28189   0.507   2.795   6.161
 9097SOL    HW128190   0.445   2.814   6.085
 9097SOL    HW228191   0.458   2.747   6.233
 9098SOL     OW28192   1.915   2.208   5.166
 9098SOL    HW128193   1.953   2.206   5.073
 9098SOL    HW228194   1.844   2.138   5.174
 9099SOL     OW28195   2.233   3.443   6.240
 9099SOL    HW128196   2.240   3.543   6.234
 9099SOL    HW228197   2.322   3.405   6.265
 9100SOL     OW28198   1.477   4.347   2.520
 9100SOL    HW128199   1.427   4.433   2.508
 9100SOL    HW228200   1.457   4.286   2.443
 9101SOL     OW28201   2.825   1.111   2.351
 9101SOL    HW128202   2.730   1.122   2.325
 9101SOL    HW228203   2.875   1.196   2.337
 9102SOL     OW28204   4.468   6.527   2.975
 9102SOL    HW128205   4.508   6.553   2.887
 9102SOL    HW228206   4.536   6.538   3.047
 9103SOL     OW28207   6.582   1.824   6.709
 9103SOL    HW128208   6.567   1.900   6.772
 9103SOL    HW228209   6.575   1.856   6.615
 9104SOL     OW28210   0.671   0.771   0.592
 9104SOL    HW128211   0.648   0.846   0.530
 9104SOL    HW228212   0.596   0.756   0.656
 9105SOL     OW28213   1.960   0.167   5.995
 9105SOL    HW128214   1.888   0.175   5.926
 9105SOL    HW228215   2.008   0.255   6.004
 9106SOL     OW28216   0.758   4.719   6.737
 9106SOL    HW128217   0.694   4.795   6.733
 9106SOL    HW228218   0.749   4.663   6.655
 9107SOL     OW28219   2.520   0.672   6.492
 9107SOL    HW128220   2.616   0.655   6.469
 9107SOL    HW228221   2.508   0.766   6.521
 9108SOL     OW28222   5.248   5.515   5.558
 9108SOL    HW128223   5.237   5.517   5.657
 9108SOL    HW228224   5.229   5.423   5.524
 9109SOL     OW28225   5.520   2.731   1.982
 9109SOL    HW128226   5.529   2.768   2.074
 9109SOL    HW228227   5.525   2.806   1.915
 9110SOL     OW28228   1.482   5.657   5.397
 9110SOL    HW128229   1.506   5.744   5.354
 9110SOL    HW228230   1.555   5.590   5.381
 9111SOL     OW28231   4.679   2.689   5.399
 9111SOL    HW128232   4.644   2.642   5.318
 9111SOL    HW228233   4.603   2.728   5.451
 9112SOL     OW28234   2.426   5.291   2.951
 9112SOL    HW128235   2.494   5.256   2.886
 9112SOL    HW228236   2.352   5.337   2.901
 9113SOL     OW28237   5.027   2.321   3.162
 9113SOL    HW128238   4.980   2.349   3.246
 9113SOL    HW228239   5.049   2.223   3.168
 9114SOL     OW28240   1.301   6.147   4.943
 9114SOL    HW128241   1.216   6.094   4.939
 9114SOL    HW228242   1.280   6.244   4.930
 9115SOL     OW28243   5.974   4.548   3.467
 9115SOL    HW128244   5.922   4.482   3.522
 9115SOL    HW228245   6.007   4.504   3.384
 9116SOL     OW28246   0.910   6.776   3.393
 9116SOL    HW128247   1.005   6.764   3.420
 9116SOL    HW228248   0.883   6.871   3.410
 9117SOL     OW28249   4.106   0.375   0.016
 9117SOL    HW128250   4.054   0.429   0.083
 9117SOL    HW228251   4.140   0.292   0.059
 9118SOL     OW28252   5.645   4.048   0.653
 9118SOL    HW128253   5.686   3.989   0.583
 9118SOL    HW228254   5.715   4.108   0.691
 9119SOL     OW28255   3.562   6.614   1.267
 9119SOL    HW128256   3.559   6.520   1.299
 9119SOL    HW228257   3.472   6.640   1.231
 9120SOL     OW28258   5.921   2.746   6.092
 9120SOL    HW128259   5.988   2.718   6.023
 9120SOL    HW228260   5.888   2.838   6.070
 9121SOL     OW28261   3.284   0.086   5.629
 9121SOL    HW128262   3.348   0.037   5.688
 9121SOL    HW228263   3.321   0.091   5.536
 9122SOL     OW28264   2.579   4.520   1.810
 9122SOL    HW128265   2.574   4.432   1.763
 9122SOL    HW228266   2.665   4.565   1.789
 9123SOL     OW28267   1.165   0.826   3.182
 9123SOL    HW128268   1.152   0.730   3.205
 9123SOL    HW228269   1.155   0.882   3.264
 9124SOL     OW28270   3.255   5.149   1.461
 9124SOL    HW128271   3.265   5.182   1.556
 9124SOL    HW228272   3.244   5.050   1.461
 9125SOL     OW28273   4.082   6.524   0.692
 9125SOL    HW128274   4.116   6.485   0.778
 9125SOL    HW228275   4.154   6.579   0.650
 9126SOL     OW28276   4.059   5.391   0.533
 9126SOL    HW128277   4.125   5.341   0.477
 9126SOL    HW228278   3.989   5.431   0.475
 9127SOL     OW28279   6.903   3.698   5.178
 9127SOL    HW128280   6.838   3.626   5.153
 9127SOL    HW228281   6.881   3.781   5.128
 9128SOL     OW28282   5.909   3.215   4.907
 9128SOL    HW128283   5.867   3.255   4.989
 9128SOL    HW228284   5.986   3.272   4.879
 9129SOL     OW28285   2.292   1.977   0.668
 9129SOL    HW128286   2.380   1.950   0.708
 9129SOL    HW228287   2.233   1.897   0.662
 9130SOL     OW28288   2.795   4.113   5.412
 9130SOL    HW128289   2.742   4.037   5.373
 9130SOL    HW228290   2.851   4.154   5.340
 9131SOL     OW28291   5.890   2.680   0.775
 9131SOL    HW128292   5.987   2.704   0.773
 9131SOL    HW228293   5.870   2.632   0.860
 9132SOL     OW28294   0.914   3.789   3.512
 9132SOL    HW128295   0.987   3.805   3.579
 9132SOL    HW228296   0.871   3.701   3.530
 9133SOL     OW28297   4.658   0.685   1.121
 9133SOL    HW128298   4.607   0.606   1.090
 9133SOL    HW228299   4.594   0.756   1.151
 9134SOL     OW28300   4.484   5.360   0.939
 9134SOL    HW128301   4.460   5.405   1.025
 9134SOL    HW228302   4.577   5.386   0.913
 9135SOL     OW28303   0.943   6.067   2.431
 9135SOL    HW128304   0.878   6.126   2.479
 9135SOL    HW228305   0.899   5.981   2.406
 9136SOL     OW28306   6.206   4.702   6.442
 9136SOL    HW128307   6.188   4.668   6.349
 9136SOL    HW228308   6.132   4.763   6.470
 9137SOL     OW28309   4.447   5.930   6.901
 9137SOL    HW128310   4.494   6.012   6.936
 9137SOL    HW228311   4.458   5.925   6.802
 9138SOL     OW28312   2.962   3.169   0.829
 9138SOL    HW128313   2.881   3.216   0.865
 9138SOL    HW228314   3.001   3.111   0.900
 9139SOL     OW28315   0.064   0.542   1.273
 9139SOL    HW128316   0.127   0.560   1.349
 9139SOL    HW228317   0.104   0.473   1.213
 9140SOL     OW28318   0.600   4.399   2.408
 9140SOL    HW128319   0.589   4.498   2.400
 9140SOL    HW228320   0.510   4.356   2.420
 9141SOL     OW28321   6.651   5.511   6.444
 9141SOL    HW128322   6.698   5.594   6.473
 9141SOL    HW228323   6.608   5.468   6.523
 9142SOL     OW28324   1.202   3.760   3.019
 9142SOL    HW128325   1.136   3.825   3.056
 9142SOL    HW228326   1.295   3.797   3.031
 9143SOL     OW28327   0.247   3.326   2.622
 9143SOL    HW128328   0.217   3.420   2.605
 9143SOL    HW228329   0.310   3.325   2.699
 9144SOL     OW28330   2.857   4.680   5.674
 9144SOL    HW128331   2.857   4.582   5.655
 9144SOL    HW228332   2.799   4.700   5.752
 9145SOL     OW28333   1.298   6.428   6.088
 9145SOL    HW128334   1.281   6.408   5.991
 9145SOL    HW228335   1.272   6.349   6.143
 9146SOL     OW28336   5.762   3.418   3.068
 9146SOL    HW128337   5.670   3.458   3.075
 9146SOL    HW228338   5.824   3.465   3.130
 9147SOL     OW28339   4.773   0.464   4.402
 9147SOL    HW128340   4.751   0.371   4.374
 9147SOL    HW228341   4.726   0.530   4.343
 9148SOL     OW28342   6.304   6.770   1.714
 9148SOL    HW128343   6.292   6.867   1.733
 9148SOL    HW228344   6.399   6.744   1.733
 9149SOL     OW28345   0.036   4.070   1.105
 9149SOL    HW128346   0.039   3.980   1.062
 9149SOL    HW228347   0.061   4.063   1.202
 9150SOL     OW28348   2.751   3.191   6.952
 9150SOL    HW128349   2.840   3.217   6.915
 9150SOL    HW228350   2.758   3.184   0.029
 9151SOL     OW28351   1.521   3.439   3.760
 9151SOL    HW128352   1.555   3.498   3.687
 9151SOL    HW228353   1.576   3.356   3.764
 9152SOL     OW28354   1.855   4.201   4.018
 9152SOL    HW128355   1.901   4.122   4.059
 9152SOL    HW228356   1.855   4.277   4.083
 9153SOL     OW28357   6.526   3.303   6.718
 9153SOL    HW128358   6.495   3.344   6.632
 9153SOL    HW228359   6.471   3.339   6.794
 9154SOL     OW28360   6.006   4.956   2.738
 9154SOL    HW128361   6.002   4.957   2.837
 9154SOL    HW228362   5.915   4.974   2.700
 9155SOL     OW28363   0.617   5.796   2.973
 9155SOL    HW128364   0.566   5.859   3.032
 9155SOL    HW228365   0.606   5.824   2.877
 9156SOL     OW28366   6.574   3.944   6.772
 9156SOL    HW128367   6.587   3.952   6.871
 9156SOL    HW228368   6.641   4.001   6.725
 9157SOL     OW28369   2.581   4.933   6.106
 9157SOL    HW128370   2.527   5.008   6.143
 9157SOL    HW228371   2.531   4.847   6.118
 9158SOL     OW28372   6.944   3.232   4.259
 9158SOL    HW128373   6.899   3.143   4.258
 9158SOL    HW228374   6.997   3.242   4.343
 9159SOL     OW28375   3.592   0.999   3.265
 9159SOL    HW128376   3.545   0.927   3.316
 9159SOL    HW228377   3.630   1.066   3.329
 9160SOL     OW28378   0.317   4.432   7.006
 9160SOL    HW128379   0.347   4.527   7.008
 9160SOL    HW228380   0.368   4.379   0.051
 9161SOL     OW28381   5.802   4.017   1.636
 9161SOL    HW128382   5.741   4.034   1.558
 9161SOL    HW228383   5.897   4.019   1.605
 9162SOL     OW28384   4.489   1.797   2.015
 9162SOL    HW128385   4.459   1.763   1.926
 9162SOL    HW228386   4.470   1.895   2.022
 9163SOL     OW28387   1.598   2.775   3.438
 9163SOL    HW128388   1.520   2.727   3.398
 9163SOL    HW228389   1.605   2.752   3.535
 9164SOL     OW28390   2.120   0.872   6.664
 9164SOL    HW128391   2.140   0.962   6.625
 9164SOL    HW228392   2.205   0.818   6.669
 9165SOL     OW28393   5.445   2.046   5.625
 9165SOL    HW128394   5.504   2.122   5.650
 9165SOL    HW228395   5.351   2.067   5.650
 9166SOL     OW28396   5.093   4.974   1.453
 9166SOL    HW128397   5.016   5.037   1.448
 9166SOL    HW228398   5.177   5.021   1.425
 9167SOL     OW28399   2.046   0.984   4.878
 9167SOL    HW128400   2.091   1.067   4.848
 9167SOL    HW228401   2.014   0.994   4.972
 9168SOL     OW28402   6.534   6.269   4.510
 9168SOL    HW128403   6.564   6.289   4.417
 9168SOL    HW228404   6.460   6.202   4.506
 9169SOL     OW28405   6.262   6.260   0.547
 9169SOL    HW128406   6.297   6.219   0.631
 9169SOL    HW228407   6.320   6.234   0.470
 9170SOL     OW28408   1.611   1.511   5.391
 9170SOL    HW128409   1.538   1.552   5.336
 9170SOL    HW228410   1.638   1.424   5.350
 9171SOL     OW28411   3.265   4.581   0.592
 9171SOL    HW128412   3.208   4.539   0.521
 9171SOL    HW228413   3.284   4.676   0.569
 9172SOL     OW28414   5.211   1.432   4.090
 9172SOL    HW128415   5.256   1.353   4.132
 9172SOL    HW228416   5.166   1.403   4.005
 9173SOL     OW28417   5.765   2.923   4.196
 9173SOL    HW128418   5.796   2.850   4.257
 9173SOL    HW228419   5.756   2.887   4.103
 9174SOL     OW28420   6.848   5.130   0.299
 9174SOL    HW128421   6.816   5.189   0.374
 9174SOL    HW228422   6.771   5.110   0.238
 9175SOL     OW28423   1.693   6.503   6.637
 9175SOL    HW128424   1.647   6.585   6.672
 9175SOL    HW228425   1.783   6.527   6.601
 9176SOL     OW28426   1.730   1.303   2.634
 9176SOL    HW128427   1.740   1.237   2.709
 9176SOL    HW228428   1.749   1.395   2.667
 9177SOL     OW28429   0.524   4.234   3.935
 9177SOL    HW128430   0.559   4.250   4.027
 9177SOL    HW228431   0.442   4.177   3.939
 9178SOL     OW28432   1.666   6.522   0.764
 9178SOL    HW128433   1.592   6.455   0.764
 9178SOL    HW228434   1.654   6.586   0.687
 9179SOL     OW28435   4.148   5.613   5.311
 9179SOL    HW128436   4.169   5.596   5.214
 9179SOL    HW228437   4.106   5.531   5.351
 9180SOL     OW28438   0.373   1.249   4.176
 9180SOL    HW128439   0.352   1.216   4.268
 9180SOL    HW228440   0.340   1.343   4.166
 9181SOL     OW28441   3.919   1.568   3.346
 9181SOL    HW128442   4.016   1.588   3.337
 9181SOL    HW228443   3.874   1.640   3.399
 9182SOL     OW28444   1.770   1.226   2.913
 9182SOL    HW128445   1.782   1.157   2.984
 9182SOL    HW228446   1.672   1.240   2.897
 9183SOL     OW28447   6.271   3.143   5.484
 9183SOL    HW128448   6.266   3.149   5.384
 9183SOL    HW228449   6.309   3.054   5.510
 9184SOL     OW28450   3.512   2.991   1.048
 9184SOL    HW128451   3.589   2.954   0.995
 9184SOL    HW228452   3.470   2.918   1.101
 9185SOL     OW28453   0.784   7.004   6.342
 9185SOL    HW128454   0.865   0.031   6.310
 9185SOL    HW228455   0.800   6.906   6.332
 9186SOL     OW28456   5.600   1.099   6.171
 9186SOL    HW128457   5.616   1.007   6.136
 9186SOL    HW228458   5.627   1.103   6.267
 9187SOL     OW28459   4.906   1.887   0.363
 9187SOL    HW128460   4.888   1.912   0.458
 9187SOL    HW228461   4.996   1.923   0.335
 9188SOL     OW28462   1.124   0.493   1.896
 9188SOL    HW128463   1.169   0.409   1.866
 9188SOL    HW228464   1.160   0.520   1.985
 9189SOL     OW28465   4.007   1.342   3.962
 9189SOL    HW128466   3.944   1.417   3.942
 9189SOL    HW228467   4.070   1.330   3.885
 9190SOL     OW28468   6.290   4.110   5.513
 9190SOL    HW128469   6.204   4.075   5.550
 9190SOL    HW228470   6.358   4.037   5.511
 9191SOL     OW28471   5.661   6.303   0.111
 9191SOL    HW128472   5.671   6.280   0.208
 9191SOL    HW228473   5.645   6.401   0.101
 9192SOL     OW28474   6.379   4.325   5.123
 9192SOL    HW128475   6.294   4.289   5.085
 9192SOL    HW228476   6.434   4.367   5.051
 9193SOL     OW28477   3.603   3.221   3.452
 9193SOL    HW128478   3.527   3.156   3.445
 9193SOL    HW228479   3.610   3.254   3.546
 9194SOL     OW28480   3.068   5.245   2.755
 9194SOL    HW128481   2.996   5.274   2.818
 9194SOL    HW228482   3.094   5.322   2.696
 9195SOL     OW28483   0.022   3.173   2.600
 9195SOL    HW128484   0.102   3.231   2.615
 9195SOL    HW228485   0.001   3.122   2.683
 9196SOL     OW28486   4.778   0.296   3.679
 9196SOL    HW128487   4.701   0.275   3.619
 9196SOL    HW228488   4.780   0.231   3.755
 9197SOL     OW28489   3.639   3.581   6.353
 9197SOL    HW128490   3.662   3.514   6.283
 9197SOL    HW228491   3.722   3.632   6.380
 9198SOL     OW28492   6.288   2.832   5.584
 9198SOL    HW128493   6.346   2.806   5.507
 9198SOL    HW228494   6.197   2.790   5.574
 9199SOL     OW28495   1.292   3.884   6.804
 9199SOL    HW128496   1.208   3.854   6.760
 9199SOL    HW228497   1.333   3.958   6.751
 9200SOL     OW28498   6.684   0.605   0.234
 9200SOL    HW128499   6.694   0.701   0.209
 9200SOL    HW228500   6.612   0.564   0.179
 9201SOL     OW28501   0.925   3.698   2.436
 9201SOL    HW128502   0.982   3.668   2.512
 9201SOL    HW228503   0.829   3.699   2.464
 9202SOL     OW28504   3.077   5.546   4.413
 9202SOL    HW128505   3.173   5.563   4.435
 9202SOL    HW228506   3.019   5.592   4.480
 9203SOL     OW28507   5.135   0.773   5.760
 9203SOL    HW128508   5.127   0.781   5.660
 9203SOL    HW228509   5.066   0.832   5.803
 9204SOL     OW28510   4.698   4.305   2.587
 9204SOL    HW128511   4.788   4.305   2.543
 9204SOL    HW228512   4.628   4.323   2.518
 9205SOL     OW28513   5.387   2.776   2.499
 9205SOL    HW128514   5.297   2.762   2.457
 9205SOL    HW228515   5.375   2.802   2.595
 9206SOL     OW28516   0.636   6.718   3.303
 9206SOL    HW128517   0.608   6.731   3.208
 9206SOL    HW228518   0.735   6.703   3.307
 9207SOL     OW28519   4.225   6.699   0.550
 9207SOL    HW128520   4.295   6.770   0.540
 9207SOL    HW228521   4.134   6.741   0.545
 9208SOL     OW28522   5.135   4.228   1.703
 9208SOL    HW128523   5.051   4.261   1.659
 9208SOL    HW228524   5.117   4.138   1.744
 9209SOL     OW28525   4.168   0.973   2.381
 9209SOL    HW128526   4.244   0.931   2.429
 9209SOL    HW228527   4.159   0.932   2.290
 9210SOL     OW28528   1.365   0.234   1.214
 9210SOL    HW128529   1.265   0.239   1.224
 9210SOL    HW228530   1.390   0.147   1.172
 9211SOL     OW28531   5.161   1.353   6.898
 9211SOL    HW128532   5.116   1.439   6.872
 9211SOL    HW228533   5.229   1.371   6.969
 9212SOL     OW28534   5.406   3.748   4.661
 9212SOL    HW128535   5.371   3.725   4.752
 9212SOL    HW228536   5.500   3.715   4.652
 9213SOL     OW28537   6.090   6.930   3.158
 9213SOL    HW128538   6.019   6.983   3.112
 9213SOL    HW228539   6.079   6.833   3.134
 9214SOL     OW28540   2.313   1.995   4.754
 9214SOL    HW128541   2.283   1.971   4.847
 9214SOL    HW228542   2.412   2.009   4.754
 9215SOL     OW28543   0.806   3.478   2.899
 9215SOL    HW128544   0.794   3.498   2.801
 9215SOL    HW228545   0.755   3.545   2.953
 9216SOL     OW28546   1.969   5.603   4.837
 9216SOL    HW128547   2.038   5.541   4.799
 9216SOL    HW228548   1.881   5.587   4.792
 9217SOL     OW28549   4.530   1.052   6.412
 9217SOL    HW128550   4.559   1.100   6.495
 9217SOL    HW228551   4.432   1.034   6.416
 9218SOL     OW28552   5.721   5.608   5.985
 9218SOL    HW128553   5.745   5.543   6.057
 9218SOL    HW228554   5.663   5.680   6.023
 9219SOL     OW28555   3.622   2.712   5.663
 9219SOL    HW128556   3.633   2.784   5.593
 9219SOL    HW228557   3.635   2.752   5.753
 9220SOL     OW28558   1.594   6.243   3.354
 9220SOL    HW128559   1.580   6.209   3.447
 9220SOL    HW228560   1.659   6.319   3.356
 9221SOL     OW28561   2.591   1.221   0.108
 9221SOL    HW128562   2.577   1.122   0.106
 9221SOL    HW228563   2.572   1.259   0.018
 9222SOL     OW28564   1.544   3.643   3.590
 9222SOL    HW128565   1.627   3.673   3.543
 9222SOL    HW228566   1.465   3.658   3.531
 9223SOL     OW28567   0.740   3.616   4.562
 9223SOL    HW128568   0.729   3.679   4.638
 9223SOL    HW228569   0.658   3.559   4.554
 9224SOL     OW28570   2.184   4.068   4.451
 9224SOL    HW128571   2.173   4.064   4.351
 9224SOL    HW228572   2.184   4.164   4.480
 9225SOL     OW28573   4.731   6.676   6.984
 9225SOL    HW128574   4.633   6.676   6.999
 9225SOL    HW228575   4.764   6.771   6.982
 9226SOL     OW28576   0.834   1.060   0.870
 9226SOL    HW128577   0.871   1.035   0.781
 9226SOL    HW228578   0.884   1.139   0.906
 9227SOL     OW28579   2.498   5.495   0.933
 9227SOL    HW128580   2.444   5.450   0.863
 9227SOL    HW228581   2.553   5.428   0.982
 9228SOL     OW28582   2.966   2.710   5.680
 9228SOL    HW128583   2.971   2.629   5.738
 9228SOL    HW228584   2.920   2.784   5.730
 9229SOL     OW28585   0.265   4.741   0.044
 9229SOL    HW128586   0.193   4.787   7.015
 9229SOL    HW228587   0.344   4.801   0.052
 9230SOL     OW28588   4.336   1.374   4.483
 9230SOL    HW128589   4.347   1.449   4.419
 9230SOL    HW228590   4.283   1.300   4.440
 9231SOL     OW28591   6.921   5.809   4.090
 9231SOL    HW128592   6.835   5.844   4.129
 9231SOL    HW228593   6.906   5.717   4.055
 9232SOL     OW28594   1.450   5.308   1.696
 9232SOL    HW128595   1.504   5.249   1.755
 9232SOL    HW228596   1.456   5.276   1.601
 9233SOL     OW28597   0.942   6.824   0.370
 9233SOL    HW128598   0.880   6.748   0.386
 9233SOL    HW228599   0.894   6.896   0.319
 9234SOL     OW28600   2.193   4.570   0.626
 9234SOL    HW128601   2.154   4.482   0.598
 9234SOL    HW228602   2.153   4.598   0.713
 9235SOL     OW28603   2.215   2.433   3.892
 9235SOL    HW128604   2.239   2.456   3.798
 9235SOL    HW228605   2.173   2.342   3.895
 9236SOL     OW28606   2.344   3.891   6.485
 9236SOL    HW128607   2.311   3.926   6.573
 9236SOL    HW228608   2.292   3.934   6.411
 9237SOL     OW28609   6.141   4.956   3.281
 9237SOL    HW128610   6.178   5.045   3.309
 9237SOL    HW228611   6.215   4.898   3.248
 9238SOL     OW28612   1.913   2.890   5.521
 9238SOL    HW128613   1.901   2.813   5.583
 9238SOL    HW228614   1.923   2.857   5.427
 9239SOL     OW28615   0.472   4.682   6.866
 9239SOL    HW128616   0.391   4.708   6.814
 9239SOL    HW228617   0.494   4.754   6.932
 9240SOL     OW28618   4.830   2.446   2.719
 9240SOL    HW128619   4.772   2.501   2.658
 9240SOL    HW228620   4.918   2.429   2.675
 9241SOL     OW28621   5.779   0.080   1.040
 9241SOL    HW128622   5.866   0.130   1.040
 9241SOL    HW228623   5.703   0.144   1.029
 9242SOL     OW28624   1.292   2.792   0.755
 9242SOL    HW128625   1.320   2.819   0.663
 9242SOL    HW228626   1.358   2.726   0.791
 9243SOL     OW28627   1.032   0.609   6.910
 9243SOL    HW128628   1.039   0.596   7.009
 9243SOL    HW228629   0.941   0.579   6.880
 9244SOL     OW28630   4.135   6.207   5.184
 9244SOL    HW128631   4.143   6.276   5.256
 9244SOL    HW228632   4.127   6.252   5.095
 9245SOL     OW28633   0.787   4.085   3.174
 9245SOL    HW128634   0.690   4.094   3.198
 9245SOL    HW228635   0.814   4.161   3.115
 9246SOL     OW28636   6.448   0.948   5.441
 9246SOL    HW128637   6.365   0.895   5.423
 9246SOL    HW228638   6.502   0.955   5.358
 9247SOL     OW28639   3.731   5.988   3.441
 9247SOL    HW128640   3.683   5.926   3.502
 9247SOL    HW228641   3.669   6.060   3.411
 9248SOL     OW28642   2.319   1.320   5.653
 9248SOL    HW128643   2.321   1.355   5.559
 9248SOL    HW228644   2.247   1.252   5.662
 9249SOL     OW28645   3.969   5.326   1.520
 9249SOL    HW128646   3.870   5.327   1.536
 9249SOL    HW228647   4.016   5.370   1.596
 9250SOL     OW28648   0.354   2.784   3.912
 9250SOL    HW128649   0.342   2.701   3.858
 9250SOL    HW228650   0.436   2.777   3.968
 9251SOL     OW28651   3.512   2.757   1.193
 9251SOL    HW128652   3.547   2.688   1.128
 9251SOL    HW228653   3.523   2.723   1.286
 9252SOL     OW28654   5.553   0.905   5.798
 9252SOL    HW128655   5.637   0.911   5.852
 9252SOL    HW228656   5.482   0.961   5.840
 9253SOL     OW28657   0.640   4.774   5.219
 9253SOL    HW128658   0.640   4.760   5.318
 9253SOL    HW228659   0.546   4.780   5.185
 9254SOL     OW28660   6.936   5.119   3.358
 9254SOL    HW128661   6.898   5.056   3.291
 9254SOL    HW228662   6.932   5.212   3.322
 9255SOL     OW28663   6.735   4.372   0.363
 9255SOL    HW128664   6.753   4.387   0.460
 9255SOL    HW228665   6.641   4.401   0.342
 9256SOL     OW28666   1.705   6.660   1.422
 9256SOL    HW128667   1.801   6.638   1.405
 9256SOL    HW228668   1.696   6.699   1.514
 9257SOL     OW28669   6.692   5.898   4.206
 9257SOL    HW128670   6.657   5.874   4.115
 9257SOL    HW228671   6.690   5.998   4.217
 9258SOL     OW28672   3.668   4.633   1.139
 9258SOL    HW128673   3.578   4.621   1.182
 9258SOL    HW228674   3.668   4.586   1.050
 9259SOL     OW28675   1.888   1.684   6.443
 9259SOL    HW128676   1.949   1.661   6.518
 9259SOL    HW228677   1.915   1.633   6.361
 9260SOL     OW28678   5.650   3.454   4.949
 9260SOL    HW128679   5.585   3.522   4.985
 9260SOL    HW228680   5.738   3.464   4.997
 9261SOL     OW28681   3.894   2.351   1.759
 9261SOL    HW128682   3.908   2.257   1.790
 9261SOL    HW228683   3.806   2.384   1.791
 9262SOL     OW28684   6.105   6.046   3.693
 9262SOL    HW128685   6.181   6.094   3.736
 9262SOL    HW228686   6.018   6.084   3.727
 9263SOL     OW28687   2.159   3.849   3.887
 9263SOL    HW128688   2.175   3.821   3.982
 9263SOL    HW228689   2.079   3.800   3.852
 9264SOL     OW28690   4.356   4.120   0.016
 9264SOL    HW128691   4.440   4.066   0.008
 9264SOL    HW228692   4.277   4.060   0.014
 9265SOL     OW28693   5.360   2.305   0.449
 9265SOL    HW128694   5.394   2.218   0.416
 9265SOL    HW228695   5.387   2.317   0.545
 9266SOL     OW28696   0.343   4.276   1.234
 9266SOL    HW128697   0.284   4.234   1.302
 9266SOL    HW228698   0.313   4.250   1.142
 9267SOL     OW28699   0.253   1.068   4.627
 9267SOL    HW128700   0.245   0.986   4.684
 9267SOL    HW228701   0.164   1.092   4.589
 9268SOL     OW28702   0.731   6.646   2.412
 9268SOL    HW128703   0.690   6.728   2.373
 9268SOL    HW228704   0.680   6.618   2.493
 9269SOL     OW28705   4.099   0.701   1.305
 9269SOL    HW128706   4.104   0.609   1.345
 9269SOL    HW228707   4.148   0.702   1.218
 9270SOL     OW28708   1.446   0.725   5.889
 9270SOL    HW128709   1.448   0.825   5.900
 9270SOL    HW228710   1.526   0.685   5.933
 9271SOL     OW28711   1.320   0.224   4.753
 9271SOL    HW128712   1.405   0.230   4.699
 9271SOL    HW228713   1.311   0.132   4.791
 9272SOL     OW28714   6.365   6.370   6.072
 9272SOL    HW128715   6.418   6.450   6.043
 9272SOL    HW228716   6.268   6.394   6.073
 9273SOL     OW28717   4.702   4.962   4.667
 9273SOL    HW128718   4.731   4.866   4.672
 9273SOL    HW228719   4.782   5.021   4.670
 9274SOL     OW28720   0.981   3.003   6.884
 9274SOL    HW128721   0.971   3.091   6.930
 9274SOL    HW228722   1.007   2.933   6.951
 9275SOL     OW28723   0.748   0.130   0.621
 9275SOL    HW128724   0.808   0.133   0.701
 9275SOL    HW228725   0.705   0.040   0.614
 9276SOL     OW28726   3.162   5.200   0.264
 9276SOL    HW128727   3.230   5.180   0.335
 9276SOL    HW228728   3.158   5.123   0.200
 9277SOL     OW28729   5.223   5.444   2.373
 9277SOL    HW128730   5.255   5.539   2.377
 9277SOL    HW228731   5.123   5.443   2.369
 9278SOL     OW28732   0.634   0.844   4.690
 9278SOL    HW128733   0.578   0.787   4.629
 9278SOL    HW228734   0.676   0.786   4.759
 9279SOL     OW28735   4.690   5.995   1.388
 9279SOL    HW128736   4.708   5.974   1.484
 9279SOL    HW228737   4.690   6.094   1.375
 9280SOL     OW28738   1.669   0.746   2.569
 9280SOL    HW128739   1.643   0.725   2.663
 9280SOL    HW228740   1.636   0.838   2.545
 9281SOL     OW28741   2.914   5.008   0.054
 9281SOL    HW128742   2.984   5.010   0.125
 9281SOL    HW228743   2.826   4.983   0.093
 9282SOL     OW28744   3.264   6.666   4.935
 9282SOL    HW128745   3.201   6.665   5.012
 9282SOL    HW228746   3.318   6.750   4.937
 9283SOL     OW28747   4.593   6.185   6.942
 9283SOL    HW128748   4.519   6.217   6.884
 9283SOL    HW228749   4.591   6.234   0.007
 9284SOL     OW28750   3.225   3.837   4.966
 9284SOL    HW128751   3.245   3.768   4.897
 9284SOL    HW228752   3.277   3.920   4.946
 9285SOL     OW28753   0.084   4.055   2.178
 9285SOL    HW128754   0.014   4.033   2.246
 9285SOL    HW228755   0.129   4.141   2.203
 9286SOL     OW28756   4.670   5.701   1.403
 9286SOL    HW128757   4.654   5.799   1.417
 9286SOL    HW228758   4.596   5.649   1.446
 9287SOL     OW28759   3.270   4.669   6.008
 9287SOL    HW128760   3.243   4.584   6.052
 9287SOL    HW228761   3.215   4.684   5.926
 9288SOL     OW28762   4.470   1.925   2.897
 9288SOL    HW128763   4.386   1.871   2.907
 9288SOL    HW228764   4.504   1.917   2.804
 9289SOL     OW28765   4.685   5.864   0.015
 9289SOL    HW128766   4.594   5.842   7.001
 9289SOL    HW228767   4.713   5.793   0.079
 9290SOL     OW28768   5.308   0.348   4.468
 9290SOL    HW128769   5.310   0.286   4.546
 9290SOL    HW228770   5.216   0.350   4.429
 9291SOL     OW28771   1.431   4.656   5.855
 9291SOL    HW128772   1.458   4.744   5.816
 9291SOL    HW228773   1.512   4.604   5.881
 9292SOL     OW28774   1.780   2.148   6.332
 9292SOL    HW128775   1.822   2.142   6.422
 9292SOL    HW228776   1.850   2.140   6.261
 9293SOL     OW28777   5.243   2.762   5.476
 9293SOL    HW128778   5.233   2.756   5.376
 9293SOL    HW228779   5.173   2.823   5.513
 9294SOL     OW28780   4.591   1.181   0.386
 9294SOL    HW128781   4.664   1.201   0.320
 9294SOL    HW228782   4.531   1.111   0.348
 9295SOL     OW28783   0.810   1.484   5.678
 9295SOL    HW128784   0.794   1.553   5.607
 9295SOL    HW228785   0.759   1.401   5.655
 9296SOL     OW28786   1.392   4.403   0.173
 9296SOL    HW128787   1.386   4.390   0.272
 9296SOL    HW228788   1.435   4.491   0.153
 9297SOL     OW28789   5.655   6.384   2.824
 9297SOL    HW128790   5.722   6.343   2.761
 9297SOL    HW228791   5.677   6.480   2.838
 9298SOL     OW28792   1.351   6.236   5.854
 9298SOL    HW128793   1.413   6.203   5.924
 9298SOL    HW228794   1.346   6.168   5.780
 9299SOL     OW28795   2.133   2.558   4.915
 9299SOL    HW128796   2.198   2.624   4.877
 9299SOL    HW228797   2.086   2.511   4.840
 9300SOL     OW28798   1.525   6.175   6.055
 9300SOL    HW128799   1.437   6.184   6.103
 9300SOL    HW228800   1.546   6.078   6.043
 9301SOL     OW28801   0.090   4.070   4.793
 9301SOL    HW128802   0.118   4.095   4.885
 9301SOL    HW228803   0.111   4.144   4.730
 9302SOL     OW28804   1.669   3.423   5.259
 9302SOL    HW128805   1.650   3.514   5.223
 9302SOL    HW228806   1.765   3.400   5.242
 9303SOL     OW28807   2.591   4.719   1.035
 9303SOL    HW128808   2.546   4.803   1.063
 9303SOL    HW228809   2.540   4.677   0.959
 9304SOL     OW28810   4.842   5.235   0.563
 9304SOL    HW128811   4.836   5.244   0.463
 9304SOL    HW228812   4.914   5.294   0.597
 9305SOL     OW28813   2.477   1.504   1.494
 9305SOL    HW128814   2.389   1.545   1.515
 9305SOL    HW228815   2.527   1.486   1.579
 9306SOL     OW28816   0.429   5.487   4.723
 9306SOL    HW128817   0.431   5.494   4.823
 9306SOL    HW228818   0.367   5.556   4.686
 9307SOL     OW28819   2.592   3.149   1.604
 9307SOL    HW128820   2.685   3.146   1.640
 9307SOL    HW228821   2.527   3.123   1.676
 9308SOL     OW28822   2.092   3.651   1.822
 9308SOL    HW128823   2.134   3.735   1.856
 9308SOL    HW228824   2.153   3.574   1.839
 9309SOL     OW28825   5.084   5.954   5.877
 9309SOL    HW128826   5.118   6.030   5.822
 9309SOL    HW228827   4.984   5.961   5.884
 9310SOL     OW28828   5.621   5.965   6.371
 9310SOL    HW128829   5.621   5.865   6.367
 9310SOL    HW228830   5.678   6.001   6.297
 9311SOL     OW28831   4.517   3.385   1.450
 9311SOL    HW128832   4.568   3.471   1.444
 9311SOL    HW228833   4.462   3.385   1.534
 9312SOL     OW28834   0.472   2.631   2.095
 9312SOL    HW128835   0.459   2.534   2.115
 9312SOL    HW228836   0.402   2.660   2.029
 9313SOL     OW28837   0.575   6.093   2.328
 9313SOL    HW128838   0.536   6.027   2.391
 9313SOL    HW228839   0.512   6.170   2.315
 9314SOL     OW28840   4.915   3.234   0.130
 9314SOL    HW128841   4.893   3.138   0.110
 9314SOL    HW228842   4.832   3.280   0.163
 9315SOL     OW28843   5.762   0.890   6.479
 9315SOL    HW128844   5.727   0.817   6.420
 9315SOL    HW228845   5.714   0.975   6.460
 9316SOL     OW28846   4.430   0.869   5.675
 9316SOL    HW128847   4.415   0.818   5.760
 9316SOL    HW228848   4.517   0.842   5.635
 9317SOL     OW28849   4.347   6.107   3.445
 9317SOL    HW128850   4.284   6.156   3.505
 9317SOL    HW228851   4.338   6.142   3.351
 9318SOL     OW28852   4.997   6.145   1.154
 9318SOL    HW128853   5.086   6.103   1.140
 9318SOL    HW228854   4.929   6.098   1.098
 9319SOL     OW28855   2.265   4.067   0.250
 9319SOL    HW128856   2.346   4.013   0.271
 9319SOL    HW228857   2.186   4.007   0.238
 9320SOL     OW28858   6.478   6.457   6.647
 9320SOL    HW128859   6.547   6.416   6.706
 9320SOL    HW228860   6.394   6.403   6.650
 9321SOL     OW28861   0.373   3.678   4.647
 9321SOL    HW128862   0.309   3.631   4.586
 9321SOL    HW228863   0.458   3.626   4.653
 9322SOL     OW28864   5.651   4.062   5.581
 9322SOL    HW128865   5.627   3.986   5.520
 9322SOL    HW228866   5.568   4.098   5.623
 9323SOL     OW28867   1.132   2.567   4.393
 9323SOL    HW128868   1.148   2.624   4.474
 9323SOL    HW228869   1.093   2.622   4.320
 9324SOL     OW28870   0.692   4.230   1.288
 9324SOL    HW128871   0.651   4.279   1.365
 9324SOL    HW228872   0.740   4.149   1.320
 9325SOL     OW28873   1.200   4.865   2.834
 9325SOL    HW128874   1.279   4.852   2.775
 9325SOL    HW228875   1.231   4.881   2.928
 9326SOL     OW28876   4.111   4.264   0.629
 9326SOL    HW128877   4.131   4.196   0.699
 9326SOL    HW228878   4.091   4.218   0.543
 9327SOL     OW28879   4.334   0.015   3.924
 9327SOL    HW128880   4.334   0.104   3.970
 9327SOL    HW228881   4.245   6.994   3.936
 9328SOL     OW28882   2.751   6.342   4.713
 9328SOL    HW128883   2.799   6.395   4.783
 9328SOL    HW228884   2.816   6.282   4.667
 9329SOL     OW28885   6.924   5.270   6.683
 9329SOL    HW128886   6.953   5.364   6.698
 9329SOL    HW228887   6.846   5.249   6.742
 9330SOL     OW28888   5.957   5.539   6.341
 9330SOL    HW128889   6.035   5.558   6.402
 9330SOL    HW228890   5.907   5.460   6.376
 9331SOL     OW28891   1.461   2.998   4.641
 9331SOL    HW128892   1.368   3.033   4.649
 9331SOL    HW228893   1.523   3.074   4.621
 9332SOL     OW28894   4.445   5.557   1.156
 9332SOL    HW128895   4.543   5.542   1.169
 9332SOL    HW228896   4.431   5.646   1.113
 9333SOL     OW28897   3.682   4.626   0.715
 9333SOL    HW128898   3.665   4.716   0.675
 9333SOL    HW228899   3.629   4.557   0.664
 9334SOL     OW28900   5.704   6.266   5.543
 9334SOL    HW128901   5.765   6.211   5.486
 9334SOL    HW228902   5.681   6.216   5.626
 9335SOL     OW28903   2.183   2.897   1.529
 9335SOL    HW128904   2.235   2.946   1.460
 9335SOL    HW228905   2.190   2.798   1.512
 9336SOL     OW28906   6.782   0.317   5.182
 9336SOL    HW128907   6.845   0.366   5.242
 9336SOL    HW228908   6.738   0.244   5.234
 9337SOL     OW28909   2.340   0.682   6.685
 9337SOL    HW128910   2.400   0.661   6.763
 9337SOL    HW228911   2.387   0.660   6.600
 9338SOL     OW28912   6.280   5.960   6.910
 9338SOL    HW128913   6.253   6.012   6.829
 9338SOL    HW228914   6.227   5.875   6.914
 9339SOL     OW28915   6.646   4.401   5.479
 9339SOL    HW128916   6.548   4.390   5.469
 9339SOL    HW228917   6.670   4.407   5.577
 9340SOL     OW28918   4.373   6.186   2.260
 9340SOL    HW128919   4.456   6.201   2.314
 9340SOL    HW228920   4.295   6.225   2.309
 9341SOL     OW28921   5.436   3.662   6.723
 9341SOL    HW128922   5.430   3.712   6.636
 9341SOL    HW228923   5.493   3.714   6.787
 9342SOL     OW28924   2.976   0.344   4.361
 9342SOL    HW128925   3.014   0.346   4.269
 9342SOL    HW228926   3.017   0.269   4.413
 9343SOL     OW28927   4.878   4.300   1.581
 9343SOL    HW128928   4.844   4.381   1.534
 9343SOL    HW228929   4.865   4.220   1.523
 9344SOL     OW28930   5.859   5.508   4.929
 9344SOL    HW128931   5.952   5.533   4.903
 9344SOL    HW228932   5.805   5.493   4.846
 9345SOL     OW28933   0.366   6.791   1.156
 9345SOL    HW128934   0.376   6.853   1.078
 9345SOL    HW228935   0.275   6.803   1.196
 9346SOL     OW28936   5.497   6.368   1.374
 9346SOL    HW128937   5.424   6.301   1.358
 9346SOL    HW228938   5.457   6.459   1.384
 9347SOL     OW28939   3.705   5.277   0.628
 9347SOL    HW128940   3.717   5.204   0.695
 9347SOL    HW228941   3.740   5.363   0.666
 9348SOL     OW28942   1.847   5.892   1.823
 9348SOL    HW128943   1.832   5.897   1.724
 9348SOL    HW228944   1.888   5.803   1.846
 9349SOL     OW28945   6.290   5.211   1.861
 9349SOL    HW128946   6.333   5.300   1.848
 9349SOL    HW228947   6.202   5.209   1.812
 9350SOL     OW28948   0.135   1.040   5.051
 9350SOL    HW128949   0.205   1.106   5.025
 9350SOL    HW228950   0.147   1.013   5.146
 9351SOL     OW28951   3.110   1.368   6.470
 9351SOL    HW128952   3.031   1.307   6.481
 9351SOL    HW228953   3.193   1.313   6.458
 9352SOL     OW28954   3.261   1.815   6.262
 9352SOL    HW128955   3.304   1.841   6.176
 9352SOL    HW228956   3.292   1.876   6.335
 9353SOL     OW28957   1.351   3.741   1.128
 9353SOL    HW128958   1.257   3.775   1.131
 9353SOL    HW228959   1.410   3.804   1.178
 9354SOL     OW28960   5.145   1.770   1.332
 9354SOL    HW128961   5.170   1.712   1.255
 9354SOL    HW228962   5.118   1.860   1.299
 9355SOL     OW28963   6.521   0.067   3.626
 9355SOL    HW128964   6.586   0.037   3.557
 9355SOL    HW228965   6.443   0.112   3.582
 9356SOL     OW28966   4.289   4.992   2.050
 9356SOL    HW128967   4.243   4.963   2.134
 9356SOL    HW228968   4.384   5.015   2.070
 9357SOL     OW28969   3.096   2.928   0.961
 9357SOL    HW128970   3.185   2.929   0.915
 9357SOL    HW228971   3.104   2.878   1.047
 9358SOL     OW28972   6.299   4.401   2.051
 9358SOL    HW128973   6.230   4.330   2.039
 9358SOL    HW228974   6.368   4.369   2.116
 9359SOL     OW28975   0.023   4.105   6.053
 9359SOL    HW128976   6.986   4.155   6.116
 9359SOL    HW228977   0.060   4.024   6.098
 9360SOL     OW28978   2.183   1.066   6.168
 9360SOL    HW128979   2.247   1.085   6.094
 9360SOL    HW228980   2.166   0.967   6.173
 9361SOL     OW28981   3.162   6.481   2.318
 9361SOL    HW128982   3.238   6.425   2.353
 9361SOL    HW228983   3.091   6.422   2.281
 9362SOL     OW28984   2.372   1.394   2.396
 9362SOL    HW128985   2.472   1.389   2.398
 9362SOL    HW228986   2.339   1.354   2.310
 9363SOL     OW28987   3.251   6.062   2.831
 9363SOL    HW128988   3.186   6.019   2.893
 9363SOL    HW228989   3.299   6.135   2.879
 9364SOL     OW28990   4.445   3.089   6.646
 9364SOL    HW128991   4.346   3.093   6.649
 9364SOL    HW228992   4.476   2.995   6.660
 9365SOL     OW28993   2.801   1.714   4.977
 9365SOL    HW128994   2.717   1.763   4.950
 9365SOL    HW228995   2.875   1.738   4.914
 9366SOL     OW28996   3.519   2.041   0.352
 9366SOL    HW128997   3.430   2.033   0.398
 9366SOL    HW228998   3.568   2.119   0.388
 9367SOL     OW28999   6.712   5.521   3.363
 9367SOL    HW129000   6.755   5.449   3.417
 9367SOL    HW229001   6.653   5.480   3.293
 9368SOL     OW29002   3.226   2.188   1.722
 9368SOL    HW129003   3.261   2.145   1.805
 9368SOL    HW229004   3.225   2.121   1.648
 9369SOL     OW29005   0.205   1.931   5.526
 9369SOL    HW129006   0.166   2.004   5.468
 9369SOL    HW229007   0.150   1.848   5.516
 9370SOL     OW29008   6.335   0.754   2.387
 9370SOL    HW129009   6.342   0.660   2.418
 9370SOL    HW229010   6.302   0.812   2.462
 9371SOL     OW29011   0.921   6.024   0.431
 9371SOL    HW129012   0.979   6.089   0.382
 9371SOL    HW229013   0.877   5.962   0.366
 9372SOL     OW29014   5.856   6.602   3.511
 9372SOL    HW129015   5.844   6.624   3.608
 9372SOL    HW229016   5.773   6.557   3.477
 9373SOL     OW29017   4.565   1.601   3.220
 9373SOL    HW129018   4.664   1.593   3.233
 9373SOL    HW229019   4.529   1.665   3.288
 9374SOL     OW29020   5.674   2.722   0.423
 9374SOL    HW129021   5.766   2.758   0.440
 9374SOL    HW229022   5.668   2.629   0.460
 9375SOL     OW29023   6.979   1.194   2.690
 9375SOL    HW129024   7.016   1.122   2.748
 9375SOL    HW229025   0.031   1.240   2.642
 9376SOL     OW29026   2.972   3.746   0.456
 9376SOL    HW129027   2.906   3.698   0.513
 9376SOL    HW229028   3.004   3.828   0.504
 9377SOL     OW29029   6.554   5.513   4.000
 9377SOL    HW129030   6.605   5.451   4.061
 9377SOL    HW229031   6.589   5.505   3.907
 9378SOL     OW29032   2.198   0.191   0.063
 9378SOL    HW129033   2.293   0.212   0.040
 9378SOL    HW229034   2.182   0.207   0.160
 9379SOL     OW29035   4.500   4.830   4.136
 9379SOL    HW129036   4.554   4.845   4.053
 9379SOL    HW229037   4.526   4.898   4.205
 9380SOL     OW29038   6.289   6.904   5.585
 9380SOL    HW129039   6.384   6.874   5.596
 9380SOL    HW229040   6.247   6.917   5.674
 9381SOL     OW29041   2.483   2.510   5.326
 9381SOL    HW129042   2.508   2.606   5.326
 9381SOL    HW229043   2.403   2.496   5.267
 9382SOL     OW29044   3.854   0.970   2.733
 9382SOL    HW129045   3.814   0.992   2.645
 9382SOL    HW229046   3.784   0.977   2.805
 9383SOL     OW29047   3.548   6.718   4.675
 9383SOL    HW129048   3.577   6.766   4.758
 9383SOL    HW229049   3.461   6.756   4.643
 9384SOL     OW29050   4.849   6.173   2.649
 9384SOL    HW129051   4.831   6.189   2.552
 9384SOL    HW229052   4.762   6.171   2.699
 9385SOL     OW29053   3.902   1.149   3.363
 9385SOL    HW129054   3.964   1.075   3.338
 9385SOL    HW229055   3.950   1.213   3.424
 9386SOL     OW29056   3.323   6.371   5.518
 9386SOL    HW129057   3.288   6.282   5.549
 9386SOL    HW229058   3.261   6.409   5.449
 9387SOL     OW29059   3.168   6.613   1.382
 9387SOL    HW129060   3.264   6.637   1.369
 9387SOL    HW229061   3.112   6.664   1.318
 9388SOL     OW29062   0.546   6.524   2.929
 9388SOL    HW129063   0.533   6.572   3.016
 9388SOL    HW229064   0.505   6.433   2.935
 9389SOL     OW29065   2.465   0.522   5.556
 9389SOL    HW129066   2.505   0.541   5.646
 9389SOL    HW229067   2.436   0.427   5.551
 9390SOL     OW29068   3.734   5.432   3.027
 9390SOL    HW129069   3.656   5.463   3.080
 9390SOL    HW229070   3.772   5.509   2.976
 9391SOL     OW29071   1.331   1.344   5.543
 9391SOL    HW129072   1.252   1.326   5.484
 9391SOL    HW229073   1.359   1.439   5.533
 9392SOL     OW29074   1.470   6.928   4.731
 9392SOL    HW129075   1.533   6.974   4.668
 9392SOL    HW229076   1.392   6.893   4.679
 9393SOL     OW29077   4.203   2.091   5.573
 9393SOL    HW129078   4.160   2.177   5.602
 9393SOL    HW229079   4.231   2.039   5.654
 9394SOL     OW29080   6.202   2.766   3.084
 9394SOL    HW129081   6.159   2.805   3.003
 9394SOL    HW229082   6.206   2.666   3.075
 9395SOL     OW29083   2.481   3.040   0.195
 9395SOL    HW129084   2.400   2.984   0.178
 9395SOL    HW229085   2.520   3.015   0.284
 9396SOL     OW29086   6.367   6.698   4.915
 9396SOL    HW129087   6.382   6.797   4.921
 9396SOL    HW229088   6.454   6.650   4.931
 9397SOL     OW29089   2.051   0.753   6.912
 9397SOL    HW129090   1.958   0.788   6.919
 9397SOL    HW229091   2.081   0.755   6.816
 9398SOL     OW29092   2.628   1.734   0.066
 9398SOL    HW129093   2.569   1.662   0.104
 9398SOL    HW229094   2.637   1.807   0.133
 9399SOL     OW29095   6.575   1.941   6.458
 9399SOL    HW129096   6.604   2.013   6.395
 9399SOL    HW229097   6.523   1.872   6.407
 9400SOL     OW29098   4.965   3.474   1.557
 9400SOL    HW129099   4.934   3.426   1.639
 9400SOL    HW229100   5.061   3.454   1.541
 9401SOL     OW29101   3.110   6.387   4.012
 9401SOL    HW129102   3.124   6.353   3.919
 9401SOL    HW229103   3.073   6.314   4.069
 9402SOL     OW29104   2.863   5.346   6.584
 9402SOL    HW129105   2.867   5.387   6.676
 9402SOL    HW229106   2.953   5.349   6.542
 9403SOL     OW29107   5.520   1.383   3.485
 9403SOL    HW129108   5.500   1.394   3.388
 9403SOL    HW229109   5.605   1.432   3.507
 9404SOL     OW29110   0.850   5.021   6.895
 9404SOL    HW129111   0.829   4.957   6.969
 9404SOL    HW229112   0.785   5.007   6.820
 9405SOL     OW29113   5.948   6.279   1.612
 9405SOL    HW129114   5.894   6.333   1.547
 9405SOL    HW229115   6.043   6.311   1.611
 9406SOL     OW29116   0.063   2.086   5.362
 9406SOL    HW129117   0.060   2.145   5.281
 9406SOL    HW229118   6.999   2.037   5.372
 9407SOL     OW29119   3.279   6.639   3.488
 9407SOL    HW129120   3.305   6.589   3.571
 9407SOL    HW229121   3.200   6.697   3.507
 9408SOL     OW29122   3.673   1.494   6.453
 9408SOL    HW129123   3.668   1.395   6.440
 9408SOL    HW229124   3.665   1.540   6.365
 9409SOL     OW29125   5.075   3.896   3.887
 9409SOL    HW129126   5.113   3.930   3.973
 9409SOL    HW229127   4.982   3.861   3.903
 9410SOL     OW29128   4.015   6.275   2.258
 9410SOL    HW129129   3.942   6.340   2.236
 9410SOL    HW229130   4.052   6.237   2.173
 9411SOL     OW29131   4.035   5.687   0.984
 9411SOL    HW129132   4.079   5.752   0.921
 9411SOL    HW229133   4.041   5.721   1.077
 9412SOL     OW29134   0.261   2.933   1.221
 9412SOL    HW129135   0.270   2.954   1.123
 9412SOL    HW229136   0.324   2.990   1.273
 9413SOL     OW29137   4.638   5.501   5.574
 9413SOL    HW129138   4.667   5.586   5.529
 9413SOL    HW229139   4.654   5.424   5.513
 9414SOL     OW29140   3.249   1.569   2.481
 9414SOL    HW129141   3.278   1.622   2.402
 9414SOL    HW229142   3.260   1.624   2.564
 9415SOL     OW29143   1.943   6.664   2.219
 9415SOL    HW129144   1.924   6.572   2.183
 9415SOL    HW229145   1.856   6.711   2.235
 9416SOL     OW29146   0.929   1.740   1.582
 9416SOL    HW129147   0.929   1.793   1.497
 9416SOL    HW229148   0.867   1.662   1.572
 9417SOL     OW29149   2.750   5.667   5.359
 9417SOL    HW129150   2.711   5.587   5.313
 9417SOL    HW229151   2.834   5.695   5.312
 9418SOL     OW29152   2.434   5.806   1.484
 9418SOL    HW129153   2.347   5.759   1.478
 9418SOL    HW229154   2.500   5.750   1.534
 9419SOL     OW29155   2.669   6.500   5.322
 9419SOL    HW129156   2.574   6.528   5.332
 9419SOL    HW229157   2.672   6.402   5.298
 9420SOL     OW29158   6.727   1.425   4.586
 9420SOL    HW129159   6.628   1.411   4.593
 9420SOL    HW229160   6.757   1.400   4.494
 9421SOL     OW29161   1.784   4.825   5.542
 9421SOL    HW129162   1.876   4.830   5.504
 9421SOL    HW229163   1.770   4.734   5.582
 9422SOL     OW29164   5.348   0.168   2.434
 9422SOL    HW129165   5.292   0.125   2.363
 9422SOL    HW229166   5.320   0.134   2.523
 9423SOL     OW29167   4.469   0.920   3.225
 9423SOL    HW129168   4.395   0.936   3.159
 9423SOL    HW229169   4.538   0.860   3.183
 9424SOL     OW29170   4.801   0.260   5.709
 9424SOL    HW129171   4.812   0.169   5.751
 9424SOL    HW229172   4.883   0.314   5.727
 9425SOL     OW29173   0.493   3.437   5.460
 9425SOL    HW129174   0.587   3.403   5.449
 9425SOL    HW229175   0.483   3.478   5.551
 9426SOL     OW29176   2.974   0.965   0.258
 9426SOL    HW129177   3.062   0.922   0.275
 9426SOL    HW229178   2.972   1.057   0.297
 9427SOL     OW29179   2.709   5.084   4.761
 9427SOL    HW129180   2.625   5.057   4.713
 9427SOL    HW229181   2.742   5.007   4.815
 9428SOL     OW29182   6.135   0.189   2.941
 9428SOL    HW129183   6.123   0.134   2.859
 9428SOL    HW229184   6.056   0.250   2.952
 9429SOL     OW29185   1.363   4.201   2.330
 9429SOL    HW129186   1.266   4.214   2.350
 9429SOL    HW229187   1.374   4.176   2.234
 9430SOL     OW29188   6.654   6.987   2.270
 9430SOL    HW129189   6.666   6.945   2.360
 9430SOL    HW229190   6.743   7.016   2.235
 9431SOL     OW29191   6.312   4.088   6.934
 9431SOL    HW129192   6.324   3.991   6.951
 9431SOL    HW229193   6.286   4.134   7.019
 9432SOL     OW29194   6.142   0.011   3.652
 9432SOL    HW129195   6.152   6.977   3.571
 9432SOL    HW229196   6.195   0.095   3.641
 9433SOL     OW29197   3.266   5.018   5.165
 9433SOL    HW129198   3.251   4.963   5.247
 9433SOL    HW229199   3.184   5.071   5.145
 9434SOL     OW29200   5.776   4.467   3.065
 9434SOL    HW129201   5.771   4.464   2.965
 9434SOL    HW229202   5.828   4.548   3.094
 9435SOL     OW29203   1.843   1.508   4.093
 9435SOL    HW129204   1.845   1.417   4.133
 9435SOL    HW229205   1.749   1.541   4.088
 9436SOL     OW29206   1.600   3.871   0.841
 9436SOL    HW129207   1.531   3.804   0.815
 9436SOL    HW229208   1.632   3.920   0.760
 9437SOL     OW29209   1.199   5.505   3.383
 9437SOL    HW129210   1.260   5.580   3.409
 9437SOL    HW229211   1.242   5.450   3.312
 9438SOL     OW29212   0.794   6.177   2.183
 9438SOL    HW129213   0.728   6.119   2.232
 9438SOL    HW229214   0.862   6.212   2.248
 9439SOL     OW29215   6.849   3.178   2.020
 9439SOL    HW129216   6.903   3.161   2.103
 9439SOL    HW229217   6.760   3.214   2.045
 9440SOL     OW29218   5.020   6.436   5.241
 9440SOL    HW129219   5.008   6.452   5.143
 9440SOL    HW229220   4.978   6.348   5.265
 9441SOL     OW29221   1.564   5.152   5.183
 9441SOL    HW129222   1.625   5.228   5.205
 9441SOL    HW229223   1.564   5.086   5.258
 9442SOL     OW29224   6.978   1.996   0.059
 9442SOL    HW129225   7.007   2.013   6.987
 9442SOL    HW229226   0.000   1.913   0.092
 9443SOL     OW29227   1.739   4.715   1.541
 9443SOL    HW129228   1.776   4.780   1.608
 9443SOL    HW229229   1.815   4.666   1.498
 9444SOL     OW29230   0.370   2.988   0.175
 9444SOL    HW129231   0.382   3.009   0.272
 9444SOL    HW229232   0.313   2.906   0.166
 9445SOL     OW29233   4.883   3.802   2.059
 9445SOL    HW129234   4.823   3.873   2.024
 9445SOL    HW229235   4.918   3.748   1.982
 9446SOL     OW29236   6.601   6.503   2.613
 9446SOL    HW129237   6.679   6.533   2.668
 9446SOL    HW229238   6.521   6.490   2.671
 9447SOL     OW29239   5.211   3.665   1.877
 9447SOL    HW129240   5.250   3.610   1.803
 9447SOL    HW229241   5.205   3.609   1.960
 9448SOL     OW29242   5.328   6.188   6.136
 9448SOL    HW129243   5.408   6.150   6.181
 9448SOL    HW229244   5.348   6.281   6.104
 9449SOL     OW29245   6.362   5.518   5.296
 9449SOL    HW129246   6.460   5.539   5.297
 9449SOL    HW229247   6.312   5.588   5.347
 9450SOL     OW29248   2.034   5.016   4.680
 9450SOL    HW129249   2.120   5.000   4.728
 9450SOL    HW229250   2.017   4.942   4.616
 9451SOL     OW29251   4.898   5.520   6.151
 9451SOL    HW129252   4.902   5.454   6.077
 9451SOL    HW229253   4.986   5.522   6.199
 9452SOL     OW29254   2.299   3.795   0.874
 9452SOL    HW129255   2.309   3.743   0.789
 9452SOL    HW229256   2.202   3.800   0.899
 9453SOL     OW29257   2.027   4.708   2.989
 9453SOL    HW129258   2.105   4.647   3.003
 9453SOL    HW229259   2.001   4.708   2.893
 9454SOL     OW29260   1.197   4.185   6.271
 9454SOL    HW129261   1.288   4.202   6.310
 9454SOL    HW229262   1.179   4.252   6.199
 9455SOL     OW29263   3.294   1.699   2.704
 9455SOL    HW129264   3.323   1.659   2.791
 9455SOL    HW229265   3.374   1.733   2.655
 9456SOL     OW29266   0.550   3.912   0.981
 9456SOL    HW129267   0.601   3.897   1.066
 9456SOL    HW229268   0.584   3.850   0.911
 9457SOL     OW29269   2.022   3.842   6.901
 9457SOL    HW129270   2.116   3.816   6.921
 9457SOL    HW229271   1.960   3.777   6.945
 9458SOL     OW29272   0.076   5.106   5.803
 9458SOL    HW129273   0.135   5.147   5.734
 9458SOL    HW229274   0.132   5.069   5.877
 9459SOL     OW29275   6.431   5.369   2.327
 9459SOL    HW129276   6.525   5.353   2.357
 9459SOL    HW229277   6.368   5.338   2.398
 9460SOL     OW29278   0.399   2.436   4.714
 9460SOL    HW129279   0.373   2.342   4.737
 9460SOL    HW229280   0.316   2.490   4.700
 9461SOL     OW29281   0.192   1.402   2.936
 9461SOL    HW129282   0.190   1.328   3.003
 9461SOL    HW229283   0.269   1.388   2.873
 9462SOL     OW29284   1.862   3.369   2.865
 9462SOL    HW129285   1.878   3.410   2.775
 9462SOL    HW229286   1.910   3.282   2.870
 9463SOL     OW29287   0.199   0.606   0.888
 9463SOL    HW129288   0.172   0.612   0.792
 9463SOL    HW229289   0.124   0.640   0.946
 9464SOL     OW29290   5.900   6.741   6.467
 9464SOL    HW129291   5.828   6.778   6.408
 9464SOL    HW229292   5.894   6.783   6.557
 9465SOL     OW29293   6.755   0.513   3.003
 9465SOL    HW129294   6.660   0.498   3.030
 9465SOL    HW229295   6.789   0.597   3.047
 9466SOL     OW29296   2.613   3.026   5.702
 9466SOL    HW129297   2.699   3.054   5.658
 9466SOL    HW229298   2.550   3.104   5.705
 9467SOL     OW29299   1.644   2.560   1.585
 9467SOL    HW129300   1.614   2.496   1.514
 9467SOL    HW229301   1.591   2.545   1.668
 9468SOL     OW29302   6.172   3.235   5.733
 9468SOL    HW129303   6.210   3.204   5.821
 9468SOL    HW229304   6.199   3.170   5.662
 9469SOL     OW29305   6.274   5.516   2.158
 9469SOL    HW129306   6.335   5.474   2.226
 9469SOL    HW229307   6.190   5.462   2.150
 9470SOL     OW29308   5.205   2.771   6.799
 9470SOL    HW129309   5.301   2.743   6.792
 9470SOL    HW229310   5.176   2.768   6.895
 9471SOL     OW29311   6.913   2.455   5.457
 9471SOL    HW129312   6.876   2.531   5.405
 9471SOL    HW229313   6.847   2.380   5.459
 9472SOL     OW29314   6.529   4.410   4.919
 9472SOL    HW129315   6.585   4.329   4.900
 9472SOL    HW229316   6.529   4.470   4.840
 9473SOL     OW29317   3.316   6.522   5.752
 9473SOL    HW129318   3.279   6.458   5.819
 9473SOL    HW229319   3.323   6.476   5.663
 9474SOL     OW29320   5.565   4.295   2.050
 9474SOL    HW129321   5.633   4.234   2.090
 9474SOL    HW229322   5.498   4.240   1.999
 9475SOL     OW29323   3.211   3.338   0.958
 9475SOL    HW129324   3.276   3.413   0.972
 9475SOL    HW229325   3.119   3.376   0.947
 9476SOL     OW29326   3.599   3.434   5.415
 9476SOL    HW129327   3.630   3.349   5.371
 9476SOL    HW229328   3.534   3.412   5.487
 9477SOL     OW29329   0.952   3.092   0.819
 9477SOL    HW129330   0.861   3.077   0.780
 9477SOL    HW229331   0.970   3.025   0.890
 9478SOL     OW29332   5.022   4.225   5.509
 9478SOL    HW129333   4.988   4.261   5.422
 9478SOL    HW229334   5.035   4.126   5.502
 9479SOL     OW29335   5.958   5.443   5.897
 9479SOL    HW129336   5.872   5.481   5.865
 9479SOL    HW229337   5.987   5.491   5.980
 9480SOL     OW29338   4.293   4.356   6.773
 9480SOL    HW129339   4.239   4.272   6.763
 9480SOL    HW229340   4.355   4.346   6.852
 9481SOL     OW29341   6.575   3.897   1.526
 9481SOL    HW129342   6.604   3.971   1.587
 9481SOL    HW229343   6.480   3.913   1.498
 9482SOL     OW29344   5.905   0.420   3.328
 9482SOL    HW129345   5.899   0.403   3.426
 9482SOL    HW229346   5.832   0.482   3.301
 9483SOL     OW29347   1.546   1.933   0.864
 9483SOL    HW129348   1.596   2.019   0.876
 9483SOL    HW229349   1.469   1.931   0.927
 9484SOL     OW29350   6.262   1.251   3.907
 9484SOL    HW129351   6.240   1.160   3.943
 9484SOL    HW229352   6.265   1.317   3.982
 9485SOL     OW29353   1.738   0.754   1.589
 9485SOL    HW129354   1.744   0.658   1.561
 9485SOL    HW229355   1.822   0.780   1.637
 9486SOL     OW29356   2.551   5.305   0.633
 9486SOL    HW129357   2.499   5.377   0.586
 9486SOL    HW229358   2.641   5.340   0.658
 9487SOL     OW29359   3.488   4.115   3.418
 9487SOL    HW129360   3.508   4.017   3.411
 9487SOL    HW229361   3.506   4.159   3.331
 9488SOL     OW29362   1.801   5.971   1.571
 9488SOL    HW129363   1.746   5.895   1.538
 9488SOL    HW229364   1.833   6.025   1.493
 9489SOL     OW29365   4.278   4.121   1.035
 9489SOL    HW129366   4.179   4.129   1.047
 9489SOL    HW229367   4.313   4.205   0.994
 9490SOL     OW29368   5.168   0.630   1.197
 9490SOL    HW129369   5.114   0.546   1.185
 9490SOL    HW229370   5.168   0.657   1.293
 9491SOL     OW29371   6.748   5.353   5.029
 9491SOL    HW129372   6.673   5.302   4.985
 9491SOL    HW229373   6.739   5.450   5.008
 9492SOL     OW29374   3.238   3.776   2.184
 9492SOL    HW129375   3.147   3.765   2.145
 9492SOL    HW229376   3.292   3.838   2.127
 9493SOL     OW29377   4.788   5.109   3.759
 9493SOL    HW129378   4.776   5.021   3.712
 9493SOL    HW229379   4.718   5.173   3.727
 9494SOL     OW29380   5.169   3.643   6.843
 9494SOL    HW129381   5.266   3.620   6.836
 9494SOL    HW229382   5.143   3.649   6.939
 9495SOL     OW29383   6.178   2.233   3.513
 9495SOL    HW129384   6.267   2.249   3.557
 9495SOL    HW229385   6.181   2.147   3.464
 9496SOL     OW29386   5.478   4.111   6.369
 9496SOL    HW129387   5.441   4.152   6.285
 9496SOL    HW229388   5.463   4.174   6.446
 9497SOL     OW29389   5.026   4.610   0.625
 9497SOL    HW129390   4.927   4.606   0.607
 9497SOL    HW229391   5.075   4.575   0.545
 9498SOL     OW29392   4.126   6.645   5.417
 9498SOL    HW129393   4.120   6.582   5.494
 9498SOL    HW229394   4.162   6.733   5.449
 9499SOL     OW29395   2.397   4.112   5.570
 9499SOL    HW129396   2.308   4.066   5.557
 9499SOL    HW229397   2.435   4.137   5.481
 9500SOL     OW29398   4.188   6.722   1.784
 9500SOL    HW129399   4.133   6.695   1.705
 9500SOL    HW229400   4.283   6.692   1.771
 9501SOL     OW29401   3.819   2.126   4.890
 9501SOL    HW129402   3.725   2.138   4.857
 9501SOL    HW229403   3.819   2.128   4.990
 9502SOL     OW29404   6.473   2.056   4.794
 9502SOL    HW129405   6.459   2.104   4.881
 9502SOL    HW229406   6.394   1.998   4.774
 9503SOL     OW29407   0.331   1.313   1.444
 9503SOL    HW129408   0.358   1.295   1.538
 9503SOL    HW229409   0.324   1.412   1.430
 9504SOL     OW29410   6.707   2.671   1.465
 9504SOL    HW129411   6.683   2.740   1.533
 9504SOL    HW229412   6.801   2.684   1.436
 9505SOL     OW29413   6.379   3.540   3.093
 9505SOL    HW129414   6.464   3.498   3.061
 9505SOL    HW229415   6.316   3.469   3.123
 9506SOL     OW29416   7.004   3.231   0.143
 9506SOL    HW129417   0.052   3.295   0.174
 9506SOL    HW229418   6.924   3.282   0.111
 9507SOL     OW29419   2.370   1.152   4.427
 9507SOL    HW129420   2.443   1.133   4.360
 9507SOL    HW229421   2.391   1.237   4.475
 9508SOL     OW29422   5.545   2.495   0.225
 9508SOL    HW129423   5.506   2.442   0.299
 9508SOL    HW229424   5.571   2.586   0.259
 9509SOL     OW29425   1.223   6.601   5.433
 9509SOL    HW129426   1.204   6.618   5.336
 9509SOL    HW229427   1.217   6.503   5.451
 9510SOL     OW29428   6.982   3.807   2.098
 9510SOL    HW129429   0.016   3.888   2.114
 9510SOL    HW229430   6.908   3.829   2.035
 9511SOL     OW29431   0.673   2.198   0.308
 9511SOL    HW129432   0.596   2.184   0.370
 9511SOL    HW229433   0.717   2.285   0.328
 9512SOL     OW29434   6.466   2.003   3.557
 9512SOL    HW129435   6.449   2.094   3.595
 9512SOL    HW229436   6.391   1.941   3.581
 9513SOL     OW29437   1.774   3.767   4.747
 9513SOL    HW129438   1.810   3.695   4.688
 9513SOL    HW229439   1.842   3.840   4.755
 9514SOL     OW29440   1.908   3.532   6.556
 9514SOL    HW129441   1.971   3.513   6.481
 9514SOL    HW229442   1.958   3.538   6.642
 9515SOL     OW29443   1.176   6.106   0.062
 9515SOL    HW129444   1.208   6.187   0.014
 9515SOL    HW229445   1.132   6.133   0.148
 9516SOL     OW29446   4.927   3.466   4.345
 9516SOL    HW129447   4.894   3.372   4.357
 9516SOL    HW229448   4.969   3.497   4.430
 9517SOL     OW29449   0.939   5.086   1.515
 9517SOL    HW129450   1.038   5.083   1.527
 9517SOL    HW229451   0.895   5.031   1.585
 9518SOL     OW29452   1.391   2.867   6.203
 9518SOL    HW129453   1.377   2.770   6.186
 9518SOL    HW229454   1.309   2.917   6.174
 9519SOL     OW29455   2.979   3.486   2.741
 9519SOL    HW129456   2.951   3.436   2.659
 9519SOL    HW229457   3.027   3.570   2.715
 9520SOL     OW29458   6.635   1.019   4.486
 9520SOL    HW129459   6.538   1.008   4.508
 9520SOL    HW229460   6.683   1.059   4.564
 9521SOL     OW29461   2.964   5.294   1.484
 9521SOL    HW129462   3.034   5.263   1.549
 9521SOL    HW229463   2.920   5.214   1.442
 9522SOL     OW29464   4.128   5.320   2.237
 9522SOL    HW129465   4.212   5.345   2.285
 9522SOL    HW229466   4.059   5.290   2.304
 9523SOL     OW29467   2.168   5.217   4.950
 9523SOL    HW129468   2.091   5.275   4.978
 9523SOL    HW229469   2.166   5.205   4.851
 9524SOL     OW29470   1.152   3.678   1.686
 9524SOL    HW129471   1.136   3.758   1.744
 9524SOL    HW229472   1.132   3.702   1.591
 9525SOL     OW29473   1.790   2.353   6.044
 9525SOL    HW129474   1.716   2.285   6.048
 9525SOL    HW229475   1.789   2.398   5.955
 9526SOL     OW29476   5.424   4.624   0.707
 9526SOL    HW129477   5.515   4.636   0.668
 9526SOL    HW229478   5.395   4.708   0.751
 9527SOL     OW29479   2.470   6.921   4.275
 9527SOL    HW129480   2.462   6.937   4.374
 9527SOL    HW229481   2.559   6.880   4.256
 9528SOL     OW29482   5.731   0.874   1.378
 9528SOL    HW129483   5.700   0.946   1.316
 9528SOL    HW229484   5.746   0.914   1.469
 9529SOL     OW29485   5.946   3.350   0.723
 9529SOL    HW129486   6.039   3.381   0.740
 9529SOL    HW229487   5.928   3.267   0.776
 9530SOL     OW29488   1.316   5.654   4.448
 9530SOL    HW129489   1.227   5.610   4.437
 9530SOL    HW229490   1.319   5.703   4.535
 9531SOL     OW29491   4.519   4.461   2.972
 9531SOL    HW129492   4.553   4.465   2.879
 9531SOL    HW229493   4.547   4.375   3.015
 9532SOL     OW29494   6.144   4.662   1.539
 9532SOL    HW129495   6.179   4.745   1.495
 9532SOL    HW229496   6.214   4.624   1.599
 9533SOL     OW29497   0.901   5.756   4.643
 9533SOL    HW129498   0.966   5.747   4.718
 9533SOL    HW229499   0.888   5.666   4.600
 9534SOL     OW29500   5.978   4.556   4.970
 9534SOL    HW129501   5.916   4.478   4.968
 9534SOL    HW229502   6.024   4.560   5.059
 9535SOL     OW29503   1.941   1.923   5.430
 9535SOL    HW129504   1.877   1.864   5.480
 9535SOL    HW229505   1.961   2.004   5.485
 9536SOL     OW29506   3.795   2.957   4.750
 9536SOL    HW129507   3.871   2.950   4.686
 9536SOL    HW229508   3.714   2.991   4.703
 9537SOL     OW29509   2.776   1.668   4.207
 9537SOL    HW129510   2.770   1.585   4.150
 9537SOL    HW229511   2.871   1.682   4.234
 9538SOL     OW29512   4.054   1.138   4.570
 9538SOL    HW129513   4.128   1.134   4.638
 9538SOL    HW229514   4.092   1.169   4.482
 9539SOL     OW29515   3.348   3.012   4.025
 9539SOL    HW129516   3.251   3.006   4.002
 9539SOL    HW229517   3.359   3.011   4.124
 9540SOL     OW29518   4.871   5.204   4.017
 9540SOL    HW129519   4.875   5.302   4.038
 9540SOL    HW229520   4.796   5.187   3.953
 9541SOL     OW29521   0.817   0.730   5.565
 9541SOL    HW129522   0.729   0.749   5.608
 9541SOL    HW229523   0.819   0.767   5.473
 9542SOL     OW29524   5.842   4.771   4.562
 9542SOL    HW129525   5.920   4.771   4.625
 9542SOL    HW229526   5.803   4.863   4.558
 9543SOL     OW29527   2.983   0.279   6.027
 9543SOL    HW129528   2.971   0.234   6.115
 9543SOL    HW229529   2.965   0.215   5.952
 9544SOL     OW29530   4.758   4.017   3.845
 9544SOL    HW129531   4.699   4.088   3.884
 9544SOL    HW229532   4.770   3.944   3.912
 9545SOL     OW29533   0.693   5.214   2.255
 9545SOL    HW129534   0.724   5.152   2.183
 9545SOL    HW229535   0.605   5.253   2.228
 9546SOL     OW29536   3.747   2.020   5.904
 9546SOL    HW129537   3.777   2.114   5.923
 9546SOL    HW229538   3.675   2.021   5.835
 9547SOL     OW29539   3.284   5.910   4.358
 9547SOL    HW129540   3.347   5.836   4.380
 9547SOL    HW229541   3.211   5.875   4.299
 9548SOL     OW29542   1.027   5.439   5.042
 9548SOL    HW129543   0.999   5.344   5.057
 9548SOL    HW229544   1.009   5.492   5.125
 9549SOL     OW29545   3.389   0.626   2.733
 9549SOL    HW129546   3.400   0.711   2.785
 9549SOL    HW229547   3.294   0.595   2.741
 9550SOL     OW29548   6.162   2.676   0.736
 9550SOL    HW129549   6.192   2.591   0.778
 9550SOL    HW229550   6.127   2.657   0.644
 9551SOL     OW29551   5.942   3.010   6.036
 9551SOL    HW129552   5.923   3.097   5.991
 9551SOL    HW229553   6.036   2.982   6.014
 9552SOL     OW29554   2.098   0.462   5.863
 9552SOL    HW129555   2.026   0.455   5.932
 9552SOL    HW229556   2.164   0.388   5.877
 9553SOL     OW29557   5.503   2.084   0.386
 9553SOL    HW129558   5.597   2.074   0.420
 9553SOL    HW229559   5.505   2.090   0.286
 9554SOL     OW29560   2.215   6.642   3.886
 9554SOL    HW129561   2.219   6.647   3.786
 9554SOL    HW229562   2.307   6.653   3.924
 9555SOL     OW29563   0.208   1.308   3.341
 9555SOL    HW129564   0.131   1.345   3.289
 9555SOL    HW229565   0.256   1.382   3.388
 9556SOL     OW29566   1.535   4.956   1.243
 9556SOL    HW129567   1.485   4.870   1.255
 9556SOL    HW229568   1.624   4.937   1.202
 9557SOL     OW29569   4.756   6.860   1.434
 9557SOL    HW129570   4.794   6.907   1.513
 9557SOL    HW229571   4.676   6.808   1.462
 9558SOL     OW29572   5.527   6.476   5.530
 9558SOL    HW129573   5.585   6.396   5.541
 9558SOL    HW229574   5.581   6.551   5.491
 9559SOL     OW29575   1.044   3.752   0.115
 9559SOL    HW129576   1.038   3.852   0.116
 9559SOL    HW229577   1.099   3.721   0.192
 9560SOL     OW29578   2.725   0.966   2.578
 9560SOL    HW129579   2.773   1.026   2.513
 9560SOL    HW229580   2.627   0.973   2.564
 9561SOL     OW29581   0.542   1.072   1.524
 9561SOL    HW129582   0.513   1.143   1.588
 9561SOL    HW229583   0.642   1.068   1.521
 9562SOL     OW29584   3.110   6.732   4.300
 9562SOL    HW129585   3.151   6.667   4.236
 9562SOL    HW229586   3.090   6.686   4.386
 9563SOL     OW29587   0.436   6.433   0.418
 9563SOL    HW129588   0.367   6.504   0.435
 9563SOL    HW229589   0.430   6.363   0.488
 9564SOL     OW29590   1.797   1.709   1.318
 9564SOL    HW129591   1.771   1.681   1.410
 9564SOL    HW229592   1.783   1.633   1.255
 9565SOL     OW29593   3.512   1.157   4.724
 9565SOL    HW129594   3.517   1.142   4.625
 9565SOL    HW229595   3.439   1.223   4.744
 9566SOL     OW29596   2.667   6.272   0.190
 9566SOL    HW129597   2.569   6.254   0.182
 9566SOL    HW229598   2.716   6.186   0.197
 9567SOL     OW29599   5.877   4.127   0.406
 9567SOL    HW129600   5.929   4.162   0.484
 9567SOL    HW229601   5.899   4.181   0.325
 9568SOL     OW29602   4.221   1.263   0.517
 9568SOL    HW129603   4.242   1.171   0.484
 9568SOL    HW229604   4.261   1.331   0.455
 9569SOL     OW29605   0.046   0.906   1.968
 9569SOL    HW129606   0.097   0.903   1.882
 9569SOL    HW229607   0.077   0.833   2.028
 9570SOL     OW29608   0.690   2.996   0.758
 9570SOL    HW129609   0.628   2.985   0.836
 9570SOL    HW229610   0.691   2.912   0.704
 9571SOL     OW29611   2.551   2.504   5.826
 9571SOL    HW129612   2.574   2.467   5.736
 9571SOL    HW229613   2.632   2.507   5.884
 9572SOL     OW29614   2.443   4.808   2.761
 9572SOL    HW129615   2.538   4.838   2.769
 9572SOL    HW229616   2.439   4.728   2.701
 9573SOL     OW29617   6.948   1.656   5.787
 9573SOL    HW129618   6.899   1.574   5.756
 9573SOL    HW229619   6.959   1.651   5.887
 9574SOL     OW29620   3.510   2.862   2.046
 9574SOL    HW129621   3.543   2.798   1.977
 9574SOL    HW229622   3.587   2.898   2.099
 9575SOL     OW29623   6.410   0.741   1.929
 9575SOL    HW129624   6.452   0.658   1.894
 9575SOL    HW229625   6.458   0.821   1.892
 9576SOL     OW29626   1.722   2.023   0.012
 9576SOL    HW129627   1.777   1.949   6.995
 9576SOL    HW229628   1.746   2.033   0.109
 9577SOL     OW29629   0.019   5.735   6.509
 9577SOL    HW129630   0.019   5.663   6.578
 9577SOL    HW229631   0.102   5.791   6.519
 9578SOL     OW29632   1.555   2.600   2.701
 9578SOL    HW129633   1.602   2.685   2.725
 9578SOL    HW229634   1.467   2.597   2.750
 9579SOL     OW29635   6.953   6.311   2.649
 9579SOL    HW129636   6.972   6.239   2.581
 9579SOL    HW229637   6.979   6.400   2.612
 9580SOL     OW29638   5.133   3.622   1.048
 9580SOL    HW129639   5.073   3.689   1.091
 9580SOL    HW229640   5.210   3.669   1.004
 9581SOL     OW29641   0.618   0.177   6.281
 9581SOL    HW129642   0.703   0.125   6.288
 9581SOL    HW229643   0.544   0.124   6.321
 9582SOL     OW29644   3.761   5.695   5.053
 9582SOL    HW129645   3.820   5.650   4.985
 9582SOL    HW229646   3.693   5.630   5.085
 9583SOL     OW29647   3.029   4.208   1.167
 9583SOL    HW129648   3.004   4.249   1.255
 9583SOL    HW229649   3.110   4.254   1.131
 9584SOL     OW29650   1.019   4.958   5.792
 9584SOL    HW129651   1.101   4.962   5.735
 9584SOL    HW229652   0.958   5.034   5.769
 9585SOL     OW29653   5.440   6.407   2.269
 9585SOL    HW129654   5.350   6.439   2.242
 9585SOL    HW229655   5.471   6.458   2.349
 9586SOL     OW29656   4.383   5.318   2.330
 9586SOL    HW129657   4.471   5.364   2.319
 9586SOL    HW229658   4.398   5.227   2.368
 9587SOL     OW29659   0.922   6.455   2.404
 9587SOL    HW129660   0.845   6.517   2.391
 9587SOL    HW229661   0.946   6.453   2.501
 9588SOL     OW29662   6.289   5.925   0.431
 9588SOL    HW129663   6.346   5.998   0.393
 9588SOL    HW229664   6.341   5.873   0.499
 9589SOL     OW29665   1.585   3.932   6.859
 9589SOL    HW129666   1.573   3.903   6.954
 9589SOL    HW229667   1.678   3.967   6.847
 9590SOL     OW29668   6.113   2.522   1.600
 9590SOL    HW129669   6.015   2.503   1.611
 9590SOL    HW229670   6.163   2.485   1.678
 9591SOL     OW29671   4.189   5.630   6.204
 9591SOL    HW129672   4.160   5.723   6.185
 9591SOL    HW229673   4.284   5.618   6.175
 9592SOL     OW29674   3.179   5.164   1.049
 9592SOL    HW129675   3.182   5.233   1.121
 9592SOL    HW229676   3.247   5.186   0.978
 9593SOL     OW29677   1.042   1.607   5.449
 9593SOL    HW129678   0.948   1.583   5.469
 9593SOL    HW229679   1.045   1.697   5.406
 9594SOL     OW29680   2.662   6.502   4.507
 9594SOL    HW129681   2.675   6.452   4.592
 9594SOL    HW229682   2.694   6.446   4.430
 9595SOL     OW29683   0.768   2.776   3.820
 9595SOL    HW129684   0.726   2.801   3.907
 9595SOL    HW229685   0.697   2.749   3.755
 9596SOL     OW29686   0.841   5.266   0.507
 9596SOL    HW129687   0.767   5.277   0.441
 9596SOL    HW229688   0.823   5.186   0.564
 9597SOL     OW29689   0.160   4.229   1.438
 9597SOL    HW129690   0.225   4.202   1.510
 9597SOL    HW229691   0.076   4.177   1.448
 9598SOL     OW29692   2.192   4.091   3.386
 9598SOL    HW129693   2.187   4.034   3.304
 9598SOL    HW229694   2.104   4.138   3.399
 9599SOL     OW29695   3.127   0.307   4.134
 9599SOL    HW129696   3.070   0.256   4.070
 9599SOL    HW229697   3.216   0.262   4.143
 9600SOL     OW29698   2.762   0.358   0.051
 9600SOL    HW129699   2.847   0.348   7.022
 9600SOL    HW229700   2.781   0.402   0.139
 9601SOL     OW29701   5.526   4.307   0.304
 9601SOL    HW129702   5.430   4.292   0.278
 9601SOL    HW229703   5.582   4.233   0.265
 9602SOL     OW29704   4.705   3.947   5.398
 9602SOL    HW129705   4.620   3.985   5.360
 9602SOL    HW229706   4.699   3.944   5.497
 9603SOL     OW29707   4.968   6.809   6.608
 9603SOL    HW129708   4.983   6.732   6.671
 9603SOL    HW229709   4.983   6.895   6.657
 9604SOL     OW29710   5.008   6.669   1.564
 9604SOL    HW129711   5.078   6.606   1.531
 9604SOL    HW229712   4.951   6.698   1.486
 9605SOL     OW29713   1.055   5.344   3.029
 9605SOL    HW129714   0.965   5.306   3.048
 9605SOL    HW229715   1.064   5.433   3.075
 9606SOL     OW29716   1.271   6.584   6.542
 9606SOL    HW129717   1.206   6.519   6.580
 9606SOL    HW229718   1.325   6.624   6.616
 9607SOL     OW29719   3.109   1.242   0.309
 9607SOL    HW129720   3.075   1.304   0.239
 9607SOL    HW229721   3.161   1.168   0.266
 9608SOL     OW29722   0.205   4.779   2.156
 9608SOL    HW129723   0.280   4.846   2.155
 9608SOL    HW229724   0.203   4.730   2.068
 9609SOL     OW29725   3.745   3.078   0.456
 9609SOL    HW129726   3.657   3.113   0.490
 9609SOL    HW229727   3.819   3.118   0.509
 9610SOL     OW29728   1.509   4.591   3.502
 9610SOL    HW129729   1.492   4.689   3.500
 9610SOL    HW229730   1.431   4.543   3.461
 9611SOL     OW29731   1.472   6.315   0.772
 9611SOL    HW129732   1.404   6.298   0.702
 9611SOL    HW229733   1.503   6.228   0.812
 9612SOL     OW29734   0.563   3.113   1.955
 9612SOL    HW129735   0.511   3.179   1.900
 9612SOL    HW229736   0.571   3.027   1.904
 9613SOL     OW29737   5.246   6.499   4.005
 9613SOL    HW129738   5.210   6.445   3.929
 9613SOL    HW229739   5.171   6.533   4.061
 9614SOL     OW29740   3.907   2.058   1.596
 9614SOL    HW129741   3.823   2.102   1.562
 9614SOL    HW229742   3.914   2.072   1.694
 9615SOL     OW29743   2.038   1.498   1.312
 9615SOL    HW129744   1.951   1.478   1.267
 9615SOL    HW229745   2.073   1.586   1.280
 9616SOL     OW29746   3.467   3.901   1.078
 9616SOL    HW129747   3.450   3.864   0.987
 9616SOL    HW229748   3.564   3.892   1.101
 9617SOL     OW29749   1.950   3.151   3.220
 9617SOL    HW129750   2.045   3.151   3.252
 9617SOL    HW229751   1.905   3.236   3.247
 9618SOL     OW29752   2.459   0.250   0.575
 9618SOL    HW129753   2.545   0.300   0.570
 9618SOL    HW229754   2.462   0.171   0.514
 9619SOL     OW29755   1.829   0.200   5.740
 9619SOL    HW129756   1.904   0.203   5.674
 9619SOL    HW229757   1.762   0.270   5.717
 9620SOL     OW29758   4.377   6.872   5.265
 9620SOL    HW129759   4.358   6.777   5.240
 9620SOL    HW229760   4.320   6.899   5.342
 9621SOL     OW29761   2.102   2.935   1.860
 9621SOL    HW129762   2.160   2.866   1.818
 9621SOL    HW229763   2.042   2.975   1.791
 9622SOL     OW29764   6.285   1.397   0.243
 9622SOL    HW129765   6.196   1.386   0.288
 9622SOL    HW229766   6.293   1.490   0.208
 9623SOL     OW29767   2.640   3.471   5.674
 9623SOL    HW129768   2.729   3.443   5.638
 9623SOL    HW229769   2.621   3.565   5.648
 9624SOL     OW29770   5.908   4.046   2.859
 9624SOL    HW129771   5.847   3.967   2.861
 9624SOL    HW229772   6.002   4.016   2.841
 9625SOL     OW29773   5.185   5.271   6.763
 9625SOL    HW129774   5.214   5.350   6.817
 9625SOL    HW229775   5.167   5.193   6.824
 9626SOL     OW29776   4.372   5.307   0.644
 9626SOL    HW129777   4.319   5.282   0.563
 9626SOL    HW229778   4.462   5.264   0.639
 9627SOL     OW29779   0.690   5.988   6.296
 9627SOL    HW129780   0.698   5.903   6.347
 9627SOL    HW229781   0.620   5.979   6.226
 9628SOL     OW29782   5.378   4.858   0.888
 9628SOL    HW129783   5.325   4.811   0.958
 9628SOL    HW229784   5.325   4.935   0.851
 9629SOL     OW29785   1.971   0.485   0.982
 9629SOL    HW129786   1.975   0.558   0.913
 9629SOL    HW229787   1.892   0.500   1.042
 9630SOL     OW29788   6.024   6.707   4.598
 9630SOL    HW129789   6.050   6.683   4.504
 9630SOL    HW229790   6.066   6.642   4.661
 9631SOL     OW29791   0.164   6.322   6.198
 9631SOL    HW129792   0.262   6.304   6.194
 9631SOL    HW229793   0.118   6.267   6.128
 9632SOL     OW29794   1.955   6.809   3.101
 9632SOL    HW129795   1.934   6.866   3.181
 9632SOL    HW229796   2.043   6.763   3.115
 9633SOL     OW29797   5.234   4.940   6.403
 9633SOL    HW129798   5.241   4.841   6.396
 9633SOL    HW229799   5.172   4.974   6.333
 9634SOL     OW29800   1.428   6.390   3.842
 9634SOL    HW129801   1.398   6.300   3.812
 9634SOL    HW229802   1.524   6.387   3.867
 9635SOL     OW29803   1.861   6.192   5.059
 9635SOL    HW129804   1.885   6.220   4.967
 9635SOL    HW229805   1.922   6.118   5.089
 9636SOL     OW29806   3.989   1.554   5.505
 9636SOL    HW129807   3.941   1.469   5.527
 9636SOL    HW229808   3.957   1.626   5.566
 9637SOL     OW29809   2.628   2.433   6.959
 9637SOL    HW129810   2.591   2.381   0.014
 9637SOL    HW229811   2.556   2.490   6.920
 9638SOL     OW29812   0.255   3.463   6.073
 9638SOL    HW129813   0.200   3.397   6.020
 9638SOL    HW229814   0.194   3.530   6.116
 9639SOL     OW29815   3.926   1.879   1.988
 9639SOL    HW129816   4.001   1.820   2.018
 9639SOL    HW229817   3.878   1.837   1.911
 9640SOL     OW29818   2.314   2.822   3.812
 9640SOL    HW129819   2.323   2.841   3.910
 9640SOL    HW229820   2.222   2.788   3.793
 9641SOL     OW29821   4.351   6.939   0.545
 9641SOL    HW129822   4.431   6.975   0.496
 9641SOL    HW229823   4.373   6.930   0.642
 9642SOL     OW29824   2.888   6.933   4.821
 9642SOL    HW129825   2.797   6.906   4.789
 9642SOL    HW229826   2.878   6.998   4.897
 9643SOL     OW29827   5.367   4.195   3.711
 9643SOL    HW129828   5.339   4.100   3.717
 9643SOL    HW229829   5.331   4.235   3.626
 9644SOL     OW29830   0.929   3.852   6.315
 9644SOL    HW129831   1.022   3.860   6.280
 9644SOL    HW229832   0.925   3.887   6.409
 9645SOL     OW29833   2.304   4.945   4.784
 9645SOL    HW129834   2.374   4.902   4.841
 9645SOL    HW229835   2.345   5.020   4.732
 9646SOL     OW29836   3.640   4.985   2.612
 9646SOL    HW129837   3.696   4.910   2.647
 9646SOL    HW229838   3.660   5.069   2.664
 9647SOL     OW29839   6.386   4.382   1.099
 9647SOL    HW129840   6.377   4.346   1.006
 9647SOL    HW229841   6.349   4.475   1.102
 9648SOL     OW29842   4.332   1.273   1.060
 9648SOL    HW129843   4.374   1.314   0.979
 9648SOL    HW229844   4.232   1.271   1.048
 9649SOL     OW29845   2.777   0.035   7.002
 9649SOL    HW129846   2.754   0.132   7.012
 9649SOL    HW229847   2.777   7.014   0.068
 9650SOL     OW29848   6.886   5.078   2.341
 9650SOL    HW129849   6.865   4.987   2.378
 9650SOL    HW229850   6.977   5.106   2.372
 9651SOL     OW29851   0.144   2.092   5.961
 9651SOL    HW129852   0.049   2.100   5.930
 9651SOL    HW229853   0.144   2.056   6.055
 9652SOL     OW29854   1.109   4.810   1.345
 9652SOL    HW129855   1.134   4.865   1.424
 9652SOL    HW229856   1.010   4.814   1.332
 9653SOL     OW29857   4.031   4.786   5.157
 9653SOL    HW129858   3.995   4.781   5.063
 9653SOL    HW229859   3.961   4.824   5.217
 9654SOL     OW29860   2.913   2.144   1.487
 9654SOL    HW129861   2.814   2.143   1.474
 9654SOL    HW229862   2.934   2.174   1.580
 9655SOL     OW29863   0.109   1.521   6.441
 9655SOL    HW129864   0.114   1.549   6.537
 9655SOL    HW229865   0.016   1.534   6.408
 9656SOL     OW29866   2.232   0.670   2.879
 9656SOL    HW129867   2.295   0.639   2.950
 9656SOL    HW229868   2.162   0.728   2.920
 9657SOL     OW29869   5.473   0.963   4.196
 9657SOL    HW129870   5.454   0.900   4.121
 9657SOL    HW229871   5.542   0.922   4.257
 9658SOL     OW29872   0.121   2.100   2.343
 9658SOL    HW129873   0.068   2.024   2.305
 9658SOL    HW229874   0.088   2.121   2.435
 9659SOL     OW29875   6.919   4.105   0.198
 9659SOL    HW129876   6.949   4.197   0.223
 9659SOL    HW229877   6.993   4.057   0.150
 9660SOL     OW29878   0.410   6.071   0.912
 9660SOL    HW129879   0.421   6.047   1.008
 9660SOL    HW229880   0.357   6.155   0.904
 9661SOL     OW29881   4.701   5.886   1.128
 9661SOL    HW129882   4.731   5.946   1.053
 9661SOL    HW229883   4.721   5.929   1.215
 9662SOL     OW29884   6.209   2.947   4.344
 9662SOL    HW129885   6.234   3.043   4.337
 9662SOL    HW229886   6.183   2.925   4.438
 9663SOL     OW29887   1.550   5.438   3.817
 9663SOL    HW129888   1.544   5.347   3.858
 9663SOL    HW229889   1.492   5.502   3.868
 9664SOL     OW29890   4.744   6.649   2.928
 9664SOL    HW129891   4.828   6.628   2.878
 9664SOL    HW229892   4.768   6.679   3.021
 9665SOL     OW29893   6.118   4.941   5.486
 9665SOL    HW129894   6.043   4.885   5.521
 9665SOL    HW229895   6.171   4.887   5.420
 9666SOL     OW29896   5.903   4.152   1.014
 9666SOL    HW129897   5.981   4.096   0.984
 9666SOL    HW229898   5.830   4.147   0.946
 9667SOL     OW29899   4.114   3.359   4.394
 9667SOL    HW129900   4.016   3.342   4.389
 9667SOL    HW229901   4.163   3.284   4.349
 9668SOL     OW29902   6.837   1.424   5.703
 9668SOL    HW129903   6.882   1.361   5.641
 9668SOL    HW229904   6.738   1.419   5.691
 9669SOL     OW29905   0.488   1.158   0.770
 9669SOL    HW129906   0.524   1.246   0.800
 9669SOL    HW229907   0.551   1.117   0.704
 9670SOL     OW29908   4.034   4.628   5.711
 9670SOL    HW129909   3.987   4.655   5.627
 9670SOL    HW229910   3.988   4.670   5.789
 9671SOL     OW29911   6.971   5.207   6.216
 9671SOL    HW129912   7.002   5.142   6.147
 9671SOL    HW229913   6.889   5.171   6.261
 9672SOL     OW29914   1.152   6.635   5.135
 9672SOL    HW129915   1.052   6.639   5.128
 9672SOL    HW229916   1.191   6.706   5.076
 9673SOL     OW29917   3.557   5.058   6.868
 9673SOL    HW129918   3.529   5.143   6.913
 9673SOL    HW229919   3.637   5.075   6.811
 9674SOL     OW29920   2.487   6.490   2.243
 9674SOL    HW129921   2.565   6.500   2.305
 9674SOL    HW229922   2.459   6.580   2.210
 9675SOL     OW29923   5.982   0.609   2.261
 9675SOL    HW129924   5.906   0.568   2.209
 9675SOL    HW229925   6.034   0.671   2.202
 9676SOL     OW29926   1.500   3.466   5.817
 9676SOL    HW129927   1.481   3.383   5.764
 9676SOL    HW229928   1.599   3.475   5.829
 9677SOL     OW29929   1.974   4.128   5.767
 9677SOL    HW129930   1.949   4.220   5.735
 9677SOL    HW229931   1.906   4.095   5.832
 9678SOL     OW29932   3.657   3.879   2.837
 9678SOL    HW129933   3.673   3.780   2.834
 9678SOL    HW229934   3.572   3.897   2.885
 9679SOL     OW29935   0.851   2.831   2.290
 9679SOL    HW129936   0.922   2.866   2.230
 9679SOL    HW229937   0.839   2.733   2.275
 9680SOL     OW29938   5.759   6.630   3.786
 9680SOL    HW129939   5.737   6.687   3.865
 9680SOL    HW229940   5.798   6.544   3.817
 9681SOL     OW29941   2.133   0.985   1.125
 9681SOL    HW129942   2.051   0.953   1.174
 9681SOL    HW229943   2.124   1.082   1.104
 9682SOL     OW29944   4.831   5.071   3.386
 9682SOL    HW129945   4.802   5.046   3.293
 9682SOL    HW229946   4.794   5.005   3.451
 9683SOL     OW29947   4.191   5.642   0.556
 9683SOL    HW129948   4.181   5.651   0.457
 9683SOL    HW229949   4.194   5.545   0.580
 9684SOL     OW29950   0.176   3.709   4.831
 9684SOL    HW129951   0.255   3.665   4.789
 9684SOL    HW229952   0.201   3.741   4.923
 9685SOL     OW29953   2.550   2.712   0.951
 9685SOL    HW129954   2.646   2.702   0.979
 9685SOL    HW229955   2.491   2.705   1.032
 9686SOL     OW29956   6.692   1.254   0.893
 9686SOL    HW129957   6.784   1.217   0.881
 9686SOL    HW229958   6.632   1.218   0.822
 9687SOL     OW29959   1.954   0.783   3.192
 9687SOL    HW129960   1.861   0.787   3.229
 9687SOL    HW229961   2.004   0.707   3.234
 9688SOL     OW29962   6.998   2.403   2.702
 9688SOL    HW129963   0.012   2.429   2.792
 9688SOL    HW229964   6.909   2.447   2.688
 9689SOL     OW29965   1.868   6.874   0.449
 9689SOL    HW129966   1.917   6.795   0.415
 9689SOL    HW229967   1.817   6.917   0.374
 9690SOL     OW29968   5.886   4.533   6.969
 9690SOL    HW129969   5.939   4.593   6.909
 9690SOL    HW229970   5.852   4.455   6.916
 9691SOL     OW29971   2.436   5.185   2.301
 9691SOL    HW129972   2.425   5.279   2.268
 9691SOL    HW229973   2.532   5.158   2.295
 9692SOL     OW29974   2.640   5.330   2.510
 9692SOL    HW129975   2.689   5.297   2.429
 9692SOL    HW229976   2.687   5.410   2.546
 9693SOL     OW29977   6.988   5.838   2.063
 9693SOL    HW129978   0.010   5.777   2.129
 9693SOL    HW229979   6.939   5.783   1.996
 9694SOL     OW29980   2.168   2.023   6.761
 9694SOL    HW129981   2.162   2.096   6.829
 9694SOL    HW229982   2.203   2.061   6.675
 9695SOL     OW29983   5.907   4.454   0.583
 9695SOL    HW129984   5.883   4.433   0.488
 9695SOL    HW229985   6.005   4.467   0.590
 9696SOL     OW29986   3.910   2.490   1.533
 9696SOL    HW129987   3.897   2.581   1.572
 9696SOL    HW229988   3.908   2.422   1.607
 9697SOL     OW29989   0.770   4.816   0.038
 9697SOL    HW129990   0.844   4.769   0.085
 9697SOL    HW229991   0.732   4.755   6.990
 9698SOL     OW29992   5.859   0.536   4.782
 9698SOL    HW129993   5.956   0.557   4.769
 9698SOL    HW229994   5.833   0.461   4.721
 9699SOL     OW29995   0.586   3.953   5.692
 9699SOL    HW129996   0.589   3.960   5.593
 9699SOL    HW229997   0.542   4.034   5.730
 9700SOL     OW29998   3.503   4.836   5.182
 9700SOL    HW129999   3.434   4.906   5.202
 9700SOL    HW230000   3.492   4.759   5.245
 9701SOL     OW30001   3.660   5.780   5.336
 9701SOL    HW130002   3.742   5.734   5.302
 9701SOL    HW230003   3.683   5.875   5.358
 9702SOL     OW30004   5.435   1.349   0.409
 9702SOL    HW130005   5.410   1.255   0.387
 9702SOL    HW230006   5.504   1.382   0.344
 9703SOL     OW30007   2.944   6.148   4.729
 9703SOL    HW130008   2.940   6.048   4.731
 9703SOL    HW230009   3.038   6.178   4.744
 9704SOL     OW30010   3.062   0.030   2.923
 9704SOL    HW130011   3.079   6.977   2.860
 9704SOL    HW230012   2.978   0.078   2.896
 9705SOL     OW30013   4.597   4.973   0.318
 9705SOL    HW130014   4.499   4.985   0.298
 9705SOL    HW230015   4.649   4.974   0.233
 9706SOL     OW30016   6.466   2.233   0.953
 9706SOL    HW130017   6.381   2.180   0.952
 9706SOL    HW230018   6.536   2.184   1.005
 9707SOL     OW30019   1.089   4.323   2.003
 9707SOL    HW130020   1.048   4.257   2.066
 9707SOL    HW230021   1.160   4.278   1.949
 9708SOL     OW30022   2.062   2.746   3.722
 9708SOL    HW130023   2.016   2.721   3.808
 9708SOL    HW230024   2.115   2.668   3.689
 9709SOL     OW30025   0.932   6.169   3.707
 9709SOL    HW130026   0.961   6.264   3.693
 9709SOL    HW230027   0.976   6.111   3.639
 9710SOL     OW30028   0.448   0.823   2.514
 9710SOL    HW130029   0.473   0.738   2.561
 9710SOL    HW230030   0.391   0.802   2.435
 9711SOL     OW30031   1.695   3.132   6.189
 9711SOL    HW130032   1.725   3.101   6.098
 9711SOL    HW230033   1.610   3.086   6.214
 9712SOL     OW30034   5.450   2.662   5.127
 9712SOL    HW130035   5.465   2.571   5.088
 9712SOL    HW230036   5.365   2.700   5.092
 9713SOL     OW30037   0.129   4.370   3.019
 9713SOL    HW130038   0.203   4.418   3.065
 9713SOL    HW230039   0.154   4.274   3.008
 9714SOL     OW30040   1.977   1.607   1.720
 9714SOL    HW130041   2.013   1.548   1.792
 9714SOL    HW230042   1.990   1.703   1.745
 9715SOL     OW30043   6.341   5.585   4.702
 9715SOL    HW130044   6.274   5.512   4.715
 9715SOL    HW230045   6.389   5.573   4.615
 9716SOL     OW30046   3.818   2.054   6.612
 9716SOL    HW130047   3.794   1.962   6.579
 9716SOL    HW230048   3.734   2.109   6.621
 9717SOL     OW30049   5.151   5.826   4.536
 9717SOL    HW130050   5.211   5.796   4.462
 9717SOL    HW230051   5.200   5.818   4.623
 9718SOL     OW30052   4.215   2.724   1.186
 9718SOL    HW130053   4.201   2.769   1.274
 9718SOL    HW230054   4.309   2.691   1.180
 9719SOL     OW30055   0.863   2.402   0.572
 9719SOL    HW130056   0.926   2.393   0.496
 9719SOL    HW230057   0.780   2.450   0.542
 9720SOL     OW30058   0.615   6.181   1.897
 9720SOL    HW130059   0.690   6.187   1.962
 9720SOL    HW230060   0.578   6.272   1.879
 9721SOL     OW30061   0.746   3.258   2.301
 9721SOL    HW130062   0.703   3.178   2.343
 9721SOL    HW230063   0.807   3.302   2.366
 9722SOL     OW30064   0.638   0.681   3.589
 9722SOL    HW130065   0.556   0.711   3.637
 9722SOL    HW230066   0.663   0.748   3.520
 9723SOL     OW30067   1.183   6.406   2.828
 9723SOL    HW130068   1.221   6.498   2.837
 9723SOL    HW230069   1.162   6.370   2.919
 9724SOL     OW30070   2.906   2.714   1.715
 9724SOL    HW130071   2.807   2.725   1.704
 9724SOL    HW230072   2.925   2.625   1.757
 9725SOL     OW30073   4.252   3.552   6.336
 9725SOL    HW130074   4.202   3.580   6.418
 9725SOL    HW230075   4.345   3.525   6.362
 9726SOL     OW30076   5.407   0.193   4.682
 9726SOL    HW130077   5.422   0.209   4.779
 9726SOL    HW230078   5.460   0.114   4.652
 9727SOL     OW30079   1.139   3.988   5.363
 9727SOL    HW130080   1.165   4.066   5.421
 9727SOL    HW230081   1.096   4.022   5.279
 9728SOL     OW30082   1.497   6.434   6.409
 9728SOL    HW130083   1.545   6.472   6.488
 9728SOL    HW230084   1.485   6.506   6.340
 9729SOL     OW30085   1.277   4.756   3.127
 9729SOL    HW130086   1.193   4.719   3.168
 9729SOL    HW230087   1.262   4.852   3.102
 9730SOL     OW30088   6.972   3.159   2.277
 9730SOL    HW130089   0.017   3.221   2.237
 9730SOL    HW230090   7.001   3.130   2.368
 9731SOL     OW30091   4.118   5.180   0.726
 9731SOL    HW130092   4.074   5.092   0.709
 9731SOL    HW230093   4.084   5.248   0.662
 9732SOL     OW30094   6.889   6.355   2.924
 9732SOL    HW130095   6.888   6.452   2.946
 9732SOL    HW230096   6.902   6.343   2.826
 9733SOL     OW30097   6.146   5.050   4.629
 9733SOL    HW130098   6.052   5.043   4.661
 9733SOL    HW230099   6.150   5.028   4.532
 9734SOL     OW30100   5.686   1.641   3.837
 9734SOL    HW130101   5.703   1.698   3.918
 9734SOL    HW230102   5.773   1.602   3.806
 9735SOL     OW30103   2.281   4.981   2.915
 9735SOL    HW130104   2.330   4.905   2.871
 9735SOL    HW230105   2.311   5.067   2.875
 9736SOL     OW30106   5.149   1.077   6.850
 9736SOL    HW130107   5.108   1.057   6.761
 9736SOL    HW230108   5.146   1.175   6.867
 9737SOL     OW30109   4.320   2.094   4.706
 9737SOL    HW130110   4.221   2.084   4.717
 9737SOL    HW230111   4.355   2.154   4.778
 9738SOL     OW30112   1.659   0.674   2.833
 9738SOL    HW130113   1.629   0.714   2.920
 9738SOL    HW230114   1.719   0.596   2.851
 9739SOL     OW30115   0.037   4.937   1.574
 9739SOL    HW130116   6.963   4.943   1.596
 9739SOL    HW230117   0.070   4.845   1.596
 9740SOL     OW30118   5.895   3.625   2.911
 9740SOL    HW130119   5.872   3.546   2.967
 9740SOL    HW230120   5.965   3.600   2.843
 9741SOL     OW30121   4.525   1.238   2.786
 9741SOL    HW130122   4.451   1.172   2.795
 9741SOL    HW230123   4.608   1.201   2.826
 9742SOL     OW30124   5.228   0.242   3.371
 9742SOL    HW130125   5.164   0.166   3.359
 9742SOL    HW230126   5.208   0.313   3.303
 9743SOL     OW30127   1.901   2.709   5.744
 9743SOL    HW130128   1.990   2.664   5.749
 9743SOL    HW230129   1.897   2.783   5.811
 9744SOL     OW30130   1.244   0.575   2.139
 9744SOL    HW130131   1.207   0.524   2.216
 9744SOL    HW230132   1.243   0.673   2.159
 9745SOL     OW30133   0.648   2.525   5.350
 9745SOL    HW130134   0.632   2.502   5.446
 9745SOL    HW230135   0.600   2.460   5.292
 9746SOL     OW30136   5.336   1.014   5.266
 9746SOL    HW130137   5.246   0.972   5.273
 9746SOL    HW230138   5.374   1.027   5.357
 9747SOL     OW30139   1.426   1.400   1.012
 9747SOL    HW130140   1.512   1.358   1.040
 9747SOL    HW230141   1.352   1.334   1.022
 9748SOL     OW30142   1.207   6.361   5.181
 9748SOL    HW130143   1.134   6.327   5.240
 9748SOL    HW230144   1.195   6.459   5.166
 9749SOL     OW30145   1.185   2.953   5.678
 9749SOL    HW130146   1.118   2.886   5.708
 9749SOL    HW230147   1.276   2.924   5.707
 9750SOL     OW30148   5.625   4.844   3.714
 9750SOL    HW130149   5.609   4.776   3.786
 9750SOL    HW230150   5.574   4.818   3.632
 9751SOL     OW30151   1.925   1.990   0.775
 9751SOL    HW130152   1.952   1.894   0.767
 9751SOL    HW230153   1.994   2.040   0.826
 9752SOL     OW30154   4.612   0.660   6.119
 9752SOL    HW130155   4.688   0.630   6.177
 9752SOL    HW230156   4.571   0.742   6.158
 9753SOL     OW30157   6.725   6.404   4.648
 9753SOL    HW130158   6.790   6.368   4.715
 9753SOL    HW230159   6.673   6.328   4.608
 9754SOL     OW30160   1.424   1.845   6.834
 9754SOL    HW130161   1.478   1.761   6.836
 9754SOL    HW230162   1.358   1.841   6.759
 9755SOL     OW30163   4.195   3.671   5.027
 9755SOL    HW130164   4.167   3.767   5.016
 9755SOL    HW230165   4.156   3.617   4.953
 9756SOL     OW30166   5.780   2.991   6.823
 9756SOL    HW130167   5.696   3.040   6.799
 9756SOL    HW230168   5.817   2.948   6.741
 9757SOL     OW30169   5.129   3.117   3.559
 9757SOL    HW130170   5.152   3.022   3.538
 9757SOL    HW230171   5.198   3.155   3.621
 9758SOL     OW30172   1.995   0.186   5.511
 9758SOL    HW130173   2.089   0.154   5.494
 9758SOL    HW230174   1.931   0.132   5.456
 9759SOL     OW30175   2.031   6.664   1.168
 9759SOL    HW130176   2.024   6.742   1.106
 9759SOL    HW230177   1.948   6.608   1.162
 9760SOL     OW30178   5.477   4.628   4.802
 9760SOL    HW130179   5.568   4.596   4.776
 9760SOL    HW230180   5.474   4.643   4.901
 9761SOL     OW30181   5.954   5.003   1.458
 9761SOL    HW130182   5.910   5.086   1.491
 9761SOL    HW230183   5.893   4.956   1.393
 9762SOL     OW30184   2.216   1.930   4.416
 9762SOL    HW130185   2.216   1.976   4.505
 9762SOL    HW230186   2.121   1.914   4.387
 9763SOL     OW30187   4.681   1.138   1.546
 9763SOL    HW130188   4.729   1.105   1.464
 9763SOL    HW230189   4.604   1.078   1.565
 9764SOL     OW30190   1.478   2.770   3.710
 9764SOL    HW130191   1.383   2.747   3.690
 9764SOL    HW230192   1.482   2.861   3.751
 9765SOL     OW30193   6.853   1.902   5.395
 9765SOL    HW130194   6.915   1.831   5.430
 9765SOL    HW230195   6.826   1.963   5.469
 9766SOL     OW30196   2.967   0.735   3.169
 9766SOL    HW130197   2.960   0.829   3.203
 9766SOL    HW230198   2.877   0.703   3.140
 9767SOL     OW30199   5.321   1.751   5.000
 9767SOL    HW130200   5.273   1.713   4.921
 9767SOL    HW230201   5.350   1.676   5.060
 9768SOL     OW30202   4.641   2.160   2.643
 9768SOL    HW130203   4.661   2.245   2.595
 9768SOL    HW230204   4.588   2.180   2.726
 9769SOL     OW30205   1.249   2.611   1.119
 9769SOL    HW130206   1.172   2.557   1.083
 9769SOL    HW230207   1.225   2.708   1.119
 9770SOL     OW30208   6.192   5.396   5.644
 9770SOL    HW130209   6.272   5.369   5.591
 9770SOL    HW230210   6.177   5.330   5.718
 9771SOL     OW30211   4.318   4.495   0.938
 9771SOL    HW130212   4.311   4.549   1.022
 9771SOL    HW230213   4.229   4.453   0.918
 9772SOL     OW30214   0.175   6.729   1.677
 9772SOL    HW130215   0.104   6.661   1.659
 9772SOL    HW230216   0.263   6.695   1.642
 9773SOL     OW30217   5.318   5.567   3.837
 9773SOL    HW130218   5.283   5.633   3.903
 9773SOL    HW230219   5.323   5.610   3.747
 9774SOL     OW30220   6.032   5.015   3.788
 9774SOL    HW130221   6.034   5.089   3.855
 9774SOL    HW230222   5.964   5.036   3.718
 9775SOL     OW30223   1.986   2.433   4.719
 9775SOL    HW130224   2.011   2.343   4.685
 9775SOL    HW230225   1.890   2.433   4.747
 9776SOL     OW30226   0.087   5.516   4.452
 9776SOL    HW130227   7.013   5.529   4.433
 9776SOL    HW230228   0.100   5.507   4.551
 9777SOL     OW30229   6.208   4.646   6.166
 9777SOL    HW130230   6.230   4.565   6.112
 9777SOL    HW230231   6.265   4.723   6.134
 9778SOL     OW30232   4.903   6.930   3.196
 9778SOL    HW130233   4.910   6.856   3.262
 9778SOL    HW230234   4.812   6.929   3.154
 9779SOL     OW30235   2.855   1.245   4.675
 9779SOL    HW130236   2.922   1.188   4.723
 9779SOL    HW230237   2.869   1.341   4.700
 9780SOL     OW30238   2.135   3.193   0.531
 9780SOL    HW130239   2.125   3.225   0.626
 9780SOL    HW230240   2.131   3.093   0.530
 9781SOL     OW30241   1.593   4.566   4.430
 9781SOL    HW130242   1.630   4.547   4.339
 9781SOL    HW230243   1.526   4.496   4.454
 9782SOL     OW30244   6.844   0.219   1.182
 9782SOL    HW130245   6.817   0.133   1.226
 9782SOL    HW230246   6.840   0.293   1.249
 9783SOL     OW30247   5.967   0.724   1.457
 9783SOL    HW130248   5.892   0.758   1.400
 9783SOL    HW230249   5.934   0.712   1.551
 9784SOL     OW30250   4.620   0.997   3.430
 9784SOL    HW130251   4.602   1.084   3.476
 9784SOL    HW230252   4.565   0.991   3.347
 9785SOL     OW30253   0.138   2.783   2.744
 9785SOL    HW130254   0.071   2.711   2.727
 9785SOL    HW230255   0.229   2.743   2.752
 9786SOL     OW30256   2.249   5.225   5.857
 9786SOL    HW130257   2.346   5.242   5.874
 9786SOL    HW230258   2.210   5.177   5.936
 9787SOL     OW30259   5.047   4.058   1.886
 9787SOL    HW130260   5.101   4.094   1.962
 9787SOL    HW230261   4.950   4.062   1.909
 9788SOL     OW30262   0.170   6.960   4.133
 9788SOL    HW130263   0.257   6.968   4.083
 9788SOL    HW230264   0.169   6.873   4.183
 9789SOL     OW30265   2.111   5.744   5.710
 9789SOL    HW130266   2.146   5.772   5.621
 9789SOL    HW230267   2.123   5.819   5.776
 9790SOL     OW30268   5.318   1.517   4.364
 9790SOL    HW130269   5.283   1.523   4.270
 9790SOL    HW230270   5.322   1.421   4.392
 9791SOL     OW30271   1.672   1.258   1.094
 9791SOL    HW130272   1.663   1.217   1.185
 9791SOL    HW230273   1.722   1.196   1.034
 9792SOL     OW30274   4.698   4.772   1.097
 9792SOL    HW130275   4.764   4.714   1.050
 9792SOL    HW230276   4.697   4.750   1.195
 9793SOL     OW30277   5.400   6.310   2.697
 9793SOL    HW130278   5.497   6.331   2.700
 9793SOL    HW230279   5.359   6.349   2.614
 9794SOL     OW30280   5.307   3.021   6.023
 9794SOL    HW130281   5.265   3.108   5.996
 9794SOL    HW230282   5.284   2.950   5.956
 9795SOL     OW30283   1.323   3.374   4.665
 9795SOL    HW130284   1.305   3.427   4.582
 9795SOL    HW230285   1.416   3.339   4.663
 9796SOL     OW30286   2.934   5.091   0.943
 9796SOL    HW130287   3.020   5.122   0.983
 9796SOL    HW230288   2.933   4.991   0.939
 9797SOL     OW30289   4.134   3.667   6.795
 9797SOL    HW130290   4.148   3.665   6.893
 9797SOL    HW230291   4.218   3.694   6.749
 9798SOL     OW30292   2.815   0.624   0.898
 9798SOL    HW130293   2.740   0.609   0.832
 9798SOL    HW230294   2.872   0.699   0.867
 9799SOL     OW30295   3.101   3.106   2.454
 9799SOL    HW130296   3.151   3.111   2.368
 9799SOL    HW230297   3.105   3.013   2.491
 9800SOL     OW30298   4.271   5.746   6.519
 9800SOL    HW130299   4.241   5.764   6.612
 9800SOL    HW230300   4.298   5.649   6.511
 9801SOL     OW30301   4.885   5.830   0.743
 9801SOL    HW130302   4.847   5.769   0.674
 9801SOL    HW230303   4.970   5.871   0.708
 9802SOL     OW30304   0.699   3.442   1.049
 9802SOL    HW130305   0.683   3.345   1.071
 9802SOL    HW230306   0.782   3.449   0.993
 9803SOL     OW30307   6.159   6.876   6.988
 9803SOL    HW130308   6.255   6.861   7.011
 9803SOL    HW230309   6.117   6.936   0.033
 9804SOL     OW30310   0.054   5.469   3.608
 9804SOL    HW130311   0.134   5.457   3.549
 9804SOL    HW230312   0.048   5.564   3.638
 9805SOL     OW30313   1.263   5.303   6.916
 9805SOL    HW130314   1.275   5.365   6.993
 9805SOL    HW230315   1.275   5.354   6.830
 9806SOL     OW30316   0.395   2.706   1.649
 9806SOL    HW130317   0.411   2.772   1.722
 9806SOL    HW230318   0.297   2.701   1.629
 9807SOL     OW30319   4.308   1.786   0.245
 9807SOL    HW130320   4.394   1.823   0.209
 9807SOL    HW230321   4.300   1.810   0.342
 9808SOL     OW30322   6.457   1.762   5.155
 9808SOL    HW130323   6.475   1.665   5.167
 9808SOL    HW230324   6.522   1.800   5.089
 9809SOL     OW30325   0.819   1.625   4.495
 9809SOL    HW130326   0.725   1.615   4.464
 9809SOL    HW230327   0.852   1.717   4.473
 9810SOL     OW30328   2.667   1.541   2.947
 9810SOL    HW130329   2.681   1.544   3.046
 9810SOL    HW230330   2.697   1.627   2.906
 9811SOL     OW30331   6.699   6.257   3.112
 9811SOL    HW130332   6.660   6.317   3.182
 9811SOL    HW230333   6.787   6.294   3.081
 9812SOL     OW30334   4.788   2.574   5.913
 9812SOL    HW130335   4.720   2.514   5.955
 9812SOL    HW230336   4.749   2.617   5.832
 9813SOL     OW30337   6.447   5.271   7.022
 9813SOL    HW130338   6.466   5.309   0.090
 9813SOL    HW230339   6.471   5.338   6.952
 9814SOL     OW30340   6.842   6.642   5.713
 9814SOL    HW130341   6.842   6.706   5.790
 9814SOL    HW230342   6.866   6.551   5.745
 9815SOL     OW30343   6.373   3.447   1.496
 9815SOL    HW130344   6.473   3.447   1.503
 9815SOL    HW230345   6.334   3.422   1.584
 9816SOL     OW30346   6.259   0.316   0.095
 9816SOL    HW130347   6.214   0.320   0.006
 9816SOL    HW230348   6.232   0.396   0.149
 9817SOL     OW30349   2.861   5.924   1.552
 9817SOL    HW130350   2.781   5.948   1.606
 9817SOL    HW230351   2.944   5.955   1.599
 9818SOL     OW30352   1.956   1.099   3.739
 9818SOL    HW130353   1.966   1.008   3.780
 9818SOL    HW230354   1.896   1.155   3.797
 9819SOL     OW30355   6.020   3.719   4.965
 9819SOL    HW130356   6.011   3.689   4.870
 9819SOL    HW230357   5.979   3.651   5.026
 9820SOL     OW30358   2.545   2.516   6.205
 9820SOL    HW130359   2.604   2.527   6.285
 9820SOL    HW230360   2.597   2.473   6.131
 9821SOL     OW30361   4.474   2.083   1.960
 9821SOL    HW130362   4.437   2.172   1.932
 9821SOL    HW230363   4.532   2.047   1.887
 9822SOL     OW30364   4.199   5.702   4.635
 9822SOL    HW130365   4.152   5.624   4.592
 9822SOL    HW230366   4.296   5.701   4.609
 9823SOL     OW30367   1.495   0.985   2.854
 9823SOL    HW130368   1.430   0.944   2.790
 9823SOL    HW230369   1.543   0.914   2.904
 9824SOL     OW30370   1.212   5.852   5.753
 9824SOL    HW130371   1.281   5.844   5.825
 9824SOL    HW230372   1.257   5.846   5.664
 9825SOL     OW30373   5.003   6.230   6.181
 9825SOL    HW130374   4.992   6.301   6.112
 9825SOL    HW230375   5.087   6.178   6.164
 9826SOL     OW30376   2.802   6.373   5.583
 9826SOL    HW130377   2.859   6.453   5.564
 9826SOL    HW230378   2.715   6.382   5.534
 9827SOL     OW30379   1.890   5.805   2.386
 9827SOL    HW130380   1.895   5.708   2.408
 9827SOL    HW230381   1.799   5.840   2.409
 9828SOL     OW30382   4.367   1.707   5.272
 9828SOL    HW130383   4.459   1.738   5.297
 9828SOL    HW230384   4.366   1.678   5.177
 9829SOL     OW30385   4.412   5.455   6.012
 9829SOL    HW130386   4.419   5.421   5.918
 9829SOL    HW230387   4.364   5.387   6.068
 9830SOL     OW30388   5.748   1.792   2.788
 9830SOL    HW130389   5.701   1.716   2.743
 9830SOL    HW230390   5.683   1.868   2.799
 9831SOL     OW30391   0.696   4.099   2.166
 9831SOL    HW130392   0.606   4.082   2.207
 9831SOL    HW230393   0.711   4.035   2.091
 9832SOL     OW30394   4.863   4.232   4.659
 9832SOL    HW130395   4.950   4.183   4.663
 9832SOL    HW230396   4.868   4.302   4.587
 9833SOL     OW30397   3.066   3.988   4.170
 9833SOL    HW130398   3.077   3.984   4.269
 9833SOL    HW230399   3.148   4.026   4.128
 9834SOL     OW30400   2.395   5.484   5.367
 9834SOL    HW130401   2.456   5.473   5.289
 9834SOL    HW230402   2.437   5.545   5.435
 9835SOL     OW30403   3.613   4.160   4.686
 9835SOL    HW130404   3.676   4.144   4.761
 9835SOL    HW230405   3.623   4.254   4.653
 9836SOL     OW30406   0.481   3.570   5.686
 9836SOL    HW130407   0.542   3.554   5.763
 9836SOL    HW230408   0.408   3.633   5.713
 9837SOL     OW30409   5.329   2.300   1.915
 9837SOL    HW130410   5.273   2.230   1.872
 9837SOL    HW230411   5.387   2.258   1.985
 9838SOL     OW30412   0.631   6.173   1.486
 9838SOL    HW130413   0.609   6.270   1.497
 9838SOL    HW230414   0.689   6.144   1.563
 9839SOL     OW30415   4.365   0.837   2.548
 9839SOL    HW130416   4.382   0.741   2.571
 9839SOL    HW230417   4.427   0.895   2.602
 9840SOL     OW30418   6.183   1.834   6.616
 9840SOL    HW130419   6.218   1.835   6.710
 9840SOL    HW230420   6.231   1.763   6.564
 9841SOL     OW30421   0.237   6.274   3.361
 9841SOL    HW130422   0.333   6.285   3.388
 9841SOL    HW230423   0.232   6.249   3.264
 9842SOL     OW30424   2.778   2.172   6.999
 9842SOL    HW130425   2.724   2.247   6.960
 9842SOL    HW230426   2.814   2.116   6.925
 9843SOL     OW30427   6.960   6.734   1.004
 9843SOL    HW130428   7.001   6.645   0.983
 9843SOL    HW230429   6.974   6.797   0.928
 9844SOL     OW30430   4.989   6.988   4.206
 9844SOL    HW130431   4.998   0.063   4.226
 9844SOL    HW230432   5.054   6.963   4.134
 9845SOL     OW30433   1.493   3.048   1.809
 9845SOL    HW130434   1.439   2.987   1.751
 9845SOL    HW230435   1.435   3.083   1.883
 9846SOL     OW30436   5.124   0.926   1.334
 9846SOL    HW130437   5.201   0.977   1.372
 9846SOL    HW230438   5.120   0.836   1.377
 9847SOL     OW30439   3.954   3.485   0.585
 9847SOL    HW130440   3.941   3.386   0.593
 9847SOL    HW230441   3.958   3.525   0.677
 9848SOL     OW30442   3.759   3.643   5.277
 9848SOL    HW130443   3.695   3.568   5.291
 9848SOL    HW230444   3.851   3.606   5.264
 9849SOL     OW30445   0.867   1.694   5.863
 9849SOL    HW130446   0.949   1.656   5.906
 9849SOL    HW230447   0.825   1.624   5.805
 9850SOL     OW30448   0.952   0.503   4.364
 9850SOL    HW130449   0.892   0.507   4.444
 9850SOL    HW230450   1.044   0.475   4.393
 9851SOL     OW30451   3.426   5.003   4.430
 9851SOL    HW130452   3.483   4.999   4.348
 9851SOL    HW230453   3.480   4.975   4.509
 9852SOL     OW30454   2.014   1.508   6.603
 9852SOL    HW130455   2.039   1.502   6.700
 9852SOL    HW230456   1.918   1.480   6.592
 9853SOL     OW30457   6.901   4.358   3.765
 9853SOL    HW130458   6.885   4.318   3.855
 9853SOL    HW230459   6.948   4.292   3.706
 9854SOL     OW30460   1.185   5.173   6.500
 9854SOL    HW130461   1.105   5.124   6.534
 9854SOL    HW230462   1.202   5.254   6.556
 9855SOL     OW30463   1.722   3.557   1.613
 9855SOL    HW130464   1.690   3.462   1.610
 9855SOL    HW230465   1.709   3.599   1.523
 9856SOL     OW30466   5.655   4.180   2.978
 9856SOL    HW130467   5.562   4.163   2.947
 9856SOL    HW230468   5.718   4.122   2.926
 9857SOL     OW30469   4.233   1.699   3.869
 9857SOL    HW130470   4.133   1.695   3.858
 9857SOL    HW230471   4.268   1.777   3.816
 9858SOL     OW30472   6.691   6.208   2.487
 9858SOL    HW130473   6.656   6.281   2.430
 9858SOL    HW230474   6.717   6.245   2.577
 9859SOL     OW30475   0.076   5.836   4.348
 9859SOL    HW130476   0.048   5.754   4.298
 9859SOL    HW230477   0.034   5.835   4.439
 9860SOL     OW30478   1.697   2.940   5.169
 9860SOL    HW130479   1.696   2.956   5.070
 9860SOL    HW230480   1.658   3.020   5.215
 9861SOL     OW30481   3.777   1.298   4.370
 9861SOL    HW130482   3.828   1.340   4.446
 9861SOL    HW230483   3.718   1.226   4.405
 9862SOL     OW30484   1.387   5.228   0.868
 9862SOL    HW130485   1.442   5.242   0.785
 9862SOL    HW230486   1.430   5.275   0.945
 9863SOL     OW30487   4.038   6.214   1.018
 9863SOL    HW130488   3.999   6.192   1.108
 9863SOL    HW230489   4.053   6.130   0.967
 9864SOL     OW30490   2.963   6.037   5.071
 9864SOL    HW130491   2.899   6.110   5.096
 9864SOL    HW230492   2.913   5.962   5.028
 9865SOL     OW30493   0.814   6.166   5.767
 9865SOL    HW130494   0.807   6.151   5.866
 9865SOL    HW230495   0.820   6.077   5.721
 9866SOL     OW30496   6.480   4.935   4.421
 9866SOL    HW130497   6.535   4.853   4.402
 9866SOL    HW230498   6.408   4.912   4.487
 9867SOL     OW30499   4.829   1.905   1.810
 9867SOL    HW130500   4.862   1.976   1.872
 9867SOL    HW230501   4.738   1.929   1.776
 9868SOL     OW30502   1.679   4.391   3.424
 9868SOL    HW130503   1.653   4.342   3.341
 9868SOL    HW230504   1.622   4.472   3.434
 9869SOL     OW30505   6.984   2.601   1.396
 9869SOL    HW130506   6.942   2.528   1.451
 9869SOL    HW230507   0.009   2.561   1.319
 9870SOL     OW30508   3.190   1.312   2.420
 9870SOL    HW130509   3.091   1.315   2.408
 9870SOL    HW230510   3.225   1.405   2.430
 9871SOL     OW30511   6.704   3.768   4.709
 9871SOL    HW130512   6.668   3.859   4.690
 9871SOL    HW230513   6.802   3.774   4.726
 9872SOL     OW30514   1.608   4.988   5.395
 9872SOL    HW130515   1.586   4.911   5.334
 9872SOL    HW230516   1.663   4.955   5.471
 9873SOL     OW30517   2.120   1.655   5.484
 9873SOL    HW130518   2.045   1.594   5.459
 9873SOL    HW230519   2.097   1.749   5.460
 9874SOL     OW30520   0.046   2.512   4.642
 9874SOL    HW130521   0.005   2.456   4.714
 9874SOL    HW230522   0.046   2.608   4.670
 9875SOL     OW30523   6.761   5.951   0.672
 9875SOL    HW130524   6.747   6.050   0.675
 9875SOL    HW230525   6.847   5.932   0.624
 9876SOL     OW30526   2.444   6.681   3.475
 9876SOL    HW130527   2.356   6.682   3.524
 9876SOL    HW230528   2.430   6.646   3.383
 9877SOL     OW30529   0.579   5.125   4.693
 9877SOL    HW130530   0.667   5.089   4.664
 9877SOL    HW230531   0.536   5.175   4.617
 9878SOL     OW30532   2.097   3.192   0.259
 9878SOL    HW130533   2.096   3.178   0.358
 9878SOL    HW230534   2.082   3.105   0.213
 9879SOL     OW30535   0.367   5.052   6.279
 9879SOL    HW130536   0.335   4.987   6.347
 9879SOL    HW230537   0.466   5.042   6.268
 9880SOL     OW30538   3.064   1.850   0.168
 9880SOL    HW130539   3.162   1.836   0.153
 9880SOL    HW230540   3.038   1.940   0.134
 9881SOL     OW30541   5.839   6.914   4.579
 9881SOL    HW130542   5.918   6.858   4.603
 9881SOL    HW230543   5.853   7.008   4.612
 9882SOL     OW30544   4.000   3.719   4.537
 9882SOL    HW130545   3.954   3.675   4.460
 9882SOL    HW230546   4.060   3.653   4.582
 9883SOL     OW30547   2.221   0.108   0.985
 9883SOL    HW130548   2.263   0.086   1.073
 9883SOL    HW230549   2.285   0.087   0.911
 9884SOL     OW30550   1.740   3.740   6.221
 9884SOL    HW130551   1.698   3.698   6.302
 9884SOL    HW230552   1.839   3.736   6.230
 9885SOL     OW30553   6.361   3.636   4.193
 9885SOL    HW130554   6.291   3.706   4.202
 9885SOL    HW230555   6.318   3.546   4.191
 9886SOL     OW30556   5.065   6.006   1.382
 9886SOL    HW130557   5.008   6.055   1.316
 9886SOL    HW230558   5.020   6.005   1.472
 9887SOL     OW30559   3.743   0.281   0.454
 9887SOL    HW130560   3.692   0.216   0.510
 9887SOL    HW230561   3.780   0.234   0.374
 9888SOL     OW30562   6.015   5.076   2.308
 9888SOL    HW130563   6.011   5.046   2.213
 9888SOL    HW230564   6.024   5.175   2.312
 9889SOL     OW30565   0.339   5.179   3.768
 9889SOL    HW130566   0.272   5.106   3.781
 9889SOL    HW230567   0.332   5.214   3.674
 9890SOL     OW30568   6.990   4.181   1.753
 9890SOL    HW130569   6.945   4.196   1.841
 9890SOL    HW230570   0.067   4.181   1.766
 9891SOL     OW30571   5.371   4.362   0.838
 9891SOL    HW130572   5.403   4.404   0.754
 9891SOL    HW230573   5.396   4.265   0.839
 9892SOL     OW30574   2.024   5.514   4.127
 9892SOL    HW130575   2.015   5.423   4.170
 9892SOL    HW230576   1.941   5.534   4.076
 9893SOL     OW30577   6.125   5.280   2.857
 9893SOL    HW130578   6.181   5.199   2.837
 9893SOL    HW230579   6.168   5.333   2.930
 9894SOL     OW30580   3.731   2.641   6.077
 9894SOL    HW130581   3.718   2.697   6.159
 9894SOL    HW230582   3.679   2.681   6.001
 9895SOL     OW30583   5.126   2.485   6.675
 9895SOL    HW130584   5.211   2.529   6.646
 9895SOL    HW230585   5.086   2.535   6.751
 9896SOL     OW30586   3.851   3.987   0.396
 9896SOL    HW130587   3.946   4.016   0.385
 9896SOL    HW230588   3.804   4.051   0.457
 9897SOL     OW30589   5.804   1.916   3.161
 9897SOL    HW130590   5.865   1.994   3.178
 9897SOL    HW230591   5.859   1.838   3.132
 9898SOL     OW30592   1.252   5.332   5.708
 9898SOL    HW130593   1.250   5.307   5.805
 9898SOL    HW230594   1.286   5.255   5.654
 9899SOL     OW30595   5.241   5.093   2.568
 9899SOL    HW130596   5.142   5.074   2.565
 9899SOL    HW230597   5.289   5.027   2.510
 9900SOL     OW30598   1.341   2.424   4.521
 9900SOL    HW130599   1.304   2.429   4.614
 9900SOL    HW230600   1.270   2.450   4.456
 9901SOL     OW30601   2.940   2.627   5.949
 9901SOL    HW130602   3.032   2.598   5.976
 9901SOL    HW230603   2.909   2.700   6.009
 9902SOL     OW30604   3.746   3.335   0.248
 9902SOL    HW130605   3.664   3.358   0.301
 9902SOL    HW230606   3.755   3.236   0.242
 9903SOL     OW30607   4.574   2.005   1.726
 9903SOL    HW130608   4.556   1.931   1.660
 9903SOL    HW230609   4.548   2.093   1.685
 9904SOL     OW30610   6.616   1.891   0.936
 9904SOL    HW130611   6.648   1.976   0.979
 9904SOL    HW230612   6.564   1.837   1.003
 9905SOL     OW30613   1.210   0.101   5.856
 9905SOL    HW130614   1.271   0.032   5.896
 9905SOL    HW230615   1.128   0.110   5.913
 9906SOL     OW30616   2.625   3.909   6.438
 9906SOL    HW130617   2.530   3.883   6.453
 9906SOL    HW230618   2.669   3.841   6.380
 9907SOL     OW30619   2.667   6.432   2.716
 9907SOL    HW130620   2.627   6.516   2.679
 9907SOL    HW230621   2.715   6.454   2.801
 9908SOL     OW30622   1.024   4.043   5.929
 9908SOL    HW130623   1.077   3.971   5.974
 9908SOL    HW230624   0.927   4.019   5.932
 9909SOL     OW30625   3.194   1.126   3.249
 9909SOL    HW130626   3.275   1.125   3.191
 9909SOL    HW230627   3.115   1.093   3.197
 9910SOL     OW30628   6.701   4.001   0.343
 9910SOL    HW130629   6.760   4.061   0.289
 9910SOL    HW230630   6.745   3.912   0.352
 9911SOL     OW30631   3.361   4.958   3.444
 9911SOL    HW130632   3.438   4.996   3.495
 9911SOL    HW230633   3.300   4.911   3.508
 9912SOL     OW30634   5.215   0.420   1.425
 9912SOL    HW130635   5.172   0.510   1.436
 9912SOL    HW230636   5.293   0.414   1.487
 9913SOL     OW30637   5.166   2.437   2.955
 9913SOL    HW130638   5.097   2.389   3.011
 9913SOL    HW230639   5.217   2.370   2.901
 9914SOL     OW30640   0.761   0.681   4.870
 9914SOL    HW130641   0.749   0.682   4.969
 9914SOL    HW230642   0.845   0.631   4.847
 9915SOL     OW30643   4.965   3.131   3.781
 9915SOL    HW130644   4.980   3.223   3.816
 9915SOL    HW230645   5.023   3.117   3.700
 9916SOL     OW30646   2.256   2.803   2.518
 9916SOL    HW130647   2.265   2.734   2.447
 9916SOL    HW230648   2.306   2.775   2.600
 9917SOL     OW30649   3.300   3.987   5.836
 9917SOL    HW130650   3.262   3.931   5.763
 9917SOL    HW230651   3.386   3.947   5.868
 9918SOL     OW30652   2.371   1.938   5.819
 9918SOL    HW130653   2.369   1.891   5.730
 9918SOL    HW230654   2.440   1.894   5.877
 9919SOL     OW30655   0.353   5.295   3.077
 9919SOL    HW130656   0.285   5.233   3.116
 9919SOL    HW230657   0.381   5.362   3.145
 9920SOL     OW30658   3.906   6.420   1.603
 9920SOL    HW130659   3.925   6.517   1.616
 9920SOL    HW230660   3.992   6.371   1.585
 9921SOL     OW30661   6.017   0.745   2.952
 9921SOL    HW130662   6.095   0.786   2.999
 9921SOL    HW230663   6.027   0.757   2.853
 9922SOL     OW30664   4.247   4.840   0.841
 9922SOL    HW130665   4.274   4.926   0.885
 9922SOL    HW230666   4.290   4.763   0.888
 9923SOL     OW30667   6.664   2.466   5.758
 9923SOL    HW130668   6.648   2.390   5.695
 9923SOL    HW230669   6.577   2.511   5.778
 9924SOL     OW30670   6.669   0.734   2.821
 9924SOL    HW130671   6.578   0.695   2.830
 9924SOL    HW230672   6.714   0.735   2.911
 9925SOL     OW30673   2.883   2.801   5.447
 9925SOL    HW130674   2.922   2.758   5.528
 9925SOL    HW230675   2.829   2.734   5.396
 9926SOL     OW30676   1.050   1.361   0.343
 9926SOL    HW130677   1.147   1.384   0.335
 9926SOL    HW230678   1.013   1.402   0.426
 9927SOL     OW30679   0.208   1.983   2.064
 9927SOL    HW130680   0.203   2.079   2.090
 9927SOL    HW230681   0.291   1.942   2.100
 9928SOL     OW30682   0.319   3.933   2.146
 9928SOL    HW130683   0.330   3.872   2.224
 9928SOL    HW230684   0.232   3.981   2.153
 9929SOL     OW30685   2.598   4.324   0.334
 9929SOL    HW130686   2.553   4.362   0.254
 9929SOL    HW230687   2.568   4.229   0.348
 9930SOL     OW30688   0.118   6.580   6.139
 9930SOL    HW130689   0.196   6.637   6.114
 9930SOL    HW230690   0.149   6.488   6.159
 9931SOL     OW30691   1.675   6.181   5.643
 9931SOL    HW130692   1.698   6.109   5.707
 9931SOL    HW230693   1.620   6.251   5.689
 9932SOL     OW30694   1.218   1.808   0.287
 9932SOL    HW130695   1.161   1.889   0.303
 9932SOL    HW230696   1.249   1.808   0.192
 9933SOL     OW30697   2.191   1.505   3.279
 9933SOL    HW130698   2.097   1.526   3.306
 9933SOL    HW230699   2.240   1.590   3.262
 9934SOL     OW30700   5.038   1.404   5.928
 9934SOL    HW130701   5.050   1.310   5.897
 9934SOL    HW230702   5.117   1.431   5.984
 9935SOL     OW30703   3.185   2.187   0.801
 9935SOL    HW130704   3.203   2.252   0.875
 9935SOL    HW230705   3.208   2.095   0.831
 9936SOL     OW30706   5.784   5.925   5.437
 9936SOL    HW130707   5.733   5.839   5.439
 9936SOL    HW230708   5.749   5.983   5.364
 9937SOL     OW30709   0.692   6.840   2.925
 9937SOL    HW130710   0.642   6.852   2.840
 9937SOL    HW230711   0.785   6.809   2.906
 9938SOL     OW30712   6.617   0.752   4.193
 9938SOL    HW130713   6.647   0.843   4.222
 9938SOL    HW230714   6.618   0.690   4.272
 9939SOL     OW30715   2.166   4.478   1.613
 9939SOL    HW130716   2.174   4.382   1.587
 9939SOL    HW230717   2.152   4.486   1.712
 9940SOL     OW30718   1.039   7.013   3.190
 9940SOL    HW130719   1.046   0.023   3.284
 9940SOL    HW230720   0.944   6.991   3.170
 9941SOL     OW30721   4.908   4.838   6.276
 9941SOL    HW130722   4.829   4.865   6.220
 9941SOL    HW230723   4.991   4.879   6.237
 9942SOL     OW30724   4.231   4.759   3.868
 9942SOL    HW130725   4.322   4.796   3.888
 9942SOL    HW230726   4.203   4.698   3.942
 9943SOL     OW30727   2.359   4.058   6.983
 9943SOL    HW130728   2.401   4.145   6.959
 9943SOL    HW230729   2.314   4.066   0.049
 9944SOL     OW30730   1.528   4.675   0.236
 9944SOL    HW130731   1.502   4.736   0.161
 9944SOL    HW230732   1.480   4.702   0.320
 9945SOL     OW30733   5.813   3.927   6.612
 9945SOL    HW130734   5.757   3.946   6.693
 9945SOL    HW230735   5.814   3.828   6.594
 9946SOL     OW30736   5.363   1.095   2.528
 9946SOL    HW130737   5.352   1.061   2.435
 9946SOL    HW230738   5.283   1.150   2.554
 9947SOL     OW30739   1.701   1.856   3.726
 9947SOL    HW130740   1.634   1.856   3.801
 9947SOL    HW230741   1.673   1.792   3.655
 9948SOL     OW30742   6.369   0.146   4.378
 9948SOL    HW130743   6.424   0.068   4.409
 9948SOL    HW230744   6.324   0.123   4.292
 9949SOL     OW30745   6.360   4.373   4.592
 9949SOL    HW130746   6.313   4.460   4.608
 9949SOL    HW230747   6.301   4.298   4.621
 9950SOL     OW30748   6.241   4.950   5.725
 9950SOL    HW130749   6.169   4.973   5.660
 9950SOL    HW230750   6.322   5.006   5.707
 9951SOL     OW30751   0.487   2.357   2.187
 9951SOL    HW130752   0.567   2.302   2.161
 9951SOL    HW230753   0.461   2.336   2.281
 9952SOL     OW30754   0.384   4.183   2.037
 9952SOL    HW130755   0.459   4.180   1.972
 9952SOL    HW230756   0.366   4.091   2.072
 9953SOL     OW30757   5.956   2.399   3.410
 9953SOL    HW130758   6.041   2.346   3.415
 9953SOL    HW230759   5.879   2.337   3.398
 9954SOL     OW30760   2.617   2.065   6.169
 9954SOL    HW130761   2.707   2.059   6.211
 9954SOL    HW230762   2.615   2.140   6.104
 9955SOL     OW30763   5.350   3.211   0.646
 9955SOL    HW130764   5.253   3.229   0.633
 9955SOL    HW230765   5.369   3.195   0.743
 9956SOL     OW30766   2.191   3.844   3.618
 9956SOL    HW130767   2.193   3.838   3.717
 9956SOL    HW230768   2.269   3.899   3.586
 9957SOL     OW30769   5.502   6.596   0.918
 9957SOL    HW130770   5.601   6.596   0.905
 9957SOL    HW230771   5.474   6.509   0.959
 9958SOL     OW30772   4.768   4.944   0.102
 9958SOL    HW130773   4.847   4.911   0.154
 9958SOL    HW230774   4.797   4.972   0.011
 9959SOL     OW30775   4.344   4.432   0.622
 9959SOL    HW130776   4.381   4.473   0.706
 9959SOL    HW230777   4.263   4.377   0.645
 9960SOL     OW30778   6.726   6.919   6.750
 9960SOL    HW130779   6.819   6.909   6.785
 9960SOL    HW230780   6.721   7.003   6.695
 9961SOL     OW30781   2.641   4.949   2.248
 9961SOL    HW130782   2.638   4.929   2.346
 9961SOL    HW230783   2.649   4.864   2.196
 9962SOL     OW30784   3.003   6.297   2.238
 9962SOL    HW130785   2.912   6.265   2.264
 9962SOL    HW230786   3.028   6.259   2.149
 9963SOL     OW30787   1.504   1.572   6.416
 9963SOL    HW130788   1.532   1.668   6.424
 9963SOL    HW230789   1.510   1.544   6.320
 9964SOL     OW30790   4.523   4.143   5.273
 9964SOL    HW130791   4.589   4.126   5.200
 9964SOL    HW230792   4.541   4.232   5.315
 9965SOL     OW30793   2.706   5.470   4.645
 9965SOL    HW130794   2.780   5.403   4.637
 9965SOL    HW230795   2.652   5.468   4.560
 9966SOL     OW30796   3.575   4.875   2.278
 9966SOL    HW130797   3.586   4.851   2.181
 9966SOL    HW230798   3.487   4.841   2.311
 9967SOL     OW30799   6.661   0.030   3.375
 9967SOL    HW130800   6.620   6.963   3.361
 9967SOL    HW230801   6.751   0.033   3.330
 9968SOL     OW30802   3.898   6.580   1.165
 9968SOL    HW130803   3.861   6.533   1.245
 9968SOL    HW230804   3.872   6.531   1.082
 9969SOL     OW30805   1.436   5.033   3.741
 9969SOL    HW130806   1.427   5.122   3.696
 9969SOL    HW230807   1.511   5.036   3.807
 9970SOL     OW30808   6.258   4.121   1.185
 9970SOL    HW130809   6.235   4.124   1.282
 9970SOL    HW230810   6.315   4.200   1.161
 9971SOL     OW30811   1.078   4.235   2.419
 9971SOL    HW130812   1.001   4.232   2.355
 9971SOL    HW230813   1.065   4.166   2.489
 9972SOL     OW30814   3.397   3.880   0.124
 9972SOL    HW130815   3.478   3.849   0.174
 9972SOL    HW230816   3.397   3.840   0.033
 9973SOL     OW30817   3.610   1.726   3.220
 9973SOL    HW130818   3.575   1.633   3.236
 9973SOL    HW230819   3.681   1.723   3.150
 9974SOL     OW30820   0.227   2.312   3.542
 9974SOL    HW130821   0.230   2.409   3.569
 9974SOL    HW230822   0.140   2.292   3.499
 9975SOL     OW30823   1.178   4.992   6.791
 9975SOL    HW130824   1.253   4.965   6.731
 9975SOL    HW230825   1.150   4.914   6.847
 9976SOL     OW30826   2.677   4.411   6.363
 9976SOL    HW130827   2.743   4.340   6.386
 9976SOL    HW230828   2.725   4.497   6.344
 9977SOL     OW30829   5.375   6.167   5.400
 9977SOL    HW130830   5.296   6.176   5.339
 9977SOL    HW230831   5.458   6.192   5.350
 9978SOL     OW30832   0.492   2.419   6.197
 9978SOL    HW130833   0.470   2.446   6.103
 9978SOL    HW230834   0.581   2.373   6.198
 9979SOL     OW30835   4.817   3.167   5.286
 9979SOL    HW130836   4.731   3.168   5.338
 9979SOL    HW230837   4.797   3.158   5.189
 9980SOL     OW30838   0.779   0.478   6.769
 9980SOL    HW130839   0.725   0.527   6.700
 9980SOL    HW230840   0.854   0.429   6.724
 9981SOL     OW30841   0.262   2.423   1.195
 9981SOL    HW130842   0.274   2.519   1.172
 9981SOL    HW230843   0.256   2.413   1.295
 9982SOL     OW30844   2.352   1.700   4.663
 9982SOL    HW130845   2.270   1.660   4.704
 9982SOL    HW230846   2.340   1.799   4.655
 9983SOL     OW30847   0.279   3.025   1.959
 9983SOL    HW130848   0.193   3.037   1.909
 9983SOL    HW230849   0.340   3.102   1.940
 9984SOL     OW30850   0.020   5.977   1.197
 9984SOL    HW130851   0.009   6.000   1.101
 9984SOL    HW230852   6.966   5.921   1.227
 9985SOL     OW30853   4.206   5.460   0.954
 9985SOL    HW130854   4.256   5.479   1.039
 9985SOL    HW230855   4.134   5.528   0.942
 9986SOL     OW30856   4.784   4.338   0.123
 9986SOL    HW130857   4.823   4.427   0.146
 9986SOL    HW230858   4.858   4.275   0.097
 9987SOL     OW30859   5.451   3.155   1.443
 9987SOL    HW130860   5.522   3.169   1.513
 9987SOL    HW230861   5.457   3.062   1.408
 9988SOL     OW30862   5.319   6.125   4.584
 9988SOL    HW130863   5.360   6.184   4.654
 9988SOL    HW230864   5.389   6.096   4.519
 9989SOL     OW30865   6.661   5.243   2.430
 9989SOL    HW130866   6.729   5.180   2.392
 9989SOL    HW230867   6.612   5.198   2.505
 9990SOL     OW30868   0.173   6.860   3.176
 9990SOL    HW130869   0.130   6.938   3.221
 9990SOL    HW230870   0.200   6.792   3.245
 9991SOL     OW30871   1.764   3.920   4.337
 9991SOL    HW130872   1.763   3.857   4.259
 9991SOL    HW230873   1.810   3.876   4.415
 9992SOL     OW30874   3.393   4.467   1.232
 9992SOL    HW130875   3.364   4.543   1.173
 9992SOL    HW230876   3.391   4.497   1.327
 9993SOL     OW30877   3.863   0.150   4.059
 9993SOL    HW130878   3.771   0.126   4.029
 9993SOL    HW230879   3.863   0.168   4.157
 9994SOL     OW30880   0.122   4.437   4.390
 9994SOL    HW130881   0.188   4.477   4.327
 9994SOL    HW230882   0.079   4.357   4.347
 9995SOL     OW30883   2.906   0.511   4.933
 9995SOL    HW130884   2.957   0.584   4.978
 9995SOL    HW230885   2.967   0.458   4.875
 9996SOL     OW30886   2.076   4.215   1.276
 9996SOL    HW130887   1.990   4.225   1.226
 9996SOL    HW230888   2.152   4.236   1.214
 9997SOL     OW30889   6.036   1.909   4.531
 9997SOL    HW130890   5.973   1.944   4.601
 9997SOL    HW230891   6.130   1.922   4.561
 9998SOL     OW30892   4.866   3.733   2.937
 9998SOL    HW130893   4.881   3.670   3.014
 9998SOL    HW230894   4.821   3.684   2.863
 9999SOL     OW30895   6.835   6.783   3.942
 9999SOL    HW130896   6.933   6.780   3.921
 9999SOL    HW230897   6.784   6.741   3.867
10000SOL     OW30898   4.991   1.704   1.849
10000SOL    HW130899   5.011   1.662   1.760
10000SOL    HW230900   4.927   1.780   1.836
10001SOL     OW30901   3.021   6.023   2.493
10001SOL    HW130902   3.055   5.947   2.547
10001SOL    HW230903   3.001   6.101   2.552
10002SOL     OW30904   2.553   1.073   0.968
10002SOL    HW130905   2.526   1.160   1.009
10002SOL    HW230906   2.648   1.079   0.935
10003SOL     OW30907   2.326   1.727   3.207
10003SOL    HW130908   2.403   1.740   3.146
10003SOL    HW230909   2.298   1.815   3.245
10004SOL     OW30910   5.844   4.278   4.689
10004SOL    HW130911   5.843   4.296   4.590
10004SOL    HW230912   5.913   4.209   4.709
10005SOL     OW30913   2.886   5.821   3.598
10005SOL    HW130914   2.872   5.920   3.607
10005SOL    HW230915   2.821   5.784   3.533
10006SOL     OW30916   5.292   0.666   5.245
10006SOL    HW130917   5.349   0.741   5.211
10006SOL    HW230918   5.306   0.585   5.188
10007SOL     OW30919   1.033   4.347   4.311
10007SOL    HW130920   1.009   4.394   4.396
10007SOL    HW230921   1.131   4.359   4.293
10008SOL     OW30922   3.566   1.765   4.405
10008SOL    HW130923   3.579   1.679   4.354
10008SOL    HW230924   3.617   1.838   4.359
10009SOL     OW30925   1.722   4.262   1.878
10009SOL    HW130926   1.730   4.331   1.806
10009SOL    HW230927   1.696   4.306   1.964
10010SOL     OW30928   2.665   5.145   6.880
10010SOL    HW130929   2.623   5.055   6.871
10010SOL    HW230930   2.733   5.158   6.807
10011SOL     OW30931   0.248   3.744   0.291
10011SOL    HW130932   0.244   3.688   0.374
10011SOL    HW230933   0.341   3.781   0.280
10012SOL     OW30934   5.051   0.693   2.614
10012SOL    HW130935   5.078   0.698   2.518
10012SOL    HW230936   4.954   0.716   2.623
10013SOL     OW30937   1.348   5.486   4.813
10013SOL    HW130938   1.431   5.489   4.758
10013SOL    HW230939   1.273   5.450   4.757
10014SOL     OW30940   0.405   6.662   3.141
10014SOL    HW130941   0.340   6.619   3.079
10014SOL    HW230942   0.392   6.625   3.234
10015SOL     OW30943   3.529   5.331   6.462
10015SOL    HW130944   3.507   5.319   6.365
10015SOL    HW230945   3.533   5.242   6.507
10016SOL     OW30946   1.957   0.516   4.334
10016SOL    HW130947   1.929   0.492   4.241
10016SOL    HW230948   2.036   0.577   4.330
10017SOL     OW30949   2.765   1.993   3.279
10017SOL    HW130950   2.771   2.091   3.262
10017SOL    HW230951   2.843   1.947   3.237
10018SOL     OW30952   6.841   3.839   6.050
10018SOL    HW130953   6.854   3.845   5.951
10018SOL    HW230954   6.818   3.929   6.086
10019SOL     OW30955   0.416   1.378   2.787
10019SOL    HW130956   0.452   1.375   2.880
10019SOL    HW230957   0.412   1.472   2.755
10020SOL     OW30958   6.912   0.662   1.849
10020SOL    HW130959   7.002   0.699   1.827
10020SOL    HW230960   6.850   0.677   1.772
10021SOL     OW30961   1.412   3.599   1.408
10021SOL    HW130962   1.485   3.560   1.351
10021SOL    HW230963   1.350   3.526   1.436
10022SOL     OW30964   2.427   6.500   0.221
10022SOL    HW130965   2.522   6.528   0.210
10022SOL    HW230966   2.423   6.405   0.250
10023SOL     OW30967   2.475   6.819   5.815
10023SOL    HW130968   2.480   6.767   5.730
10023SOL    HW230969   2.415   6.772   5.880
10024SOL     OW30970   1.596   4.971   3.088
10024SOL    HW130971   1.661   5.047   3.076
10024SOL    HW230972   1.609   4.905   3.014
10025SOL     OW30973   1.804   3.787   1.848
10025SOL    HW130974   1.763   3.697   1.860
10025SOL    HW230975   1.867   3.806   1.923
10026SOL     OW30976   4.778   1.043   2.524
10026SOL    HW130977   4.846   1.092   2.469
10026SOL    HW230978   4.686   1.066   2.492
10027SOL     OW30979   1.336   2.608   5.148
10027SOL    HW130980   1.294   2.521   5.124
10027SOL    HW230981   1.400   2.635   5.076
10028SOL     OW30982   2.915   0.841   1.564
10028SOL    HW130983   2.949   0.832   1.471
10028SOL    HW230984   2.963   0.776   1.624
10029SOL     OW30985   0.003   2.840   4.175
10029SOL    HW130986   7.014   2.743   4.155
10029SOL    HW230987   0.100   2.861   4.184
10030SOL     OW30988   2.558   6.728   5.101
10030SOL    HW130989   2.639   6.671   5.085
10030SOL    HW230990   2.500   6.727   5.019
10031SOL     OW30991   3.624   5.244   4.650
10031SOL    HW130992   3.719   5.268   4.672
10031SOL    HW230993   3.619   5.148   4.622
10032SOL     OW30994   3.196   6.122   5.624
10032SOL    HW130995   3.210   6.028   5.654
10032SOL    HW230996   3.122   6.164   5.677
10033SOL     OW30997   4.891   1.652   3.893
10033SOL    HW130998   4.965   1.642   3.827
10033SOL    HW230999   4.831   1.572   3.887
10034SOL     OW31000   1.871   0.801   3.588
10034SOL    HW131001   1.888   0.813   3.686
10034SOL    HW231002   1.773   0.812   3.570
10035SOL     OW31003   6.248   3.624   0.233
10035SOL    HW131004   6.188   3.546   0.213
10035SOL    HW231005   6.335   3.590   0.269
10036SOL     OW31006   6.802   0.702   6.784
10036SOL    HW131007   6.828   0.790   6.746
10036SOL    HW231008   6.858   0.630   6.744
10037SOL     OW31009   6.409   6.895   5.978
10037SOL    HW131010   6.407   6.900   6.078
10037SOL    HW231011   6.454   6.810   5.950
10038SOL     OW31012   4.642   6.874   0.257
10038SOL    HW131013   4.674   6.890   0.164
10038SOL    HW231014   4.630   6.962   0.303
10039SOL     OW31015   4.773   5.312   4.581
10039SOL    HW131016   4.691   5.285   4.532
10039SOL    HW231017   4.770   5.275   4.674
10040SOL     OW31018   4.515   6.854   0.748
10040SOL    HW131019   4.471   6.770   0.718
10040SOL    HW231020   4.495   6.870   0.844
10041SOL     OW31021   0.059   4.733   5.721
10041SOL    HW131022   7.014   4.697   5.785
10041SOL    HW231023   0.123   4.793   5.770
10042SOL     OW31024   0.863   1.147   5.798
10042SOL    HW131025   0.890   1.217   5.864
10042SOL    HW231026   0.785   1.096   5.835
10043SOL     OW31027   0.839   0.850   2.700
10043SOL    HW131028   0.841   0.932   2.757
10043SOL    HW231029   0.778   0.865   2.622
10044SOL     OW31030   2.782   1.545   4.661
10044SOL    HW131031   2.730   1.587   4.735
10044SOL    HW231032   2.720   1.519   4.587
10045SOL     OW31033   4.726   0.206   4.372
10045SOL    HW131034   4.697   0.189   4.466
10045SOL    HW231035   4.816   0.166   4.357
10046SOL     OW31036   6.810   1.727   1.945
10046SOL    HW131037   6.872   1.702   1.870
10046SOL    HW231038   6.823   1.824   1.967
10047SOL     OW31039   6.129   2.544   5.386
10047SOL    HW131040   6.200   2.499   5.440
10047SOL    HW231041   6.093   2.622   5.437
10048SOL     OW31042   3.251   1.427   1.769
10048SOL    HW131043   3.162   1.405   1.730
10048SOL    HW231044   3.318   1.357   1.742
10049SOL     OW31045   1.299   0.676   6.922
10049SOL    HW131046   1.200   0.661   6.913
10049SOL    HW231047   1.320   0.706   7.015
10050SOL     OW31048   5.694   3.039   5.009
10050SOL    HW131049   5.697   3.063   5.106
10050SOL    HW231050   5.778   3.071   4.965
10051SOL     OW31051   6.571   2.999   4.570
10051SOL    HW131052   6.668   2.979   4.587
10051SOL    HW231053   6.517   2.916   4.589
10052SOL     OW31054   1.900   3.234   1.298
10052SOL    HW131055   1.969   3.251   1.368
10052SOL    HW231056   1.886   3.318   1.245
10053SOL     OW31057   3.826   4.838   2.802
10053SOL    HW131058   3.917   4.808   2.830
10053SOL    HW231059   3.770   4.855   2.884
10054SOL     OW31060   4.496   5.812   6.396
10054SOL    HW131061   4.422   5.785   6.457
10054SOL    HW231062   4.495   5.754   6.315
10055SOL     OW31063   6.327   2.534   4.490
10055SOL    HW131064   6.236   2.566   4.516
10055SOL    HW231065   6.356   2.461   4.552
10056SOL     OW31066   6.131   5.195   0.806
10056SOL    HW131067   6.105   5.109   0.851
10056SOL    HW231068   6.198   5.175   0.734
10057SOL     OW31069   3.837   1.730   4.270
10057SOL    HW131070   3.780   1.810   4.252
10057SOL    HW231071   3.788   1.648   4.241
10058SOL     OW31072   6.635   4.696   4.370
10058SOL    HW131073   6.728   4.669   4.395
10058SOL    HW231074   6.599   4.632   4.303
10059SOL     OW31075   5.575   6.611   0.510
10059SOL    HW131076   5.507   6.540   0.495
10059SOL    HW231077   5.650   6.574   0.565
10060SOL     OW31078   2.298   2.380   1.905
10060SOL    HW131079   2.265   2.437   1.830
10060SOL    HW231080   2.374   2.426   1.951
10061SOL     OW31081   5.447   1.239   3.912
10061SOL    HW131082   5.426   1.246   4.009
10061SOL    HW231083   5.366   1.260   3.858
10062SOL     OW31084   5.880   6.455   4.657
10062SOL    HW131085   5.857   6.538   4.708
10062SOL    HW231086   5.840   6.376   4.704
10063SOL     OW31087   1.427   2.218   3.135
10063SOL    HW131088   1.378   2.194   3.051
10063SOL    HW231089   1.510   2.164   3.142
10064SOL     OW31090   5.919   5.592   5.321
10064SOL    HW131091   5.903   5.525   5.394
10064SOL    HW231092   5.833   5.614   5.276
10065SOL     OW31093   1.489   0.487   1.715
10065SOL    HW131094   1.438   0.525   1.638
10065SOL    HW231095   1.510   0.559   1.781
10066SOL     OW31096   1.375   0.945   3.852
10066SOL    HW131097   1.441   0.988   3.791
10066SOL    HW231098   1.368   0.999   3.936
10067SOL     OW31099   5.823   4.659   4.327
10067SOL    HW131100   5.842   4.713   4.409
10067SOL    HW231101   5.839   4.562   4.346
10068SOL     OW31102   5.144   2.949   4.410
10068SOL    HW131103   5.066   3.010   4.421
10068SOL    HW231104   5.118   2.873   4.350
10069SOL     OW31105   2.092   6.743   4.121
10069SOL    HW131106   2.114   6.839   4.137
10069SOL    HW231107   2.131   6.714   4.034
10070SOL     OW31108   0.594   6.431   4.631
10070SOL    HW131109   0.595   6.508   4.568
10070SOL    HW231110   0.505   6.387   4.629
10071SOL     OW31111   4.544   4.863   4.460
10071SOL    HW131112   4.569   4.916   4.541
10071SOL    HW231113   4.533   4.767   4.485
10072SOL     OW31114   0.570   6.578   3.814
10072SOL    HW131115   0.602   6.522   3.890
10072SOL    HW231116   0.629   6.659   3.806
10073SOL     OW31117   6.119   4.519   4.703
10073SOL    HW131118   6.109   4.458   4.781
10073SOL    HW231119   6.101   4.613   4.733
10074SOL     OW31120   0.777   0.081   5.599
10074SOL    HW131121   0.788   7.014   5.643
10074SOL    HW231122   0.765   0.069   5.501
10075SOL     OW31123   1.257   2.371   2.860
10075SOL    HW131124   1.210   2.300   2.913
10075SOL    HW231125   1.303   2.330   2.782
10076SOL     OW31126   5.558   6.990   4.593
10076SOL    HW131127   5.653   6.959   4.589
10076SOL    HW231128   5.504   6.942   4.525
10077SOL     OW31129   3.734   2.349   6.736
10077SOL    HW131130   3.635   2.334   6.746
10077SOL    HW231131   3.758   2.353   6.639
10078SOL     OW31132   6.125   6.340   4.558
10078SOL    HW131133   6.201   6.404   4.546
10078SOL    HW231134   6.042   6.390   4.579
10079SOL     OW31135   1.764   2.888   2.177
10079SOL    HW131136   1.707   2.912   2.099
10079SOL    HW231137   1.738   2.798   2.212
10080SOL     OW31138   3.302   2.044   6.453
10080SOL    HW131139   3.292   2.139   6.425
10080SOL    HW231140   3.271   2.033   6.547
10081SOL     OW31141   0.328   6.938   6.511
10081SOL    HW131142   0.427   6.947   6.516
10081SOL    HW231143   0.301   6.847   6.544
10082SOL     OW31144   6.793   2.766   2.531
10082SOL    HW131145   6.774   2.674   2.566
10082SOL    HW231146   6.889   2.772   2.504
10083SOL     OW31147   4.949   1.379   3.296
10083SOL    HW131148   4.959   1.383   3.396
10083SOL    HW231149   4.882   1.309   3.272
10084SOL     OW31150   3.323   0.338   5.785
10084SOL    HW131151   3.270   0.332   5.700
10084SOL    HW231152   3.407   0.286   5.775
10085SOL     OW31153   0.625   4.815   2.811
10085SOL    HW131154   0.685   4.895   2.815
10085SOL    HW231155   0.531   4.844   2.792
10086SOL     OW31156   5.662   5.334   2.620
10086SOL    HW131157   5.704   5.347   2.530
10086SOL    HW231158   5.562   5.335   2.610
10087SOL     OW31159   1.139   0.933   3.694
10087SOL    HW131160   1.230   0.972   3.708
10087SOL    HW231161   1.103   0.901   3.782
10088SOL     OW31162   0.262   6.576   5.525
10088SOL    HW131163   0.209   6.492   5.534
10088SOL    HW231164   0.201   6.650   5.496
10089SOL     OW31165   2.576   1.781   3.361
10089SOL    HW131166   2.500   1.744   3.309
10089SOL    HW231167   2.616   1.858   3.313
10090SOL     OW31168   0.680   4.349   1.021
10090SOL    HW131169   0.703   4.315   1.112
10090SOL    HW231170   0.601   4.299   0.985
10091SOL     OW31171   1.096   3.356   4.800
10091SOL    HW131172   1.037   3.383   4.723
10091SOL    HW231173   1.192   3.366   4.773
10092SOL     OW31174   1.612   4.119   5.046
10092SOL    HW131175   1.668   4.037   5.033
10092SOL    HW231176   1.639   4.165   5.130
10093SOL     OW31177   0.784   5.004   4.536
10093SOL    HW131178   0.776   5.020   4.438
10093SOL    HW231179   0.880   4.997   4.562
10094SOL     OW31180   2.394   6.724   2.146
10094SOL    HW131181   2.439   6.680   2.068
10094SOL    HW231182   2.304   6.756   2.119
10095SOL     OW31183   6.344   1.504   5.288
10095SOL    HW131184   6.303   1.418   5.259
10095SOL    HW231185   6.431   1.517   5.241
10096SOL     OW31186   6.819   5.096   2.898
10096SOL    HW131187   6.838   5.181   2.947
10096SOL    HW231188   6.722   5.072   2.908
10097SOL     OW31189   0.779   1.178   0.051
10097SOL    HW131190   0.751   1.231   0.132
10097SOL    HW231191   0.868   1.211   0.019
10098SOL     OW31192   1.947   6.942   5.851
10098SOL    HW131193   1.939   7.014   5.921
10098SOL    HW231194   1.863   6.888   5.850
10099SOL     OW31195   0.053   4.277   6.561
10099SOL    HW131196   0.035   4.295   6.464
10099SOL    HW231197   0.030   4.358   6.615
10100SOL     OW31198   5.417   0.132   5.362
10100SOL    HW131199   5.400   0.096   5.270
10100SOL    HW231200   5.399   0.061   5.430
10101SOL     OW31201   5.878   4.603   1.602
10101SOL    HW131202   5.900   4.513   1.640
10101SOL    HW231203   5.962   4.648   1.571
10102SOL     OW31204   2.230   0.759   3.130
10102SOL    HW131205   2.140   0.797   3.152
10102SOL    HW231206   2.301   0.824   3.155
10103SOL     OW31207   3.081   1.124   4.730
10103SOL    HW131208   3.121   1.199   4.677
10103SOL    HW231209   3.115   1.037   4.695
10104SOL     OW31210   0.765   3.710   5.246
10104SOL    HW131211   0.815   3.624   5.259
10104SOL    HW231212   0.757   3.757   5.334
10105SOL     OW31213   1.212   1.312   6.217
10105SOL    HW131214   1.196   1.380   6.288
10105SOL    HW231215   1.167   1.342   6.132
10106SOL     OW31216   5.477   4.761   1.408
10106SOL    HW131217   5.412   4.784   1.481
10106SOL    HW231218   5.535   4.686   1.438
10107SOL     OW31219   6.856   1.526   6.413
10107SOL    HW131220   6.766   1.518   6.371
10107SOL    HW231221   6.870   1.621   6.443
10108SOL     OW31222   6.573   6.384   7.020
10108SOL    HW131223   6.539   6.374   0.090
10108SOL    HW231224   6.513   6.446   6.968
10109SOL     OW31225   3.920   6.395   2.910
10109SOL    HW131226   4.015   6.424   2.919
10109SOL    HW231227   3.882   6.380   3.001
10110SOL     OW31228   4.078   6.890   5.747
10110SOL    HW131229   3.992   6.890   5.696
10110SOL    HW231230   4.090   6.978   5.792
10111SOL     OW31231   6.604   3.372   3.036
10111SOL    HW131232   6.702   3.391   3.033
10111SOL    HW231233   6.586   3.307   3.110
10112SOL     OW31234   5.941   3.946   4.557
10112SOL    HW131235   6.015   3.900   4.508
10112SOL    HW231236   5.884   3.878   4.603
10113SOL     OW31237   3.827   1.066   6.732
10113SOL    HW131238   3.812   1.038   6.638
10113SOL    HW231239   3.814   1.165   6.740
10114SOL     OW31240   5.574   0.781   1.167
10114SOL    HW131241   5.626   0.794   1.251
10114SOL    HW231242   5.637   0.768   1.090
10115SOL     OW31243   2.793   1.589   3.265
10115SOL    HW131244   2.730   1.631   3.330
10115SOL    HW231245   2.882   1.632   3.273
10116SOL     OW31246   0.704   6.525   0.707
10116SOL    HW131247   0.653   6.442   0.729
10116SOL    HW231248   0.740   6.566   0.791
10117SOL     OW31249   6.254   0.134   4.753
10117SOL    HW131250   6.312   0.174   4.681
10117SOL    HW231251   6.213   0.049   4.719
10118SOL     OW31252   6.728   4.619   2.753
10118SOL    HW131253   6.734   4.586   2.659
10118SOL    HW231254   6.817   4.610   2.797
10119SOL     OW31255   1.674   6.754   4.418
10119SOL    HW131256   1.621   6.798   4.346
10119SOL    HW231257   1.642   6.660   4.430
10120SOL     OW31258   0.594   3.092   4.123
10120SOL    HW131259   0.685   3.060   4.148
10120SOL    HW231260   0.595   3.192   4.113
10121SOL     OW31261   6.692   5.282   5.309
10121SOL    HW131262   6.614   5.275   5.247
10121SOL    HW231263   6.760   5.213   5.285
10122SOL     OW31264   5.721   3.102   0.410
10122SOL    HW131265   5.668   3.183   0.434
10122SOL    HW231266   5.670   3.047   0.343
10123SOL     OW31267   6.655   6.036   0.368
10123SOL    HW131268   6.687   5.968   0.433
10123SOL    HW231269   6.684   6.011   0.276
10124SOL     OW31270   2.001   4.126   0.051
10124SOL    HW131271   2.018   4.055   0.120
10124SOL    HW231272   2.014   4.087   6.983
10125SOL     OW31273   2.108   0.721   2.414
10125SOL    HW131274   2.086   0.719   2.511
10125SOL    HW231275   2.110   0.627   2.379
10126SOL     OW31276   6.511   5.953   6.337
10126SOL    HW131277   6.463   5.932   6.422
10126SOL    HW231278   6.503   6.050   6.316
10127SOL     OW31279   2.260   5.540   5.792
10127SOL    HW131280   2.203   5.619   5.772
10127SOL    HW231281   2.211   5.456   5.769
10128SOL     OW31282   1.008   1.978   1.427
10128SOL    HW131283   0.950   2.010   1.353
10128SOL    HW231284   1.103   1.978   1.398
10129SOL     OW31285   4.689   2.740   4.044
10129SOL    HW131286   4.596   2.742   4.008
10129SOL    HW231287   4.687   2.756   4.143
10130SOL     OW31288   2.494   4.630   3.065
10130SOL    HW131289   2.572   4.615   3.004
10130SOL    HW231290   2.499   4.722   3.104
10131SOL     OW31291   0.792   1.423   3.265
10131SOL    HW131292   0.733   1.504   3.263
10131SOL    HW231293   0.852   1.429   3.345
10132SOL     OW31294   2.778   6.394   3.289
10132SOL    HW131295   2.875   6.419   3.293
10132SOL    HW231296   2.768   6.306   3.242
10133SOL     OW31297   4.384   6.622   2.430
10133SOL    HW131298   4.383   6.560   2.352
10133SOL    HW231299   4.319   6.696   2.416
10134SOL     OW31300   7.019   0.185   3.761
10134SOL    HW131301   0.013   0.170   3.858
10134SOL    HW231302   6.923   0.207   3.746
10135SOL     OW31303   5.248   3.545   3.301
10135SOL    HW131304   5.244   3.526   3.203
10135SOL    HW231305   5.158   3.573   3.333
10136SOL     OW31306   5.591   6.954   2.750
10136SOL    HW131307   5.620   6.997   2.836
10136SOL    HW231308   5.541   7.021   2.694
10137SOL     OW31309   6.795   5.268   4.038
10137SOL    HW131310   6.808   5.179   4.083
10137SOL    HW231311   6.866   5.281   3.969
10138SOL     OW31312   4.407   2.387   1.193
10138SOL    HW131313   4.447   2.462   1.246
10138SOL    HW231314   4.359   2.325   1.255
10139SOL     OW31315   4.085   3.499   3.160
10139SOL    HW131316   4.042   3.427   3.214
10139SOL    HW231317   4.167   3.463   3.115
10140SOL     OW31318   6.510   5.371   5.870
10140SOL    HW131319   6.479   5.441   5.933
10140SOL    HW231320   6.504   5.405   5.776
10141SOL     OW31321   3.629   1.855   4.669
10141SOL    HW131322   3.597   1.808   4.586
10141SOL    HW231323   3.727   1.837   4.680
10142SOL     OW31324   5.416   6.396   4.705
10142SOL    HW131325   5.448   6.364   4.616
10142SOL    HW231326   5.363   6.480   4.693
10143SOL     OW31327   4.812   0.254   1.300
10143SOL    HW131328   4.718   0.220   1.299
10143SOL    HW231329   4.811   0.354   1.296
10144SOL     OW31330   4.711   6.490   6.500
10144SOL    HW131331   4.679   6.531   6.585
10144SOL    HW231332   4.810   6.477   6.504
10145SOL     OW31333   3.844   5.873   6.155
10145SOL    HW131334   3.917   5.881   6.086
10145SOL    HW231335   3.881   5.890   6.246
10146SOL     OW31336   3.454   5.110   5.428
10146SOL    HW131337   3.361   5.117   5.393
10146SOL    HW231338   3.461   5.031   5.490
10147SOL     OW31339   5.307   4.845   4.343
10147SOL    HW131340   5.370   4.784   4.295
10147SOL    HW231341   5.334   4.850   4.440
10148SOL     OW31342   5.772   5.078   6.910
10148SOL    HW131343   5.710   5.156   6.906
10148SOL    HW231344   5.865   5.109   6.889
10149SOL     OW31345   5.369   1.830   0.779
10149SOL    HW131346   5.416   1.857   0.863
10149SOL    HW231347   5.286   1.779   0.803
10150SOL     OW31348   4.254   3.858   0.226
10150SOL    HW131349   4.160   3.838   0.254
10150SOL    HW231350   4.313   3.861   0.306
10151SOL     OW31351   0.611   0.015   6.569
10151SOL    HW131352   0.692   7.021   6.514
10151SOL    HW231353   0.637   0.022   6.666
10152SOL     OW31354   1.656   5.918   4.312
10152SOL    HW131355   1.586   5.861   4.271
10152SOL    HW231356   1.614   6.001   4.349
10153SOL     OW31357   4.929   5.641   4.475
10153SOL    HW131358   4.960   5.560   4.524
10153SOL    HW231359   4.992   5.717   4.493
10154SOL     OW31360   5.638   6.752   4.779
10154SOL    HW131361   5.631   6.843   4.819
10154SOL    HW231362   5.699   6.695   4.834
10155SOL     OW31363   4.119   1.694   5.836
10155SOL    HW131364   4.039   1.730   5.788
10155SOL    HW231365   4.147   1.608   5.796
10156SOL     OW31366   6.212   0.150   2.209
10156SOL    HW131367   6.262   0.155   2.295
10156SOL    HW231368   6.134   0.213   2.212
10157SOL     OW31369   6.015   2.433   6.167
10157SOL    HW131370   5.944   2.412   6.101
10157SOL    HW231371   5.986   2.510   6.225
10158SOL     OW31372   4.436   3.639   7.009
10158SOL    HW131373   4.484   3.565   0.033
10158SOL    HW231374   4.343   3.646   0.021
10159SOL     OW31375   2.791   3.365   6.134
10159SOL    HW131376   2.709   3.414   6.106
10159SOL    HW231377   2.788   3.271   6.099
10160SOL     OW31378   1.590   3.784   2.295
10160SOL    HW131379   1.556   3.801   2.203
10160SOL    HW231380   1.636   3.866   2.329
10161SOL     OW31381   3.705   4.188   7.001
10161SOL    HW131382   3.683   4.286   7.000
10161SOL    HW231383   3.622   4.136   7.019
10162SOL     OW31384   2.497   4.500   0.528
10162SOL    HW131385   2.553   4.447   0.464
10162SOL    HW231386   2.418   4.446   0.555
10163SOL     OW31387   5.322   4.971   6.746
10163SOL    HW131388   5.408   4.955   6.794
10163SOL    HW231389   5.311   4.906   6.672
10164SOL     OW31390   6.079   3.414   4.832
10164SOL    HW131391   6.170   3.397   4.796
10164SOL    HW231392   6.043   3.499   4.794
10165SOL     OW31393   0.959   2.347   3.497
10165SOL    HW131394   1.010   2.417   3.447
10165SOL    HW231395   1.008   2.324   3.581
10166SOL     OW31396   3.430   1.340   2.167
10166SOL    HW131397   3.396   1.249   2.141
10166SOL    HW231398   3.499   1.330   2.239
10167SOL     OW31399   4.258   2.131   6.396
10167SOL    HW131400   4.325   2.153   6.325
10167SOL    HW231401   4.223   2.216   6.435
10168SOL     OW31402   6.348   3.833   5.477
10168SOL    HW131403   6.433   3.785   5.501
10168SOL    HW231404   6.316   3.800   5.388
10169SOL     OW31405   5.947   4.176   3.096
10169SOL    HW131406   5.902   4.115   3.031
10169SOL    HW231407   5.891   4.184   3.179
10170SOL     OW31408   0.959   4.305   5.907
10170SOL    HW131409   0.889   4.296   5.835
10170SOL    HW231410   0.992   4.214   5.933
10171SOL     OW31411   6.486   3.991   5.802
10171SOL    HW131412   6.496   4.052   5.723
10171SOL    HW231413   6.540   3.909   5.788
10172SOL     OW31414   6.179   6.763   3.809
10172SOL    HW131415   6.181   6.761   3.909
10172SOL    HW231416   6.173   6.857   3.777
10173SOL     OW31417   1.208   3.048   0.726
10173SOL    HW131418   1.242   2.969   0.777
10173SOL    HW231419   1.117   3.073   0.759
10174SOL     OW31420   5.407   5.308   2.530
10174SOL    HW131421   5.359   5.371   2.470
10174SOL    HW231422   5.361   5.219   2.529
10175SOL     OW31423   6.639   2.254   3.466
10175SOL    HW131424   6.654   2.237   3.368
10175SOL    HW231425   6.669   2.175   3.518
10176SOL     OW31426   1.725   3.516   5.960
10176SOL    HW131427   1.707   3.565   6.045
10176SOL    HW231428   1.770   3.429   5.980
10177SOL     OW31429   2.231   1.320   0.445
10177SOL    HW131430   2.194   1.270   0.367
10177SOL    HW231431   2.320   1.281   0.471
10178SOL     OW31432   6.611   2.245   5.107
10178SOL    HW131433   6.516   2.240   5.076
10178SOL    HW231434   6.668   2.185   5.050
10179SOL     OW31435   1.155   1.647   5.681
10179SOL    HW131436   1.107   1.606   5.603
10179SOL    HW231437   1.165   1.745   5.667
10180SOL     OW31438   4.004   6.637   6.985
10180SOL    HW131439   4.046   6.549   7.007
10180SOL    HW231440   4.004   6.650   6.886
10181SOL     OW31441   4.966   3.444   2.370
10181SOL    HW131442   5.064   3.448   2.387
10181SOL    HW231443   4.932   3.352   2.387
10182SOL     OW31444   5.495   1.106   2.071
10182SOL    HW131445   5.484   1.135   1.976
10182SOL    HW231446   5.593   1.104   2.094
10183SOL     OW31447   0.600   2.011   6.631
10183SOL    HW131448   0.599   2.068   6.548
10183SOL    HW231449   0.694   1.990   6.656
10184SOL     OW31450   4.232   0.739   6.130
10184SOL    HW131451   4.152   0.794   6.105
10184SOL    HW231452   4.205   0.644   6.144
10185SOL     OW31453   5.468   5.833   1.807
10185SOL    HW131454   5.401   5.789   1.867
10185SOL    HW231455   5.529   5.890   1.863
10186SOL     OW31456   5.735   3.288   2.837
10186SOL    HW131457   5.760   3.330   2.924
10186SOL    HW231458   5.748   3.355   2.763
10187SOL     OW31459   0.651   2.825   1.248
10187SOL    HW131460   0.685   2.758   1.314
10187SOL    HW231461   0.726   2.887   1.222
10188SOL     OW31462   3.602   6.353   0.911
10188SOL    HW131463   3.562   6.295   0.840
10188SOL    HW231464   3.700   6.362   0.896
10189SOL     OW31465   1.542   0.633   5.406
10189SOL    HW131466   1.593   0.677   5.332
10189SOL    HW231467   1.531   0.697   5.482
10190SOL     OW31468   4.567   3.141   1.573
10190SOL    HW131469   4.559   3.233   1.535
10190SOL    HW231470   4.521   3.075   1.513
10191SOL     OW31471   4.913   4.175   6.484
10191SOL    HW131472   4.825   4.144   6.449
10191SOL    HW231473   4.931   4.130   6.572
10192SOL     OW31474   4.655   0.986   5.935
10192SOL    HW131475   4.661   1.086   5.928
10192SOL    HW231476   4.588   0.962   6.005
10193SOL     OW31477   4.123   3.617   1.894
10193SOL    HW131478   4.129   3.519   1.874
10193SOL    HW231479   4.133   3.632   1.992
10194SOL     OW31480   5.816   4.336   4.963
10194SOL    HW131481   5.740   4.285   5.005
10194SOL    HW231482   5.834   4.300   4.872
10195SOL     OW31483   5.978   5.039   1.043
10195SOL    HW131484   5.975   5.112   1.111
10195SOL    HW231485   5.925   4.961   1.075
10196SOL     OW31486   4.632   1.846   4.474
10196SOL    HW131487   4.547   1.896   4.454
10196SOL    HW231488   4.710   1.907   4.464
10197SOL     OW31489   6.945   1.781   4.771
10197SOL    HW131490   6.859   1.811   4.814
10197SOL    HW231491   6.926   1.745   4.680
10198SOL     OW31492   3.309   0.572   1.917
10198SOL    HW131493   3.360   0.613   1.992
10198SOL    HW231494   3.360   0.583   1.832
10199SOL     OW31495   2.449   2.957   5.941
10199SOL    HW131496   2.363   2.996   5.907
10199SOL    HW231497   2.525   2.993   5.888
10200SOL     OW31498   4.592   2.145   1.167
10200SOL    HW131499   4.674   2.107   1.125
10200SOL    HW231500   4.552   2.213   1.106
10201SOL     OW31501   0.851   4.624   0.880
10201SOL    HW131502   0.810   4.627   0.971
10201SOL    HW231503   0.791   4.670   0.815
10202SOL     OW31504   3.873   2.456   6.447
10202SOL    HW131505   3.795   2.516   6.463
10202SOL    HW231506   3.887   2.445   6.349
10203SOL     OW31507   5.746   2.874   3.936
10203SOL    HW131508   5.826   2.899   3.882
10203SOL    HW231509   5.665   2.873   3.877
10204SOL     OW31510   5.609   6.991   6.587
10204SOL    HW131511   5.696   0.017   6.581
10204SOL    HW231512   5.620   6.908   6.642
10205SOL     OW31513   1.153   1.165   0.590
10205SOL    HW131514   1.140   1.202   0.498
10205SOL    HW231515   1.161   1.240   0.656
10206SOL     OW31516   0.385   0.695   5.988
10206SOL    HW131517   0.413   0.649   6.072
10206SOL    HW231518   0.418   0.789   5.988
10207SOL     OW31519   1.027   2.059   6.196
10207SOL    HW131520   1.057   1.973   6.155
10207SOL    HW231521   1.010   2.044   6.294
10208SOL     OW31522   5.897   4.890   4.006
10208SOL    HW131523   5.927   4.868   3.913
10208SOL    HW231524   5.915   4.811   4.066
10209SOL     OW31525   6.545   0.045   6.337
10209SOL    HW131526   6.451   0.011   6.336
10209SOL    HW231527   6.593   0.010   6.257
10210SOL     OW31528   4.590   6.527   1.383
10210SOL    HW131529   4.499   6.567   1.390
10210SOL    HW231530   4.653   6.594   1.344
10211SOL     OW31531   4.028   6.924   4.299
10211SOL    HW131532   4.033   7.017   4.335
10211SOL    HW231533   3.978   6.866   4.363
10212SOL     OW31534   1.079   0.592   5.179
10212SOL    HW131535   1.117   0.618   5.268
10212SOL    HW231536   0.982   0.573   5.188
10213SOL     OW31537   4.174   2.924   1.406
10213SOL    HW131538   4.092   2.917   1.463
10213SOL    HW231539   4.189   3.020   1.382
10214SOL     OW31540   0.912   2.676   1.854
10214SOL    HW131541   0.823   2.647   1.888
10214SOL    HW231542   0.939   2.618   1.776
10215SOL     OW31543   3.960   3.100   3.115
10215SOL    HW131544   4.054   3.068   3.131
10215SOL    HW231545   3.907   3.090   3.200
10216SOL     OW31546   0.133   1.230   1.064
10216SOL    HW131547   0.106   1.261   1.155
10216SOL    HW231548   0.150   1.132   1.066
10217SOL     OW31549   2.503   1.274   3.205
10217SOL    HW131550   2.458   1.335   3.140
10217SOL    HW231551   2.599   1.264   3.180
10218SOL     OW31552   1.362   3.171   1.994
10218SOL    HW131553   1.264   3.185   2.011
10218SOL    HW231554   1.415   3.231   2.055
10219SOL     OW31555   0.399   1.932   2.808
10219SOL    HW131556   0.439   1.866   2.873
10219SOL    HW231557   0.329   1.986   2.855
10220SOL     OW31558   3.876   2.712   1.342
10220SOL    HW131559   3.956   2.747   1.391
10220SOL    HW231560   3.863   2.616   1.365
10221SOL     OW31561   0.477   5.525   3.215
10221SOL    HW131562   0.436   5.603   3.261
10221SOL    HW231563   0.577   5.530   3.224
10222SOL     OW31564   2.806   3.300   5.185
10222SOL    HW131565   2.768   3.217   5.145
10222SOL    HW231566   2.795   3.297   5.284
10223SOL     OW31567   0.569   4.612   1.374
10223SOL    HW131568   0.648   4.660   1.335
10223SOL    HW231569   0.563   4.633   1.472
10224SOL     OW31570   6.188   3.112   3.900
10224SOL    HW131571   6.147   3.045   3.963
10224SOL    HW231572   6.225   3.189   3.953
10225SOL     OW31573   1.981   4.362   6.013
10225SOL    HW131574   1.959   4.381   5.917
10225SOL    HW231575   1.994   4.447   6.062
10226SOL     OW31576   4.056   0.448   6.588
10226SOL    HW131577   4.031   0.541   6.562
10226SOL    HW231578   4.151   0.431   6.564
10227SOL     OW31579   4.644   4.149   0.434
10227SOL    HW131580   4.627   4.206   0.515
10227SOL    HW231581   4.628   4.204   0.352
10228SOL     OW31582   6.737   6.968   1.004
10228SOL    HW131583   6.801   7.002   0.936
10228SOL    HW231584   6.702   6.879   0.975
10229SOL     OW31585   0.848   3.371   4.957
10229SOL    HW131586   0.790   3.434   4.905
10229SOL    HW231587   0.936   3.362   4.912
10230SOL     OW31588   6.567   5.632   2.642
10230SOL    HW131589   6.535   5.726   2.640
10230SOL    HW231590   6.488   5.570   2.639
10231SOL     OW31591   1.463   5.947   4.822
10231SOL    HW131592   1.545   5.977   4.774
10231SOL    HW231593   1.416   6.026   4.860
10232SOL     OW31594   2.410   1.001   3.207
10232SOL    HW131595   2.387   1.006   3.109
10232SOL    HW231596   2.441   1.091   3.238
10233SOL     OW31597   3.724   3.917   5.385
10233SOL    HW131598   3.781   3.967   5.450
10233SOL    HW231599   3.759   3.824   5.375
10234SOL     OW31600   6.183   6.631   1.465
10234SOL    HW131601   6.096   6.595   1.498
10234SOL    HW231602   6.220   6.696   1.532
10235SOL     OW31603   1.481   1.774   2.251
10235SOL    HW131604   1.545   1.713   2.205
10235SOL    HW231605   1.472   1.859   2.198
10236SOL     OW31606   2.164   6.395   0.344
10236SOL    HW131607   2.172   6.435   0.436
10236SOL    HW231608   2.256   6.377   0.308
10237SOL     OW31609   0.153   3.638   0.048
10237SOL    HW131610   0.164   3.656   0.146
10237SOL    HW231611   0.090   3.705   0.009
10238SOL     OW31612   4.156   4.893   1.188
10238SOL    HW131613   4.074   4.837   1.182
10238SOL    HW231614   4.161   4.937   1.278
10239SOL     OW31615   1.234   2.881   4.892
10239SOL    HW131616   1.240   2.786   4.863
10239SOL    HW231617   1.192   2.886   4.982
10240SOL     OW31618   2.872   6.542   1.921
10240SOL    HW131619   2.821   6.627   1.936
10240SOL    HW231620   2.924   6.520   2.003
10241SOL     OW31621   5.174   2.065   1.865
10241SOL    HW131622   5.219   2.025   1.945
10241SOL    HW231623   5.087   2.105   1.893
10242SOL     OW31624   0.197   2.027   0.529
10242SOL    HW131625   0.246   2.109   0.560
10242SOL    HW231626   0.152   1.984   0.607
10243SOL     OW31627   2.559   4.724   1.442
10243SOL    HW131628   2.574   4.811   1.489
10243SOL    HW231629   2.462   4.713   1.421
10244SOL     OW31630   2.338   4.214   1.196
10244SOL    HW131631   2.367   4.163   1.115
10244SOL    HW231632   2.394   4.185   1.274
10245SOL     OW31633   3.665   4.107   1.400
10245SOL    HW131634   3.664   4.022   1.347
10245SOL    HW231635   3.621   4.091   1.489
10246SOL     OW31636   3.432   3.402   4.376
10246SOL    HW131637   3.499   3.399   4.302
10246SOL    HW231638   3.341   3.422   4.339
10247SOL     OW31639   0.824   4.169   5.673
10247SOL    HW131640   0.806   4.129   5.763
10247SOL    HW231641   0.783   4.112   5.602
10248SOL     OW31642   1.267   0.183   3.220
10248SOL    HW131643   1.220   0.139   3.143
10248SOL    HW231644   1.208   0.180   3.301
10249SOL     OW31645   2.001   4.554   0.261
10249SOL    HW131646   1.913   4.602   0.268
10249SOL    HW231647   2.018   4.506   0.347
10250SOL     OW31648   6.463   3.508   0.314
10250SOL    HW131649   6.463   3.511   0.414
10250SOL    HW231650   6.453   3.414   0.282
10251SOL     OW31651   2.140   0.968   4.226
10251SOL    HW131652   2.230   1.012   4.217
10251SOL    HW231653   2.069   1.037   4.217
10252SOL     OW31654   4.457   3.485   5.604
10252SOL    HW131655   4.467   3.471   5.506
10252SOL    HW231656   4.480   3.400   5.652
10253SOL     OW31657   3.873   6.372   0.883
10253SOL    HW131658   3.932   6.316   0.940
10253SOL    HW231659   3.930   6.436   0.829
10254SOL     OW31660   4.806   1.313   5.544
10254SOL    HW131661   4.876   1.375   5.510
10254SOL    HW231662   4.783   1.247   5.472
10255SOL     OW31663   2.521   6.919   1.071
10255SOL    HW131664   2.546   6.962   1.158
10255SOL    HW231665   2.517   6.820   1.083
10256SOL     OW31666   5.013   0.942   2.008
10256SOL    HW131667   5.096   0.911   2.053
10256SOL    HW231668   4.962   1.002   2.069
10257SOL     OW31669   2.494   4.671   3.947
10257SOL    HW131670   2.414   4.640   3.999
10257SOL    HW231671   2.499   4.621   3.861
10258SOL     OW31672   3.392   1.870   3.231
10258SOL    HW131673   3.359   1.837   3.319
10258SOL    HW231674   3.480   1.827   3.209
10259SOL     OW31675   0.682   3.949   3.663
10259SOL    HW131676   0.641   4.035   3.632
10259SOL    HW231677   0.721   3.901   3.585
10260SOL     OW31678   0.955   1.425   3.483
10260SOL    HW131679   0.996   1.346   3.529
10260SOL    HW231680   1.015   1.504   3.491
10261SOL     OW31681   0.352   4.373   0.521
10261SOL    HW131682   0.288   4.443   0.487
10261SOL    HW231683   0.442   4.388   0.480
10262SOL     OW31684   3.468   0.076   6.364
10262SOL    HW131685   3.506   0.016   6.434
10262SOL    HW231686   3.539   0.099   6.298
10263SOL     OW31687   5.618   0.643   0.579
10263SOL    HW131688   5.674   0.560   0.570
10263SOL    HW231689   5.525   0.617   0.604
10264SOL     OW31690   5.772   5.066   6.525
10264SOL    HW131691   5.726   5.006   6.459
10264SOL    HW231692   5.730   5.055   6.615
10265SOL     OW31693   2.804   2.710   0.325
10265SOL    HW131694   2.773   2.696   0.231
10265SOL    HW231695   2.897   2.673   0.335
10266SOL     OW31696   3.309   2.974   2.841
10266SOL    HW131697   3.255   2.970   2.924
10266SOL    HW231698   3.405   2.957   2.863
10267SOL     OW31699   5.510   1.032   0.971
10267SOL    HW131700   5.547   1.021   0.879
10267SOL    HW231701   5.465   0.947   0.998
10268SOL     OW31702   5.584   6.508   2.020
10268SOL    HW131703   5.543   6.562   1.946
10268SOL    HW231704   5.650   6.563   2.069
10269SOL     OW31705   1.235   2.821   6.744
10269SOL    HW131706   1.237   2.885   6.821
10269SOL    HW231707   1.184   2.739   6.771
10270SOL     OW31708   3.266   5.961   2.352
10270SOL    HW131709   3.310   6.023   2.287
10270SOL    HW231710   3.196   6.010   2.403
10271SOL     OW31711   2.993   2.879   7.006
10271SOL    HW131712   3.048   2.819   0.043
10271SOL    HW231713   2.910   2.830   6.978
10272SOL     OW31714   0.551   1.114   3.845
10272SOL    HW131715   0.581   1.167   3.925
10272SOL    HW231716   0.454   1.131   3.829
10273SOL     OW31717   2.914   4.920   4.634
10273SOL    HW131718   2.909   4.859   4.555
10273SOL    HW231719   2.878   4.874   4.715
10274SOL     OW31720   0.668   4.997   6.032
10274SOL    HW131721   0.623   5.021   5.946
10274SOL    HW231722   0.669   4.897   6.041
10275SOL     OW31723   0.037   0.484   2.219
10275SOL    HW131724   0.021   0.386   2.204
10275SOL    HW231725   0.101   0.495   2.296
10276SOL     OW31726   4.511   5.715   5.833
10276SOL    HW131727   4.418   5.748   5.849
10276SOL    HW231728   4.534   5.729   5.736
10277SOL     OW31729   1.083   6.893   4.055
10277SOL    HW131730   1.006   6.930   4.003
10277SOL    HW231731   1.166   6.901   4.001
10278SOL     OW31732   0.452   1.093   4.427
10278SOL    HW131733   0.362   1.075   4.467
10278SOL    HW231734   0.506   1.009   4.427
10279SOL     OW31735   2.836   5.725   3.835
10279SOL    HW131736   2.855   5.747   3.740
10279SOL    HW231737   2.741   5.697   3.844
10280SOL     OW31738   5.658   3.471   6.722
10280SOL    HW131739   5.571   3.517   6.705
10280SOL    HW231740   5.647   3.405   6.796
10281SOL     OW31741   0.034   2.509   2.954
10281SOL    HW131742   6.989   2.580   2.973
10281SOL    HW231743   0.084   2.487   3.038
10282SOL     OW31744   5.365   3.131   3.297
10282SOL    HW131745   5.349   3.197   3.370
10282SOL    HW231746   5.460   3.100   3.300
10283SOL     OW31747   0.950   2.958   0.504
10283SOL    HW131748   0.874   3.024   0.503
10283SOL    HW231749   1.034   3.005   0.532
10284SOL     OW31750   6.240   2.059   4.192
10284SOL    HW131751   6.148   2.020   4.185
10284SOL    HW231752   6.308   1.988   4.175
10285SOL     OW31753   3.954   6.622   3.189
10285SOL    HW131754   3.908   6.673   3.262
10285SOL    HW231755   4.052   6.642   3.192
10286SOL     OW31756   3.593   0.455   4.037
10286SOL    HW131757   3.521   0.479   4.101
10286SOL    HW231758   3.590   0.518   3.959
10287SOL     OW31759   1.673   6.014   2.028
10287SOL    HW131760   1.712   5.929   1.993
10287SOL    HW231761   1.744   6.084   2.032
10288SOL     OW31762   3.795   0.232   4.301
10288SOL    HW131763   3.831   0.300   4.365
10288SOL    HW231764   3.729   0.174   4.349
10289SOL     OW31765   3.134   6.224   0.978
10289SOL    HW131766   3.115   6.180   1.066
10289SOL    HW231767   3.062   6.200   0.913
10290SOL     OW31768   2.914   3.330   2.491
10290SOL    HW131769   2.822   3.302   2.519
10290SOL    HW231770   2.967   3.249   2.465
10291SOL     OW31771   3.793   1.604   3.043
10291SOL    HW131772   3.825   1.578   3.134
10291SOL    HW231773   3.800   1.526   2.981
10292SOL     OW31774   0.665   1.450   6.002
10292SOL    HW131775   0.579   1.398   6.010
10292SOL    HW231776   0.659   1.532   6.058
10293SOL     OW31777   0.756   3.196   3.577
10293SOL    HW131778   0.791   3.103   3.561
10293SOL    HW231779   0.686   3.193   3.649
10294SOL     OW31780   3.909   1.916   2.895
10294SOL    HW131781   3.957   1.886   2.813
10294SOL    HW231782   3.959   1.885   2.976
10295SOL     OW31783   1.256   2.451   5.851
10295SOL    HW131784   1.281   2.393   5.928
10295SOL    HW231785   1.339   2.491   5.812
10296SOL     OW31786   5.866   1.093   5.857
10296SOL    HW131787   5.860   1.171   5.920
10296SOL    HW231788   5.817   1.115   5.773
10297SOL     OW31789   2.228   1.354   6.545
10297SOL    HW131790   2.151   1.417   6.550
10297SOL    HW231791   2.314   1.405   6.549
10298SOL     OW31792   1.141   4.535   1.820
10298SOL    HW131793   1.168   4.483   1.738
10298SOL    HW231794   1.091   4.475   1.882
10299SOL     OW31795   4.138   6.577   2.656
10299SOL    HW131796   4.180   6.487   2.663
10299SOL    HW231797   4.088   6.585   2.570
10300SOL     OW31798   1.450   4.126   2.081
10300SOL    HW131799   1.426   4.159   1.989
10300SOL    HW231800   1.506   4.043   2.072
10301SOL     OW31801   4.638   1.763   5.295
10301SOL    HW131802   4.659   1.677   5.249
10301SOL    HW231803   4.681   1.764   5.385
10302SOL     OW31804   2.735   6.186   3.853
10302SOL    HW131805   2.718   6.088   3.844
10302SOL    HW231806   2.762   6.207   3.947
10303SOL     OW31807   0.958   5.652   3.716
10303SOL    HW131808   1.026   5.725   3.724
10303SOL    HW231809   0.934   5.618   3.807
10304SOL     OW31810   6.201   0.431   1.040
10304SOL    HW131811   6.247   0.355   0.995
10304SOL    HW231812   6.185   0.504   0.973
10305SOL     OW31813   2.712   4.187   5.794
10305SOL    HW131814   2.619   4.156   5.814
10305SOL    HW231815   2.712   4.241   5.710
10306SOL     OW31816   5.556   5.923   0.374
10306SOL    HW131817   5.502   5.958   0.298
10306SOL    HW231818   5.590   5.999   0.430
10307SOL     OW31819   3.236   1.620   4.606
10307SOL    HW131820   3.293   1.633   4.688
10307SOL    HW231821   3.266   1.684   4.535
10308SOL     OW31822   2.406   4.491   2.238
10308SOL    HW131823   2.451   4.531   2.158
10308SOL    HW231824   2.387   4.394   2.221
10309SOL     OW31825   6.603   1.540   6.263
10309SOL    HW131826   6.548   1.456   6.262
10309SOL    HW231827   6.542   1.619   6.273
10310SOL     OW31828   3.252   3.601   0.171
10310SOL    HW131829   3.279   3.659   0.094
10310SOL    HW231830   3.290   3.638   0.255
10311SOL     OW31831   6.703   5.716   0.174
10311SOL    HW131832   6.668   5.713   0.268
10311SOL    HW231833   6.698   5.625   0.134
10312SOL     OW31834   4.345   6.746   2.674
10312SOL    HW131835   4.254   6.706   2.663
10312SOL    HW231836   4.406   6.711   2.603
10313SOL     OW31837   3.679   6.039   2.303
10313SOL    HW131838   3.613   5.964   2.313
10313SOL    HW231839   3.696   6.080   2.393
10314SOL     OW31840   6.921   0.407   0.180
10314SOL    HW131841   6.849   0.349   0.142
10314SOL    HW231842   6.897   0.435   0.272
10315SOL     OW31843   5.561   6.066   4.027
10315SOL    HW131844   5.643   6.095   4.077
10315SOL    HW231845   5.502   6.012   4.088
10316SOL     OW31846   6.707   2.784   6.160
10316SOL    HW131847   6.661   2.810   6.245
10316SOL    HW231848   6.806   2.792   6.173
10317SOL     OW31849   4.226   6.359   6.114
10317SOL    HW131850   4.138   6.390   6.076
10317SOL    HW231851   4.249   6.270   6.075
10318SOL     OW31852   4.842   1.167   6.303
10318SOL    HW131853   4.827   1.079   6.347
10318SOL    HW231854   4.759   1.195   6.254
10319SOL     OW31855   0.991   4.309   5.276
10319SOL    HW131856   0.940   4.386   5.238
10319SOL    HW231857   1.046   4.340   5.353
10320SOL     OW31858   0.450   6.076   2.818
10320SOL    HW131859   0.448   6.141   2.742
10320SOL    HW231860   0.458   5.983   2.783
10321SOL     OW31861   5.550   1.839   2.061
10321SOL    HW131862   5.615   1.890   2.117
10321SOL    HW231863   5.539   1.747   2.099
10322SOL     OW31864   4.185   4.843   4.839
10322SOL    HW131865   4.271   4.893   4.828
10322SOL    HW231866   4.183   4.801   4.930
10323SOL     OW31867   6.420   5.047   5.422
10323SOL    HW131868   6.368   4.969   5.388
10323SOL    HW231869   6.434   5.113   5.348
10324SOL     OW31870   3.627   3.181   2.966
10324SOL    HW131871   3.715   3.227   2.954
10324SOL    HW231872   3.643   3.083   2.979
10325SOL     OW31873   0.173   4.825   2.480
10325SOL    HW131874   0.239   4.900   2.487
10325SOL    HW231875   0.220   4.740   2.458
10326SOL     OW31876   6.046   3.679   6.129
10326SOL    HW131877   5.965   3.715   6.176
10326SOL    HW231878   6.095   3.755   6.086
10327SOL     OW31879   2.354   3.046   1.694
10327SOL    HW131880   2.301   3.124   1.728
10327SOL    HW231881   2.305   3.002   1.619
10328SOL     OW31882   5.854   2.558   1.236
10328SOL    HW131883   5.900   2.580   1.150
10328SOL    HW231884   5.888   2.618   1.309
10329SOL     OW31885   2.467   1.257   2.722
10329SOL    HW131886   2.373   1.268   2.689
10329SOL    HW231887   2.528   1.247   2.644
10330SOL     OW31888   4.199   0.401   1.792
10330SOL    HW131889   4.276   0.344   1.761
10330SOL    HW231890   4.178   0.379   1.887
10331SOL     OW31891   6.702   6.318   6.439
10331SOL    HW131892   6.731   6.407   6.474
10331SOL    HW231893   6.679   6.258   6.515
10332SOL     OW31894   6.550   0.177   6.812
10332SOL    HW131895   6.536   0.090   6.860
10332SOL    HW231896   6.553   0.161   6.713
10333SOL     OW31897   0.715   5.347   5.092
10333SOL    HW131898   0.798   5.298   5.065
10333SOL    HW231899   0.721   5.442   5.062
10334SOL     OW31900   3.259   0.532   4.476
10334SOL    HW131901   3.165   0.546   4.509
10334SOL    HW231902   3.256   0.505   4.380
10335SOL     OW31903   1.456   4.075   6.624
10335SOL    HW131904   1.535   4.050   6.679
10335SOL    HW231905   1.454   4.020   6.541
10336SOL     OW31906   6.494   0.243   2.014
10336SOL    HW131907   6.428   0.184   2.059
10336SOL    HW231908   6.487   0.335   2.052
10337SOL     OW31909   0.593   5.758   6.761
10337SOL    HW131910   0.532   5.710   6.698
10337SOL    HW231911   0.634   5.692   6.824
10338SOL     OW31912   1.684   6.226   2.373
10338SOL    HW131913   1.767   6.277   2.349
10338SOL    HW231914   1.610   6.251   2.310
10339SOL     OW31915   6.228   3.497   5.971
10339SOL    HW131916   6.234   3.564   5.897
10339SOL    HW231917   6.168   3.532   6.042
10340SOL     OW31918   1.595   3.359   0.028
10340SOL    HW131919   1.530   3.301   7.002
10340SOL    HW231920   1.646   3.415   6.985
10341SOL     OW31921   2.060   3.536   2.231
10341SOL    HW131922   2.083   3.445   2.266
10341SOL    HW231923   2.090   3.543   2.136
10342SOL     OW31924   1.898   0.529   3.864
10342SOL    HW131925   1.990   0.567   3.860
10342SOL    HW231926   1.877   0.503   3.958
10343SOL     OW31927   3.069   5.441   0.119
10343SOL    HW131928   3.100   5.356   0.163
10343SOL    HW231929   3.114   5.519   0.162
10344SOL     OW31930   4.134   3.982   7.020
10344SOL    HW131931   4.048   3.996   0.046
10344SOL    HW231932   4.186   3.909   0.043
10345SOL     OW31933   1.737   2.483   5.799
10345SOL    HW131934   1.753   2.581   5.790
10345SOL    HW231935   1.659   2.457   5.742
10346SOL     OW31936   0.123   5.691   1.240
10346SOL    HW131937   0.209   5.640   1.229
10346SOL    HW231938   0.133   5.781   1.197
10347SOL     OW31939   5.132   1.142   3.088
10347SOL    HW131940   5.046   1.099   3.117
10347SOL    HW231941   5.112   1.227   3.040
10348SOL     OW31942   6.253   2.637   0.401
10348SOL    HW131943   6.174   2.685   0.363
10348SOL    HW231944   6.324   2.703   0.424
10349SOL     OW31945   0.960   0.899   6.715
10349SOL    HW131946   0.920   0.904   6.806
10349SOL    HW231947   1.059   0.888   6.723
10350SOL     OW31948   2.598   5.182   5.012
10350SOL    HW131949   2.632   5.202   4.921
10350SOL    HW231950   2.515   5.234   5.029
10351SOL     OW31951   4.626   5.231   0.057
10351SOL    HW131952   4.702   5.175   0.024
10351SOL    HW231953   4.548   5.171   0.079
10352SOL     OW31954   3.323   0.568   6.350
10352SOL    HW131955   3.333   0.482   6.399
10352SOL    HW231956   3.258   0.557   6.275
10353SOL     OW31957   6.807   2.867   4.591
10353SOL    HW131958   6.827   2.827   4.680
10353SOL    HW231959   6.827   2.801   4.519
10354SOL     OW31960   5.923   1.505   1.989
10354SOL    HW131961   5.825   1.526   1.992
10354SOL    HW231962   5.966   1.538   2.073
10355SOL     OW31963   2.711   6.327   1.857
10355SOL    HW131964   2.632   6.331   1.918
10355SOL    HW231965   2.774   6.402   1.879
10356SOL     OW31966   0.075   4.569   6.398
10356SOL    HW131967   0.037   4.656   6.366
10356SOL    HW231968   0.090   4.574   6.497
10357SOL     OW31969   1.795   2.892   6.434
10357SOL    HW131970   1.701   2.925   6.429
10357SOL    HW231971   1.834   2.886   6.342
10358SOL     OW31972   0.274   2.330   2.887
10358SOL    HW131973   0.351   2.269   2.907
10358SOL    HW231974   0.293   2.381   2.803
10359SOL     OW31975   0.568   1.391   0.903
10359SOL    HW131976   0.626   1.449   0.961
10359SOL    HW231977   0.474   1.394   0.936
10360SOL     OW31978   4.655   5.055   3.152
10360SOL    HW131979   4.607   4.997   3.087
10360SOL    HW231980   4.742   5.085   3.113
10361SOL     OW31981   2.595   6.617   2.530
10361SOL    HW131982   2.647   6.588   2.450
10361SOL    HW231983   2.506   6.653   2.501
10362SOL     OW31984   1.858   4.574   4.578
10362SOL    HW131985   1.776   4.564   4.522
10362SOL    HW231986   1.903   4.660   4.557
10363SOL     OW31987   4.921   0.912   3.069
10363SOL    HW131988   4.839   0.925   3.014
10363SOL    HW231989   4.896   0.882   3.161
10364SOL     OW31990   3.066   3.501   1.635
10364SOL    HW131991   3.105   3.593   1.632
10364SOL    HW231992   3.047   3.477   1.731
10365SOL     OW31993   3.695   5.824   0.486
10365SOL    HW131994   3.628   5.858   0.552
10365SOL    HW231995   3.669   5.853   0.394
10366SOL     OW31996   2.422   0.170   4.506
10366SOL    HW131997   2.511   0.205   4.536
10366SOL    HW231998   2.384   0.232   4.437
10367SOL     OW31999   5.605   1.997   2.536
10367SOL    HW132000   5.674   2.051   2.487
10367SOL    HW232001   5.632   1.901   2.537
10368SOL     OW32002   2.502   0.842   1.086
10368SOL    HW132003   2.411   0.808   1.064
10368SOL    HW232004   2.523   0.922   1.030
10369SOL     OW32005   4.242   0.753   6.925
10369SOL    HW132006   4.158   0.805   6.945
10369SOL    HW232007   4.313   0.779   6.991
10370SOL     OW32008   4.454   0.875   4.861
10370SOL    HW132009   4.409   0.944   4.919
10370SOL    HW232010   4.553   0.885   4.869
10371SOL     OW32011   2.945   5.466   5.724
10371SOL    HW132012   3.042   5.485   5.742
10371SOL    HW232013   2.896   5.552   5.713
10372SOL     OW32014   2.326   1.133   5.356
10372SOL    HW132015   2.333   1.072   5.435
10372SOL    HW232016   2.337   1.080   5.272
10373SOL     OW32017   1.522   6.517   4.445
10373SOL    HW132018   1.503   6.494   4.541
10373SOL    HW232019   1.532   6.433   4.392
10374SOL     OW32020   2.755   1.486   3.594
10374SOL    HW132021   2.703   1.572   3.595
10374SOL    HW232022   2.838   1.498   3.539
10375SOL     OW32023   5.156   2.361   0.285
10375SOL    HW132024   5.123   2.453   0.261
10375SOL    HW232025   5.254   2.366   0.305
10376SOL     OW32026   1.095   0.636   3.649
10376SOL    HW132027   1.073   0.582   3.568
10376SOL    HW232028   1.011   0.669   3.691
10377SOL     OW32029   0.286   0.716   3.425
10377SOL    HW132030   0.348   0.793   3.440
10377SOL    HW232031   0.194   0.740   3.458
10378SOL     OW32032   0.117   1.032   6.039
10378SOL    HW132033   0.134   1.084   6.123
10378SOL    HW232034   0.025   0.994   6.040
10379SOL     OW32035   5.228   0.280   5.124
10379SOL    HW132036   5.303   0.330   5.168
10379SOL    HW232037   5.233   0.184   5.151
10380SOL     OW32038   5.785   0.563   2.879
10380SOL    HW132039   5.736   0.610   2.806
10380SOL    HW232040   5.870   0.612   2.899
10381SOL     OW32041   4.833   5.298   5.987
10381SOL    HW132042   4.851   5.238   5.910
10381SOL    HW232043   4.768   5.369   5.960
10382SOL     OW32044   2.508   5.282   5.946
10382SOL    HW132045   2.597   5.275   5.900
10382SOL    HW232046   2.519   5.265   6.044
10383SOL     OW32047   1.362   3.501   0.598
10383SOL    HW132048   1.396   3.414   0.634
10383SOL    HW232049   1.285   3.485   0.537
10384SOL     OW32050   6.921   0.093   0.843
10384SOL    HW132051   6.973   0.165   0.889
10384SOL    HW232052   6.979   0.012   0.833
10385SOL     OW32053   5.702   0.021   6.219
10385SOL    HW132054   5.630   0.056   6.158
10385SOL    HW232055   5.665   6.970   6.276
10386SOL     OW32056   6.256   3.502   5.029
10386SOL    HW132057   6.272   3.442   5.107
10386SOL    HW232058   6.175   3.473   4.980
10387SOL     OW32059   2.842   2.201   3.111
10387SOL    HW132060   2.789   2.283   3.129
10387SOL    HW232061   2.788   2.139   3.053
10388SOL     OW32062   1.373   5.268   3.621
10388SOL    HW132063   1.277   5.263   3.591
10388SOL    HW232064   1.391   5.358   3.660
10389SOL     OW32065   0.565   4.749   3.067
10389SOL    HW132066   0.613   4.757   2.979
10389SOL    HW232067   0.632   4.741   3.141
10390SOL     OW32068   1.840   4.034   3.291
10390SOL    HW132069   1.872   4.082   3.373
10390SOL    HW232070   1.911   3.969   3.261
10391SOL     OW32071   1.498   6.017   6.470
10391SOL    HW132072   1.520   6.042   6.564
10391SOL    HW232073   1.565   6.056   6.408
10392SOL     OW32074   5.947   4.463   0.286
10392SOL    HW132075   5.979   4.382   0.237
10392SOL    HW232076   6.025   4.515   0.319
10393SOL     OW32077   1.055   1.474   3.964
10393SOL    HW132078   0.986   1.418   3.918
10393SOL    HW232079   1.019   1.507   4.051
10394SOL     OW32080   2.001   6.563   6.823
10394SOL    HW132081   1.963   6.598   6.737
10394SOL    HW232082   2.078   6.621   6.851
10395SOL     OW32083   0.224   0.956   3.842
10395SOL    HW132084   0.228   1.054   3.828
10395SOL    HW232085   0.146   0.933   3.900
10396SOL     OW32086   1.127   0.135   3.457
10396SOL    HW132087   1.147   0.080   3.538
10396SOL    HW232088   1.070   0.213   3.483
10397SOL     OW32089   4.034   0.650   3.068
10397SOL    HW132090   4.113   0.646   3.007
10397SOL    HW232091   4.032   0.739   3.114
10398SOL     OW32092   6.478   3.027   1.399
10398SOL    HW132093   6.379   3.032   1.382
10398SOL    HW232094   6.497   3.060   1.491
10399SOL     OW32095   4.683   2.164   5.462
10399SOL    HW132096   4.768   2.133   5.418
10399SOL    HW232097   4.605   2.135   5.406
10400SOL     OW32098   2.559   5.680   2.980
10400SOL    HW132099   2.489   5.671   2.910
10400SOL    HW232100   2.517   5.670   3.070
10401SOL     OW32101   6.874   5.743   2.425
10401SOL    HW132102   6.850   5.731   2.521
10401SOL    HW232103   6.825   5.822   2.388
10402SOL     OW32104   0.724   3.370   5.207
10402SOL    HW132105   0.696   3.281   5.242
10402SOL    HW232106   0.767   3.359   5.118
10403SOL     OW32107   5.235   1.469   2.134
10403SOL    HW132108   5.254   1.534   2.060
10403SOL    HW232109   5.141   1.482   2.166
10404SOL     OW32110   0.732   6.551   4.051
10404SOL    HW132111   0.774   6.635   4.085
10404SOL    HW232112   0.667   6.517   4.118
10405SOL     OW32113   1.882   6.124   5.473
10405SOL    HW132114   1.962   6.152   5.525
10405SOL    HW232115   1.799   6.151   5.522
10406SOL     OW32116   2.474   4.625   6.192
10406SOL    HW132117   2.396   4.587   6.242
10406SOL    HW232118   2.514   4.554   6.134
10407SOL     OW32119   1.163   1.810   6.124
10407SOL    HW132120   1.114   1.741   6.071
10407SOL    HW232121   1.251   1.829   6.081
10408SOL     OW32122   4.523   4.596   3.571
10408SOL    HW132123   4.502   4.693   3.558
10408SOL    HW232124   4.570   4.561   3.490
10409SOL     OW32125   0.460   3.825   1.896
10409SOL    HW132126   0.404   3.863   1.970
10409SOL    HW232127   0.557   3.835   1.918
10410SOL     OW32128   4.488   0.857   1.227
10410SOL    HW132129   4.490   0.953   1.253
10410SOL    HW232130   4.474   0.800   1.308
10411SOL     OW32131   2.467   4.932   3.155
10411SOL    HW132132   2.560   4.965   3.136
10411SOL    HW232133   2.411   4.943   3.073
10412SOL     OW32134   1.425   2.372   0.292
10412SOL    HW132135   1.523   2.388   0.279
10412SOL    HW232136   1.394   2.301   0.229
10413SOL     OW32137   0.362   2.086   6.834
10413SOL    HW132138   0.356   2.089   6.734
10413SOL    HW232139   0.372   1.991   6.864
10414SOL     OW32140   5.584   6.518   6.708
10414SOL    HW132141   5.623   6.475   6.790
10414SOL    HW232142   5.565   6.448   6.640
10415SOL     OW32143   0.555   5.926   3.428
10415SOL    HW132144   0.570   5.984   3.347
10415SOL    HW232145   0.534   5.984   3.507
10416SOL     OW32146   6.082   2.242   4.990
10416SOL    HW132147   6.071   2.281   5.081
10416SOL    HW232148   6.011   2.173   4.974
10417SOL     OW32149   4.092   4.753   2.894
10417SOL    HW132150   4.086   4.853   2.890
10417SOL    HW232151   4.171   4.727   2.950
10418SOL     OW32152   6.738   4.293   6.141
10418SOL    HW132153   6.763   4.309   6.045
10418SOL    HW232154   6.660   4.351   6.165
10419SOL     OW32155   2.714   0.937   5.642
10419SOL    HW132156   2.806   0.972   5.656
10419SOL    HW232157   2.667   0.992   5.573
10420SOL     OW32158   6.475   3.197   3.264
10420SOL    HW132159   6.426   3.135   3.202
10420SOL    HW232160   6.453   3.173   3.359
10421SOL     OW32161   1.174   4.650   3.869
10421SOL    HW132162   1.186   4.652   3.969
10421SOL    HW232163   1.200   4.560   3.834
10422SOL     OW32164   6.954   3.469   4.502
10422SOL    HW132165   6.966   3.429   4.593
10422SOL    HW232166   6.859   3.458   4.473
10423SOL     OW32167   3.161   5.002   3.984
10423SOL    HW132168   3.150   5.102   3.983
10423SOL    HW232169   3.234   4.976   3.920
10424SOL     OW32170   3.762   0.957   6.494
10424SOL    HW132171   3.680   0.900   6.491
10424SOL    HW232172   3.843   0.898   6.491
10425SOL     OW32173   2.272   0.817   0.515
10425SOL    HW132174   2.226   0.731   0.493
10425SOL    HW232175   2.367   0.798   0.540
10426SOL     OW32176   5.576   3.025   6.013
10426SOL    HW132177   5.482   3.024   6.048
10426SOL    HW232178   5.626   3.101   6.055
10427SOL     OW32179   5.660   6.356   4.901
10427SOL    HW132180   5.713   6.441   4.905
10427SOL    HW232181   5.582   6.367   4.839
10428SOL     OW32182   1.980   1.331   3.571
10428SOL    HW132183   1.968   1.248   3.626
10428SOL    HW232184   2.062   1.323   3.514
10429SOL     OW32185   0.768   3.509   2.621
10429SOL    HW132186   0.837   3.452   2.575
10429SOL    HW232187   0.677   3.472   2.601
10430SOL     OW32188   3.591   0.612   3.830
10430SOL    HW132189   3.668   0.676   3.828
10430SOL    HW232190   3.548   0.608   3.740
10431SOL     OW32191   3.150   2.075   3.975
10431SOL    HW132192   3.123   2.011   3.903
10431SOL    HW232193   3.068   2.106   4.024
10432SOL     OW32194   6.893   6.687   6.009
10432SOL    HW132195   6.975   6.702   6.065
10432SOL    HW232196   6.818   6.657   6.068
10433SOL     OW32197   1.680   0.035   2.064
10433SOL    HW132198   1.699   6.960   2.054
10433SOL    HW232199   1.614   0.048   2.138
10434SOL     OW32200   4.733   6.459   5.591
10434SOL    HW132201   4.767   6.374   5.552
10434SOL    HW232202   4.742   6.456   5.690
10435SOL     OW32203   0.833   2.727   6.544
10435SOL    HW132204   0.755   2.713   6.605
10435SOL    HW232205   0.806   2.784   6.467
10436SOL     OW32206   0.318   4.467   5.200
10436SOL    HW132207   0.387   4.401   5.230
10436SOL    HW232208   0.236   4.459   5.258
10437SOL     OW32209   5.710   5.023   5.025
10437SOL    HW132210   5.721   4.943   4.966
10437SOL    HW232211   5.768   5.013   5.106
10438SOL     OW32212   6.776   6.335   6.047
10438SOL    HW132213   6.746   6.240   6.045
10438SOL    HW232214   6.868   6.342   6.010
10439SOL     OW32215   6.956   0.292   4.262
10439SOL    HW132216   6.892   0.224   4.298
10439SOL    HW232217   7.013   0.328   4.336
10440SOL     OW32218   6.911   2.130   6.433
10440SOL    HW132219   6.856   2.118   6.515
10440SOL    HW232220   6.964   2.047   6.416
10441SOL     OW32221   3.548   1.939   0.705
10441SOL    HW132222   3.536   1.948   0.804
10441SOL    HW232223   3.462   1.960   0.659
10442SOL     OW32224   2.369   1.780   5.568
10442SOL    HW132225   2.382   1.866   5.520
10442SOL    HW232226   2.288   1.733   5.531
10443SOL     OW32227   0.280   1.171   3.040
10443SOL    HW132228   0.231   1.090   3.073
10443SOL    HW232229   0.369   1.144   3.005
10444SOL     OW32230   4.092   5.470   4.518
10444SOL    HW132231   4.049   5.522   4.444
10444SOL    HW232232   4.142   5.393   4.480
10445SOL     OW32233   1.849   4.283   2.889
10445SOL    HW132234   1.788   4.322   2.820
10445SOL    HW232235   1.821   4.314   2.980
10446SOL     OW32236   2.007   3.891   5.137
10446SOL    HW132237   2.082   3.911   5.074
10446SOL    HW232238   1.981   3.795   5.131
10447SOL     OW32239   0.144   1.675   2.954
10447SOL    HW132240   0.216   1.709   3.014
10447SOL    HW232241   0.139   1.576   2.960
10448SOL     OW32242   2.474   6.575   2.923
10448SOL    HW132243   2.533   6.652   2.901
10448SOL    HW232244   2.513   6.523   2.999
10449SOL     OW32245   3.618   5.807   6.635
10449SOL    HW132246   3.717   5.795   6.643
10449SOL    HW232247   3.581   5.737   6.574
10450SOL     OW32248   7.005   0.285   6.310
10450SOL    HW132249   0.049   0.342   6.358
10450SOL    HW232250   0.029   0.225   6.245
10451SOL     OW32251   2.341   0.833   3.892
10451SOL    HW132252   2.409   0.761   3.897
10451SOL    HW232253   2.376   0.909   3.837
10452SOL     OW32254   6.969   3.427   4.074
10452SOL    HW132255   6.962   3.345   4.130
10452SOL    HW232256   0.013   3.412   4.001
10453SOL     OW32257   4.355   5.518   3.435
10453SOL    HW132258   4.392   5.600   3.392
10453SOL    HW232259   4.304   5.545   3.517
10454SOL     OW32260   6.562   0.868   6.091
10454SOL    HW132261   6.514   0.900   6.009
10454SOL    HW232262   6.631   0.935   6.117
10455SOL     OW32263   5.781   6.508   4.399
10455SOL    HW132264   5.781   6.601   4.362
10455SOL    HW232265   5.822   6.508   4.490
10456SOL     OW32266   0.345   5.073   0.170
10456SOL    HW132267   0.388   5.149   0.219
10456SOL    HW232268   0.254   5.057   0.208
10457SOL     OW32269   4.063   2.589   6.982
10457SOL    HW132270   3.984   2.634   0.002
10457SOL    HW232271   4.035   2.499   6.948
10458SOL     OW32272   6.907   6.225   6.649
10458SOL    HW132273   6.833   6.259   6.706
10458SOL    HW232274   6.926   6.291   6.576
10459SOL     OW32275   6.926   5.632   0.548
10459SOL    HW132276   7.008   5.609   0.601
10459SOL    HW232277   6.857   5.671   0.609
10460SOL     OW32278   0.488   3.376   0.325
10460SOL    HW132279   0.521   3.288   0.360
10460SOL    HW232280   0.404   3.362   0.274
10461SOL     OW32281   0.400   5.597   5.196
10461SOL    HW132282   0.317   5.613   5.249
10461SOL    HW232283   0.476   5.646   5.239
10462SOL     OW32284   4.294   1.725   0.954
10462SOL    HW132285   4.286   1.632   0.917
10462SOL    HW232286   4.390   1.745   0.973
10463SOL     OW32287   5.139   2.925   5.842
10463SOL    HW132288   5.103   2.912   5.749
10463SOL    HW232289   5.086   2.995   5.889
10464SOL     OW32290   6.029   5.616   2.786
10464SOL    HW132291   6.041   5.627   2.884
10464SOL    HW232292   5.932   5.598   2.765
10465SOL     OW32293   5.663   3.622   1.959
10465SOL    HW132294   5.593   3.685   1.992
10465SOL    HW232295   5.668   3.627   1.859
10466SOL     OW32296   5.665   4.863   6.341
10466SOL    HW132297   5.645   4.779   6.391
10466SOL    HW232298   5.709   4.841   6.254
10467SOL     OW32299   1.665   2.835   6.763
10467SOL    HW132300   1.653   2.934   6.762
10467SOL    HW232301   1.626   2.798   6.847
10468SOL     OW32302   2.771   4.746   3.934
10468SOL    HW132303   2.797   4.749   4.031
10468SOL    HW232304   2.680   4.705   3.925
10469SOL     OW32305   6.040   1.549   5.145
10469SOL    HW132306   6.126   1.506   5.119
10469SOL    HW232307   5.981   1.556   5.065
10470SOL     OW32308   2.442   2.485   4.053
10470SOL    HW132309   2.353   2.465   4.012
10470SOL    HW232310   2.513   2.433   4.006
10471SOL     OW32311   3.078   0.523   0.589
10471SOL    HW132312   3.020   0.544   0.510
10471SOL    HW232313   3.136   0.601   0.611
10472SOL     OW32314   3.460   5.410   0.532
10472SOL    HW132315   3.477   5.491   0.477
10472SOL    HW232316   3.547   5.370   0.560
10473SOL     OW32317   5.366   4.712   6.644
10473SOL    HW132318   5.397   4.665   6.726
10473SOL    HW232319   5.266   4.717   6.644
10474SOL     OW32320   5.441   0.824   3.953
10474SOL    HW132321   5.413   0.852   3.862
10474SOL    HW232322   5.361   0.797   4.006
10475SOL     OW32323   1.423   6.331   1.852
10475SOL    HW132324   1.369   6.351   1.770
10475SOL    HW232325   1.446   6.234   1.854
10476SOL     OW32326   3.866   6.299   0.529
10476SOL    HW132327   3.892   6.311   0.625
10476SOL    HW232328   3.901   6.376   0.475
10477SOL     OW32329   6.234   6.486   4.050
10477SOL    HW132330   6.232   6.408   4.112
10477SOL    HW232331   6.163   6.551   4.076
10478SOL     OW32332   6.330   6.757   0.318
10478SOL    HW132333   6.292   6.846   0.342
10478SOL    HW232334   6.381   6.720   0.396
10479SOL     OW32335   0.187   1.713   2.483
10479SOL    HW132336   0.122   1.690   2.556
10479SOL    HW232337   0.136   1.745   2.403
10480SOL     OW32338   1.297   0.259   2.125
10480SOL    HW132339   1.297   0.358   2.140
10480SOL    HW232340   1.304   0.240   2.027
10481SOL     OW32341   0.768   0.020   3.157
10481SOL    HW132342   0.730   0.013   3.250
10481SOL    HW232343   0.714   6.986   3.095
10482SOL     OW32344   5.451   3.498   3.488
10482SOL    HW132345   5.504   3.434   3.432
10482SOL    HW232346   5.369   3.526   3.438
10483SOL     OW32347   5.838   5.181   0.254
10483SOL    HW132348   5.864   5.215   0.345
10483SOL    HW232349   5.811   5.085   0.261
10484SOL     OW32350   6.444   1.169   1.403
10484SOL    HW132351   6.386   1.172   1.484
10484SOL    HW232352   6.394   1.122   1.329
10485SOL     OW32353   4.633   3.812   6.025
10485SOL    HW132354   4.626   3.840   6.121
10485SOL    HW232355   4.678   3.723   6.020
10486SOL     OW32356   6.233   2.912   0.874
10486SOL    HW132357   6.312   2.900   0.934
10486SOL    HW232358   6.216   2.827   0.824
10487SOL     OW32359   5.867   6.237   1.215
10487SOL    HW132360   5.845   6.191   1.130
10487SOL    HW232361   5.932   6.181   1.267
10488SOL     OW32362   2.445   3.002   6.564
10488SOL    HW132363   2.391   3.074   6.520
10488SOL    HW232364   2.493   3.041   6.643
10489SOL     OW32365   6.776   5.761   6.498
10489SOL    HW132366   6.873   5.753   6.480
10489SOL    HW232367   6.746   5.855   6.478
10490SOL     OW32368   6.965   1.115   3.383
10490SOL    HW132369   0.035   1.152   3.379
10490SOL    HW232370   6.900   1.188   3.402
10491SOL     OW32371   2.283   3.993   6.212
10491SOL    HW132372   2.199   4.035   6.178
10491SOL    HW232373   2.360   4.025   6.157
10492SOL     OW32374   4.871   3.537   5.300
10492SOL    HW132375   4.806   3.569   5.231
10492SOL    HW232376   4.911   3.450   5.271
10493SOL     OW32377   3.451   0.721   1.722
10493SOL    HW132378   3.375   0.785   1.730
10493SOL    HW232379   3.493   0.731   1.632
10494SOL     OW32380   5.370   1.789   4.269
10494SOL    HW132381   5.452   1.828   4.310
10494SOL    HW232382   5.359   1.694   4.299
10495SOL     OW32383   2.204   6.897   0.461
10495SOL    HW132384   2.236   6.959   0.390
10495SOL    HW232385   2.121   6.849   0.430
10496SOL     OW32386   7.005   6.914   6.813
10496SOL    HW132387   0.000   7.013   6.817
10496SOL    HW232388   0.068   6.866   6.796
10497SOL     OW32389   1.579   0.476   0.493
10497SOL    HW132390   1.504   0.505   0.552
10497SOL    HW232391   1.665   0.482   0.543
10498SOL     OW32392   1.918   6.948   6.564
10498SOL    HW132393   1.927   6.944   6.663
10498SOL    HW232394   2.002   6.985   6.523
10499SOL     OW32395   2.999   6.025   3.269
10499SOL    HW132396   3.081   6.082   3.279
10499SOL    HW232397   3.018   5.933   3.302
10500SOL     OW32398   0.995   2.378   5.823
10500SOL    HW132399   1.086   2.413   5.843
10500SOL    HW232400   0.929   2.416   5.888
10501SOL     OW32401   2.138   4.325   2.830
10501SOL    HW132402   2.152   4.359   2.737
10501SOL    HW232403   2.047   4.285   2.838
10502SOL     OW32404   3.416   6.707   0.414
10502SOL    HW132405   3.357   6.627   0.420
10502SOL    HW232406   3.426   6.734   0.318
10503SOL     OW32407   4.024   2.857   0.276
10503SOL    HW132408   3.997   2.902   0.361
10503SOL    HW232409   3.953   2.871   0.206
10504SOL     OW32410   2.487   2.980   6.931
10504SOL    HW132411   2.448   3.057   6.881
10504SOL    HW232412   2.501   3.007   0.004
10505SOL     OW32413   6.178   5.997   0.819
10505SOL    HW132414   6.129   6.043   0.746
10505SOL    HW232415   6.156   6.039   0.907
10506SOL     OW32416   0.312   4.433   6.364
10506SOL    HW132417   0.218   4.465   6.373
10506SOL    HW232418   0.318   4.366   6.290
10507SOL     OW32419   1.428   0.483   6.329
10507SOL    HW132420   1.373   0.406   6.362
10507SOL    HW232421   1.523   0.454   6.319
10508SOL     OW32422   5.544   5.158   3.539
10508SOL    HW132423   5.466   5.188   3.593
10508SOL    HW232424   5.629   5.177   3.589
10509SOL     OW32425   1.206   6.766   0.251
10509SOL    HW132426   1.124   6.813   0.284
10509SOL    HW232427   1.248   6.820   0.178
10510SOL     OW32428   5.688   5.299   6.054
10510SOL    HW132429   5.681   5.358   5.973
10510SOL    HW232430   5.600   5.253   6.069
10511SOL     OW32431   4.032   2.994   0.561
10511SOL    HW132432   4.012   2.912   0.615
10511SOL    HW232433   4.129   3.016   0.569
10512SOL     OW32434   4.731   0.582   6.751
10512SOL    HW132435   4.701   0.511   6.686
10512SOL    HW232436   4.791   0.541   6.819
10513SOL     OW32437   0.656   2.026   6.077
10513SOL    HW132438   0.570   1.974   6.076
10513SOL    HW232439   0.711   2.001   5.998
10514SOL     OW32440   6.297   4.121   0.202
10514SOL    HW132441   6.320   4.174   0.283
10514SOL    HW232442   6.312   4.024   0.220
10515SOL     OW32443   6.704   1.593   2.790
10515SOL    HW132444   6.792   1.550   2.812
10515SOL    HW232445   6.676   1.567   2.698
10516SOL     OW32446   4.445   0.702   6.631
10516SOL    HW132447   4.383   0.756   6.686
10516SOL    HW232448   4.528   0.682   6.684
10517SOL     OW32449   6.432   1.795   2.540
10517SOL    HW132450   6.504   1.756   2.483
10517SOL    HW232451   6.380   1.722   2.584
10518SOL     OW32452   1.016   5.657   0.253
10518SOL    HW132453   0.969   5.576   0.218
10518SOL    HW232454   1.001   5.734   0.190
10519SOL     OW32455   3.515   2.767   5.944
10519SOL    HW132456   3.440   2.737   5.885
10519SOL    HW232457   3.487   2.847   5.997
10520SOL     OW32458   2.898   2.778   6.395
10520SOL    HW132459   2.945   2.805   6.479
10520SOL    HW232460   2.809   2.823   6.391
10521SOL     OW32461   6.410   6.369   1.299
10521SOL    HW132462   6.331   6.425   1.277
10521SOL    HW232463   6.452   6.402   1.384
10522SOL     OW32464   6.683   1.147   0.382
10522SOL    HW132465   6.747   1.151   0.460
10522SOL    HW232466   6.731   1.177   0.299
10523SOL     OW32467   0.348   5.313   6.097
10523SOL    HW132468   0.278   5.372   6.055
10523SOL    HW232469   0.335   5.311   6.196
10524SOL     OW32470   1.901   6.563   4.434
10524SOL    HW132471   1.990   6.605   4.419
10524SOL    HW232472   1.837   6.631   4.468
10525SOL     OW32473   1.712   6.742   5.134
10525SOL    HW132474   1.684   6.748   5.038
10525SOL    HW232475   1.773   6.818   5.156
10526SOL     OW32476   0.689   1.010   2.390
10526SOL    HW132477   0.666   0.928   2.339
10526SOL    HW232478   0.605   1.055   2.422
10527SOL     OW32479   0.996   2.680   4.695
10527SOL    HW132480   1.051   2.599   4.715
10527SOL    HW232481   0.937   2.700   4.774
10528SOL     OW32482   0.791   4.878   5.007
10528SOL    HW132483   0.736   4.838   5.081
10528SOL    HW232484   0.736   4.882   4.924
10529SOL     OW32485   0.519   6.285   3.378
10529SOL    HW132486   0.526   6.318   3.473
10529SOL    HW232487   0.598   6.229   3.357
10530SOL     OW32488   2.378   1.977   6.268
10530SOL    HW132489   2.454   2.005   6.209
10530SOL    HW232490   2.343   1.888   6.237
10531SOL     OW32491   1.882   3.474   4.671
10531SOL    HW132492   1.973   3.434   4.655
10531SOL    HW232493   1.830   3.414   4.732
10532SOL     OW32494   2.810   2.652   6.751
10532SOL    HW132495   2.748   2.587   6.795
10532SOL    HW232496   2.802   2.741   6.795
10533SOL     OW32497   3.454   1.309   5.207
10533SOL    HW132498   3.376   1.354   5.163
10533SOL    HW232499   3.532   1.372   5.209
10534SOL     OW32500   6.817   6.237   1.099
10534SOL    HW132501   6.757   6.315   1.085
10534SOL    HW232502   6.908   6.269   1.124
10535SOL     OW32503   0.071   1.315   2.422
10535SOL    HW132504   0.046   1.228   2.379
10535SOL    HW232505   0.129   1.297   2.501
10536SOL     OW32506   4.941   0.280   3.226
10536SOL    HW132507   4.947   0.362   3.283
10536SOL    HW232508   4.948   0.199   3.283
10537SOL     OW32509   2.883   5.309   2.949
10537SOL    HW132510   2.877   5.401   2.986
10537SOL    HW232511   2.939   5.252   3.010
10538SOL     OW32512   4.148   4.095   6.751
10538SOL    HW132513   4.052   4.090   6.725
10538SOL    HW232514   4.164   4.036   6.830
10539SOL     OW32515   0.671   3.854   6.130
10539SOL    HW132516   0.737   3.864   6.204
10539SOL    HW232517   0.578   3.859   6.167
10540SOL     OW32518   1.521   1.058   5.338
10540SOL    HW132519   1.440   1.012   5.300
10540SOL    HW232520   1.529   1.035   5.435
10541SOL     OW32521   3.874   3.427   1.155
10541SOL    HW132522   3.829   3.424   1.065
10541SOL    HW232523   3.820   3.374   1.221
10542SOL     OW32524   0.299   1.966   0.278
10542SOL    HW132525   0.349   2.044   0.241
10542SOL    HW232526   0.241   1.997   0.354
10543SOL     OW32527   0.295   1.966   5.776
10543SOL    HW132528   0.253   1.959   5.686
10543SOL    HW232529   0.233   2.015   5.838
10544SOL     OW32530   2.702   2.110   2.768
10544SOL    HW132531   2.783   2.161   2.739
10544SOL    HW232532   2.665   2.060   2.690
10545SOL     OW32533   7.008   0.194   2.208
10545SOL    HW132534   6.947   0.233   2.277
10545SOL    HW232535   6.984   0.098   2.193
10546SOL     OW32536   1.819   0.132   4.822
10546SOL    HW132537   1.891   0.122   4.753
10546SOL    HW232538   1.858   0.123   4.913
10547SOL     OW32539   4.308   0.868   1.803
10547SOL    HW132540   4.356   0.889   1.889
10547SOL    HW232541   4.241   0.940   1.785
10548SOL     OW32542   5.281   3.944   4.550
10548SOL    HW132543   5.231   3.911   4.470
10548SOL    HW232544   5.320   3.866   4.598
10549SOL     OW32545   0.591   0.488   2.286
10549SOL    HW132546   0.678   0.533   2.307
10549SOL    HW232547   0.598   0.391   2.307
10550SOL     OW32548   5.066   6.711   4.394
10550SOL    HW132549   4.970   6.736   4.400
10550SOL    HW232550   5.083   6.661   4.310
10551SOL     OW32551   1.136   2.380   5.156
10551SOL    HW132552   1.201   2.329   5.213
10551SOL    HW232553   1.070   2.427   5.215
10552SOL     OW32554   4.268   1.909   5.773
10552SOL    HW132555   4.360   1.872   5.755
10552SOL    HW232556   4.207   1.834   5.798
10553SOL     OW32557   0.727   5.199   1.010
10553SOL    HW132558   0.663   5.196   1.087
10553SOL    HW232559   0.739   5.108   0.972
10554SOL     OW32560   6.253   4.897   0.047
10554SOL    HW132561   6.239   4.976   7.009
10554SOL    HW232562   6.349   4.892   0.074
10555SOL     OW32563   3.323   1.806   1.910
10555SOL    HW132564   3.350   1.711   1.899
10555SOL    HW232565   3.341   1.856   1.825
10556SOL     OW32566   2.031   3.270   5.061
10556SOL    HW132567   2.064   3.184   5.098
10556SOL    HW232568   2.090   3.345   5.090
10557SOL     OW32569   0.225   2.425   3.138
10557SOL    HW132570   0.296   2.421   3.208
10557SOL    HW232571   0.265   2.406   3.049
10558SOL     OW32572   4.540   6.514   5.358
10558SOL    HW132573   4.555   6.469   5.269
10558SOL    HW232574   4.619   6.496   5.417
10559SOL     OW32575   4.099   1.621   1.162
10559SOL    HW132576   4.189   1.655   1.136
10559SOL    HW232577   4.029   1.690   1.140
10560SOL     OW32578   1.531   4.769   5.179
10560SOL    HW132579   1.605   4.717   5.135
10560SOL    HW232580   1.469   4.804   5.108
10561SOL     OW32581   1.858   4.930   0.148
10561SOL    HW132582   1.852   4.850   0.208
10561SOL    HW232583   1.847   4.902   0.053
10562SOL     OW32584   4.724   0.036   0.754
10562SOL    HW132585   4.724   0.100   0.677
10562SOL    HW232586   4.652   6.991   0.741
10563SOL     OW32587   1.992   1.370   4.651
10563SOL    HW132588   1.976   1.399   4.556
10563SOL    HW232589   2.010   1.272   4.653
10564SOL     OW32590   6.096   0.463   1.432
10564SOL    HW132591   6.051   0.529   1.373
10564SOL    HW232592   6.180   0.430   1.388
10565SOL     OW32593   6.727   1.099   5.612
10565SOL    HW132594   6.635   1.130   5.591
10565SOL    HW232595   6.793   1.164   5.574
10566SOL     OW32596   3.958   4.109   6.329
10566SOL    HW132597   4.047   4.082   6.292
10566SOL    HW232598   3.888   4.099   6.259
10567SOL     OW32599   1.851   3.108   4.372
10567SOL    HW132600   1.807   3.194   4.399
10567SOL    HW232601   1.949   3.123   4.360
10568SOL     OW32602   5.784   1.116   2.028
10568SOL    HW132603   5.867   1.115   1.972
10568SOL    HW232604   5.804   1.160   2.116
10569SOL     OW32605   6.384   3.418   2.567
10569SOL    HW132606   6.334   3.485   2.512
10569SOL    HW232607   6.482   3.437   2.560
10570SOL     OW32608   1.861   4.549   2.529
10570SOL    HW132609   1.828   4.571   2.437
10570SOL    HW232610   1.932   4.479   2.522
10571SOL     OW32611   6.389   5.535   3.663
10571SOL    HW132612   6.358   5.595   3.590
10571SOL    HW232613   6.478   5.565   3.697
10572SOL     OW32614   5.776   3.452   2.615
10572SOL    HW132615   5.792   3.412   2.525
10572SOL    HW232616   5.807   3.547   2.615
10573SOL     OW32617   5.657   6.030   3.588
10573SOL    HW132618   5.593   6.043   3.512
10573SOL    HW232619   5.607   6.001   3.669
10574SOL     OW32620   1.561   2.325   3.823
10574SOL    HW132621   1.624   2.294   3.894
10574SOL    HW232622   1.557   2.257   3.750
10575SOL     OW32623   0.756   0.459   4.172
10575SOL    HW132624   0.739   0.557   4.166
10575SOL    HW232625   0.819   0.441   4.248
10576SOL     OW32626   1.363   6.105   5.228
10576SOL    HW132627   1.460   6.084   5.220
10576SOL    HW232628   1.320   6.099   5.137
10577SOL     OW32629   2.103   3.309   6.449
10577SOL    HW132630   2.125   3.339   6.356
10577SOL    HW232631   2.019   3.254   6.447
10578SOL     OW32632   5.789   0.631   5.276
10578SOL    HW132633   5.858   0.564   5.303
10578SOL    HW232634   5.749   0.673   5.358
10579SOL     OW32635   4.082   1.289   0.750
10579SOL    HW132636   4.138   1.273   0.668
10579SOL    HW232637   4.114   1.230   0.824
10580SOL     OW32638   6.694   6.618   6.476
10580SOL    HW132639   6.637   6.671   6.539
10580SOL    HW232640   6.779   6.667   6.458
10581SOL     OW32641   6.167   0.426   3.221
10581SOL    HW132642   6.221   0.379   3.290
10581SOL    HW232643   6.070   0.421   3.245
10582SOL     OW32644   3.240   4.996   7.010
10582SOL    HW132645   3.328   4.978   0.030
10582SOL    HW232646   3.177   4.921   0.008
10583SOL     OW32647   3.975   0.814   6.385
10583SOL    HW132648   3.970   0.861   6.297
10583SOL    HW232649   4.068   0.817   6.419
10584SOL     OW32650   5.399   5.924   1.203
10584SOL    HW132651   5.497   5.919   1.185
10584SOL    HW232652   5.379   5.883   1.292
10585SOL     OW32653   1.430   3.077   5.966
10585SOL    HW132654   1.352   3.062   6.028
10585SOL    HW232655   1.450   3.175   5.962
10586SOL     OW32656   2.318   6.068   5.771
10586SOL    HW132657   2.410   6.083   5.805
10586SOL    HW232658   2.321   6.007   5.692
10587SOL     OW32659   6.145   3.372   0.242
10587SOL    HW132660   6.068   3.325   0.199
10587SOL    HW232661   6.126   3.385   0.339
10588SOL     OW32662   0.875   4.663   2.356
10588SOL    HW132663   0.905   4.628   2.267
10588SOL    HW232664   0.776   4.662   2.361
10589SOL     OW32665   5.837   2.711   4.355
10589SOL    HW132666   5.765   2.715   4.424
10589SOL    HW232667   5.835   2.623   4.309
10590SOL     OW32668   1.162   6.708   2.707
10590SOL    HW132669   1.162   6.665   2.616
10590SOL    HW232670   1.255   6.712   2.742
10591SOL     OW32671   1.801   1.776   5.596
10591SOL    HW132672   1.714   1.727   5.605
10591SOL    HW232673   1.864   1.744   5.666
10592SOL     OW32674   6.329   1.225   0.019
10592SOL    HW132675   6.363   1.132   0.031
10592SOL    HW232676   6.318   1.268   0.109
10593SOL     OW32677   2.491   6.084   1.582
10593SOL    HW132678   2.483   6.052   1.488
10593SOL    HW232679   2.527   6.010   1.639
10594SOL     OW32680   6.313   1.778   3.644
10594SOL    HW132681   6.253   1.727   3.583
10594SOL    HW232682   6.405   1.739   3.641
10595SOL     OW32683   3.165   6.931   5.847
10595SOL    HW132684   3.177   6.864   5.920
10595SOL    HW232685   3.172   6.885   5.758
10596SOL     OW32686   3.835   6.781   2.119
10596SOL    HW132687   3.828   6.863   2.176
10596SOL    HW232688   3.757   6.777   2.057
10597SOL     OW32689   2.665   0.963   4.876
10597SOL    HW132690   2.735   0.893   4.892
10597SOL    HW232691   2.588   0.947   4.937
10598SOL     OW32692   1.969   2.641   0.052
10598SOL    HW132693   2.048   2.642   7.013
10598SOL    HW232694   1.931   2.549   0.056
10599SOL     OW32695   6.161   1.612   6.865
10599SOL    HW132696   6.229   1.622   6.793
10599SOL    HW232697   6.176   1.682   6.935
10600SOL     OW32698   2.806   3.165   6.363
10600SOL    HW132699   2.776   3.256   6.333
10600SOL    HW232700   2.737   3.126   6.423
10601SOL     OW32701   2.661   6.441   6.245
10601SOL    HW132702   2.569   6.403   6.260
10601SOL    HW232703   2.653   6.538   6.220
10602SOL     OW32704   4.724   1.129   1.142
10602SOL    HW132705   4.630   1.134   1.176
10602SOL    HW232706   4.740   1.039   1.101
10603SOL     OW32707   1.333   6.170   3.746
10603SOL    HW132708   1.295   6.134   3.831
10603SOL    HW232709   1.277   6.140   3.669
10604SOL     OW32710   6.444   3.974   4.785
10604SOL    HW132711   6.389   3.920   4.848
10604SOL    HW232712   6.507   4.032   4.837
10605SOL     OW32713   1.219   5.260   0.569
10605SOL    HW132714   1.174   5.275   0.481
10605SOL    HW232715   1.192   5.332   0.633
10606SOL     OW32716   0.068   0.796   1.412
10606SOL    HW132717   0.012   0.858   1.357
10606SOL    HW232718   0.165   0.813   1.394
10607SOL     OW32719   4.379   4.685   6.378
10607SOL    HW132720   4.292   4.636   6.380
10607SOL    HW232721   4.378   4.751   6.303
10608SOL     OW32722   6.002   1.587   4.506
10608SOL    HW132723   6.019   1.652   4.432
10608SOL    HW232724   5.904   1.586   4.528
10609SOL     OW32725   3.963   6.023   1.534
10609SOL    HW132726   3.867   6.036   1.560
10609SOL    HW232727   3.984   5.926   1.532
10610SOL     OW32728   1.430   3.612   6.051
10610SOL    HW132729   1.479   3.551   5.990
10610SOL    HW232730   1.340   3.634   6.012
10611SOL     OW32731   5.470   2.929   6.492
10611SOL    HW132732   5.373   2.953   6.488
10611SOL    HW232733   5.522   2.991   6.434
10612SOL     OW32734   2.300   0.303   6.335
10612SOL    HW132735   2.330   0.217   6.295
10612SOL    HW232736   2.369   0.334   6.401
10613SOL     OW32737   0.217   6.868   5.105
10613SOL    HW132738   0.269   6.949   5.132
10613SOL    HW232739   0.275   6.787   5.116
10614SOL     OW32740   6.386   0.692   4.573
10614SOL    HW132741   6.345   0.772   4.615
10614SOL    HW232742   6.329   0.661   4.496
10615SOL     OW32743   4.659   5.574   5.237
10615SOL    HW132744   4.590   5.598   5.306
10615SOL    HW232745   4.682   5.656   5.184
10616SOL     OW32746   2.662   6.065   0.449
10616SOL    HW132747   2.669   6.015   0.535
10616SOL    HW232748   2.643   6.000   0.375
10617SOL     OW32749   2.394   2.589   0.187
10617SOL    HW132750   2.383   2.547   0.097
10617SOL    HW232751   2.361   2.683   0.184
10618SOL     OW32752   6.138   2.195   0.637
10618SOL    HW132753   6.233   2.166   0.629
10618SOL    HW232754   6.110   2.241   0.552
10619SOL     OW32755   0.706   3.738   3.000
10619SOL    HW132756   0.741   3.761   3.091
10619SOL    HW232757   0.768   3.774   2.930
10620SOL     OW32758   1.265   6.323   5.452
10620SOL    HW132759   1.295   6.298   5.360
10620SOL    HW232760   1.211   6.249   5.490
10621SOL     OW32761   1.344   5.900   6.834
10621SOL    HW132762   1.437   5.936   6.834
10621SOL    HW232763   1.280   5.972   6.807
10622SOL     OW32764   3.976   0.579   2.066
10622SOL    HW132765   3.912   0.600   2.140
10622SOL    HW232766   3.959   0.640   1.989
10623SOL     OW32767   5.522   2.541   3.698
10623SOL    HW132768   5.559   2.527   3.790
10623SOL    HW232769   5.581   2.605   3.648
10624SOL     OW32770   1.924   1.018   4.604
10624SOL    HW132771   2.019   1.051   4.606
10624SOL    HW232772   1.896   1.003   4.509
10625SOL     OW32773   0.784   3.961   6.627
10625SOL    HW132774   0.790   4.026   6.702
10625SOL    HW232775   0.691   3.922   6.624
10626SOL     OW32776   0.942   2.513   1.647
10626SOL    HW132777   0.975   2.511   1.552
10626SOL    HW232778   0.909   2.422   1.673
10627SOL     OW32779   6.671   6.411   2.266
10627SOL    HW132780   6.654   6.507   2.242
10627SOL    HW232781   6.622   6.352   2.202
10628SOL     OW32782   6.112   5.367   5.204
10628SOL    HW132783   6.144   5.462   5.195
10628SOL    HW232784   6.093   5.348   5.300
10629SOL     OW32785   2.319   4.835   5.935
10629SOL    HW132786   2.392   4.771   5.960
10629SOL    HW232787   2.258   4.792   5.869
10630SOL     OW32788   6.276   0.627   3.072
10630SOL    HW132789   6.242   0.534   3.084
10630SOL    HW232790   6.280   0.673   3.161
10631SOL     OW32791   0.350   6.925   3.716
10631SOL    HW132792   0.382   6.872   3.637
10631SOL    HW232793   0.406   7.007   3.725
10632SOL     OW32794   6.577   2.460   4.321
10632SOL    HW132795   6.566   2.366   4.291
10632SOL    HW232796   6.488   2.506   4.320
10633SOL     OW32797   2.618   5.187   1.547
10633SOL    HW132798   2.603   5.212   1.643
10633SOL    HW232799   2.536   5.208   1.495
10634SOL     OW32800   3.077   6.064   1.175
10634SOL    HW132801   2.993   6.009   1.183
10634SOL    HW232802   3.141   6.036   1.246
10635SOL     OW32803   3.147   0.971   0.996
10635SOL    HW132804   3.204   0.898   1.034
10635SOL    HW232805   3.205   1.047   0.968
10636SOL     OW32806   0.681   2.025   1.548
10636SOL    HW132807   0.719   2.054   1.460
10636SOL    HW232808   0.605   1.962   1.532
10637SOL     OW32809   3.391   4.066   5.148
10637SOL    HW132810   3.422   4.006   5.074
10637SOL    HW232811   3.447   4.149   5.150
10638SOL     OW32812   0.020   6.539   4.172
10638SOL    HW132813   0.017   6.544   4.072
10638SOL    HW232814   7.014   6.448   4.201
10639SOL     OW32815   0.807   1.205   4.773
10639SOL    HW132816   0.834   1.254   4.691
10639SOL    HW232817   0.713   1.228   4.796
10640SOL     OW32818   4.789   0.646   0.115
10640SOL    HW132819   4.758   0.614   0.205
10640SOL    HW232820   4.834   0.734   0.125
10641SOL     OW32821   5.251   1.950   0.158
10641SOL    HW132822   5.174   1.970   0.098
10641SOL    HW232823   5.243   2.003   0.242
10642SOL     OW32824   0.455   2.235   1.458
10642SOL    HW132825   0.431   2.203   1.549
10642SOL    HW232826   0.446   2.159   1.393
10643SOL     OW32827   2.293   3.719   5.242
10643SOL    HW132828   2.340   3.802   5.215
10643SOL    HW232829   2.357   3.657   5.288
10644SOL     OW32830   4.541   1.516   4.107
10644SOL    HW132831   4.549   1.452   4.184
10644SOL    HW232832   4.490   1.597   4.137
10645SOL     OW32833   1.512   0.726   4.726
10645SOL    HW132834   1.579   0.690   4.662
10645SOL    HW232835   1.481   0.816   4.696
10646SOL     OW32836   0.783   2.635   5.646
10646SOL    HW132837   0.823   2.717   5.604
10646SOL    HW232838   0.841   2.604   5.721
10647SOL     OW32839   6.379   4.755   0.626
10647SOL    HW132840   6.449   4.807   0.675
10647SOL    HW232841   6.319   4.711   0.693
10648SOL     OW32842   4.874   3.074   6.421
10648SOL    HW132843   4.932   3.028   6.489
10648SOL    HW232844   4.784   3.030   6.418
10649SOL     OW32845   0.253   5.219   5.609
10649SOL    HW132846   0.276   5.186   5.518
10649SOL    HW232847   0.167   5.270   5.606
10650SOL     OW32848   2.382   6.246   4.055
10650SOL    HW132849   2.306   6.286   4.105
10650SOL    HW232850   2.394   6.294   3.968
10651SOL     OW32851   4.503   6.401   5.929
10651SOL    HW132852   4.523   6.471   5.998
10651SOL    HW232853   4.406   6.379   5.931
10652SOL     OW32854   3.086   0.495   6.194
10652SOL    HW132855   3.089   0.447   6.105
10652SOL    HW232856   3.003   0.468   6.243
10653SOL     OW32857   5.055   4.457   4.193
10653SOL    HW132858   5.016   4.462   4.101
10653SOL    HW232859   5.013   4.526   4.252
10654SOL     OW32860   2.777   0.803   1.140
10654SOL    HW132861   2.790   0.734   1.068
10654SOL    HW232862   2.680   0.817   1.156
10655SOL     OW32863   3.142   6.214   1.961
10655SOL    HW132864   3.188   6.271   1.892
10655SOL    HW232865   3.043   6.220   1.949
10656SOL     OW32866   6.090   2.263   0.319
10656SOL    HW132867   6.152   2.265   0.241
10656SOL    HW232868   6.014   2.201   0.300
10657SOL     OW32869   5.535   7.016   0.782
10657SOL    HW132870   5.525   0.004   0.683
10657SOL    HW232871   5.499   6.928   0.811
10658SOL     OW32872   1.167   4.984   4.068
10658SOL    HW132873   1.256   4.942   4.086
10658SOL    HW232874   1.141   4.969   3.973
10659SOL     OW32875   5.814   0.101   0.491
10659SOL    HW132876   5.889   0.157   0.455
10659SOL    HW232877   5.846   0.007   0.503
10660SOL     OW32878   4.066   3.707   5.431
10660SOL    HW132879   4.043   3.792   5.384
10660SOL    HW232880   4.128   3.726   5.507
10661SOL     OW32881   0.507   6.439   1.842
10661SOL    HW132882   0.470   6.463   1.753
10661SOL    HW232883   0.450   6.479   1.914
10662SOL     OW32884   6.547   1.595   0.604
10662SOL    HW132885   6.527   1.503   0.570
10662SOL    HW232886   6.623   1.634   0.551
10663SOL     OW32887   0.735   0.550   1.191
10663SOL    HW132888   0.816   0.601   1.219
10663SOL    HW232889   0.763   0.471   1.135
10664SOL     OW32890   2.122   4.778   0.483
10664SOL    HW132891   2.124   4.758   0.385
10664SOL    HW232892   2.167   4.704   0.533
10665SOL     OW32893   6.927   2.248   0.461
10665SOL    HW132894   6.984   2.229   0.381
10665SOL    HW232895   6.867   2.170   0.478
10666SOL     OW32896   2.599   5.905   7.018
10666SOL    HW132897   2.552   5.990   6.994
10666SOL    HW232898   2.538   5.827   7.001
10667SOL     OW32899   3.916   1.777   5.676
10667SOL    HW132900   3.919   1.877   5.670
10667SOL    HW232901   3.835   1.749   5.728
10668SOL     OW32902   1.411   2.163   6.543
10668SOL    HW132903   1.452   2.115   6.465
10668SOL    HW232904   1.483   2.208   6.596
10669SOL     OW32905   1.595   0.157   0.201
10669SOL    HW132906   1.675   0.215   0.187
10669SOL    HW232907   1.539   0.194   0.274
10670SOL     OW32908   5.708   4.819   5.727
10670SOL    HW132909   5.738   4.876   5.804
10670SOL    HW232910   5.618   4.781   5.747
10671SOL     OW32911   2.333   2.705   2.772
10671SOL    HW132912   2.382   2.704   2.859
10671SOL    HW232913   2.248   2.653   2.781
10672SOL     OW32914   0.381   2.623   0.881
10672SOL    HW132915   0.473   2.585   0.879
10672SOL    HW232916   0.354   2.651   0.788
10673SOL     OW32917   2.728   3.040   5.392
10673SOL    HW132918   2.774   2.954   5.414
10673SOL    HW232919   2.698   3.039   5.297
10674SOL     OW32920   3.918   3.619   1.647
10674SOL    HW132921   3.927   3.524   1.618
10674SOL    HW232922   3.974   3.634   1.729
10675SOL     OW32923   0.394   6.797   5.622
10675SOL    HW132924   0.357   6.717   5.576
10675SOL    HW232925   0.493   6.786   5.634
10676SOL     OW32926   5.859   0.103   6.585
10676SOL    HW132927   5.933   0.037   6.595
10676SOL    HW232928   5.898   0.196   6.587
10677SOL     OW32929   0.366   0.884   1.410
10677SOL    HW132930   0.414   0.824   1.345
10677SOL    HW232931   0.431   0.951   1.447
10678SOL     OW32932   2.469   5.825   2.428
10678SOL    HW132933   2.411   5.805   2.508
10678SOL    HW232934   2.460   5.922   2.404
10679SOL     OW32935   5.845   5.321   4.198
10679SOL    HW132936   5.856   5.247   4.265
10679SOL    HW232937   5.751   5.321   4.164
10680SOL     OW32938   0.934   3.394   2.439
10680SOL    HW132939   0.963   3.442   2.357
10680SOL    HW232940   1.015   3.360   2.488
10681SOL     OW32941   6.570   2.759   5.548
10681SOL    HW132942   6.605   2.815   5.623
10681SOL    HW232943   6.510   2.688   5.584
10682SOL     OW32944   0.030   1.561   1.922
10682SOL    HW132945   7.017   1.585   2.012
10682SOL    HW232946   0.018   1.463   1.906
10683SOL     OW32947   1.899   1.798   4.423
10683SOL    HW132948   1.812   1.750   4.436
10683SOL    HW232949   1.912   1.816   4.326
10684SOL     OW32950   6.141   4.617   0.079
10684SOL    HW132951   6.048   4.583   0.063
10684SOL    HW232952   6.160   4.692   0.016
10685SOL     OW32953   0.511   3.047   3.396
10685SOL    HW132954   0.490   3.072   3.491
10685SOL    HW232955   0.604   3.077   3.374
10686SOL     OW32956   2.914   5.642   0.424
10686SOL    HW132957   2.912   5.719   0.488
10686SOL    HW232958   2.969   5.568   0.462
10687SOL     OW32959   0.123   4.680   2.761
10687SOL    HW132960   0.165   4.658   2.673
10687SOL    HW232961   0.076   4.769   2.754
10688SOL     OW32962   6.855   4.850   1.767
10688SOL    HW132963   6.797   4.832   1.847
10688SOL    HW232964   6.828   4.790   1.692
10689SOL     OW32965   0.281   0.479   2.430
10689SOL    HW132966   0.212   0.418   2.467
10689SOL    HW232967   0.369   0.461   2.475
10690SOL     OW32968   4.567   5.075   2.059
10690SOL    HW132969   4.620   5.130   1.995
10690SOL    HW232970   4.597   5.094   2.153
10691SOL     OW32971   6.868   1.231   1.444
10691SOL    HW132972   6.948   1.242   1.384
10691SOL    HW232973   6.846   1.318   1.487
10692SOL     OW32974   3.647   5.735   3.624
10692SOL    HW132975   3.567   5.679   3.645
10692SOL    HW232976   3.690   5.764   3.709
10693SOL     OW32977   6.743   1.435   1.581
10693SOL    HW132978   6.762   1.384   1.665
10693SOL    HW232979   6.650   1.470   1.584
10694SOL     OW32980   4.497   6.169   0.959
10694SOL    HW132981   4.481   6.161   1.058
10694SOL    HW232982   4.529   6.261   0.938
10695SOL     OW32983   6.844   2.277   4.138
10695SOL    HW132984   6.787   2.241   4.212
10695SOL    HW232985   6.818   2.235   4.052
10696SOL     OW32986   6.819   6.192   1.391
10696SOL    HW132987   6.868   6.231   1.470
10696SOL    HW232988   6.885   6.172   1.319
10697SOL     OW32989   1.279   6.186   4.460
10697SOL    HW132990   1.199   6.236   4.426
10697SOL    HW232991   1.250   6.097   4.495
10698SOL     OW32992   2.714   6.990   3.849
10698SOL    HW132993   2.694   7.018   3.943
10698SOL    HW232994   2.768   0.038   3.804
10699SOL     OW32995   3.331   2.048   2.766
10699SOL    HW132996   3.324   1.949   2.750
10699SOL    HW232997   3.356   2.065   2.861
10700SOL     OW32998   6.762   6.631   1.212
10700SOL    HW132999   6.681   6.663   1.162
10700SOL    HW233000   6.842   6.685   1.184
10701SOL     OW33001   3.042   6.380   0.295
10701SOL    HW133002   3.036   6.386   0.196
10701SOL    HW233003   3.033   6.285   0.324
10702SOL     OW33004   5.937   2.732   0.472
10702SOL    HW133005   5.918   2.635   0.459
10702SOL    HW233006   5.970   2.772   0.386
10703SOL     OW33007   3.899   3.735   4.011
10703SOL    HW133008   3.964   3.712   4.083
10703SOL    HW233009   3.869   3.829   4.022
10704SOL     OW33010   5.009   0.268   2.461
10704SOL    HW133011   5.022   0.171   2.441
10704SOL    HW233012   5.071   0.296   2.534
10705SOL     OW33013   0.231   3.008   6.134
10705SOL    HW133014   0.244   3.006   6.035
10705SOL    HW233015   0.147   3.058   6.156
10706SOL     OW33016   3.343   0.881   2.239
10706SOL    HW133017   3.289   0.796   2.242
10706SOL    HW233018   3.303   0.949   2.300
10707SOL     OW33019   6.170   6.908   5.833
10707SOL    HW133020   6.104   6.859   5.890
10707SOL    HW233021   6.255   6.920   5.884
10708SOL     OW33022   4.309   1.047   0.351
10708SOL    HW133023   4.355   1.080   0.269
10708SOL    HW233024   4.281   0.952   0.338
10709SOL     OW33025   6.244   6.674   5.443
10709SOL    HW133026   6.276   6.755   5.492
10709SOL    HW233027   6.318   6.637   5.388
10710SOL     OW33028   6.006   5.282   3.967
10710SOL    HW133029   6.069   5.352   3.935
10710SOL    HW233030   5.945   5.321   4.036
10711SOL     OW33031   1.417   0.120   4.023
10711SOL    HW133032   1.489   0.148   4.087
10711SOL    HW233033   1.357   0.198   4.005
10712SOL     OW33034   3.732   1.121   5.323
10712SOL    HW133035   3.676   1.038   5.323
10712SOL    HW233036   3.751   1.149   5.229
10713SOL     OW33037   1.323   6.023   1.146
10713SOL    HW133038   1.295   5.949   1.085
10713SOL    HW233039   1.252   6.093   1.148
10714SOL     OW33040   0.605   5.530   5.737
10714SOL    HW133041   0.573   5.458   5.676
10714SOL    HW233042   0.632   5.490   5.825
10715SOL     OW33043   4.871   2.006   4.335
10715SOL    HW133044   4.910   2.071   4.400
10715SOL    HW233045   4.795   2.050   4.286
10716SOL     OW33046   6.500   0.510   4.024
10716SOL    HW133047   6.523   0.589   4.082
10716SOL    HW233048   6.403   0.487   4.038
10717SOL     OW33049   0.076   0.455   1.564
10717SOL    HW133050   7.009   0.497   1.573
10717SOL    HW233051   0.068   0.356   1.578
10718SOL     OW33052   6.220   5.037   6.393
10718SOL    HW133053   6.151   4.972   6.360
10718SOL    HW233054   6.223   5.116   6.331
10719SOL     OW33055   5.839   0.703   1.724
10719SOL    HW133056   5.798   0.764   1.791
10719SOL    HW233057   5.896   0.636   1.772
10720SOL     OW33058   0.429   3.869   6.301
10720SOL    HW133059   0.446   3.781   6.345
10720SOL    HW233060   0.438   3.942   6.369
10721SOL     OW33061   4.996   2.870   4.893
10721SOL    HW133062   5.054   2.906   4.820
10721SOL    HW233063   5.051   2.860   4.976
10722SOL     OW33064   6.913   3.821   6.986
10722SOL    HW133065   6.844   3.757   7.019
10722SOL    HW233066   6.944   3.794   6.895
10723SOL     OW33067   5.574   3.940   6.823
10723SOL    HW133068   5.480   3.972   6.809
10723SOL    HW233069   5.608   3.975   6.910
10724SOL     OW33070   4.251   6.336   6.382
10724SOL    HW133071   4.240   6.339   6.283
10724SOL    HW233072   4.211   6.252   6.418
10725SOL     OW33073   0.389   6.019   5.050
10725SOL    HW133074   0.376   5.936   5.104
10725SOL    HW233075   0.484   6.025   5.021
10726SOL     OW33076   5.171   0.737   4.036
10726SOL    HW133077   5.171   0.642   4.005
10726SOL    HW233078   5.166   0.740   4.136
10727SOL     OW33079   2.446   6.556   5.979
10727SOL    HW133080   2.428   6.536   6.076
10727SOL    HW233081   2.365   6.531   5.925
10728SOL     OW33082   4.942   6.442   3.209
10728SOL    HW133083   4.880   6.516   3.235
10728SOL    HW233084   5.034   6.464   3.240
10729SOL     OW33085   5.986   2.518   2.965
10729SOL    HW133086   5.925   2.597   2.963
10729SOL    HW233087   6.071   2.541   2.916
10730SOL     OW33088   1.998   6.612   2.908
10730SOL    HW133089   1.984   6.676   2.983
10730SOL    HW233090   1.954   6.647   2.825
10731SOL     OW33091   3.417   6.900   6.613
10731SOL    HW133092   3.319   6.912   6.597
10731SOL    HW233093   3.441   6.943   6.700
10732SOL     OW33094   5.807   5.929   3.370
10732SOL    HW133095   5.734   5.965   3.427
10732SOL    HW233096   5.798   5.830   3.362
10733SOL     OW33097   6.958   0.316   6.018
10733SOL    HW133098   6.899   0.371   6.078
10733SOL    HW233099   0.029   0.351   6.024
10734SOL     OW33100   1.586   1.143   5.654
10734SOL    HW133101   1.507   1.199   5.630
10734SOL    HW233102   1.558   1.073   5.720
10735SOL     OW33103   1.233   5.443   1.799
10735SOL    HW133104   1.231   5.510   1.725
10735SOL    HW233105   1.314   5.386   1.789
10736SOL     OW33106   6.358   0.018   3.900
10736SOL    HW133107   6.455   7.018   3.909
10736SOL    HW233108   6.339   0.042   3.805
10737SOL     OW33109   6.773   1.250   1.805
10737SOL    HW133110   6.740   1.165   1.763
10737SOL    HW233111   6.737   1.258   1.898
10738SOL     OW33112   2.921   0.570   2.001
10738SOL    HW133113   2.849   0.617   1.950
10738SOL    HW233114   2.924   0.606   2.094
10739SOL     OW33115   5.871   2.129   2.848
10739SOL    HW133116   5.895   2.042   2.804
10739SOL    HW233117   5.895   2.205   2.787
10740SOL     OW33118   1.339   6.641   6.285
10740SOL    HW133119   1.324   6.606   6.377
10740SOL    HW233120   1.280   6.592   6.221
10741SOL     OW33121   2.462   2.579   3.398
10741SOL    HW133122   2.499   2.494   3.359
10741SOL    HW233123   2.488   2.585   3.494
10742SOL     OW33124   6.160   6.036   2.742
10742SOL    HW133125   6.201   6.106   2.683
10742SOL    HW233126   6.085   6.077   2.795
10743SOL     OW33127   3.775   0.880   5.943
10743SOL    HW133128   3.801   0.815   5.873
10743SOL    HW233129   3.715   0.950   5.904
10744SOL     OW33130   1.963   0.345   0.313
10744SOL    HW133131   1.982   0.295   0.398
10744SOL    HW233132   1.956   0.443   0.334
10745SOL     OW33133   2.235   4.958   1.428
10745SOL    HW133134   2.234   4.860   1.410
10745SOL    HW233135   2.199   4.976   1.520
10746SOL     OW33136   1.668   6.195   6.296
10746SOL    HW133137   1.634   6.197   6.202
10746SOL    HW233138   1.633   6.273   6.346
10747SOL     OW33139   6.428   1.625   4.345
10747SOL    HW133140   6.442   1.626   4.444
10747SOL    HW233141   6.436   1.532   4.310
10748SOL     OW33142   3.929   6.148   1.288
10748SOL    HW133143   3.873   6.231   1.289
10748SOL    HW233144   3.944   6.116   1.381
10749SOL     OW33145   5.600   5.427   2.972
10749SOL    HW133146   5.561   5.338   2.995
10749SOL    HW233147   5.696   5.415   2.946
10750SOL     OW33148   4.784   2.519   4.267
10750SOL    HW133149   4.735   2.606   4.264
10750SOL    HW233150   4.831   2.504   4.180
10751SOL     OW33151   0.869   4.538   5.160
10751SOL    HW133152   0.796   4.534   5.228
10751SOL    HW233153   0.907   4.631   5.157
10752SOL     OW33154   6.151   6.095   1.081
10752SOL    HW133155   6.060   6.062   1.105
10752SOL    HW233156   6.220   6.046   1.134
10753SOL     OW33157   4.718   5.900   4.182
10753SOL    HW133158   4.732   5.863   4.090
10753SOL    HW233159   4.733   5.998   4.181
10754SOL     OW33160   1.517   3.316   1.710
10754SOL    HW133161   1.589   3.260   1.752
10754SOL    HW233162   1.440   3.322   1.773
10755SOL     OW33163   6.189   3.279   1.148
10755SOL    HW133164   6.275   3.272   1.098
10755SOL    HW233165   6.202   3.245   1.241
10756SOL     OW33166   0.073   2.598   0.756
10756SOL    HW133167   7.009   2.606   0.804
10756SOL    HW233168   0.061   2.541   0.675
10757SOL     OW33169   6.829   4.296   1.548
10757SOL    HW133170   6.916   4.280   1.594
10757SOL    HW233171   6.837   4.269   1.452
10758SOL     OW33172   0.862   0.043   6.732
10758SOL    HW133173   0.922   0.086   6.800
10758SOL    HW233174   0.859   0.100   6.650
10759SOL     OW33175   2.322   2.354   6.154
10759SOL    HW133176   2.395   2.422   6.161
10759SOL    HW233177   2.234   2.397   6.173
10760SOL     OW33178   0.168   5.514   0.318
10760SOL    HW133179   0.218   5.598   0.295
10760SOL    HW233180   0.093   5.501   0.254
10761SOL     OW33181   0.754   1.940   6.360
10761SOL    HW133182   0.845   1.904   6.382
10761SOL    HW233183   0.736   1.927   6.262
10762SOL     OW33184   3.653   6.543   5.930
10762SOL    HW133185   3.561   6.581   5.921
10762SOL    HW233186   3.650   6.444   5.916
10763SOL     OW33187   5.548   0.647   2.995
10763SOL    HW133188   5.631   0.604   2.960
10763SOL    HW233189   5.469   0.612   2.945
10764SOL     OW33190   4.084   0.868   4.749
10764SOL    HW133191   4.145   0.810   4.803
10764SOL    HW233192   4.122   0.960   4.742
10765SOL     OW33193   6.975   1.689   2.647
10765SOL    HW133194   6.995   1.771   2.701
10765SOL    HW233195   6.976   1.608   2.706
10766SOL     OW33196   1.991   5.177   6.314
10766SOL    HW133197   2.090   5.163   6.323
10766SOL    HW233198   1.961   5.146   6.224
10767SOL     OW33199   1.548   5.760   0.863
10767SOL    HW133200   1.638   5.785   0.828
10767SOL    HW233201   1.522   5.825   0.935
10768SOL     OW33202   5.951   5.792   0.630
10768SOL    HW133203   5.879   5.724   0.649
10768SOL    HW233204   6.017   5.753   0.566
10769SOL     OW33205   3.200   3.247   4.855
10769SOL    HW133206   3.101   3.257   4.870
10769SOL    HW233207   3.232   3.322   4.796
10770SOL     OW33208   5.206   0.079   3.797
10770SOL    HW133209   5.285   0.018   3.801
10770SOL    HW233210   5.231   0.165   3.753
10771SOL     OW33211   4.789   5.936   5.865
10771SOL    HW133212   4.736   6.019   5.882
10771SOL    HW233213   4.754   5.861   5.920
10772SOL     OW33214   5.941   4.683   2.692
10772SOL    HW133215   5.946   4.664   2.594
10772SOL    HW233216   5.977   4.775   2.710
10773SOL     OW33217   6.634   4.742   0.953
10773SOL    HW133218   6.636   4.799   1.035
10773SOL    HW233219   6.547   4.758   0.905
10774SOL     OW33220   1.625   3.173   0.573
10774SOL    HW133221   1.684   3.130   0.641
10774SOL    HW233222   1.660   3.152   0.481
10775SOL     OW33223   1.029   4.179   1.207
10775SOL    HW133224   1.076   4.199   1.121
10775SOL    HW233225   0.986   4.262   1.241
10776SOL     OW33226   0.990   1.905   3.344
10776SOL    HW133227   0.983   1.863   3.253
10776SOL    HW233228   1.016   2.001   3.335
10777SOL     OW33229   3.635   1.324   2.322
10777SOL    HW133230   3.680   1.245   2.281
10777SOL    HW233231   3.692   1.362   2.394
10778SOL     OW33232   5.880   6.376   3.749
10778SOL    HW133233   5.853   6.372   3.653
10778SOL    HW233234   5.959   6.437   3.758
10779SOL     OW33235   5.521   4.025   4.415
10779SOL    HW133236   5.534   4.123   4.402
10779SOL    HW233237   5.435   4.010   4.464
10780SOL     OW33238   1.226   5.773   4.728
10780SOL    HW133239   1.312   5.794   4.775
10780SOL    HW233240   1.175   5.706   4.780
10781SOL     OW33241   6.053   2.239   5.279
10781SOL    HW133242   6.093   2.327   5.304
10781SOL    HW233243   6.059   2.176   5.358
10782SOL     OW33244   1.398   3.077   5.025
10782SOL    HW133245   1.319   3.038   4.977
10782SOL    HW233246   1.380   3.173   5.047
10783SOL     OW33247   1.029   2.563   3.056
10783SOL    HW133248   1.108   2.564   2.995
10783SOL    HW233249   0.959   2.625   3.022
10784SOL     OW33250   3.706   6.370   2.047
10784SOL    HW133251   3.666   6.418   1.969
10784SOL    HW233252   3.799   6.404   2.063
10785SOL     OW33253   2.002   6.146   2.415
10785SOL    HW133254   1.981   6.083   2.340
10785SOL    HW233255   2.016   6.095   2.499
10786SOL     OW33256   4.113   1.129   1.748
10786SOL    HW133257   4.131   1.103   1.843
10786SOL    HW233258   4.181   1.196   1.718
10787SOL     OW33259   3.682   1.129   3.483
10787SOL    HW133260   3.775   1.133   3.447
10787SOL    HW233261   3.664   1.211   3.538
10788SOL     OW33262   0.692   4.715   0.681
10788SOL    HW133263   0.667   4.620   0.659
10788SOL    HW233264   0.611   4.766   0.708
10789SOL     OW33265   6.495   1.344   0.458
10789SOL    HW133266   6.580   1.296   0.436
10789SOL    HW233267   6.441   1.356   0.374
10790SOL     OW33268   6.939   2.439   4.885
10790SOL    HW133269   6.978   2.349   4.906
10790SOL    HW233270   6.991   2.510   4.933
10791SOL     OW33271   1.644   1.647   3.535
10791SOL    HW133272   1.557   1.686   3.506
10791SOL    HW233273   1.707   1.643   3.457
10792SOL     OW33274   3.597   2.414   1.273
10792SOL    HW133275   3.601   2.482   1.346
10792SOL    HW233276   3.507   2.416   1.230
10793SOL     OW33277   4.914   1.382   5.119
10793SOL    HW133278   4.985   1.446   5.091
10793SOL    HW233279   4.913   1.375   5.219
10794SOL     OW33280   4.349   3.509   0.519
10794SOL    HW133281   4.400   3.594   0.509
10794SOL    HW233282   4.285   3.516   0.595
10795SOL     OW33283   6.991   3.286   3.297
10795SOL    HW133284   0.060   3.319   3.316
10795SOL    HW233285   6.970   3.296   3.200
10796SOL     OW33286   6.905   6.732   0.106
10796SOL    HW133287   6.954   6.724   0.019
10796SOL    HW233288   6.950   6.800   0.163
10797SOL     OW33289   3.923   3.544   0.324
10797SOL    HW133290   3.914   3.547   0.424
10797SOL    HW233291   3.874   3.464   0.289
10798SOL     OW33292   2.359   0.077   6.197
10798SOL    HW133293   2.315   0.044   6.113
10798SOL    HW233294   2.445   0.028   6.211
10799SOL     OW33295   2.909   1.856   2.601
10799SOL    HW133296   2.979   1.927   2.606
10799SOL    HW233297   2.838   1.883   2.535
10800SOL     OW33298   1.621   0.214   5.516
10800SOL    HW133299   1.660   0.278   5.448
10800SOL    HW233300   1.581   0.266   5.591
10801SOL     OW33301   2.668   6.688   6.092
10801SOL    HW133302   2.585   6.666   6.039
10801SOL    HW233303   2.735   6.731   6.032
10802SOL     OW33304   0.176   4.169   5.052
10802SOL    HW133305   0.261   4.174   5.104
10802SOL    HW233306   0.137   4.261   5.042
10803SOL     OW33307   6.730   4.610   5.323
10803SOL    HW133308   6.720   4.526   5.377
10803SOL    HW233309   6.688   4.686   5.373
10804SOL     OW33310   5.417   4.979   1.633
10804SOL    HW133311   5.441   5.069   1.669
10804SOL    HW233312   5.448   4.908   1.696
10805SOL     OW33313   4.434   6.608   0.714
10805SOL    HW133314   4.440   6.554   0.631
10805SOL    HW233315   4.344   6.594   0.757
10806SOL     OW33316   4.867   3.979   0.142
10806SOL    HW133317   4.767   3.989   0.142
10806SOL    HW233318   4.893   3.910   0.075
10807SOL     OW33319   4.151   6.272   3.623
10807SOL    HW133320   4.052   6.260   3.619
10807SOL    HW233321   4.177   6.306   3.713
10808SOL     OW33322   0.191   2.863   6.348
10808SOL    HW133323   0.243   2.777   6.347
10808SOL    HW233324   0.208   2.913   6.263
10809SOL     OW33325   2.155   0.763   3.524
10809SOL    HW133326   2.055   0.760   3.533
10809SOL    HW233327   2.181   0.845   3.474
10810SOL     OW33328   6.551   1.233   5.068
10810SOL    HW133329   6.553   1.137   5.095
10810SOL    HW233330   6.639   1.276   5.089
10811SOL     OW33331   4.478   4.675   5.360
10811SOL    HW133332   4.514   4.696   5.451
10811SOL    HW233333   4.548   4.693   5.292
10812SOL     OW33334   6.486   2.463   2.807
10812SOL    HW133335   6.540   2.547   2.809
10812SOL    HW233336   6.483   2.427   2.714
10813SOL     OW33337   3.042   6.397   1.742
10813SOL    HW133338   2.976   6.444   1.800
10813SOL    HW233339   3.005   6.388   1.650
10814SOL     OW33340   1.671   0.309   4.668
10814SOL    HW133341   1.723   0.234   4.710
10814SOL    HW233342   1.610   0.350   4.736
10815SOL     OW33343   5.150   3.151   3.113
10815SOL    HW133344   5.231   3.141   3.171
10815SOL    HW233345   5.085   3.078   3.133
10816SOL     OW33346   2.065   1.630   2.371
10816SOL    HW133347   2.010   1.692   2.426
10816SOL    HW233348   2.161   1.656   2.378
10817SOL     OW33349   4.364   6.807   2.071
10817SOL    HW133350   4.279   6.826   2.120
10817SOL    HW233351   4.441   6.824   2.132
10818SOL     OW33352   4.715   3.210   6.676
10818SOL    HW133353   4.629   3.166   6.650
10818SOL    HW233354   4.695   3.295   6.726
10819SOL     OW33355   0.003   4.099   6.753
10819SOL    HW133356   0.040   4.177   6.702
10819SOL    HW233357   0.053   4.016   6.727
10820SOL     OW33358   0.309   6.368   4.671
10820SOL    HW133359   0.212   6.389   4.659
10820SOL    HW233360   0.327   6.350   4.768
10821SOL     OW33361   6.793   0.645   0.678
10821SOL    HW133362   6.701   0.653   0.717
10821SOL    HW233363   6.843   0.572   0.725
10822SOL     OW33364   0.968   4.148   2.171
10822SOL    HW133365   0.997   4.057   2.199
10822SOL    HW233366   0.868   4.150   2.163
10823SOL     OW33367   1.579   0.378   0.993
10823SOL    HW133368   1.629   0.320   0.928
10823SOL    HW233369   1.585   0.338   1.084
10824SOL     OW33370   5.473   0.415   2.856
10824SOL    HW133371   5.498   0.433   2.760
10824SOL    HW233372   5.375   0.392   2.860
10825SOL     OW33373   3.696   1.368   1.096
10825SOL    HW133374   3.755   1.332   1.168
10825SOL    HW233375   3.681   1.466   1.110
10826SOL     OW33376   6.723   3.132   2.434
10826SOL    HW133377   6.748   3.106   2.527
10826SOL    HW233378   6.804   3.161   2.383
10827SOL     OW33379   6.744   2.623   4.111
10827SOL    HW133380   6.730   2.623   4.012
10827SOL    HW233381   6.677   2.563   4.154
10828SOL     OW33382   1.039   5.723   0.504
10828SOL    HW133383   1.007   5.709   0.410
10828SOL    HW233384   1.118   5.784   0.504
10829SOL     OW33385   3.081   3.523   1.288
10829SOL    HW133386   3.041   3.516   1.379
10829SOL    HW233387   3.171   3.479   1.286
10830SOL     OW33388   4.644   2.758   4.310
10830SOL    HW133389   4.716   2.807   4.361
10830SOL    HW233390   4.591   2.701   4.373
10831SOL     OW33391   5.414   1.736   2.678
10831SOL    HW133392   5.433   1.649   2.724
10831SOL    HW233393   5.356   1.793   2.737
10832SOL     OW33394   0.039   1.842   0.794
10832SOL    HW133395   0.125   1.798   0.766
10832SOL    HW233396   6.996   1.771   0.820
10833SOL     OW33397   3.405   6.906   4.968
10833SOL    HW133398   3.502   6.899   4.944
10833SOL    HW233399   3.380   7.003   4.975
10834SOL     OW33400   0.707   1.679   4.919
10834SOL    HW133401   0.701   1.736   4.837
10834SOL    HW233402   0.676   1.587   4.898
10835SOL     OW33403   6.361   1.300   1.982
10835SOL    HW133404   6.344   1.331   2.076
10835SOL    HW233405   6.332   1.205   1.973
10836SOL     OW33406   1.861   2.420   6.938
10836SOL    HW133407   1.859   2.510   6.896
10836SOL    HW233408   1.897   2.353   6.872
10837SOL     OW33409   0.332   4.960   1.049
10837SOL    HW133410   0.302   4.866   1.038
10837SOL    HW233411   0.298   5.015   0.973
10838SOL     OW33412   5.964   6.723   6.872
10838SOL    HW133413   6.016   6.673   6.803
10838SOL    HW233414   6.027   6.771   6.933
10839SOL     OW33415   2.153   2.067   0.441
10839SOL    HW133416   2.192   2.157   0.423
10839SOL    HW233417   2.197   2.027   0.522
10840SOL     OW33418   4.154   5.459   1.664
10840SOL    HW133419   4.215   5.511   1.604
10840SOL    HW233420   4.208   5.392   1.716
10841SOL     OW33421   3.700   4.478   6.575
10841SOL    HW133422   3.755   4.497   6.494
10841SOL    HW233423   3.604   4.469   6.549
10842SOL     OW33424   6.251   2.744   1.513
10842SOL    HW133425   6.227   2.650   1.533
10842SOL    HW233426   6.333   2.746   1.455
10843SOL     OW33427   0.584   1.807   1.851
10843SOL    HW133428   0.677   1.830   1.823
10843SOL    HW233429   0.563   1.851   1.938
10844SOL     OW33430   4.756   7.008   3.783
10844SOL    HW133431   4.828   0.030   3.836
10844SOL    HW233432   4.702   6.950   3.845
10845SOL     OW33433   1.580   2.272   0.772
10845SOL    HW133434   1.486   2.279   0.808
10845SOL    HW233435   1.631   2.204   0.824
10846SOL     OW33436   3.825   1.474   1.556
10846SOL    HW133437   3.860   1.457   1.464
10846SOL    HW233438   3.895   1.449   1.623
10847SOL     OW33439   3.964   2.971   6.354
10847SOL    HW133440   3.910   2.925   6.424
10847SOL    HW233441   4.046   3.011   6.395
10848SOL     OW33442   1.109   0.792   6.246
10848SOL    HW133443   1.163   0.711   6.223
10848SOL    HW233444   1.167   0.873   6.246
10849SOL     OW33445   2.893   4.780   4.395
10849SOL    HW133446   2.932   4.797   4.304
10849SOL    HW233447   2.799   4.747   4.385
10850SOL     OW33448   5.230   6.649   0.536
10850SOL    HW133449   5.174   6.711   0.480
10850SOL    HW233450   5.300   6.701   0.584
10851SOL     OW33451   4.042   1.947   6.449
10851SOL    HW133452   3.970   1.982   6.507
10851SOL    HW233453   4.115   2.015   6.441
10852SOL     OW33454   0.214   0.442   5.994
10852SOL    HW133455   0.215   0.539   5.970
10852SOL    HW233456   0.262   0.390   5.923
10853SOL     OW33457   2.442   1.404   4.502
10853SOL    HW133458   2.536   1.427   4.477
10853SOL    HW233459   2.399   1.484   4.543
10854SOL     OW33460   0.083   6.371   0.053
10854SOL    HW133461   0.069   6.413   0.143
10854SOL    HW233462   7.018   6.339   0.017
10855SOL     OW33463   1.309   6.379   1.001
10855SOL    HW133464   1.393   6.351   0.956
10855SOL    HW233465   1.259   6.442   0.942
10856SOL     OW33466   6.541   6.756   6.643
10856SOL    HW133467   6.593   6.827   6.692
10856SOL    HW233468   6.522   6.681   6.706
10857SOL     OW33469   5.903   1.458   4.002
10857SOL    HW133470   5.840   1.445   4.079
10857SOL    HW233471   5.994   1.479   4.038
10858SOL     OW33472   2.241   2.286   0.174
10858SOL    HW133473   2.241   2.316   0.269
10858SOL    HW233474   2.324   2.232   0.157
10859SOL     OW33475   0.734   4.379   2.195
10859SOL    HW133476   0.681   4.410   2.273
10859SOL    HW233477   0.717   4.281   2.179
10860SOL     OW33478   6.413   2.213   0.338
10860SOL    HW133479   6.389   2.278   0.410
10860SOL    HW233480   6.502   2.237   0.299
10861SOL     OW33481   3.241   2.828   1.966
10861SOL    HW133482   3.204   2.812   2.057
10861SOL    HW233483   3.336   2.858   1.973
10862SOL     OW33484   3.623   3.210   5.980
10862SOL    HW133485   3.586   3.286   5.926
10862SOL    HW233486   3.552   3.141   5.992
10863SOL     OW33487   2.220   1.736   2.798
10863SOL    HW133488   2.179   1.651   2.765
10863SOL    HW233489   2.320   1.731   2.788
10864SOL     OW33490   3.122   4.738   1.866
10864SOL    HW133491   3.061   4.669   1.827
10864SOL    HW233492   3.182   4.694   1.934
10865SOL     OW33493   4.220   1.424   3.272
10865SOL    HW133494   4.222   1.501   3.209
10865SOL    HW233495   4.307   1.375   3.269
10866SOL     OW33496   6.973   3.568   3.183
10866SOL    HW133497   6.918   3.509   3.124
10866SOL    HW233498   6.913   3.619   3.245
10867SOL     OW33499   4.214   3.491   0.296
10867SOL    HW133500   4.283   3.503   0.367
10867SOL    HW233501   4.125   3.521   0.331
10868SOL     OW33502   1.442   1.339   4.382
10868SOL    HW133503   1.532   1.297   4.393
10868SOL    HW233504   1.425   1.403   4.457
10869NA      NA33505   0.073   2.429   5.612
10870NA      NA33506   4.275   4.692   5.221
10871NA      NA33507   1.005   4.720   2.792
10872NA      NA33508   5.647   4.303   3.177
10873NA      NA33509   4.176   2.108   5.307
10874NA      NA33510   2.540   4.980   0.491
10875NA      NA33511   1.067   5.157   6.912
10876NA      NA33512   3.505   4.280   1.342
10877NA      NA33513   4.287   5.266   0.866
10878NA      NA33514   3.365   0.776   6.475
10879NA      NA33515   5.532   6.280   2.072
10880NA      NA33516   1.579   6.806   5.588
10881NA      NA33517   4.211   5.067   1.837
10882NA      NA33518   3.479   3.274   6.738
   7.02282   7.02282   7.02282
